BioSimSpace TIP3P water box
202776
    2SOL     OW   31   0.230   0.628   0.113
    2SOL    HW1   32   0.137   0.626   0.150
    2SOL    HW2   33   0.231   0.589   0.021
    3SOL     OW   34   0.225   0.275   0.996
    3SOL    HW1   35   0.260   0.258   1.088
    3SOL    HW2   36   0.137   0.230   0.984
    4SOL     OW   37   0.019   0.368   0.647
    4SOL    HW1   38  -0.063   0.411   0.686
    4SOL    HW2   39  -0.009   0.295   0.584
    5SOL     OW   40   0.569   1.275   1.165
    5SOL    HW1   41   0.476   1.268   1.128
    5SOL    HW2   42   0.580   1.364   1.209
    6SOL     OW   43   1.555   1.511   0.703
    6SOL    HW1   44   1.498   1.495   0.784
    6SOL    HW2   45   1.496   1.521   0.623
    7SOL     OW   46   1.135   0.703   0.717
    7SOL    HW1   47   1.192   0.781   0.692
    7SOL    HW2   48   1.075   0.729   0.793
    8SOL     OW   49   1.755   0.607   0.231
    8SOL    HW1   50   1.743   0.594   0.132
    8SOL    HW2   51   1.725   0.526   0.280
    9SOL     OW   52   0.768   1.144   1.023
    9SOL    HW1   53   0.690   1.161   1.083
    9SOL    HW2   54   0.802   1.231   0.987
   10SOL     OW   55   0.850   0.798   1.823
   10SOL    HW1   56   0.846   0.874   1.888
   10SOL    HW2   57   0.872   0.834   1.732
   11SOL     OW   58   0.685   1.012   0.665
   11SOL    HW1   59   0.754   0.996   0.735
   11SOL    HW2   60   0.612   1.069   0.703
   12SOL     OW   61   0.686   1.161   1.803
   12SOL    HW1   62   0.746   1.240   1.817
   12SOL    HW2   63   0.600   1.192   1.762
   13SOL     OW   64   0.335   1.435   1.061
   13SOL    HW1   65   0.257   1.404   1.008
   13SOL    HW2   66   0.393   1.493   1.004
   14SOL     OW   67   1.460   1.505   1.339
   14SOL    HW1   68   1.484   1.599   1.365
   14SOL    HW2   69   1.444   1.451   1.421
   15SOL     OW   70   0.438   0.392   1.499
   15SOL    HW1   71   0.520   0.336   1.508
   15SOL    HW2   72   0.357   0.334   1.503
   16SOL     OW   73   1.603   0.447   0.737
   16SOL    HW1   74   1.529   0.493   0.687
   16SOL    HW2   75   1.654   0.515   0.790
   17SOL     OW   76   0.231   1.713   0.483
   17SOL    HW1   77   0.265   1.790   0.537
   17SOL    HW2   78   0.275   1.713   0.393
   18SOL     OW   79   1.127   1.341   1.690
   18SOL    HW1   80   1.174   1.341   1.778
   18SOL    HW2   81   1.079   1.254   1.679
   19SOL     OW   82   0.230   1.434   0.538
   19SOL    HW1   83   0.204   1.530   0.538
   19SOL    HW2   84   0.159   1.380   0.583
   20SOL     OW   85   0.240   1.091   0.886
   20SOL    HW1   86   0.254   1.007   0.938
   20SOL    HW2   87   0.185   1.155   0.941
   21SOL     OW   88   0.620   1.786   1.439
   21SOL    HW1   89   0.528   1.769   1.474
   21SOL    HW2   90   0.648   1.878   1.465
   22SOL     OW   91   0.606   0.964   0.123
   22SOL    HW1   92   0.613   1.048   0.069
   22SOL    HW2   93   0.652   0.977   0.211
   23SOL     OW   94   1.594   0.114   1.480
   23SOL    HW1   95   1.576   0.181   1.408
   23SOL    HW2   96   1.591   0.160   1.569
   24SOL     OW   97   0.122   0.643   0.563
   24SOL    HW1   98   0.077   0.555   0.580
   24SOL    HW2   99   0.121   0.697   0.647
   25SOL     OW  100   1.842   1.767   0.359
   25SOL    HW1  101   1.896   1.738   0.439
   25SOL    HW2  102   1.872   1.857   0.330
   26SOL     OW  103   0.027   1.596   0.117
   26SOL    HW1  104   0.008   1.500   0.138
   26SOL    HW2  105  -0.006   1.654   0.192
   27SOL     OW  106   1.689   0.922   0.612
   27SOL    HW1  107   1.784   0.893   0.620
   27SOL    HW2  108   1.681   0.987   0.537
   28SOL     OW  109   1.641   1.108   0.432
   28SOL    HW1  110   1.727   1.110   0.380
   28SOL    HW2  111   1.655   1.155   0.520
   29SOL     OW  112   0.113   0.737   1.597
   29SOL    HW1  113   0.201   0.724   1.642
   29SOL    HW2  114   0.100   0.834   1.575
   30SOL     OW  115   0.613   1.365   0.726
   30SOL    HW1  116   0.564   1.278   0.735
   30SOL    HW2  117   0.590   1.408   0.639
   31SOL     OW  118   1.293   1.228   1.423
   31SOL    HW1  119   1.330   1.155   1.365
   31SOL    HW2  120   1.345   1.233   1.508
   32SOL     OW  121   0.809   0.004   0.502
   32SOL    HW1  122   0.849   0.095   0.493
   32SOL    HW2  123   0.709   0.012   0.508
   33SOL     OW  124   0.197   0.976   1.264
   33SOL    HW1  125   0.286   0.931   1.250
   33SOL    HW2  126   0.124   0.911   1.245
   34SOL     OW  127   1.525   0.999   0.190
   34SOL    HW1  128   1.462   0.923   0.203
   34SOL    HW2  129   1.573   1.017   0.276
   35SOL     OW  130   1.187   1.792   1.616
   35SOL    HW1  131   1.211   1.852   1.540
   35SOL    HW2  132   1.194   1.697   1.586
   36SOL     OW  133   0.317   0.251   1.801
   36SOL    HW1  134   0.388   0.322   1.807
   36SOL    HW2  135   0.229   0.290   1.829
   37SOL     OW  136   1.466   1.417   0.953
   37SOL    HW1  137   1.407   1.423   1.033
   37SOL    HW2  138   1.451   1.329   0.907
   38SOL     OW  139   1.667   1.714   0.572
   38SOL    HW1  140   1.626   1.691   0.484
   38SOL    HW2  141   1.649   1.640   0.637
   39SOL     OW  142   0.598   0.729   0.270
   39SOL    HW1  143   0.622   0.798   0.202
   39SOL    HW2  144   0.520   0.762   0.324
   40SOL     OW  145   1.281   0.345   0.944
   40SOL    HW1  146   1.195   0.295   0.931
   40SOL    HW2  147   1.343   0.291   1.000
   41SOL     OW  148   1.576   1.662   0.307
   41SOL    HW1  149   1.665   1.708   0.310
   41SOL    HW2  150   1.555   1.638   0.212
   42SOL     OW  151   0.807   0.605   1.465
   42SOL    HW1  152   0.760   0.602   1.554
   42SOL    HW2  153   0.756   0.550   1.399
   43SOL     OW  154   1.394   0.469   1.674
   43SOL    HW1  155   1.374   0.512   1.762
   43SOL    HW2  156   1.472   0.407   1.683
   44SOL     OW  157   0.973   0.890   1.572
   44SOL    HW1  158   1.019   0.806   1.543
   44SOL    HW2  159   0.917   0.924   1.497
   45SOL     OW  160   0.991   0.410   1.242
   45SOL    HW1  161   0.914   0.444   1.296
   45SOL    HW2  162   0.957   0.359   1.163
   46SOL     OW  163   1.041   0.701   0.429
   46SOL    HW1  164   1.067   0.697   0.525
   46SOL    HW2  165   0.956   0.650   0.415
   47SOL     OW  166   0.076   0.811   0.789
   47SOL    HW1  167   0.175   0.799   0.798
   47SOL    HW2  168   0.052   0.906   0.810
   48SOL     OW  169   0.130   1.821   1.571
   48SOL    HW1  170   0.120   1.806   1.670
   48SOL    HW2  171   0.044   1.857   1.535
   49SOL     OW  172   0.865   0.348   0.195
   49SOL    HW1  173   0.924   0.411   0.146
   49SOL    HW2  174   0.884   0.254   0.166
   50SOL     OW  175   1.719   0.585   1.831
   50SOL    HW1  176   1.693   0.674   1.795
   50SOL    HW2  177   1.717   0.517   1.758
   51SOL     OW  178   1.362   1.144   0.545
   51SOL    HW1  179   1.445   1.115   0.497
   51SOL    HW2  180   1.313   1.211   0.489
   52SOL     OW  181   0.550   0.196   0.885
   52SOL    HW1  182   0.545   0.191   0.985
   52SOL    HW2  183   0.552   0.292   0.856
   53SOL     OW  184   1.008   1.456   0.477
   53SOL    HW1  185   0.962   1.528   0.425
   53SOL    HW2  186   1.004   1.476   0.575
   54SOL     OW  187   0.351   1.801   0.853
   54SOL    HW1  188   0.401   1.715   0.859
   54SOL    HW2  189   0.416   1.878   0.850
   55SOL     OW  190   1.795   1.066   0.873
   55SOL    HW1  191   1.733   1.051   0.797
   55SOL    HW2  192   1.743   1.077   0.958
   56SOL     OW  193   1.227   1.550   1.506
   56SOL    HW1  194   1.233   1.473   1.570
   56SOL    HW2  195   1.175   1.524   1.426
   57SOL     OW  196   0.321   0.943   0.242
   57SOL    HW1  197   0.403   0.982   0.200
   57SOL    HW2  198   0.294   0.861   0.193
   58SOL     OW  199   1.458   0.735   0.728
   58SOL    HW1  200   1.453   0.670   0.803
   58SOL    HW2  201   1.538   0.794   0.741
   59SOL     OW  202   0.461   1.266   1.727
   59SOL    HW1  203   0.411   1.267   1.641
   59SOL    HW2  204   0.398   1.248   1.803
   60SOL     OW  205   1.111   1.776   0.237
   60SOL    HW1  206   1.051   1.714   0.287
   60SOL    HW2  207   1.142   1.732   0.152
   61SOL     OW  208   0.202   0.285   1.498
   61SOL    HW1  209   0.122   0.345   1.485
   61SOL    HW2  210   0.192   0.236   1.584
   62SOL     OW  211   1.632   1.377   0.081
   62SOL    HW1  212   1.600   1.471   0.071
   62SOL    HW2  213   1.556   1.314   0.069
   63SOL     OW  214   0.464   1.743   0.323
   63SOL    HW1  215   0.497   1.782   0.409
   63SOL    HW2  216   0.540   1.736   0.258
   64SOL     OW  217   1.400   0.107   0.426
   64SOL    HW1  218   1.376   0.070   0.336
   64SOL    HW2  219   1.499   0.123   0.430
   65SOL     OW  220   0.249   1.785   1.241
   65SOL    HW1  221   0.306   1.720   1.291
   65SOL    HW2  222   0.233   1.752   1.148
   66SOL     OW  223   0.940   1.698   0.904
   66SOL    HW1  224   1.020   1.641   0.925
   66SOL    HW2  225   0.891   1.658   0.827
   67SOL     OW  226   0.382   0.700   0.480
   67SOL    HW1  227   0.427   0.610   0.477
   67SOL    HW2  228   0.288   0.689   0.513
   68SOL     OW  229   1.547   0.222   1.729
   68SOL    HW1  230   1.542   0.259   1.821
   68SOL    HW2  231   1.475   0.153   1.717
   69SOL     OW  232   0.614   0.122   0.117
   69SOL    HW1  233   0.712   0.100   0.124
   69SOL    HW2  234   0.583   0.105   0.024
   70SOL     OW  235   0.781   0.264   1.749
   70SOL    HW1  236   0.848   0.203   1.792
   70SOL    HW2  237   0.708   0.283   1.814
   71SOL     OW  238   0.888   1.514   1.195
   71SOL    HW1  239   0.865   1.489   1.101
   71SOL    HW2  240   0.949   1.445   1.234
   72SOL     OW  241   1.351   0.590   1.433
   72SOL    HW1  242   1.379   0.547   1.518
   72SOL    HW2  243   1.376   0.686   1.434
   73SOL     OW  244   0.803   1.402   0.924
   73SOL    HW1  245   0.893   1.416   0.882
   73SOL    HW2  246   0.732   1.404   0.853
   74SOL     OW  247   0.922   0.503   0.899
   74SOL    HW1  248   0.897   0.494   0.803
   74SOL    HW2  249   0.970   0.421   0.930
   75SOL     OW  250   0.539   0.064   0.512
   75SOL    HW1  251   0.458   0.065   0.570
   75SOL    HW2  252   0.542   0.147   0.457
   76SOL     OW  253   1.434   1.188   0.041
   76SOL    HW1  254   1.466   1.112   0.098
   76SOL    HW2  255   1.342   1.215   0.071
   77SOL     OW  256   0.297   0.035   0.171
   77SOL    HW1  257   0.346   0.119   0.150
   77SOL    HW2  258   0.359  -0.030   0.216
   78SOL     OW  259   0.935   0.236   0.480
   78SOL    HW1  260   0.887   0.277   0.402
   78SOL    HW2  261   1.034   0.234   0.461
   79SOL     OW  262   1.076   0.683   1.464
   79SOL    HW1  263   0.996   0.622   1.467
   79SOL    HW2  264   1.157   0.630   1.440
   80SOL     OW  265   1.227   1.570   0.793
   80SOL    HW1  266   1.248   1.644   0.728
   80SOL    HW2  267   1.295   1.570   0.866
   81SOL     OW  268   0.459   1.152   0.741
   81SOL    HW1  269   0.388   1.125   0.806
   81SOL    HW2  270   0.433   1.124   0.648
   82SOL     OW  271   1.271   1.797   0.591
   82SOL    HW1  272   1.315   1.861   0.527
   82SOL    HW2  273   1.221   1.849   0.661
   83SOL     OW  274   1.032   0.549   0.016
   83SOL    HW1  275   0.991   0.631  -0.023
   83SOL    HW2  276   1.096   0.575   0.089
   84SOL     OW  277   0.078   0.556   1.386
   84SOL    HW1  278   0.170   0.555   1.345
   84SOL    HW2  279   0.072   0.630   1.453
   85SOL     OW  280   0.561   0.222   1.147
   85SOL    HW1  281   0.599   0.138   1.184
   85SOL    HW2  282   0.473   0.241   1.191
   86SOL     OW  283   0.866   0.454   0.642
   86SOL    HW1  284   0.834   0.526   0.580
   86SOL    HW2  285   0.890   0.373   0.589
   87SOL     OW  286   1.017   0.039   0.753
   87SOL    HW1  287   0.945   0.044   0.684
   87SOL    HW2  288   0.993  -0.030   0.822
   88SOL     OW  289   1.429   1.173   0.867
   88SOL    HW1  290   1.374   1.089   0.860
   88SOL    HW2  291   1.455   1.202   0.775
   89SOL     OW  292   1.466   0.590   0.992
   89SOL    HW1  293   1.436   0.495   0.999
   89SOL    HW2  294   1.539   0.606   1.058
   90SOL     OW  295   1.857   0.833   0.377
   90SOL    HW1  296   1.899   0.769   0.441
   90SOL    HW2  297   1.819   0.782   0.299
   91SOL     OW  298   0.488   1.385   0.174
   91SOL    HW1  299   0.401   1.370   0.221
   91SOL    HW2  300   0.471   1.411   0.079
   92SOL     OW  301   1.664   1.280   0.657
   92SOL    HW1  302   1.763   1.288   0.671
   92SOL    HW2  303   1.619   1.364   0.688
   93SOL     OW  304   1.390   0.575   0.078
   93SOL    HW1  305   1.336   0.554   0.159
   93SOL    HW2  306   1.481   0.534   0.087
   94SOL     OW  307   0.527   0.256   0.328
   94SOL    HW1  308   0.554   0.197   0.253
   94SOL    HW2  309   0.527   0.351   0.297
   95SOL     OW  310   1.754   1.223   1.588
   95SOL    HW1  311   1.845   1.184   1.575
   95SOL    HW2  312   1.762   1.319   1.612
   96SOL     OW  313   1.064   1.347   1.340
   96SOL    HW1  314   0.984   1.324   1.395
   96SOL    HW2  315   1.147   1.321   1.389
   97SOL     OW  316   1.592   1.629   1.625
   97SOL    HW1  317   1.619   1.663   1.535
   97SOL    HW2  318   1.671   1.591   1.671
   98SOL     OW  319   1.111   1.195   1.100
   98SOL    HW1  320   1.071   1.239   1.181
   98SOL    HW2  321   1.070   1.232   1.017
   99SOL     OW  322   1.638   1.099   1.079
   99SOL    HW1  323   1.643   1.180   1.138
   99SOL    HW2  324   1.552   1.101   1.028
  100SOL     OW  325   0.915   0.089   1.402
  100SOL    HW1  326   0.940   0.069   1.307
  100SOL    HW2  327   0.987   0.145   1.444
  101SOL     OW  328   0.980   1.116   1.719
  101SOL    HW1  329   0.881   1.122   1.729
  101SOL    HW2  330   1.003   1.036   1.663
  102SOL     OW  331   0.705   1.050   0.368
  102SOL    HW1  332   0.691   1.057   0.467
  102SOL    HW2  333   0.789   0.999   0.350
  103SOL     OW  334   0.410   0.813   1.251
  103SOL    HW1  335   0.496   0.825   1.301
  103SOL    HW2  336   0.368   0.726   1.278
  104SOL     OW  337   1.274   0.386   1.262
  104SOL    HW1  338   1.295   0.460   1.326
  104SOL    HW2  339   1.185   0.403   1.219
  105SOL     OW  340   0.064   1.564   1.331
  105SOL    HW1  341   0.018   1.646   1.297
  105SOL    HW2  342   0.162   1.583   1.340
  106SOL     OW  343   0.367   1.100   0.501
  106SOL    HW1  344   0.360   1.183   0.445
  106SOL    HW2  345   0.371   1.020   0.441
  107SOL     OW  346   0.566   0.537   0.865
  107SOL    HW1  347   0.578   0.603   0.791
  107SOL    HW2  348   0.612   0.571   0.948
  108SOL     OW  349   1.252   1.348   0.388
  108SOL    HW1  350   1.302   1.425   0.428
  108SOL    HW2  351   1.157   1.350   0.420
  109SOL     OW  352   1.272   1.445   1.142
  109SOL    HW1  353   1.319   1.458   1.229
  109SOL    HW2  354   1.206   1.371   1.151
  110SOL     OW  355   1.582   0.639   0.472
  110SOL    HW1  356   1.551   0.700   0.545
  110SOL    HW2  357   1.632   0.691   0.403
  111SOL     OW  358   0.354   1.510   1.329
  111SOL    HW1  359   0.333   1.466   1.242
  111SOL    HW2  360   0.451   1.536   1.332
  112SOL     OW  361   0.402   0.751   1.598
  112SOL    HW1  362   0.470   0.806   1.551
  112SOL    HW2  363   0.442   0.663   1.625
  113SOL     OW  364   1.587   0.779   1.670
  113SOL    HW1  365   1.495   0.817   1.665
  113SOL    HW2  366   1.647   0.826   1.605
  114SOL     OW  367   1.013   0.105   1.770
  114SOL    HW1  368   1.019   0.190   1.718
  114SOL    HW2  369   1.045   0.029   1.713
  115SOL     OW  370   0.504   0.050   1.740
  115SOL    HW1  371   0.462  -0.007   1.670
  115SOL    HW2  372   0.438   0.119   1.772
  116SOL     OW  373   0.573   0.870   1.029
  116SOL    HW1  374   0.617   0.959   1.020
  116SOL    HW2  375   0.510   0.870   1.106
  117SOL     OW  376   1.360   0.862   1.045
  117SOL    HW1  377   1.285   0.862   0.979
  117SOL    HW2  378   1.397   0.770   1.054
  118SOL     OW  379   1.209   0.525   0.275
  118SOL    HW1  380   1.222   0.441   0.329
  118SOL    HW2  381   1.180   0.599   0.335
  119SOL     OW  382   0.307   0.213   1.231
  119SOL    HW1  383   0.284   0.250   1.321
  119SOL    HW2  384   0.277   0.118   1.225
  120SOL     OW  385   0.037   1.310   1.282
  120SOL    HW1  386   0.090   1.261   1.350
  120SOL    HW2  387   0.059   1.408   1.287
  121SOL     OW  388   0.732   0.634   1.064
  121SOL    HW1  389   0.791   0.608   0.988
  121SOL    HW2  390   0.704   0.730   1.053
  122SOL     OW  391   1.728   0.935   1.854
  122SOL    HW1  392   1.682   0.928   1.765
  122SOL    HW2  393   1.666   0.979   1.920
  123SOL     OW  394   0.307   0.063   0.618
  123SOL    HW1  395   0.296   0.157   0.651
  123SOL    HW2  396   0.302   0.000   0.695
  124SOL     OW  397   1.622   0.367   0.374
  124SOL    HW1  398   1.624   0.291   0.438
  124SOL    HW2  399   1.574   0.444   0.414
  125SOL     OW  400   1.023   0.766   0.966
  125SOL    HW1  401   1.038   0.787   1.062
  125SOL    HW2  402   0.993   0.671   0.957
  126SOL     OW  403   0.980   1.573   1.700
  126SOL    HW1  404   0.960   1.617   1.612
  126SOL    HW2  405   1.019   1.482   1.684
  127SOL     OW  406   1.859   1.518   1.605
  127SOL    HW1  407   1.873   1.545   1.510
  127SOL    HW2  408   1.942   1.540   1.658
  128SOL     OW  409   0.350   0.898   1.804
  128SOL    HW1  410   0.426   0.942   1.852
  128SOL    HW2  411   0.385   0.851   1.722
  129SOL     OW  412   1.540   0.274   0.125
  129SOL    HW1  413   1.479   0.199   0.148
  129SOL    HW2  414   1.562   0.326   0.208
  130SOL     OW  415   1.303   0.838   0.042
  130SOL    HW1  416   1.337   0.745   0.057
  130SOL    HW2  417   1.321   0.865  -0.053
  131SOL     OW  418   1.068   1.333   0.849
  131SOL    HW1  419   1.075   1.249   0.794
  131SOL    HW2  420   1.130   1.402   0.813
  132SOL     OW  421   0.319   0.810   0.949
  132SOL    HW1  422   0.412   0.846   0.954
  132SOL    HW2  423   0.313   0.725   1.001
  133SOL     OW  424   0.339   0.509   1.006
  133SOL    HW1  425   0.287   0.426   0.989
  133SOL    HW2  426   0.416   0.514   0.942
  134SOL     OW  427   1.138   0.380   1.678
  134SOL    HW1  428   1.093   0.443   1.742
  134SOL    HW2  429   1.231   0.411   1.661
  135SOL     OW  430   1.160   0.207   1.477
  135SOL    HW1  431   1.160   0.271   1.554
  135SOL    HW2  432   1.188   0.255   1.394
  136SOL     OW  433   0.008   1.326   0.200
  136SOL    HW1  434  -0.085   1.347   0.169
  136SOL    HW2  435   0.018   1.227   0.213
  137SOL     OW  436   0.088   1.801   0.927
  137SOL    HW1  437   0.046   1.715   0.900
  137SOL    HW2  438   0.182   1.804   0.893
  138SOL     OW  439   0.504   1.568   0.910
  138SOL    HW1  440   0.570   1.642   0.919
  138SOL    HW2  441   0.548   1.489   0.868
  139SOL     OW  442   1.002   0.796   1.238
  139SOL    HW1  443   1.043   0.764   1.324
  139SOL    HW2  444   0.906   0.769   1.235
  140SOL     OW  445   0.040   0.544   1.114
  140SOL    HW1  446   0.125   0.511   1.073
  140SOL    HW2  447   0.053   0.559   1.212
  141SOL     OW  448   0.189   0.520   1.722
  141SOL    HW1  449   0.248   0.480   1.652
  141SOL    HW2  450   0.131   0.591   1.681
  142SOL     OW  451   1.369   0.950   1.660
  142SOL    HW1  452   1.408   1.039   1.680
  142SOL    HW2  453   1.379   0.930   1.563
  143SOL     OW  454   0.815   0.572   0.325
  143SOL    HW1  455   0.822   0.483   0.279
  143SOL    HW2  456   0.721   0.606   0.317
  144SOL     OW  457   1.657   0.604   1.206
  144SOL    HW1  458   1.619   0.535   1.268
  144SOL    HW2  459   1.739   0.568   1.162
  145SOL     OW  460   0.252   1.564   1.744
  145SOL    HW1  461   0.222   1.621   1.820
  145SOL    HW2  462   0.245   1.467   1.770
  146SOL     OW  463   0.671   0.464   1.269
  146SOL    HW1  464   0.637   0.375   1.239
  146SOL    HW2  465   0.697   0.518   1.189
  147SOL     OW  466   0.930   1.678   1.465
  147SOL    HW1  467   0.906   1.660   1.370
  147SOL    HW2  468   0.960   1.772   1.475
  148SOL     OW  469   0.473   0.500   0.191
  148SOL    HW1  470   0.534   0.580   0.195
  148SOL    HW2  471   0.378   0.531   0.198
  149SOL     OW  472   0.159   1.137   1.466
  149SOL    HW1  473   0.181   1.076   1.542
  149SOL    HW2  474   0.169   1.088   1.380
  150SOL     OW  475   1.347   1.059   1.234
  150SOL    HW1  476   1.371   0.996   1.160
  150SOL    HW2  477   1.257   1.099   1.216
  151SOL     OW  478   1.302   0.855   0.309
  151SOL    HW1  479   1.216   0.824   0.351
  151SOL    HW2  480   1.298   0.841   0.210
  152SOL     OW  481   1.759   1.747   1.154
  152SOL    HW1  482   1.820   1.777   1.081
  152SOL    HW2  483   1.721   1.658   1.132
  153SOL     OW  484   1.252   1.731   1.128
  153SOL    HW1  485   1.336   1.736   1.074
  153SOL    HW2  486   1.229   1.635   1.146
  154SOL     OW  487   0.083   1.258   1.022
  154SOL    HW1  488   0.078   1.257   1.122
  154SOL    HW2  489   0.000   1.217   0.984
  155SOL     OW  490   0.688   1.662   1.716
  155SOL    HW1  491   0.632   1.743   1.725
  155SOL    HW2  492   0.740   1.666   1.630
  156SOL     OW  493   0.903   0.086   0.133
  156SOL    HW1  494   0.954   0.087   0.047
  156SOL    HW2  495   0.959   0.044   0.204
  157SOL     OW  496   1.726   0.135   0.523
  157SOL    HW1  497   1.799   0.118   0.456
  157SOL    HW2  498   1.695   0.048   0.561
  158SOL     OW  499   1.388   1.573   0.477
  158SOL    HW1  500   1.455   1.585   0.403
  158SOL    HW2  501   1.348   1.662   0.500
  159SOL     OW  502   0.130   1.794   1.851
  159SOL    HW1  503   0.089   1.720   1.904
  159SOL    HW2  504   0.194   1.845   1.909
  160SOL     OW  505   1.280   0.927   0.672
  160SOL    HW1  506   1.340   0.846   0.674
  160SOL    HW2  507   1.320   0.996   0.612
  161SOL     OW  508   0.830   1.273   1.422
  161SOL    HW1  509   0.825   1.306   1.517
  161SOL    HW2  510   0.744   1.292   1.376
  162SOL     OW  511   0.672   1.616   0.154
  162SOL    HW1  512   0.681   1.626   0.055
  162SOL    HW2  513   0.632   1.527   0.175
  163SOL     OW  514   1.650   1.720   1.394
  163SOL    HW1  515   1.703   1.730   1.310
  163SOL    HW2  516   1.623   1.810   1.428
  164SOL     OW  517   1.841   0.175   0.963
  164SOL    HW1  518   1.880   0.090   0.927
  164SOL    HW2  519   1.743   0.177   0.944
  165SOL     OW  520   0.263   0.326   0.720
  165SOL    HW1  521   0.184   0.377   0.686
  165SOL    HW2  522   0.254   0.311   0.818
  166SOL     OW  523   1.194   1.612   0.031
  166SOL    HW1  524   1.200   1.519   0.068
  166SOL    HW2  525   1.135   1.612  -0.049
  167SOL     OW  526   0.822   1.002   1.372
  167SOL    HW1  527   0.862   1.001   1.280
  167SOL    HW2  528   0.832   1.094   1.412
  168SOL     OW  529   0.916   0.910   0.291
  168SOL    HW1  530   0.979   0.948   0.223
  168SOL    HW2  531   0.956   0.827   0.330
  169SOL     OW  532   1.504   1.607   0.044
  169SOL    HW1  533   1.412   1.644   0.051
  169SOL    HW2  534   1.542   1.627  -0.046
  170SOL     OW  535   0.372   1.288   1.490
  170SOL    HW1  536   0.359   1.381   1.456
  170SOL    HW2  537   0.288   1.236   1.477
  171SOL     OW  538   1.614   1.292   1.289
  171SOL    HW1  539   1.674   1.295   1.369
  171SOL    HW2  540   1.539   1.356   1.302
  172SOL     OW  541   1.039   1.098   0.696
  172SOL    HW1  542   0.969   1.051   0.750
  172SOL    HW2  543   1.098   1.030   0.653
  173SOL     OW  544   1.014   0.236   0.971
  173SOL    HW1  545   1.006   0.200   0.878
  173SOL    HW2  546   1.012   0.160   1.036
  174SOL     OW  547   0.590   1.487   0.491
  174SOL    HW1  548   0.632   1.429   0.421
  174SOL    HW2  549   0.546   1.566   0.447
  175SOL     OW  550   1.709   0.385   1.381
  175SOL    HW1  551   1.782   0.454   1.385
  175SOL    HW2  552   1.737   0.310   1.322
  176SOL     OW  553   0.255   1.348   0.290
  176SOL    HW1  554   0.159   1.349   0.263
  176SOL    HW2  555   0.267   1.401   0.374
  177SOL     OW  556   0.105   1.013   1.726
  177SOL    HW1  557   0.028   0.980   1.780
  177SOL    HW2  558   0.190   0.983   1.768
  178SOL     OW  559   0.672   0.203   1.489
  178SOL    HW1  560   0.762   0.187   1.449
  178SOL    HW2  561   0.680   0.208   1.588
  179SOL     OW  562   0.075   0.345   0.033
  179SOL    HW1  563  -0.017   0.317   0.004
  179SOL    HW2  564   0.106   0.422  -0.023
  180SOL     OW  565   1.440   0.856   1.398
  180SOL    HW1  566   1.383   0.908   1.335
  180SOL    HW2  567   1.536   0.868   1.374
  181SOL     OW  568   0.072   0.166   0.318
  181SOL    HW1  569   0.055   0.249   0.264
  181SOL    HW2  570   0.162   0.129   0.296
  182SOL     OW  571   1.183   1.335   0.119
  182SOL    HW1  572   1.084   1.324   0.121
  182SOL    HW2  573   1.217   1.350   0.212
  183SOL     OW  574   0.613   0.842   1.431
  183SOL    HW1  575   0.669   0.923   1.414
  183SOL    HW2  576   0.672   0.762   1.434
  184SOL     OW  577   1.493   1.767   0.959
  184SOL    HW1  578   1.526   1.831   0.890
  184SOL    HW2  579   1.559   1.761   1.034
  185SOL     OW  580   0.716   0.565   1.708
  185SOL    HW1  581   0.735   0.630   1.782
  185SOL    HW2  582   0.776   0.485   1.717
  186SOL     OW  583   1.450   1.220   1.633
  186SOL    HW1  584   1.441   1.210   1.732
  186SOL    HW2  585   1.546   1.213   1.607
  187SOL     OW  586   0.390   1.741   1.560
  187SOL    HW1  587   0.299   1.782   1.558
  187SOL    HW2  588   0.383   1.647   1.592
  188SOL     OW  589   1.674   0.883   1.254
  188SOL    HW1  590   1.647   0.794   1.217
  188SOL    HW2  591   1.675   0.951   1.181
  189SOL     OW  592   1.225   0.325   0.449
  189SOL    HW1  593   1.290   0.251   0.438
  189SOL    HW2  594   1.245   0.375   0.533
  190SOL     OW  595   0.594   0.745   0.652
  190SOL    HW1  596   0.644   0.830   0.633
  190SOL    HW2  597   0.506   0.747   0.604
  191SOL     OW  598   1.777   0.342   1.642
  191SOL    HW1  599   1.760   0.373   1.548
  191SOL    HW2  600   1.693   0.305   1.680
  192SOL     OW  601   1.730   0.934   1.517
  192SOL    HW1  602   1.768   1.025   1.532
  192SOL    HW2  603   1.722   0.917   1.418
  193SOL     OW  604   0.859   1.374   0.016
  193SOL    HW1  605   0.813   1.389   0.104
  193SOL    HW2  606   0.903   1.459  -0.014
  194SOL     OW  607   0.661   1.790   0.953
  194SOL    HW1  608   0.615   1.878   0.940
  194SOL    HW2  609   0.760   1.802   0.946
  195SOL     OW  610   0.859   0.956   0.861
  195SOL    HW1  611   0.913   0.887   0.909
  195SOL    HW2  612   0.827   1.025   0.927
  196SOL     OW  613   1.083   0.984   0.087
  196SOL    HW1  614   1.060   1.037   0.005
  196SOL    HW2  615   1.164   0.928   0.068
  197SOL     OW  616   1.861   1.569   0.851
  197SOL    HW1  617   1.790   1.557   0.781
  197SOL    HW2  618   1.862   1.490   0.911
  198SOL     OW  619   0.221   1.314   1.844
  198SOL    HW1  620   0.156   1.241   1.823
  198SOL    HW2  621   0.225   1.328   1.942
  199SOL     OW  622   0.079   1.240   0.653
  199SOL    HW1  623   0.078   1.193   0.741
  199SOL    HW2  624   0.161   1.212   0.602
  200SOL     OW  625   0.672   1.391   1.624
  200SOL    HW1  626   0.594   1.341   1.662
  200SOL    HW2  627   0.669   1.486   1.655
  201SOL     OW  628   1.824   0.192   1.227
  201SOL    HW1  629   1.820   0.102   1.271
  201SOL    HW2  630   1.827   0.181   1.128
  202SOL     OW  631   0.428   0.424   0.520
  202SOL    HW1  632   0.458   0.352   0.458
  202SOL    HW2  633   0.389   0.384   0.603
  203SOL     OW  634   1.705   1.487   1.104
  203SOL    HW1  635   1.612   1.462   1.077
  203SOL    HW2  636   1.731   1.437   1.186
  204SOL     OW  637   0.317   0.547   1.280
  204SOL    HW1  638   0.355   0.488   1.352
  204SOL    HW2  639   0.357   0.521   1.192
  205SOL     OW  640   0.812   1.586   0.687
  205SOL    HW1  641   0.844   1.596   0.593
  205SOL    HW2  642   0.733   1.524   0.689
  206SOL     OW  643   1.424   0.214   1.112
  206SOL    HW1  644   1.476   0.149   1.167
  206SOL    HW2  645   1.375   0.277   1.173
  207SOL     OW  646   1.001   0.034   1.154
  207SOL    HW1  647   0.938  -0.038   1.123
  207SOL    HW2  648   1.094  -0.002   1.154
  208SOL     OW  649   0.770   1.330   0.301
  208SOL    HW1  650   0.724   1.243   0.318
  208SOL    HW2  651   0.861   1.327   0.342
  209SOL     OW  652   0.618   1.567   1.284
  209SOL    HW1  653   0.613   1.649   1.341
  209SOL    HW2  654   0.707   1.564   1.239
  210SOL     OW  655   1.352   0.052   0.168
  210SOL    HW1  656   1.387   0.011   0.084
  210SOL    HW2  657   1.262   0.014   0.188
  211SOL     OW  658   1.300   0.453   0.691
  211SOL    HW1  659   1.241   0.533   0.695
  211SOL    HW2  660   1.315   0.418   0.784
  212SOL     OW  661   1.593   0.221   0.882
  212SOL    HW1  662   1.509   0.220   0.936
  212SOL    HW2  663   1.595   0.304   0.826
  213SOL     OW  664   0.039   1.077   0.300
  213SOL    HW1  665   0.138   1.066   0.291
  213SOL    HW2  666  -0.001   0.991   0.332
  214SOL     OW  667   0.875   1.646   0.337
  214SOL    HW1  668   0.798   1.611   0.283
  214SOL    HW2  669   0.843   1.717   0.399
  215SOL     OW  670   0.230   0.628   1.975
  215SOL    HW1  671   0.137   0.626   2.012
  215SOL    HW2  672   0.231   0.589   1.883
  216SOL     OW  673   0.225   0.275   2.858
  216SOL    HW1  674   0.260   0.258   2.950
  216SOL    HW2  675   0.137   0.230   2.846
  217SOL     OW  676   0.019   0.368   2.509
  217SOL    HW1  677  -0.063   0.411   2.548
  217SOL    HW2  678  -0.009   0.295   2.446
  218SOL     OW  679   0.569   1.275   3.027
  218SOL    HW1  680   0.476   1.268   2.990
  218SOL    HW2  681   0.580   1.364   3.071
  219SOL     OW  682   1.555   1.511   2.565
  219SOL    HW1  683   1.498   1.495   2.646
  219SOL    HW2  684   1.496   1.521   2.485
  220SOL     OW  685   1.135   0.703   2.579
  220SOL    HW1  686   1.192   0.781   2.554
  220SOL    HW2  687   1.075   0.729   2.655
  221SOL     OW  688   1.755   0.607   2.093
  221SOL    HW1  689   1.743   0.594   1.994
  221SOL    HW2  690   1.725   0.526   2.142
  222SOL     OW  691   0.768   1.144   2.885
  222SOL    HW1  692   0.690   1.161   2.945
  222SOL    HW2  693   0.802   1.231   2.849
  223SOL     OW  694   0.850   0.798   3.685
  223SOL    HW1  695   0.846   0.874   3.750
  223SOL    HW2  696   0.872   0.834   3.594
  224SOL     OW  697   0.685   1.012   2.527
  224SOL    HW1  698   0.754   0.996   2.597
  224SOL    HW2  699   0.612   1.069   2.565
  225SOL     OW  700   0.686   1.161   3.665
  225SOL    HW1  701   0.746   1.240   3.679
  225SOL    HW2  702   0.600   1.192   3.624
  226SOL     OW  703   0.335   1.435   2.923
  226SOL    HW1  704   0.257   1.404   2.870
  226SOL    HW2  705   0.393   1.493   2.866
  227SOL     OW  706   1.460   1.505   3.201
  227SOL    HW1  707   1.484   1.599   3.227
  227SOL    HW2  708   1.444   1.451   3.283
  228SOL     OW  709   0.438   0.392   3.361
  228SOL    HW1  710   0.520   0.336   3.370
  228SOL    HW2  711   0.357   0.334   3.365
  229SOL     OW  712   1.603   0.447   2.599
  229SOL    HW1  713   1.529   0.493   2.549
  229SOL    HW2  714   1.654   0.515   2.652
  230SOL     OW  715   0.231   1.713   2.345
  230SOL    HW1  716   0.265   1.790   2.399
  230SOL    HW2  717   0.275   1.713   2.255
  231SOL     OW  718   1.127   1.341   3.552
  231SOL    HW1  719   1.174   1.341   3.640
  231SOL    HW2  720   1.079   1.254   3.541
  232SOL     OW  721   0.230   1.434   2.400
  232SOL    HW1  722   0.204   1.530   2.400
  232SOL    HW2  723   0.159   1.380   2.445
  233SOL     OW  724   0.240   1.091   2.748
  233SOL    HW1  725   0.254   1.007   2.800
  233SOL    HW2  726   0.185   1.155   2.803
  234SOL     OW  727   0.620   1.786   3.301
  234SOL    HW1  728   0.528   1.769   3.336
  234SOL    HW2  729   0.648   1.878   3.327
  235SOL     OW  730   0.606   0.964   1.985
  235SOL    HW1  731   0.613   1.048   1.931
  235SOL    HW2  732   0.652   0.977   2.073
  236SOL     OW  733   1.594   0.114   3.342
  236SOL    HW1  734   1.576   0.181   3.270
  236SOL    HW2  735   1.591   0.160   3.431
  237SOL     OW  736   0.122   0.643   2.425
  237SOL    HW1  737   0.077   0.555   2.442
  237SOL    HW2  738   0.121   0.697   2.509
  238SOL     OW  739   1.842   1.767   2.221
  238SOL    HW1  740   1.896   1.738   2.301
  238SOL    HW2  741   1.872   1.857   2.192
  239SOL     OW  742   0.027   1.596   1.979
  239SOL    HW1  743   0.008   1.500   2.000
  239SOL    HW2  744  -0.006   1.654   2.054
  240SOL     OW  745   1.689   0.922   2.474
  240SOL    HW1  746   1.784   0.893   2.482
  240SOL    HW2  747   1.681   0.987   2.399
  241SOL     OW  748   1.641   1.108   2.294
  241SOL    HW1  749   1.727   1.110   2.242
  241SOL    HW2  750   1.655   1.155   2.382
  242SOL     OW  751   0.113   0.737   3.459
  242SOL    HW1  752   0.201   0.724   3.504
  242SOL    HW2  753   0.100   0.834   3.437
  243SOL     OW  754   0.613   1.365   2.588
  243SOL    HW1  755   0.564   1.278   2.597
  243SOL    HW2  756   0.590   1.408   2.501
  244SOL     OW  757   1.293   1.228   3.285
  244SOL    HW1  758   1.330   1.155   3.227
  244SOL    HW2  759   1.345   1.233   3.370
  245SOL     OW  760   0.809   0.004   2.364
  245SOL    HW1  761   0.849   0.095   2.355
  245SOL    HW2  762   0.709   0.012   2.370
  246SOL     OW  763   0.197   0.976   3.126
  246SOL    HW1  764   0.286   0.931   3.112
  246SOL    HW2  765   0.124   0.911   3.107
  247SOL     OW  766   1.525   0.999   2.052
  247SOL    HW1  767   1.462   0.923   2.065
  247SOL    HW2  768   1.573   1.017   2.138
  248SOL     OW  769   1.187   1.792   3.478
  248SOL    HW1  770   1.211   1.852   3.402
  248SOL    HW2  771   1.194   1.697   3.448
  249SOL     OW  772   0.317   0.251   3.663
  249SOL    HW1  773   0.388   0.322   3.669
  249SOL    HW2  774   0.229   0.290   3.691
  250SOL     OW  775   1.466   1.417   2.815
  250SOL    HW1  776   1.407   1.423   2.895
  250SOL    HW2  777   1.451   1.329   2.769
  251SOL     OW  778   1.667   1.714   2.434
  251SOL    HW1  779   1.626   1.691   2.346
  251SOL    HW2  780   1.649   1.640   2.499
  252SOL     OW  781   0.598   0.729   2.132
  252SOL    HW1  782   0.622   0.798   2.064
  252SOL    HW2  783   0.520   0.762   2.186
  253SOL     OW  784   1.281   0.345   2.806
  253SOL    HW1  785   1.195   0.295   2.793
  253SOL    HW2  786   1.343   0.291   2.862
  254SOL     OW  787   1.576   1.662   2.169
  254SOL    HW1  788   1.665   1.708   2.172
  254SOL    HW2  789   1.555   1.638   2.074
  255SOL     OW  790   0.807   0.605   3.327
  255SOL    HW1  791   0.760   0.602   3.416
  255SOL    HW2  792   0.756   0.550   3.261
  256SOL     OW  793   1.394   0.469   3.536
  256SOL    HW1  794   1.374   0.512   3.624
  256SOL    HW2  795   1.472   0.407   3.545
  257SOL     OW  796   0.973   0.890   3.434
  257SOL    HW1  797   1.019   0.806   3.405
  257SOL    HW2  798   0.917   0.924   3.359
  258SOL     OW  799   0.991   0.410   3.104
  258SOL    HW1  800   0.914   0.444   3.158
  258SOL    HW2  801   0.957   0.359   3.025
  259SOL     OW  802   1.041   0.701   2.291
  259SOL    HW1  803   1.067   0.697   2.387
  259SOL    HW2  804   0.956   0.650   2.277
  260SOL     OW  805   0.076   0.811   2.651
  260SOL    HW1  806   0.175   0.799   2.660
  260SOL    HW2  807   0.052   0.906   2.672
  261SOL     OW  808   0.130   1.821   3.433
  261SOL    HW1  809   0.120   1.806   3.532
  261SOL    HW2  810   0.044   1.857   3.397
  262SOL     OW  811   0.865   0.348   2.057
  262SOL    HW1  812   0.924   0.411   2.008
  262SOL    HW2  813   0.884   0.254   2.028
  263SOL     OW  814   1.719   0.585   3.693
  263SOL    HW1  815   1.693   0.674   3.657
  263SOL    HW2  816   1.717   0.517   3.620
  264SOL     OW  817   1.362   1.144   2.407
  264SOL    HW1  818   1.445   1.115   2.359
  264SOL    HW2  819   1.313   1.211   2.351
  265SOL     OW  820   0.550   0.196   2.747
  265SOL    HW1  821   0.545   0.191   2.847
  265SOL    HW2  822   0.552   0.292   2.718
  266SOL     OW  823   1.008   1.456   2.339
  266SOL    HW1  824   0.962   1.528   2.287
  266SOL    HW2  825   1.004   1.476   2.437
  267SOL     OW  826   0.351   1.801   2.715
  267SOL    HW1  827   0.401   1.715   2.721
  267SOL    HW2  828   0.416   1.878   2.712
  268SOL     OW  829   1.795   1.066   2.735
  268SOL    HW1  830   1.733   1.051   2.659
  268SOL    HW2  831   1.743   1.077   2.820
  269SOL     OW  832   1.227   1.550   3.368
  269SOL    HW1  833   1.233   1.473   3.432
  269SOL    HW2  834   1.175   1.524   3.288
  270SOL     OW  835   0.321   0.943   2.104
  270SOL    HW1  836   0.403   0.982   2.062
  270SOL    HW2  837   0.294   0.861   2.055
  271SOL     OW  838   1.458   0.735   2.590
  271SOL    HW1  839   1.453   0.670   2.665
  271SOL    HW2  840   1.538   0.794   2.603
  272SOL     OW  841   0.461   1.266   3.589
  272SOL    HW1  842   0.411   1.267   3.503
  272SOL    HW2  843   0.398   1.248   3.665
  273SOL     OW  844   1.111   1.776   2.099
  273SOL    HW1  845   1.051   1.714   2.149
  273SOL    HW2  846   1.142   1.732   2.014
  274SOL     OW  847   0.202   0.285   3.360
  274SOL    HW1  848   0.122   0.345   3.347
  274SOL    HW2  849   0.192   0.236   3.446
  275SOL     OW  850   1.632   1.377   1.943
  275SOL    HW1  851   1.600   1.471   1.933
  275SOL    HW2  852   1.556   1.314   1.931
  276SOL     OW  853   0.464   1.743   2.185
  276SOL    HW1  854   0.497   1.782   2.271
  276SOL    HW2  855   0.540   1.736   2.120
  277SOL     OW  856   1.400   0.107   2.288
  277SOL    HW1  857   1.376   0.070   2.198
  277SOL    HW2  858   1.499   0.123   2.292
  278SOL     OW  859   0.249   1.785   3.103
  278SOL    HW1  860   0.306   1.720   3.153
  278SOL    HW2  861   0.233   1.752   3.010
  279SOL     OW  862   0.940   1.698   2.766
  279SOL    HW1  863   1.020   1.641   2.787
  279SOL    HW2  864   0.891   1.658   2.689
  280SOL     OW  865   0.382   0.700   2.342
  280SOL    HW1  866   0.427   0.610   2.339
  280SOL    HW2  867   0.288   0.689   2.375
  281SOL     OW  868   1.547   0.222   3.591
  281SOL    HW1  869   1.542   0.259   3.683
  281SOL    HW2  870   1.475   0.153   3.579
  282SOL     OW  871   0.614   0.122   1.979
  282SOL    HW1  872   0.712   0.100   1.986
  282SOL    HW2  873   0.583   0.105   1.886
  283SOL     OW  874   0.781   0.264   3.611
  283SOL    HW1  875   0.848   0.203   3.654
  283SOL    HW2  876   0.708   0.283   3.676
  284SOL     OW  877   0.888   1.514   3.057
  284SOL    HW1  878   0.865   1.489   2.963
  284SOL    HW2  879   0.949   1.445   3.096
  285SOL     OW  880   1.351   0.590   3.295
  285SOL    HW1  881   1.379   0.547   3.380
  285SOL    HW2  882   1.376   0.686   3.296
  286SOL     OW  883   0.803   1.402   2.786
  286SOL    HW1  884   0.893   1.416   2.744
  286SOL    HW2  885   0.732   1.404   2.715
  287SOL     OW  886   0.922   0.503   2.761
  287SOL    HW1  887   0.897   0.494   2.665
  287SOL    HW2  888   0.970   0.421   2.792
  288SOL     OW  889   0.539   0.064   2.374
  288SOL    HW1  890   0.458   0.065   2.432
  288SOL    HW2  891   0.542   0.147   2.319
  289SOL     OW  892   1.434   1.188   1.903
  289SOL    HW1  893   1.466   1.112   1.960
  289SOL    HW2  894   1.342   1.215   1.933
  290SOL     OW  895   0.297   0.035   2.033
  290SOL    HW1  896   0.346   0.119   2.012
  290SOL    HW2  897   0.359  -0.030   2.078
  291SOL     OW  898   0.935   0.236   2.342
  291SOL    HW1  899   0.887   0.277   2.264
  291SOL    HW2  900   1.034   0.234   2.323
  292SOL     OW  901   1.076   0.683   3.326
  292SOL    HW1  902   0.996   0.622   3.329
  292SOL    HW2  903   1.157   0.630   3.302
  293SOL     OW  904   1.227   1.570   2.655
  293SOL    HW1  905   1.248   1.644   2.590
  293SOL    HW2  906   1.295   1.570   2.728
  294SOL     OW  907   0.459   1.152   2.603
  294SOL    HW1  908   0.388   1.125   2.668
  294SOL    HW2  909   0.433   1.124   2.510
  295SOL     OW  910   1.271   1.797   2.453
  295SOL    HW1  911   1.315   1.861   2.389
  295SOL    HW2  912   1.221   1.849   2.523
  296SOL     OW  913   1.032   0.549   1.878
  296SOL    HW1  914   0.991   0.631   1.839
  296SOL    HW2  915   1.096   0.575   1.951
  297SOL     OW  916   0.078   0.556   3.248
  297SOL    HW1  917   0.170   0.555   3.207
  297SOL    HW2  918   0.072   0.630   3.315
  298SOL     OW  919   0.561   0.222   3.009
  298SOL    HW1  920   0.599   0.138   3.046
  298SOL    HW2  921   0.473   0.241   3.053
  299SOL     OW  922   0.866   0.454   2.504
  299SOL    HW1  923   0.834   0.526   2.442
  299SOL    HW2  924   0.890   0.373   2.451
  300SOL     OW  925   1.017   0.039   2.615
  300SOL    HW1  926   0.945   0.044   2.546
  300SOL    HW2  927   0.993  -0.030   2.684
  301SOL     OW  928   1.429   1.173   2.729
  301SOL    HW1  929   1.374   1.089   2.722
  301SOL    HW2  930   1.455   1.202   2.637
  302SOL     OW  931   1.466   0.590   2.854
  302SOL    HW1  932   1.436   0.495   2.861
  302SOL    HW2  933   1.539   0.606   2.920
  303SOL     OW  934   1.857   0.833   2.239
  303SOL    HW1  935   1.899   0.769   2.303
  303SOL    HW2  936   1.819   0.782   2.161
  304SOL     OW  937   0.488   1.385   2.036
  304SOL    HW1  938   0.401   1.370   2.083
  304SOL    HW2  939   0.471   1.411   1.941
  305SOL     OW  940   1.664   1.280   2.519
  305SOL    HW1  941   1.763   1.288   2.533
  305SOL    HW2  942   1.619   1.364   2.550
  306SOL     OW  943   1.390   0.575   1.940
  306SOL    HW1  944   1.336   0.554   2.021
  306SOL    HW2  945   1.481   0.534   1.949
  307SOL     OW  946   0.527   0.256   2.190
  307SOL    HW1  947   0.554   0.197   2.115
  307SOL    HW2  948   0.527   0.351   2.159
  308SOL     OW  949   1.754   1.223   3.450
  308SOL    HW1  950   1.845   1.184   3.437
  308SOL    HW2  951   1.762   1.319   3.474
  309SOL     OW  952   1.064   1.347   3.202
  309SOL    HW1  953   0.984   1.324   3.257
  309SOL    HW2  954   1.147   1.321   3.251
  310SOL     OW  955   1.592   1.629   3.487
  310SOL    HW1  956   1.619   1.663   3.397
  310SOL    HW2  957   1.671   1.591   3.533
  311SOL     OW  958   1.111   1.195   2.962
  311SOL    HW1  959   1.071   1.239   3.043
  311SOL    HW2  960   1.070   1.232   2.879
  312SOL     OW  961   1.638   1.099   2.941
  312SOL    HW1  962   1.643   1.180   3.000
  312SOL    HW2  963   1.552   1.101   2.890
  313SOL     OW  964   0.915   0.089   3.264
  313SOL    HW1  965   0.940   0.069   3.169
  313SOL    HW2  966   0.987   0.145   3.306
  314SOL     OW  967   0.980   1.116   3.581
  314SOL    HW1  968   0.881   1.122   3.591
  314SOL    HW2  969   1.003   1.036   3.525
  315SOL     OW  970   0.705   1.050   2.230
  315SOL    HW1  971   0.691   1.057   2.329
  315SOL    HW2  972   0.789   0.999   2.212
  316SOL     OW  973   0.410   0.813   3.113
  316SOL    HW1  974   0.496   0.825   3.163
  316SOL    HW2  975   0.368   0.726   3.140
  317SOL     OW  976   1.274   0.386   3.124
  317SOL    HW1  977   1.295   0.460   3.188
  317SOL    HW2  978   1.185   0.403   3.081
  318SOL     OW  979   0.064   1.564   3.193
  318SOL    HW1  980   0.018   1.646   3.159
  318SOL    HW2  981   0.162   1.583   3.202
  319SOL     OW  982   0.367   1.100   2.363
  319SOL    HW1  983   0.360   1.183   2.307
  319SOL    HW2  984   0.371   1.020   2.303
  320SOL     OW  985   0.566   0.537   2.727
  320SOL    HW1  986   0.578   0.603   2.653
  320SOL    HW2  987   0.612   0.571   2.810
  321SOL     OW  988   1.252   1.348   2.250
  321SOL    HW1  989   1.302   1.425   2.290
  321SOL    HW2  990   1.157   1.350   2.282
  322SOL     OW  991   1.272   1.445   3.004
  322SOL    HW1  992   1.319   1.458   3.091
  322SOL    HW2  993   1.206   1.371   3.013
  323SOL     OW  994   1.582   0.639   2.334
  323SOL    HW1  995   1.551   0.700   2.407
  323SOL    HW2  996   1.632   0.691   2.265
  324SOL     OW  997   0.354   1.510   3.191
  324SOL    HW1  998   0.333   1.466   3.104
  324SOL    HW2  999   0.451   1.536   3.194
  325SOL     OW 1000   0.402   0.751   3.460
  325SOL    HW1 1001   0.470   0.806   3.413
  325SOL    HW2 1002   0.442   0.663   3.487
  326SOL     OW 1003   1.587   0.779   3.532
  326SOL    HW1 1004   1.495   0.817   3.527
  326SOL    HW2 1005   1.647   0.826   3.467
  327SOL     OW 1006   1.013   0.105   3.632
  327SOL    HW1 1007   1.019   0.190   3.580
  327SOL    HW2 1008   1.045   0.029   3.575
  328SOL     OW 1009   0.504   0.050   3.602
  328SOL    HW1 1010   0.462  -0.007   3.532
  328SOL    HW2 1011   0.438   0.119   3.634
  329SOL     OW 1012   0.573   0.870   2.891
  329SOL    HW1 1013   0.617   0.959   2.882
  329SOL    HW2 1014   0.510   0.870   2.968
  330SOL     OW 1015   1.360   0.862   2.907
  330SOL    HW1 1016   1.285   0.862   2.841
  330SOL    HW2 1017   1.397   0.770   2.916
  331SOL     OW 1018   1.209   0.525   2.137
  331SOL    HW1 1019   1.222   0.441   2.191
  331SOL    HW2 1020   1.180   0.599   2.197
  332SOL     OW 1021   0.307   0.213   3.093
  332SOL    HW1 1022   0.284   0.250   3.183
  332SOL    HW2 1023   0.277   0.118   3.087
  333SOL     OW 1024   0.037   1.310   3.144
  333SOL    HW1 1025   0.090   1.261   3.212
  333SOL    HW2 1026   0.059   1.408   3.149
  334SOL     OW 1027   0.732   0.634   2.926
  334SOL    HW1 1028   0.791   0.608   2.850
  334SOL    HW2 1029   0.704   0.730   2.915
  335SOL     OW 1030   1.728   0.935   3.716
  335SOL    HW1 1031   1.682   0.928   3.627
  335SOL    HW2 1032   1.666   0.979   3.782
  336SOL     OW 1033   0.307   0.063   2.480
  336SOL    HW1 1034   0.296   0.157   2.513
  336SOL    HW2 1035   0.302   0.000   2.557
  337SOL     OW 1036   1.622   0.367   2.236
  337SOL    HW1 1037   1.624   0.291   2.300
  337SOL    HW2 1038   1.574   0.444   2.276
  338SOL     OW 1039   1.023   0.766   2.828
  338SOL    HW1 1040   1.038   0.787   2.924
  338SOL    HW2 1041   0.993   0.671   2.819
  339SOL     OW 1042   0.980   1.573   3.562
  339SOL    HW1 1043   0.960   1.617   3.474
  339SOL    HW2 1044   1.019   1.482   3.546
  340SOL     OW 1045   1.859   1.518   3.467
  340SOL    HW1 1046   1.873   1.545   3.372
  340SOL    HW2 1047   1.942   1.540   3.520
  341SOL     OW 1048   0.350   0.898   3.666
  341SOL    HW1 1049   0.426   0.942   3.714
  341SOL    HW2 1050   0.385   0.851   3.584
  342SOL     OW 1051   1.540   0.274   1.987
  342SOL    HW1 1052   1.479   0.199   2.010
  342SOL    HW2 1053   1.562   0.326   2.070
  343SOL     OW 1054   1.303   0.838   1.904
  343SOL    HW1 1055   1.337   0.745   1.919
  343SOL    HW2 1056   1.321   0.865   1.809
  344SOL     OW 1057   1.068   1.333   2.711
  344SOL    HW1 1058   1.075   1.249   2.656
  344SOL    HW2 1059   1.130   1.402   2.675
  345SOL     OW 1060   0.319   0.810   2.811
  345SOL    HW1 1061   0.412   0.846   2.816
  345SOL    HW2 1062   0.313   0.725   2.863
  346SOL     OW 1063   0.339   0.509   2.868
  346SOL    HW1 1064   0.287   0.426   2.851
  346SOL    HW2 1065   0.416   0.514   2.804
  347SOL     OW 1066   1.138   0.380   3.540
  347SOL    HW1 1067   1.093   0.443   3.604
  347SOL    HW2 1068   1.231   0.411   3.523
  348SOL     OW 1069   1.160   0.207   3.339
  348SOL    HW1 1070   1.160   0.271   3.416
  348SOL    HW2 1071   1.188   0.255   3.256
  349SOL     OW 1072   0.008   1.326   2.062
  349SOL    HW1 1073  -0.085   1.347   2.031
  349SOL    HW2 1074   0.018   1.227   2.075
  350SOL     OW 1075   0.088   1.801   2.789
  350SOL    HW1 1076   0.046   1.715   2.762
  350SOL    HW2 1077   0.182   1.804   2.755
  351SOL     OW 1078   0.504   1.568   2.772
  351SOL    HW1 1079   0.570   1.642   2.781
  351SOL    HW2 1080   0.548   1.489   2.730
  352SOL     OW 1081   1.002   0.796   3.100
  352SOL    HW1 1082   1.043   0.764   3.186
  352SOL    HW2 1083   0.906   0.769   3.097
  353SOL     OW 1084   0.040   0.544   2.976
  353SOL    HW1 1085   0.125   0.511   2.935
  353SOL    HW2 1086   0.053   0.559   3.074
  354SOL     OW 1087   0.189   0.520   3.584
  354SOL    HW1 1088   0.248   0.480   3.514
  354SOL    HW2 1089   0.131   0.591   3.543
  355SOL     OW 1090   1.369   0.950   3.522
  355SOL    HW1 1091   1.408   1.039   3.542
  355SOL    HW2 1092   1.379   0.930   3.425
  356SOL     OW 1093   0.815   0.572   2.187
  356SOL    HW1 1094   0.822   0.483   2.141
  356SOL    HW2 1095   0.721   0.606   2.179
  357SOL     OW 1096   1.657   0.604   3.068
  357SOL    HW1 1097   1.619   0.535   3.130
  357SOL    HW2 1098   1.739   0.568   3.024
  358SOL     OW 1099   0.252   1.564   3.606
  358SOL    HW1 1100   0.222   1.621   3.682
  358SOL    HW2 1101   0.245   1.467   3.632
  359SOL     OW 1102   0.671   0.464   3.131
  359SOL    HW1 1103   0.637   0.375   3.101
  359SOL    HW2 1104   0.697   0.518   3.051
  360SOL     OW 1105   0.930   1.678   3.327
  360SOL    HW1 1106   0.906   1.660   3.232
  360SOL    HW2 1107   0.960   1.772   3.337
  361SOL     OW 1108   0.473   0.500   2.053
  361SOL    HW1 1109   0.534   0.580   2.057
  361SOL    HW2 1110   0.378   0.531   2.060
  362SOL     OW 1111   0.159   1.137   3.328
  362SOL    HW1 1112   0.181   1.076   3.404
  362SOL    HW2 1113   0.169   1.088   3.242
  363SOL     OW 1114   1.347   1.059   3.096
  363SOL    HW1 1115   1.371   0.996   3.022
  363SOL    HW2 1116   1.257   1.099   3.078
  364SOL     OW 1117   1.302   0.855   2.171
  364SOL    HW1 1118   1.216   0.824   2.213
  364SOL    HW2 1119   1.298   0.841   2.072
  365SOL     OW 1120   1.759   1.747   3.016
  365SOL    HW1 1121   1.820   1.777   2.943
  365SOL    HW2 1122   1.721   1.658   2.994
  366SOL     OW 1123   1.252   1.731   2.990
  366SOL    HW1 1124   1.336   1.736   2.936
  366SOL    HW2 1125   1.229   1.635   3.008
  367SOL     OW 1126   0.083   1.258   2.884
  367SOL    HW1 1127   0.078   1.257   2.984
  367SOL    HW2 1128   0.000   1.217   2.846
  368SOL     OW 1129   0.688   1.662   3.578
  368SOL    HW1 1130   0.632   1.743   3.587
  368SOL    HW2 1131   0.740   1.666   3.492
  369SOL     OW 1132   1.726   0.135   2.385
  369SOL    HW1 1133   1.799   0.118   2.318
  369SOL    HW2 1134   1.695   0.048   2.423
  370SOL     OW 1135   1.388   1.573   2.339
  370SOL    HW1 1136   1.455   1.585   2.265
  370SOL    HW2 1137   1.348   1.662   2.362
  371SOL     OW 1138   0.130   1.794   3.713
  371SOL    HW1 1139   0.089   1.720   3.766
  371SOL    HW2 1140   0.194   1.845   3.771
  372SOL     OW 1141   1.280   0.927   2.534
  372SOL    HW1 1142   1.340   0.846   2.536
  372SOL    HW2 1143   1.320   0.996   2.474
  373SOL     OW 1144   0.830   1.273   3.284
  373SOL    HW1 1145   0.825   1.306   3.379
  373SOL    HW2 1146   0.744   1.292   3.238
  374SOL     OW 1147   0.672   1.616   2.016
  374SOL    HW1 1148   0.681   1.626   1.917
  374SOL    HW2 1149   0.632   1.527   2.037
  375SOL     OW 1150   1.650   1.720   3.256
  375SOL    HW1 1151   1.703   1.730   3.172
  375SOL    HW2 1152   1.623   1.810   3.290
  376SOL     OW 1153   1.841   0.175   2.825
  376SOL    HW1 1154   1.880   0.090   2.789
  376SOL    HW2 1155   1.743   0.177   2.806
  377SOL     OW 1156   0.263   0.326   2.582
  377SOL    HW1 1157   0.184   0.377   2.548
  377SOL    HW2 1158   0.254   0.311   2.680
  378SOL     OW 1159   1.194   1.612   1.893
  378SOL    HW1 1160   1.200   1.519   1.930
  378SOL    HW2 1161   1.135   1.612   1.813
  379SOL     OW 1162   0.822   1.002   3.234
  379SOL    HW1 1163   0.862   1.001   3.142
  379SOL    HW2 1164   0.832   1.094   3.274
  380SOL     OW 1165   0.916   0.910   2.153
  380SOL    HW1 1166   0.979   0.948   2.085
  380SOL    HW2 1167   0.956   0.827   2.192
  381SOL     OW 1168   1.504   1.607   1.906
  381SOL    HW1 1169   1.412   1.644   1.913
  381SOL    HW2 1170   1.542   1.627   1.816
  382SOL     OW 1171   0.372   1.288   3.352
  382SOL    HW1 1172   0.359   1.381   3.318
  382SOL    HW2 1173   0.288   1.236   3.339
  383SOL     OW 1174   1.614   1.292   3.151
  383SOL    HW1 1175   1.674   1.295   3.231
  383SOL    HW2 1176   1.539   1.356   3.164
  384SOL     OW 1177   1.039   1.098   2.558
  384SOL    HW1 1178   0.969   1.051   2.612
  384SOL    HW2 1179   1.098   1.030   2.515
  385SOL     OW 1180   1.014   0.236   2.833
  385SOL    HW1 1181   1.006   0.200   2.740
  385SOL    HW2 1182   1.012   0.160   2.898
  386SOL     OW 1183   0.590   1.487   2.353
  386SOL    HW1 1184   0.632   1.429   2.283
  386SOL    HW2 1185   0.546   1.566   2.309
  387SOL     OW 1186   1.709   0.385   3.243
  387SOL    HW1 1187   1.782   0.454   3.247
  387SOL    HW2 1188   1.737   0.310   3.184
  388SOL     OW 1189   0.255   1.348   2.152
  388SOL    HW1 1190   0.159   1.349   2.125
  388SOL    HW2 1191   0.267   1.401   2.236
  389SOL     OW 1192   0.105   1.013   3.588
  389SOL    HW1 1193   0.028   0.980   3.642
  389SOL    HW2 1194   0.190   0.983   3.630
  390SOL     OW 1195   0.672   0.203   3.351
  390SOL    HW1 1196   0.762   0.187   3.311
  390SOL    HW2 1197   0.680   0.208   3.450
  391SOL     OW 1198   0.075   0.345   1.895
  391SOL    HW1 1199  -0.017   0.317   1.866
  391SOL    HW2 1200   0.106   0.422   1.839
  392SOL     OW 1201   1.440   0.856   3.260
  392SOL    HW1 1202   1.383   0.908   3.197
  392SOL    HW2 1203   1.536   0.868   3.236
  393SOL     OW 1204   0.072   0.166   2.180
  393SOL    HW1 1205   0.055   0.249   2.126
  393SOL    HW2 1206   0.162   0.129   2.158
  394SOL     OW 1207   1.183   1.335   1.981
  394SOL    HW1 1208   1.084   1.324   1.983
  394SOL    HW2 1209   1.217   1.350   2.074
  395SOL     OW 1210   0.613   0.842   3.293
  395SOL    HW1 1211   0.669   0.923   3.276
  395SOL    HW2 1212   0.672   0.762   3.296
  396SOL     OW 1213   1.493   1.767   2.821
  396SOL    HW1 1214   1.526   1.831   2.752
  396SOL    HW2 1215   1.559   1.761   2.896
  397SOL     OW 1216   0.716   0.565   3.570
  397SOL    HW1 1217   0.735   0.630   3.644
  397SOL    HW2 1218   0.776   0.485   3.579
  398SOL     OW 1219   1.450   1.220   3.495
  398SOL    HW1 1220   1.441   1.210   3.594
  398SOL    HW2 1221   1.546   1.213   3.469
  399SOL     OW 1222   0.390   1.741   3.422
  399SOL    HW1 1223   0.299   1.782   3.420
  399SOL    HW2 1224   0.383   1.647   3.454
  400SOL     OW 1225   1.674   0.883   3.116
  400SOL    HW1 1226   1.647   0.794   3.079
  400SOL    HW2 1227   1.675   0.951   3.043
  401SOL     OW 1228   1.225   0.325   2.311
  401SOL    HW1 1229   1.290   0.251   2.300
  401SOL    HW2 1230   1.245   0.375   2.395
  402SOL     OW 1231   0.594   0.745   2.514
  402SOL    HW1 1232   0.644   0.830   2.495
  402SOL    HW2 1233   0.506   0.747   2.466
  403SOL     OW 1234   1.777   0.342   3.504
  403SOL    HW1 1235   1.760   0.373   3.410
  403SOL    HW2 1236   1.693   0.305   3.542
  404SOL     OW 1237   1.730   0.934   3.379
  404SOL    HW1 1238   1.768   1.025   3.394
  404SOL    HW2 1239   1.722   0.917   3.280
  405SOL     OW 1240   0.859   1.374   1.878
  405SOL    HW1 1241   0.813   1.389   1.966
  405SOL    HW2 1242   0.903   1.459   1.848
  406SOL     OW 1243   0.661   1.790   2.815
  406SOL    HW1 1244   0.615   1.878   2.802
  406SOL    HW2 1245   0.760   1.802   2.808
  407SOL     OW 1246   0.859   0.956   2.723
  407SOL    HW1 1247   0.913   0.887   2.771
  407SOL    HW2 1248   0.827   1.025   2.789
  408SOL     OW 1249   1.083   0.984   1.949
  408SOL    HW1 1250   1.060   1.037   1.867
  408SOL    HW2 1251   1.164   0.928   1.930
  409SOL     OW 1252   1.861   1.569   2.713
  409SOL    HW1 1253   1.790   1.557   2.643
  409SOL    HW2 1254   1.862   1.490   2.773
  410SOL     OW 1255   0.221   1.314   3.706
  410SOL    HW1 1256   0.156   1.241   3.685
  410SOL    HW2 1257   0.225   1.328   3.804
  411SOL     OW 1258   0.079   1.240   2.515
  411SOL    HW1 1259   0.078   1.193   2.603
  411SOL    HW2 1260   0.161   1.212   2.464
  412SOL     OW 1261   0.672   1.391   3.486
  412SOL    HW1 1262   0.594   1.341   3.524
  412SOL    HW2 1263   0.669   1.486   3.517
  413SOL     OW 1264   1.824   0.192   3.089
  413SOL    HW1 1265   1.820   0.102   3.133
  413SOL    HW2 1266   1.827   0.181   2.990
  414SOL     OW 1267   0.428   0.424   2.382
  414SOL    HW1 1268   0.458   0.352   2.320
  414SOL    HW2 1269   0.389   0.384   2.465
  415SOL     OW 1270   1.705   1.487   2.966
  415SOL    HW1 1271   1.612   1.462   2.939
  415SOL    HW2 1272   1.731   1.437   3.048
  416SOL     OW 1273   0.317   0.547   3.142
  416SOL    HW1 1274   0.355   0.488   3.214
  416SOL    HW2 1275   0.357   0.521   3.054
  417SOL     OW 1276   0.812   1.586   2.549
  417SOL    HW1 1277   0.844   1.596   2.455
  417SOL    HW2 1278   0.733   1.524   2.551
  418SOL     OW 1279   1.424   0.214   2.974
  418SOL    HW1 1280   1.476   0.149   3.029
  418SOL    HW2 1281   1.375   0.277   3.035
  419SOL     OW 1282   1.001   0.034   3.016
  419SOL    HW1 1283   0.938  -0.038   2.985
  419SOL    HW2 1284   1.094  -0.002   3.016
  420SOL     OW 1285   0.770   1.330   2.163
  420SOL    HW1 1286   0.724   1.243   2.180
  420SOL    HW2 1287   0.861   1.327   2.204
  421SOL     OW 1288   0.618   1.567   3.146
  421SOL    HW1 1289   0.613   1.649   3.203
  421SOL    HW2 1290   0.707   1.564   3.101
  422SOL     OW 1291   1.352   0.052   2.030
  422SOL    HW1 1292   1.387   0.011   1.946
  422SOL    HW2 1293   1.262   0.014   2.050
  423SOL     OW 1294   1.300   0.453   2.553
  423SOL    HW1 1295   1.241   0.533   2.557
  423SOL    HW2 1296   1.315   0.418   2.646
  424SOL     OW 1297   1.593   0.221   2.744
  424SOL    HW1 1298   1.509   0.220   2.798
  424SOL    HW2 1299   1.595   0.304   2.688
  425SOL     OW 1300   0.039   1.077   2.162
  425SOL    HW1 1301   0.138   1.066   2.153
  425SOL    HW2 1302  -0.001   0.991   2.194
  426SOL     OW 1303   0.875   1.646   2.199
  426SOL    HW1 1304   0.798   1.611   2.145
  426SOL    HW2 1305   0.843   1.717   2.261
  427SOL     OW 1306   0.230   0.628   3.837
  427SOL    HW1 1307   0.137   0.626   3.874
  427SOL    HW2 1308   0.231   0.589   3.745
  428SOL     OW 1309   0.225   0.275   4.720
  428SOL    HW1 1310   0.260   0.258   4.812
  428SOL    HW2 1311   0.137   0.230   4.708
  429SOL     OW 1312   0.019   0.368   4.371
  429SOL    HW1 1313  -0.063   0.411   4.410
  429SOL    HW2 1314  -0.009   0.295   4.308
  430SOL     OW 1315   0.569   1.275   4.889
  430SOL    HW1 1316   0.476   1.268   4.852
  430SOL    HW2 1317   0.580   1.364   4.933
  431SOL     OW 1318   1.555   1.511   4.427
  431SOL    HW1 1319   1.498   1.495   4.508
  431SOL    HW2 1320   1.496   1.521   4.347
  432SOL     OW 1321   1.135   0.703   4.441
  432SOL    HW1 1322   1.192   0.781   4.416
  432SOL    HW2 1323   1.075   0.729   4.517
  433SOL     OW 1324   1.755   0.607   3.955
  433SOL    HW1 1325   1.743   0.594   3.856
  433SOL    HW2 1326   1.725   0.526   4.004
  434SOL     OW 1327   0.768   1.144   4.747
  434SOL    HW1 1328   0.690   1.161   4.807
  434SOL    HW2 1329   0.802   1.231   4.711
  435SOL     OW 1330   0.850   0.798   5.547
  435SOL    HW1 1331   0.846   0.874   5.612
  435SOL    HW2 1332   0.872   0.834   5.456
  436SOL     OW 1333   0.685   1.012   4.389
  436SOL    HW1 1334   0.754   0.996   4.459
  436SOL    HW2 1335   0.612   1.069   4.427
  437SOL     OW 1336   0.686   1.161   5.527
  437SOL    HW1 1337   0.746   1.240   5.541
  437SOL    HW2 1338   0.600   1.192   5.486
  438SOL     OW 1339   0.335   1.435   4.785
  438SOL    HW1 1340   0.257   1.404   4.732
  438SOL    HW2 1341   0.393   1.493   4.728
  439SOL     OW 1342   1.460   1.505   5.063
  439SOL    HW1 1343   1.484   1.599   5.089
  439SOL    HW2 1344   1.444   1.451   5.145
  440SOL     OW 1345   0.438   0.392   5.223
  440SOL    HW1 1346   0.520   0.336   5.232
  440SOL    HW2 1347   0.357   0.334   5.227
  441SOL     OW 1348   1.603   0.447   4.461
  441SOL    HW1 1349   1.529   0.493   4.411
  441SOL    HW2 1350   1.654   0.515   4.514
  442SOL     OW 1351   0.231   1.713   4.207
  442SOL    HW1 1352   0.265   1.790   4.261
  442SOL    HW2 1353   0.275   1.713   4.117
  443SOL     OW 1354   1.127   1.341   5.414
  443SOL    HW1 1355   1.174   1.341   5.502
  443SOL    HW2 1356   1.079   1.254   5.403
  444SOL     OW 1357   0.230   1.434   4.262
  444SOL    HW1 1358   0.204   1.530   4.262
  444SOL    HW2 1359   0.159   1.380   4.307
  445SOL     OW 1360   0.240   1.091   4.610
  445SOL    HW1 1361   0.254   1.007   4.662
  445SOL    HW2 1362   0.185   1.155   4.665
  446SOL     OW 1363   0.620   1.786   5.163
  446SOL    HW1 1364   0.528   1.769   5.198
  446SOL    HW2 1365   0.648   1.878   5.189
  447SOL     OW 1366   0.606   0.964   3.847
  447SOL    HW1 1367   0.613   1.048   3.793
  447SOL    HW2 1368   0.652   0.977   3.935
  448SOL     OW 1369   1.594   0.114   5.204
  448SOL    HW1 1370   1.576   0.181   5.132
  448SOL    HW2 1371   1.591   0.160   5.293
  449SOL     OW 1372   0.122   0.643   4.287
  449SOL    HW1 1373   0.077   0.555   4.304
  449SOL    HW2 1374   0.121   0.697   4.371
  450SOL     OW 1375   1.842   1.767   4.083
  450SOL    HW1 1376   1.896   1.738   4.163
  450SOL    HW2 1377   1.872   1.857   4.054
  451SOL     OW 1378   0.027   1.596   3.841
  451SOL    HW1 1379   0.008   1.500   3.862
  451SOL    HW2 1380  -0.006   1.654   3.916
  452SOL     OW 1381   1.689   0.922   4.336
  452SOL    HW1 1382   1.784   0.893   4.344
  452SOL    HW2 1383   1.681   0.987   4.261
  453SOL     OW 1384   1.641   1.108   4.156
  453SOL    HW1 1385   1.727   1.110   4.104
  453SOL    HW2 1386   1.655   1.155   4.244
  454SOL     OW 1387   0.113   0.737   5.321
  454SOL    HW1 1388   0.201   0.724   5.366
  454SOL    HW2 1389   0.100   0.834   5.299
  455SOL     OW 1390   0.613   1.365   4.450
  455SOL    HW1 1391   0.564   1.278   4.459
  455SOL    HW2 1392   0.590   1.408   4.363
  456SOL     OW 1393   1.293   1.228   5.147
  456SOL    HW1 1394   1.330   1.155   5.089
  456SOL    HW2 1395   1.345   1.233   5.232
  457SOL     OW 1396   0.809   0.004   4.226
  457SOL    HW1 1397   0.849   0.095   4.217
  457SOL    HW2 1398   0.709   0.012   4.232
  458SOL     OW 1399   0.197   0.976   4.988
  458SOL    HW1 1400   0.286   0.931   4.974
  458SOL    HW2 1401   0.124   0.911   4.969
  459SOL     OW 1402   1.525   0.999   3.914
  459SOL    HW1 1403   1.462   0.923   3.927
  459SOL    HW2 1404   1.573   1.017   4.000
  460SOL     OW 1405   1.187   1.792   5.340
  460SOL    HW1 1406   1.211   1.852   5.264
  460SOL    HW2 1407   1.194   1.697   5.310
  461SOL     OW 1408   0.317   0.251   5.525
  461SOL    HW1 1409   0.388   0.322   5.531
  461SOL    HW2 1410   0.229   0.290   5.553
  462SOL     OW 1411   1.466   1.417   4.677
  462SOL    HW1 1412   1.407   1.423   4.757
  462SOL    HW2 1413   1.451   1.329   4.631
  463SOL     OW 1414   1.667   1.714   4.296
  463SOL    HW1 1415   1.626   1.691   4.208
  463SOL    HW2 1416   1.649   1.640   4.361
  464SOL     OW 1417   0.598   0.729   3.994
  464SOL    HW1 1418   0.622   0.798   3.926
  464SOL    HW2 1419   0.520   0.762   4.048
  465SOL     OW 1420   1.281   0.345   4.668
  465SOL    HW1 1421   1.195   0.295   4.655
  465SOL    HW2 1422   1.343   0.291   4.724
  466SOL     OW 1423   1.576   1.662   4.031
  466SOL    HW1 1424   1.665   1.708   4.034
  466SOL    HW2 1425   1.555   1.638   3.936
  467SOL     OW 1426   0.807   0.605   5.189
  467SOL    HW1 1427   0.760   0.602   5.278
  467SOL    HW2 1428   0.756   0.550   5.123
  468SOL     OW 1429   1.394   0.469   5.398
  468SOL    HW1 1430   1.374   0.512   5.486
  468SOL    HW2 1431   1.472   0.407   5.407
  469SOL     OW 1432   0.973   0.890   5.296
  469SOL    HW1 1433   1.019   0.806   5.267
  469SOL    HW2 1434   0.917   0.924   5.221
  470SOL     OW 1435   0.991   0.410   4.966
  470SOL    HW1 1436   0.914   0.444   5.020
  470SOL    HW2 1437   0.957   0.359   4.887
  471SOL     OW 1438   1.041   0.701   4.153
  471SOL    HW1 1439   1.067   0.697   4.249
  471SOL    HW2 1440   0.956   0.650   4.139
  472SOL     OW 1441   0.076   0.811   4.513
  472SOL    HW1 1442   0.175   0.799   4.522
  472SOL    HW2 1443   0.052   0.906   4.534
  473SOL     OW 1444   0.130   1.821   5.295
  473SOL    HW1 1445   0.120   1.806   5.394
  473SOL    HW2 1446   0.044   1.857   5.259
  474SOL     OW 1447   0.865   0.348   3.919
  474SOL    HW1 1448   0.924   0.411   3.870
  474SOL    HW2 1449   0.884   0.254   3.890
  475SOL     OW 1450   1.719   0.585   5.555
  475SOL    HW1 1451   1.693   0.674   5.519
  475SOL    HW2 1452   1.717   0.517   5.482
  476SOL     OW 1453   1.362   1.144   4.269
  476SOL    HW1 1454   1.445   1.115   4.221
  476SOL    HW2 1455   1.313   1.211   4.213
  477SOL     OW 1456   0.550   0.196   4.609
  477SOL    HW1 1457   0.545   0.191   4.709
  477SOL    HW2 1458   0.552   0.292   4.580
  478SOL     OW 1459   1.008   1.456   4.201
  478SOL    HW1 1460   0.962   1.528   4.149
  478SOL    HW2 1461   1.004   1.476   4.299
  479SOL     OW 1462   0.351   1.801   4.577
  479SOL    HW1 1463   0.401   1.715   4.583
  479SOL    HW2 1464   0.416   1.878   4.574
  480SOL     OW 1465   1.795   1.066   4.597
  480SOL    HW1 1466   1.733   1.051   4.521
  480SOL    HW2 1467   1.743   1.077   4.682
  481SOL     OW 1468   1.227   1.550   5.230
  481SOL    HW1 1469   1.233   1.473   5.294
  481SOL    HW2 1470   1.175   1.524   5.150
  482SOL     OW 1471   0.321   0.943   3.966
  482SOL    HW1 1472   0.403   0.982   3.924
  482SOL    HW2 1473   0.294   0.861   3.917
  483SOL     OW 1474   1.458   0.735   4.452
  483SOL    HW1 1475   1.453   0.670   4.527
  483SOL    HW2 1476   1.538   0.794   4.465
  484SOL     OW 1477   0.461   1.266   5.451
  484SOL    HW1 1478   0.411   1.267   5.365
  484SOL    HW2 1479   0.398   1.248   5.527
  485SOL     OW 1480   1.111   1.776   3.961
  485SOL    HW1 1481   1.051   1.714   4.011
  485SOL    HW2 1482   1.142   1.732   3.876
  486SOL     OW 1483   0.202   0.285   5.222
  486SOL    HW1 1484   0.122   0.345   5.209
  486SOL    HW2 1485   0.192   0.236   5.308
  487SOL     OW 1486   1.632   1.377   3.805
  487SOL    HW1 1487   1.600   1.471   3.795
  487SOL    HW2 1488   1.556   1.314   3.793
  488SOL     OW 1489   0.464   1.743   4.047
  488SOL    HW1 1490   0.497   1.782   4.133
  488SOL    HW2 1491   0.540   1.736   3.982
  489SOL     OW 1492   1.400   0.107   4.150
  489SOL    HW1 1493   1.376   0.070   4.060
  489SOL    HW2 1494   1.499   0.123   4.154
  490SOL     OW 1495   0.249   1.785   4.965
  490SOL    HW1 1496   0.306   1.720   5.015
  490SOL    HW2 1497   0.233   1.752   4.872
  491SOL     OW 1498   0.940   1.698   4.628
  491SOL    HW1 1499   1.020   1.641   4.649
  491SOL    HW2 1500   0.891   1.658   4.551
  492SOL     OW 1501   0.382   0.700   4.204
  492SOL    HW1 1502   0.427   0.610   4.201
  492SOL    HW2 1503   0.288   0.689   4.237
  493SOL     OW 1504   1.547   0.222   5.453
  493SOL    HW1 1505   1.542   0.259   5.545
  493SOL    HW2 1506   1.475   0.153   5.441
  494SOL     OW 1507   0.614   0.122   3.841
  494SOL    HW1 1508   0.712   0.100   3.848
  494SOL    HW2 1509   0.583   0.105   3.748
  495SOL     OW 1510   0.781   0.264   5.473
  495SOL    HW1 1511   0.848   0.203   5.516
  495SOL    HW2 1512   0.708   0.283   5.538
  496SOL     OW 1513   0.888   1.514   4.919
  496SOL    HW1 1514   0.865   1.489   4.825
  496SOL    HW2 1515   0.949   1.445   4.958
  497SOL     OW 1516   1.351   0.590   5.157
  497SOL    HW1 1517   1.379   0.547   5.242
  497SOL    HW2 1518   1.376   0.686   5.158
  498SOL     OW 1519   0.803   1.402   4.648
  498SOL    HW1 1520   0.893   1.416   4.606
  498SOL    HW2 1521   0.732   1.404   4.577
  499SOL     OW 1522   0.922   0.503   4.623
  499SOL    HW1 1523   0.897   0.494   4.527
  499SOL    HW2 1524   0.970   0.421   4.654
  500SOL     OW 1525   0.539   0.064   4.236
  500SOL    HW1 1526   0.458   0.065   4.294
  500SOL    HW2 1527   0.542   0.147   4.181
  501SOL     OW 1528   1.434   1.188   3.765
  501SOL    HW1 1529   1.466   1.112   3.822
  501SOL    HW2 1530   1.342   1.215   3.795
  502SOL     OW 1531   0.297   0.035   3.895
  502SOL    HW1 1532   0.346   0.119   3.874
  502SOL    HW2 1533   0.359  -0.030   3.940
  503SOL     OW 1534   0.935   0.236   4.204
  503SOL    HW1 1535   0.887   0.277   4.126
  503SOL    HW2 1536   1.034   0.234   4.185
  504SOL     OW 1537   1.076   0.683   5.188
  504SOL    HW1 1538   0.996   0.622   5.191
  504SOL    HW2 1539   1.157   0.630   5.164
  505SOL     OW 1540   1.227   1.570   4.517
  505SOL    HW1 1541   1.248   1.644   4.452
  505SOL    HW2 1542   1.295   1.570   4.590
  506SOL     OW 1543   0.459   1.152   4.465
  506SOL    HW1 1544   0.388   1.125   4.530
  506SOL    HW2 1545   0.433   1.124   4.372
  507SOL     OW 1546   1.271   1.797   4.315
  507SOL    HW1 1547   1.315   1.861   4.251
  507SOL    HW2 1548   1.221   1.849   4.385
  508SOL     OW 1549   1.032   0.549   3.740
  508SOL    HW1 1550   0.991   0.631   3.701
  508SOL    HW2 1551   1.096   0.575   3.813
  509SOL     OW 1552   0.078   0.556   5.110
  509SOL    HW1 1553   0.170   0.555   5.069
  509SOL    HW2 1554   0.072   0.630   5.177
  510SOL     OW 1555   0.561   0.222   4.871
  510SOL    HW1 1556   0.599   0.138   4.908
  510SOL    HW2 1557   0.473   0.241   4.915
  511SOL     OW 1558   0.866   0.454   4.366
  511SOL    HW1 1559   0.834   0.526   4.304
  511SOL    HW2 1560   0.890   0.373   4.313
  512SOL     OW 1561   1.017   0.039   4.477
  512SOL    HW1 1562   0.945   0.044   4.408
  512SOL    HW2 1563   0.993  -0.030   4.546
  513SOL     OW 1564   1.429   1.173   4.591
  513SOL    HW1 1565   1.374   1.089   4.584
  513SOL    HW2 1566   1.455   1.202   4.499
  514SOL     OW 1567   1.466   0.590   4.716
  514SOL    HW1 1568   1.436   0.495   4.723
  514SOL    HW2 1569   1.539   0.606   4.782
  515SOL     OW 1570   1.857   0.833   4.101
  515SOL    HW1 1571   1.899   0.769   4.165
  515SOL    HW2 1572   1.819   0.782   4.023
  516SOL     OW 1573   0.488   1.385   3.898
  516SOL    HW1 1574   0.401   1.370   3.945
  516SOL    HW2 1575   0.471   1.411   3.803
  517SOL     OW 1576   1.664   1.280   4.381
  517SOL    HW1 1577   1.763   1.288   4.395
  517SOL    HW2 1578   1.619   1.364   4.412
  518SOL     OW 1579   1.390   0.575   3.802
  518SOL    HW1 1580   1.336   0.554   3.883
  518SOL    HW2 1581   1.481   0.534   3.811
  519SOL     OW 1582   0.527   0.256   4.052
  519SOL    HW1 1583   0.554   0.197   3.977
  519SOL    HW2 1584   0.527   0.351   4.021
  520SOL     OW 1585   1.754   1.223   5.312
  520SOL    HW1 1586   1.845   1.184   5.299
  520SOL    HW2 1587   1.762   1.319   5.336
  521SOL     OW 1588   1.064   1.347   5.064
  521SOL    HW1 1589   0.984   1.324   5.119
  521SOL    HW2 1590   1.147   1.321   5.113
  522SOL     OW 1591   1.592   1.629   5.349
  522SOL    HW1 1592   1.619   1.663   5.259
  522SOL    HW2 1593   1.671   1.591   5.395
  523SOL     OW 1594   1.111   1.195   4.824
  523SOL    HW1 1595   1.071   1.239   4.905
  523SOL    HW2 1596   1.070   1.232   4.741
  524SOL     OW 1597   1.638   1.099   4.803
  524SOL    HW1 1598   1.643   1.180   4.862
  524SOL    HW2 1599   1.552   1.101   4.752
  525SOL     OW 1600   0.915   0.089   5.126
  525SOL    HW1 1601   0.940   0.069   5.031
  525SOL    HW2 1602   0.987   0.145   5.168
  526SOL     OW 1603   0.980   1.116   5.443
  526SOL    HW1 1604   0.881   1.122   5.453
  526SOL    HW2 1605   1.003   1.036   5.387
  527SOL     OW 1606   0.705   1.050   4.092
  527SOL    HW1 1607   0.691   1.057   4.191
  527SOL    HW2 1608   0.789   0.999   4.074
  528SOL     OW 1609   0.410   0.813   4.975
  528SOL    HW1 1610   0.496   0.825   5.025
  528SOL    HW2 1611   0.368   0.726   5.002
  529SOL     OW 1612   1.274   0.386   4.986
  529SOL    HW1 1613   1.295   0.460   5.050
  529SOL    HW2 1614   1.185   0.403   4.943
  530SOL     OW 1615   0.064   1.564   5.055
  530SOL    HW1 1616   0.018   1.646   5.021
  530SOL    HW2 1617   0.162   1.583   5.064
  531SOL     OW 1618   0.367   1.100   4.225
  531SOL    HW1 1619   0.360   1.183   4.169
  531SOL    HW2 1620   0.371   1.020   4.165
  532SOL     OW 1621   0.566   0.537   4.589
  532SOL    HW1 1622   0.578   0.603   4.515
  532SOL    HW2 1623   0.612   0.571   4.672
  533SOL     OW 1624   1.252   1.348   4.112
  533SOL    HW1 1625   1.302   1.425   4.152
  533SOL    HW2 1626   1.157   1.350   4.144
  534SOL     OW 1627   1.272   1.445   4.866
  534SOL    HW1 1628   1.319   1.458   4.953
  534SOL    HW2 1629   1.206   1.371   4.875
  535SOL     OW 1630   1.582   0.639   4.196
  535SOL    HW1 1631   1.551   0.700   4.269
  535SOL    HW2 1632   1.632   0.691   4.127
  536SOL     OW 1633   0.354   1.510   5.053
  536SOL    HW1 1634   0.333   1.466   4.966
  536SOL    HW2 1635   0.451   1.536   5.056
  537SOL     OW 1636   0.402   0.751   5.322
  537SOL    HW1 1637   0.470   0.806   5.275
  537SOL    HW2 1638   0.442   0.663   5.349
  538SOL     OW 1639   1.587   0.779   5.394
  538SOL    HW1 1640   1.495   0.817   5.389
  538SOL    HW2 1641   1.647   0.826   5.329
  539SOL     OW 1642   1.013   0.105   5.494
  539SOL    HW1 1643   1.019   0.190   5.442
  539SOL    HW2 1644   1.045   0.029   5.437
  540SOL     OW 1645   0.504   0.050   5.464
  540SOL    HW1 1646   0.462  -0.007   5.394
  540SOL    HW2 1647   0.438   0.119   5.496
  541SOL     OW 1648   0.573   0.870   4.753
  541SOL    HW1 1649   0.617   0.959   4.744
  541SOL    HW2 1650   0.510   0.870   4.830
  542SOL     OW 1651   1.360   0.862   4.769
  542SOL    HW1 1652   1.285   0.862   4.703
  542SOL    HW2 1653   1.397   0.770   4.778
  543SOL     OW 1654   1.209   0.525   3.999
  543SOL    HW1 1655   1.222   0.441   4.053
  543SOL    HW2 1656   1.180   0.599   4.059
  544SOL     OW 1657   0.307   0.213   4.955
  544SOL    HW1 1658   0.284   0.250   5.045
  544SOL    HW2 1659   0.277   0.118   4.949
  545SOL     OW 1660   0.037   1.310   5.006
  545SOL    HW1 1661   0.090   1.261   5.074
  545SOL    HW2 1662   0.059   1.408   5.011
  546SOL     OW 1663   0.732   0.634   4.788
  546SOL    HW1 1664   0.791   0.608   4.712
  546SOL    HW2 1665   0.704   0.730   4.777
  547SOL     OW 1666   1.728   0.935   5.578
  547SOL    HW1 1667   1.682   0.928   5.489
  547SOL    HW2 1668   1.666   0.979   5.644
  548SOL     OW 1669   0.307   0.063   4.342
  548SOL    HW1 1670   0.296   0.157   4.375
  548SOL    HW2 1671   0.302   0.000   4.419
  549SOL     OW 1672   1.622   0.367   4.098
  549SOL    HW1 1673   1.624   0.291   4.162
  549SOL    HW2 1674   1.574   0.444   4.138
  550SOL     OW 1675   1.023   0.766   4.690
  550SOL    HW1 1676   1.038   0.787   4.786
  550SOL    HW2 1677   0.993   0.671   4.681
  551SOL     OW 1678   0.980   1.573   5.424
  551SOL    HW1 1679   0.960   1.617   5.336
  551SOL    HW2 1680   1.019   1.482   5.408
  552SOL     OW 1681   1.859   1.518   5.329
  552SOL    HW1 1682   1.873   1.545   5.234
  552SOL    HW2 1683   1.942   1.540   5.382
  553SOL     OW 1684   0.350   0.898   5.528
  553SOL    HW1 1685   0.426   0.942   5.576
  553SOL    HW2 1686   0.385   0.851   5.446
  554SOL     OW 1687   1.540   0.274   3.849
  554SOL    HW1 1688   1.479   0.199   3.872
  554SOL    HW2 1689   1.562   0.326   3.932
  555SOL     OW 1690   1.303   0.838   3.766
  555SOL    HW1 1691   1.337   0.745   3.781
  555SOL    HW2 1692   1.321   0.865   3.671
  556SOL     OW 1693   1.068   1.333   4.573
  556SOL    HW1 1694   1.075   1.249   4.518
  556SOL    HW2 1695   1.130   1.402   4.537
  557SOL     OW 1696   0.319   0.810   4.673
  557SOL    HW1 1697   0.412   0.846   4.678
  557SOL    HW2 1698   0.313   0.725   4.725
  558SOL     OW 1699   0.339   0.509   4.730
  558SOL    HW1 1700   0.287   0.426   4.713
  558SOL    HW2 1701   0.416   0.514   4.666
  559SOL     OW 1702   1.138   0.380   5.402
  559SOL    HW1 1703   1.093   0.443   5.466
  559SOL    HW2 1704   1.231   0.411   5.385
  560SOL     OW 1705   1.160   0.207   5.201
  560SOL    HW1 1706   1.160   0.271   5.278
  560SOL    HW2 1707   1.188   0.255   5.118
  561SOL     OW 1708   0.008   1.326   3.924
  561SOL    HW1 1709  -0.085   1.347   3.893
  561SOL    HW2 1710   0.018   1.227   3.937
  562SOL     OW 1711   0.088   1.801   4.651
  562SOL    HW1 1712   0.046   1.715   4.624
  562SOL    HW2 1713   0.182   1.804   4.617
  563SOL     OW 1714   0.504   1.568   4.634
  563SOL    HW1 1715   0.570   1.642   4.643
  563SOL    HW2 1716   0.548   1.489   4.592
  564SOL     OW 1717   1.002   0.796   4.962
  564SOL    HW1 1718   1.043   0.764   5.048
  564SOL    HW2 1719   0.906   0.769   4.959
  565SOL     OW 1720   0.040   0.544   4.838
  565SOL    HW1 1721   0.125   0.511   4.797
  565SOL    HW2 1722   0.053   0.559   4.936
  566SOL     OW 1723   0.189   0.520   5.446
  566SOL    HW1 1724   0.248   0.480   5.376
  566SOL    HW2 1725   0.131   0.591   5.405
  567SOL     OW 1726   1.369   0.950   5.384
  567SOL    HW1 1727   1.408   1.039   5.404
  567SOL    HW2 1728   1.379   0.930   5.287
  568SOL     OW 1729   0.815   0.572   4.049
  568SOL    HW1 1730   0.822   0.483   4.003
  568SOL    HW2 1731   0.721   0.606   4.041
  569SOL     OW 1732   1.657   0.604   4.930
  569SOL    HW1 1733   1.619   0.535   4.992
  569SOL    HW2 1734   1.739   0.568   4.886
  570SOL     OW 1735   0.252   1.564   5.468
  570SOL    HW1 1736   0.222   1.621   5.544
  570SOL    HW2 1737   0.245   1.467   5.494
  571SOL     OW 1738   0.671   0.464   4.993
  571SOL    HW1 1739   0.637   0.375   4.963
  571SOL    HW2 1740   0.697   0.518   4.913
  572SOL     OW 1741   0.930   1.678   5.189
  572SOL    HW1 1742   0.906   1.660   5.094
  572SOL    HW2 1743   0.960   1.772   5.199
  573SOL     OW 1744   0.473   0.500   3.915
  573SOL    HW1 1745   0.534   0.580   3.919
  573SOL    HW2 1746   0.378   0.531   3.922
  574SOL     OW 1747   0.159   1.137   5.190
  574SOL    HW1 1748   0.181   1.076   5.266
  574SOL    HW2 1749   0.169   1.088   5.104
  575SOL     OW 1750   1.347   1.059   4.958
  575SOL    HW1 1751   1.371   0.996   4.884
  575SOL    HW2 1752   1.257   1.099   4.940
  576SOL     OW 1753   1.302   0.855   4.033
  576SOL    HW1 1754   1.216   0.824   4.075
  576SOL    HW2 1755   1.298   0.841   3.934
  577SOL     OW 1756   1.759   1.747   4.878
  577SOL    HW1 1757   1.820   1.777   4.805
  577SOL    HW2 1758   1.721   1.658   4.856
  578SOL     OW 1759   1.252   1.731   4.852
  578SOL    HW1 1760   1.336   1.736   4.798
  578SOL    HW2 1761   1.229   1.635   4.870
  579SOL     OW 1762   0.083   1.258   4.746
  579SOL    HW1 1763   0.078   1.257   4.846
  579SOL    HW2 1764   0.000   1.217   4.708
  580SOL     OW 1765   0.688   1.662   5.440
  580SOL    HW1 1766   0.632   1.743   5.449
  580SOL    HW2 1767   0.740   1.666   5.354
  581SOL     OW 1768   1.726   0.135   4.247
  581SOL    HW1 1769   1.799   0.118   4.180
  581SOL    HW2 1770   1.695   0.048   4.285
  582SOL     OW 1771   1.388   1.573   4.201
  582SOL    HW1 1772   1.455   1.585   4.127
  582SOL    HW2 1773   1.348   1.662   4.224
  583SOL     OW 1774   0.130   1.794   5.575
  583SOL    HW1 1775   0.089   1.720   5.628
  583SOL    HW2 1776   0.194   1.845   5.633
  584SOL     OW 1777   1.280   0.927   4.396
  584SOL    HW1 1778   1.340   0.846   4.398
  584SOL    HW2 1779   1.320   0.996   4.336
  585SOL     OW 1780   0.830   1.273   5.146
  585SOL    HW1 1781   0.825   1.306   5.241
  585SOL    HW2 1782   0.744   1.292   5.100
  586SOL     OW 1783   0.672   1.616   3.878
  586SOL    HW1 1784   0.681   1.626   3.779
  586SOL    HW2 1785   0.632   1.527   3.899
  587SOL     OW 1786   1.650   1.720   5.118
  587SOL    HW1 1787   1.703   1.730   5.034
  587SOL    HW2 1788   1.623   1.810   5.152
  588SOL     OW 1789   1.841   0.175   4.687
  588SOL    HW1 1790   1.880   0.090   4.651
  588SOL    HW2 1791   1.743   0.177   4.668
  589SOL     OW 1792   0.263   0.326   4.444
  589SOL    HW1 1793   0.184   0.377   4.410
  589SOL    HW2 1794   0.254   0.311   4.542
  590SOL     OW 1795   1.194   1.612   3.755
  590SOL    HW1 1796   1.200   1.519   3.792
  590SOL    HW2 1797   1.135   1.612   3.675
  591SOL     OW 1798   0.822   1.002   5.096
  591SOL    HW1 1799   0.862   1.001   5.004
  591SOL    HW2 1800   0.832   1.094   5.136
  592SOL     OW 1801   0.916   0.910   4.015
  592SOL    HW1 1802   0.979   0.948   3.947
  592SOL    HW2 1803   0.956   0.827   4.054
  593SOL     OW 1804   1.504   1.607   3.768
  593SOL    HW1 1805   1.412   1.644   3.775
  593SOL    HW2 1806   1.542   1.627   3.678
  594SOL     OW 1807   0.372   1.288   5.214
  594SOL    HW1 1808   0.359   1.381   5.180
  594SOL    HW2 1809   0.288   1.236   5.201
  595SOL     OW 1810   1.614   1.292   5.013
  595SOL    HW1 1811   1.674   1.295   5.093
  595SOL    HW2 1812   1.539   1.356   5.026
  596SOL     OW 1813   1.039   1.098   4.420
  596SOL    HW1 1814   0.969   1.051   4.474
  596SOL    HW2 1815   1.098   1.030   4.377
  597SOL     OW 1816   1.014   0.236   4.695
  597SOL    HW1 1817   1.006   0.200   4.602
  597SOL    HW2 1818   1.012   0.160   4.760
  598SOL     OW 1819   0.590   1.487   4.215
  598SOL    HW1 1820   0.632   1.429   4.145
  598SOL    HW2 1821   0.546   1.566   4.171
  599SOL     OW 1822   1.709   0.385   5.105
  599SOL    HW1 1823   1.782   0.454   5.109
  599SOL    HW2 1824   1.737   0.310   5.046
  600SOL     OW 1825   0.255   1.348   4.014
  600SOL    HW1 1826   0.159   1.349   3.987
  600SOL    HW2 1827   0.267   1.401   4.098
  601SOL     OW 1828   0.105   1.013   5.450
  601SOL    HW1 1829   0.028   0.980   5.504
  601SOL    HW2 1830   0.190   0.983   5.492
  602SOL     OW 1831   0.672   0.203   5.213
  602SOL    HW1 1832   0.762   0.187   5.173
  602SOL    HW2 1833   0.680   0.208   5.312
  603SOL     OW 1834   0.075   0.345   3.757
  603SOL    HW1 1835  -0.017   0.317   3.728
  603SOL    HW2 1836   0.106   0.422   3.701
  604SOL     OW 1837   1.440   0.856   5.122
  604SOL    HW1 1838   1.383   0.908   5.059
  604SOL    HW2 1839   1.536   0.868   5.098
  605SOL     OW 1840   0.072   0.166   4.042
  605SOL    HW1 1841   0.055   0.249   3.988
  605SOL    HW2 1842   0.162   0.129   4.020
  606SOL     OW 1843   1.183   1.335   3.843
  606SOL    HW1 1844   1.084   1.324   3.845
  606SOL    HW2 1845   1.217   1.350   3.936
  607SOL     OW 1846   0.613   0.842   5.155
  607SOL    HW1 1847   0.669   0.923   5.138
  607SOL    HW2 1848   0.672   0.762   5.158
  608SOL     OW 1849   1.493   1.767   4.683
  608SOL    HW1 1850   1.526   1.831   4.614
  608SOL    HW2 1851   1.559   1.761   4.758
  609SOL     OW 1852   0.716   0.565   5.432
  609SOL    HW1 1853   0.735   0.630   5.506
  609SOL    HW2 1854   0.776   0.485   5.441
  610SOL     OW 1855   1.450   1.220   5.357
  610SOL    HW1 1856   1.441   1.210   5.456
  610SOL    HW2 1857   1.546   1.213   5.331
  611SOL     OW 1858   0.390   1.741   5.284
  611SOL    HW1 1859   0.299   1.782   5.282
  611SOL    HW2 1860   0.383   1.647   5.316
  612SOL     OW 1861   1.674   0.883   4.978
  612SOL    HW1 1862   1.647   0.794   4.941
  612SOL    HW2 1863   1.675   0.951   4.905
  613SOL     OW 1864   1.225   0.325   4.173
  613SOL    HW1 1865   1.290   0.251   4.162
  613SOL    HW2 1866   1.245   0.375   4.257
  614SOL     OW 1867   0.594   0.745   4.376
  614SOL    HW1 1868   0.644   0.830   4.357
  614SOL    HW2 1869   0.506   0.747   4.328
  615SOL     OW 1870   1.777   0.342   5.366
  615SOL    HW1 1871   1.760   0.373   5.272
  615SOL    HW2 1872   1.693   0.305   5.404
  616SOL     OW 1873   1.730   0.934   5.241
  616SOL    HW1 1874   1.768   1.025   5.256
  616SOL    HW2 1875   1.722   0.917   5.142
  617SOL     OW 1876   0.859   1.374   3.740
  617SOL    HW1 1877   0.813   1.389   3.828
  617SOL    HW2 1878   0.903   1.459   3.710
  618SOL     OW 1879   0.661   1.790   4.677
  618SOL    HW1 1880   0.615   1.878   4.664
  618SOL    HW2 1881   0.760   1.802   4.670
  619SOL     OW 1882   0.859   0.956   4.585
  619SOL    HW1 1883   0.913   0.887   4.633
  619SOL    HW2 1884   0.827   1.025   4.651
  620SOL     OW 1885   1.083   0.984   3.811
  620SOL    HW1 1886   1.060   1.037   3.729
  620SOL    HW2 1887   1.164   0.928   3.792
  621SOL     OW 1888   1.861   1.569   4.575
  621SOL    HW1 1889   1.790   1.557   4.505
  621SOL    HW2 1890   1.862   1.490   4.635
  622SOL     OW 1891   0.221   1.314   5.568
  622SOL    HW1 1892   0.156   1.241   5.547
  622SOL    HW2 1893   0.225   1.328   5.666
  623SOL     OW 1894   0.079   1.240   4.377
  623SOL    HW1 1895   0.078   1.193   4.465
  623SOL    HW2 1896   0.161   1.212   4.326
  624SOL     OW 1897   0.672   1.391   5.348
  624SOL    HW1 1898   0.594   1.341   5.386
  624SOL    HW2 1899   0.669   1.486   5.379
  625SOL     OW 1900   1.824   0.192   4.951
  625SOL    HW1 1901   1.820   0.102   4.995
  625SOL    HW2 1902   1.827   0.181   4.852
  626SOL     OW 1903   0.428   0.424   4.244
  626SOL    HW1 1904   0.458   0.352   4.182
  626SOL    HW2 1905   0.389   0.384   4.327
  627SOL     OW 1906   1.705   1.487   4.828
  627SOL    HW1 1907   1.612   1.462   4.801
  627SOL    HW2 1908   1.731   1.437   4.910
  628SOL     OW 1909   0.317   0.547   5.004
  628SOL    HW1 1910   0.355   0.488   5.076
  628SOL    HW2 1911   0.357   0.521   4.916
  629SOL     OW 1912   0.812   1.586   4.411
  629SOL    HW1 1913   0.844   1.596   4.317
  629SOL    HW2 1914   0.733   1.524   4.413
  630SOL     OW 1915   1.424   0.214   4.836
  630SOL    HW1 1916   1.476   0.149   4.891
  630SOL    HW2 1917   1.375   0.277   4.897
  631SOL     OW 1918   1.001   0.034   4.878
  631SOL    HW1 1919   0.938  -0.038   4.847
  631SOL    HW2 1920   1.094  -0.002   4.878
  632SOL     OW 1921   0.770   1.330   4.025
  632SOL    HW1 1922   0.724   1.243   4.042
  632SOL    HW2 1923   0.861   1.327   4.066
  633SOL     OW 1924   0.618   1.567   5.008
  633SOL    HW1 1925   0.613   1.649   5.065
  633SOL    HW2 1926   0.707   1.564   4.963
  634SOL     OW 1927   1.352   0.052   3.892
  634SOL    HW1 1928   1.387   0.011   3.808
  634SOL    HW2 1929   1.262   0.014   3.912
  635SOL     OW 1930   1.300   0.453   4.415
  635SOL    HW1 1931   1.241   0.533   4.419
  635SOL    HW2 1932   1.315   0.418   4.508
  636SOL     OW 1933   1.593   0.221   4.606
  636SOL    HW1 1934   1.509   0.220   4.660
  636SOL    HW2 1935   1.595   0.304   4.550
  637SOL     OW 1936   0.039   1.077   4.024
  637SOL    HW1 1937   0.138   1.066   4.015
  637SOL    HW2 1938  -0.001   0.991   4.056
  638SOL     OW 1939   0.875   1.646   4.061
  638SOL    HW1 1940   0.798   1.611   4.007
  638SOL    HW2 1941   0.843   1.717   4.123
  639SOL     OW 1942   0.230   0.628   5.699
  639SOL    HW1 1943   0.137   0.626   5.736
  639SOL    HW2 1944   0.231   0.589   5.607
  640SOL     OW 1945   0.225   0.275   6.582
  640SOL    HW1 1946   0.260   0.258   6.674
  640SOL    HW2 1947   0.137   0.230   6.570
  641SOL     OW 1948   0.019   0.368   6.233
  641SOL    HW1 1949  -0.063   0.411   6.272
  641SOL    HW2 1950  -0.009   0.295   6.170
  642SOL     OW 1951   0.569   1.275   6.751
  642SOL    HW1 1952   0.476   1.268   6.714
  642SOL    HW2 1953   0.580   1.364   6.795
  643SOL     OW 1954   1.555   1.511   6.289
  643SOL    HW1 1955   1.498   1.495   6.370
  643SOL    HW2 1956   1.496   1.521   6.209
  644SOL     OW 1957   1.135   0.703   6.303
  644SOL    HW1 1958   1.192   0.781   6.278
  644SOL    HW2 1959   1.075   0.729   6.379
  645SOL     OW 1960   1.755   0.607   5.817
  645SOL    HW1 1961   1.743   0.594   5.718
  645SOL    HW2 1962   1.725   0.526   5.866
  646SOL     OW 1963   0.768   1.144   6.609
  646SOL    HW1 1964   0.690   1.161   6.669
  646SOL    HW2 1965   0.802   1.231   6.573
  647SOL     OW 1966   0.850   0.798   7.409
  647SOL    HW1 1967   0.846   0.874   7.474
  647SOL    HW2 1968   0.872   0.834   7.318
  648SOL     OW 1969   0.685   1.012   6.251
  648SOL    HW1 1970   0.754   0.996   6.321
  648SOL    HW2 1971   0.612   1.069   6.289
  649SOL     OW 1972   0.686   1.161   7.389
  649SOL    HW1 1973   0.746   1.240   7.403
  649SOL    HW2 1974   0.600   1.192   7.348
  650SOL     OW 1975   0.335   1.435   6.647
  650SOL    HW1 1976   0.257   1.404   6.594
  650SOL    HW2 1977   0.393   1.493   6.590
  651SOL     OW 1978   1.460   1.505   6.925
  651SOL    HW1 1979   1.484   1.599   6.951
  651SOL    HW2 1980   1.444   1.451   7.007
  652SOL     OW 1981   0.438   0.392   7.085
  652SOL    HW1 1982   0.520   0.336   7.094
  652SOL    HW2 1983   0.357   0.334   7.089
  653SOL     OW 1984   1.603   0.447   6.323
  653SOL    HW1 1985   1.529   0.493   6.273
  653SOL    HW2 1986   1.654   0.515   6.376
  654SOL     OW 1987   0.231   1.713   6.069
  654SOL    HW1 1988   0.265   1.790   6.123
  654SOL    HW2 1989   0.275   1.713   5.979
  655SOL     OW 1990   1.127   1.341   7.276
  655SOL    HW1 1991   1.174   1.341   7.364
  655SOL    HW2 1992   1.079   1.254   7.265
  656SOL     OW 1993   0.230   1.434   6.124
  656SOL    HW1 1994   0.204   1.530   6.124
  656SOL    HW2 1995   0.159   1.380   6.169
  657SOL     OW 1996   0.240   1.091   6.472
  657SOL    HW1 1997   0.254   1.007   6.524
  657SOL    HW2 1998   0.185   1.155   6.527
  658SOL     OW 1999   0.620   1.786   7.025
  658SOL    HW1 2000   0.528   1.769   7.060
  658SOL    HW2 2001   0.648   1.878   7.051
  659SOL     OW 2002   0.606   0.964   5.709
  659SOL    HW1 2003   0.613   1.048   5.655
  659SOL    HW2 2004   0.652   0.977   5.797
  660SOL     OW 2005   1.594   0.114   7.066
  660SOL    HW1 2006   1.576   0.181   6.994
  660SOL    HW2 2007   1.591   0.160   7.155
  661SOL     OW 2008   0.122   0.643   6.149
  661SOL    HW1 2009   0.077   0.555   6.166
  661SOL    HW2 2010   0.121   0.697   6.233
  662SOL     OW 2011   1.842   1.767   5.945
  662SOL    HW1 2012   1.896   1.738   6.025
  662SOL    HW2 2013   1.872   1.857   5.916
  663SOL     OW 2014   0.027   1.596   5.703
  663SOL    HW1 2015   0.008   1.500   5.724
  663SOL    HW2 2016  -0.006   1.654   5.778
  664SOL     OW 2017   1.689   0.922   6.198
  664SOL    HW1 2018   1.784   0.893   6.206
  664SOL    HW2 2019   1.681   0.987   6.123
  665SOL     OW 2020   1.641   1.108   6.018
  665SOL    HW1 2021   1.727   1.110   5.966
  665SOL    HW2 2022   1.655   1.155   6.106
  666SOL     OW 2023   0.113   0.737   7.183
  666SOL    HW1 2024   0.201   0.724   7.228
  666SOL    HW2 2025   0.100   0.834   7.161
  667SOL     OW 2026   0.613   1.365   6.312
  667SOL    HW1 2027   0.564   1.278   6.321
  667SOL    HW2 2028   0.590   1.408   6.225
  668SOL     OW 2029   1.293   1.228   7.009
  668SOL    HW1 2030   1.330   1.155   6.951
  668SOL    HW2 2031   1.345   1.233   7.094
  669SOL     OW 2032   0.809   0.004   6.088
  669SOL    HW1 2033   0.849   0.095   6.079
  669SOL    HW2 2034   0.709   0.012   6.094
  670SOL     OW 2035   0.197   0.976   6.850
  670SOL    HW1 2036   0.286   0.931   6.836
  670SOL    HW2 2037   0.124   0.911   6.831
  671SOL     OW 2038   1.525   0.999   5.776
  671SOL    HW1 2039   1.462   0.923   5.789
  671SOL    HW2 2040   1.573   1.017   5.862
  672SOL     OW 2041   1.187   1.792   7.202
  672SOL    HW1 2042   1.211   1.852   7.126
  672SOL    HW2 2043   1.194   1.697   7.172
  673SOL     OW 2044   0.317   0.251   7.387
  673SOL    HW1 2045   0.388   0.322   7.393
  673SOL    HW2 2046   0.229   0.290   7.415
  674SOL     OW 2047   1.466   1.417   6.539
  674SOL    HW1 2048   1.407   1.423   6.619
  674SOL    HW2 2049   1.451   1.329   6.493
  675SOL     OW 2050   1.667   1.714   6.158
  675SOL    HW1 2051   1.626   1.691   6.070
  675SOL    HW2 2052   1.649   1.640   6.223
  676SOL     OW 2053   0.598   0.729   5.856
  676SOL    HW1 2054   0.622   0.798   5.788
  676SOL    HW2 2055   0.520   0.762   5.910
  677SOL     OW 2056   1.281   0.345   6.530
  677SOL    HW1 2057   1.195   0.295   6.517
  677SOL    HW2 2058   1.343   0.291   6.586
  678SOL     OW 2059   1.576   1.662   5.893
  678SOL    HW1 2060   1.665   1.708   5.896
  678SOL    HW2 2061   1.555   1.638   5.798
  679SOL     OW 2062   0.807   0.605   7.051
  679SOL    HW1 2063   0.760   0.602   7.140
  679SOL    HW2 2064   0.756   0.550   6.985
  680SOL     OW 2065   1.394   0.469   7.260
  680SOL    HW1 2066   1.374   0.512   7.348
  680SOL    HW2 2067   1.472   0.407   7.269
  681SOL     OW 2068   0.973   0.890   7.158
  681SOL    HW1 2069   1.019   0.806   7.129
  681SOL    HW2 2070   0.917   0.924   7.083
  682SOL     OW 2071   0.991   0.410   6.828
  682SOL    HW1 2072   0.914   0.444   6.882
  682SOL    HW2 2073   0.957   0.359   6.749
  683SOL     OW 2074   1.041   0.701   6.015
  683SOL    HW1 2075   1.067   0.697   6.111
  683SOL    HW2 2076   0.956   0.650   6.001
  684SOL     OW 2077   0.076   0.811   6.375
  684SOL    HW1 2078   0.175   0.799   6.384
  684SOL    HW2 2079   0.052   0.906   6.396
  685SOL     OW 2080   0.130   1.821   7.157
  685SOL    HW1 2081   0.120   1.806   7.256
  685SOL    HW2 2082   0.044   1.857   7.121
  686SOL     OW 2083   0.865   0.348   5.781
  686SOL    HW1 2084   0.924   0.411   5.732
  686SOL    HW2 2085   0.884   0.254   5.752
  687SOL     OW 2086   1.719   0.585   7.417
  687SOL    HW1 2087   1.693   0.674   7.381
  687SOL    HW2 2088   1.717   0.517   7.344
  688SOL     OW 2089   1.362   1.144   6.131
  688SOL    HW1 2090   1.445   1.115   6.083
  688SOL    HW2 2091   1.313   1.211   6.075
  689SOL     OW 2092   0.550   0.196   6.471
  689SOL    HW1 2093   0.545   0.191   6.571
  689SOL    HW2 2094   0.552   0.292   6.442
  690SOL     OW 2095   1.008   1.456   6.063
  690SOL    HW1 2096   0.962   1.528   6.011
  690SOL    HW2 2097   1.004   1.476   6.161
  691SOL     OW 2098   0.351   1.801   6.439
  691SOL    HW1 2099   0.401   1.715   6.445
  691SOL    HW2 2100   0.416   1.878   6.436
  692SOL     OW 2101   1.795   1.066   6.459
  692SOL    HW1 2102   1.733   1.051   6.383
  692SOL    HW2 2103   1.743   1.077   6.544
  693SOL     OW 2104   1.227   1.550   7.092
  693SOL    HW1 2105   1.233   1.473   7.156
  693SOL    HW2 2106   1.175   1.524   7.012
  694SOL     OW 2107   0.321   0.943   5.828
  694SOL    HW1 2108   0.403   0.982   5.786
  694SOL    HW2 2109   0.294   0.861   5.779
  695SOL     OW 2110   1.458   0.735   6.314
  695SOL    HW1 2111   1.453   0.670   6.389
  695SOL    HW2 2112   1.538   0.794   6.327
  696SOL     OW 2113   0.461   1.266   7.313
  696SOL    HW1 2114   0.411   1.267   7.227
  696SOL    HW2 2115   0.398   1.248   7.389
  697SOL     OW 2116   1.111   1.776   5.823
  697SOL    HW1 2117   1.051   1.714   5.873
  697SOL    HW2 2118   1.142   1.732   5.738
  698SOL     OW 2119   0.202   0.285   7.084
  698SOL    HW1 2120   0.122   0.345   7.071
  698SOL    HW2 2121   0.192   0.236   7.170
  699SOL     OW 2122   1.632   1.377   5.667
  699SOL    HW1 2123   1.600   1.471   5.657
  699SOL    HW2 2124   1.556   1.314   5.655
  700SOL     OW 2125   0.464   1.743   5.909
  700SOL    HW1 2126   0.497   1.782   5.995
  700SOL    HW2 2127   0.540   1.736   5.844
  701SOL     OW 2128   1.400   0.107   6.012
  701SOL    HW1 2129   1.376   0.070   5.922
  701SOL    HW2 2130   1.499   0.123   6.016
  702SOL     OW 2131   0.249   1.785   6.827
  702SOL    HW1 2132   0.306   1.720   6.877
  702SOL    HW2 2133   0.233   1.752   6.734
  703SOL     OW 2134   0.940   1.698   6.490
  703SOL    HW1 2135   1.020   1.641   6.511
  703SOL    HW2 2136   0.891   1.658   6.413
  704SOL     OW 2137   0.382   0.700   6.066
  704SOL    HW1 2138   0.427   0.610   6.063
  704SOL    HW2 2139   0.288   0.689   6.099
  705SOL     OW 2140   1.547   0.222   7.315
  705SOL    HW1 2141   1.542   0.259   7.407
  705SOL    HW2 2142   1.475   0.153   7.303
  706SOL     OW 2143   0.614   0.122   5.703
  706SOL    HW1 2144   0.712   0.100   5.710
  706SOL    HW2 2145   0.583   0.105   5.610
  707SOL     OW 2146   0.781   0.264   7.335
  707SOL    HW1 2147   0.848   0.203   7.378
  707SOL    HW2 2148   0.708   0.283   7.400
  708SOL     OW 2149   0.888   1.514   6.781
  708SOL    HW1 2150   0.865   1.489   6.687
  708SOL    HW2 2151   0.949   1.445   6.820
  709SOL     OW 2152   1.351   0.590   7.019
  709SOL    HW1 2153   1.379   0.547   7.104
  709SOL    HW2 2154   1.376   0.686   7.020
  710SOL     OW 2155   0.803   1.402   6.510
  710SOL    HW1 2156   0.893   1.416   6.468
  710SOL    HW2 2157   0.732   1.404   6.439
  711SOL     OW 2158   0.922   0.503   6.485
  711SOL    HW1 2159   0.897   0.494   6.389
  711SOL    HW2 2160   0.970   0.421   6.516
  712SOL     OW 2161   0.539   0.064   6.098
  712SOL    HW1 2162   0.458   0.065   6.156
  712SOL    HW2 2163   0.542   0.147   6.043
  713SOL     OW 2164   1.434   1.188   5.627
  713SOL    HW1 2165   1.466   1.112   5.684
  713SOL    HW2 2166   1.342   1.215   5.657
  714SOL     OW 2167   0.297   0.035   5.757
  714SOL    HW1 2168   0.346   0.119   5.736
  714SOL    HW2 2169   0.359  -0.030   5.802
  715SOL     OW 2170   0.935   0.236   6.066
  715SOL    HW1 2171   0.887   0.277   5.988
  715SOL    HW2 2172   1.034   0.234   6.047
  716SOL     OW 2173   1.076   0.683   7.050
  716SOL    HW1 2174   0.996   0.622   7.053
  716SOL    HW2 2175   1.157   0.630   7.026
  717SOL     OW 2176   1.227   1.570   6.379
  717SOL    HW1 2177   1.248   1.644   6.314
  717SOL    HW2 2178   1.295   1.570   6.452
  718SOL     OW 2179   0.459   1.152   6.327
  718SOL    HW1 2180   0.388   1.125   6.392
  718SOL    HW2 2181   0.433   1.124   6.234
  719SOL     OW 2182   1.271   1.797   6.177
  719SOL    HW1 2183   1.315   1.861   6.113
  719SOL    HW2 2184   1.221   1.849   6.247
  720SOL     OW 2185   1.032   0.549   5.602
  720SOL    HW1 2186   0.991   0.631   5.563
  720SOL    HW2 2187   1.096   0.575   5.675
  721SOL     OW 2188   0.078   0.556   6.972
  721SOL    HW1 2189   0.170   0.555   6.931
  721SOL    HW2 2190   0.072   0.630   7.039
  722SOL     OW 2191   0.561   0.222   6.733
  722SOL    HW1 2192   0.599   0.138   6.770
  722SOL    HW2 2193   0.473   0.241   6.777
  723SOL     OW 2194   0.866   0.454   6.228
  723SOL    HW1 2195   0.834   0.526   6.166
  723SOL    HW2 2196   0.890   0.373   6.175
  724SOL     OW 2197   1.017   0.039   6.339
  724SOL    HW1 2198   0.945   0.044   6.270
  724SOL    HW2 2199   0.993  -0.030   6.408
  725SOL     OW 2200   1.429   1.173   6.453
  725SOL    HW1 2201   1.374   1.089   6.446
  725SOL    HW2 2202   1.455   1.202   6.361
  726SOL     OW 2203   1.466   0.590   6.578
  726SOL    HW1 2204   1.436   0.495   6.585
  726SOL    HW2 2205   1.539   0.606   6.644
  727SOL     OW 2206   1.857   0.833   5.963
  727SOL    HW1 2207   1.899   0.769   6.027
  727SOL    HW2 2208   1.819   0.782   5.885
  728SOL     OW 2209   0.488   1.385   5.760
  728SOL    HW1 2210   0.401   1.370   5.807
  728SOL    HW2 2211   0.471   1.411   5.665
  729SOL     OW 2212   1.664   1.280   6.243
  729SOL    HW1 2213   1.763   1.288   6.257
  729SOL    HW2 2214   1.619   1.364   6.274
  730SOL     OW 2215   1.390   0.575   5.664
  730SOL    HW1 2216   1.336   0.554   5.745
  730SOL    HW2 2217   1.481   0.534   5.673
  731SOL     OW 2218   0.527   0.256   5.914
  731SOL    HW1 2219   0.554   0.197   5.839
  731SOL    HW2 2220   0.527   0.351   5.883
  732SOL     OW 2221   1.754   1.223   7.174
  732SOL    HW1 2222   1.845   1.184   7.161
  732SOL    HW2 2223   1.762   1.319   7.198
  733SOL     OW 2224   1.064   1.347   6.926
  733SOL    HW1 2225   0.984   1.324   6.981
  733SOL    HW2 2226   1.147   1.321   6.975
  734SOL     OW 2227   1.592   1.629   7.211
  734SOL    HW1 2228   1.619   1.663   7.121
  734SOL    HW2 2229   1.671   1.591   7.257
  735SOL     OW 2230   1.111   1.195   6.686
  735SOL    HW1 2231   1.071   1.239   6.767
  735SOL    HW2 2232   1.070   1.232   6.603
  736SOL     OW 2233   1.638   1.099   6.665
  736SOL    HW1 2234   1.643   1.180   6.724
  736SOL    HW2 2235   1.552   1.101   6.614
  737SOL     OW 2236   0.915   0.089   6.988
  737SOL    HW1 2237   0.940   0.069   6.893
  737SOL    HW2 2238   0.987   0.145   7.030
  738SOL     OW 2239   0.980   1.116   7.305
  738SOL    HW1 2240   0.881   1.122   7.315
  738SOL    HW2 2241   1.003   1.036   7.249
  739SOL     OW 2242   0.705   1.050   5.954
  739SOL    HW1 2243   0.691   1.057   6.053
  739SOL    HW2 2244   0.789   0.999   5.936
  740SOL     OW 2245   0.410   0.813   6.837
  740SOL    HW1 2246   0.496   0.825   6.887
  740SOL    HW2 2247   0.368   0.726   6.864
  741SOL     OW 2248   1.274   0.386   6.848
  741SOL    HW1 2249   1.295   0.460   6.912
  741SOL    HW2 2250   1.185   0.403   6.805
  742SOL     OW 2251   0.064   1.564   6.917
  742SOL    HW1 2252   0.018   1.646   6.883
  742SOL    HW2 2253   0.162   1.583   6.926
  743SOL     OW 2254   0.367   1.100   6.087
  743SOL    HW1 2255   0.360   1.183   6.031
  743SOL    HW2 2256   0.371   1.020   6.027
  744SOL     OW 2257   0.566   0.537   6.451
  744SOL    HW1 2258   0.578   0.603   6.377
  744SOL    HW2 2259   0.612   0.571   6.534
  745SOL     OW 2260   1.252   1.348   5.974
  745SOL    HW1 2261   1.302   1.425   6.014
  745SOL    HW2 2262   1.157   1.350   6.006
  746SOL     OW 2263   1.272   1.445   6.728
  746SOL    HW1 2264   1.319   1.458   6.815
  746SOL    HW2 2265   1.206   1.371   6.737
  747SOL     OW 2266   1.582   0.639   6.058
  747SOL    HW1 2267   1.551   0.700   6.131
  747SOL    HW2 2268   1.632   0.691   5.989
  748SOL     OW 2269   0.354   1.510   6.915
  748SOL    HW1 2270   0.333   1.466   6.828
  748SOL    HW2 2271   0.451   1.536   6.918
  749SOL     OW 2272   0.402   0.751   7.184
  749SOL    HW1 2273   0.470   0.806   7.137
  749SOL    HW2 2274   0.442   0.663   7.211
  750SOL     OW 2275   1.587   0.779   7.256
  750SOL    HW1 2276   1.495   0.817   7.251
  750SOL    HW2 2277   1.647   0.826   7.191
  751SOL     OW 2278   1.013   0.105   7.356
  751SOL    HW1 2279   1.019   0.190   7.304
  751SOL    HW2 2280   1.045   0.029   7.299
  752SOL     OW 2281   0.504   0.050   7.326
  752SOL    HW1 2282   0.462  -0.007   7.256
  752SOL    HW2 2283   0.438   0.119   7.358
  753SOL     OW 2284   0.573   0.870   6.615
  753SOL    HW1 2285   0.617   0.959   6.606
  753SOL    HW2 2286   0.510   0.870   6.692
  754SOL     OW 2287   1.360   0.862   6.631
  754SOL    HW1 2288   1.285   0.862   6.565
  754SOL    HW2 2289   1.397   0.770   6.640
  755SOL     OW 2290   1.209   0.525   5.861
  755SOL    HW1 2291   1.222   0.441   5.915
  755SOL    HW2 2292   1.180   0.599   5.921
  756SOL     OW 2293   0.307   0.213   6.817
  756SOL    HW1 2294   0.284   0.250   6.907
  756SOL    HW2 2295   0.277   0.118   6.811
  757SOL     OW 2296   0.037   1.310   6.868
  757SOL    HW1 2297   0.090   1.261   6.936
  757SOL    HW2 2298   0.059   1.408   6.873
  758SOL     OW 2299   0.732   0.634   6.650
  758SOL    HW1 2300   0.791   0.608   6.574
  758SOL    HW2 2301   0.704   0.730   6.639
  759SOL     OW 2302   1.728   0.935   7.440
  759SOL    HW1 2303   1.682   0.928   7.351
  759SOL    HW2 2304   1.666   0.979   7.506
  760SOL     OW 2305   0.307   0.063   6.204
  760SOL    HW1 2306   0.296   0.157   6.237
  760SOL    HW2 2307   0.302   0.000   6.281
  761SOL     OW 2308   1.622   0.367   5.960
  761SOL    HW1 2309   1.624   0.291   6.024
  761SOL    HW2 2310   1.574   0.444   6.000
  762SOL     OW 2311   1.023   0.766   6.552
  762SOL    HW1 2312   1.038   0.787   6.648
  762SOL    HW2 2313   0.993   0.671   6.543
  763SOL     OW 2314   0.980   1.573   7.286
  763SOL    HW1 2315   0.960   1.617   7.198
  763SOL    HW2 2316   1.019   1.482   7.270
  764SOL     OW 2317   1.859   1.518   7.191
  764SOL    HW1 2318   1.873   1.545   7.096
  764SOL    HW2 2319   1.942   1.540   7.244
  765SOL     OW 2320   0.350   0.898   7.390
  765SOL    HW1 2321   0.426   0.942   7.438
  765SOL    HW2 2322   0.385   0.851   7.308
  766SOL     OW 2323   1.540   0.274   5.711
  766SOL    HW1 2324   1.479   0.199   5.734
  766SOL    HW2 2325   1.562   0.326   5.794
  767SOL     OW 2326   1.303   0.838   5.628
  767SOL    HW1 2327   1.337   0.745   5.643
  767SOL    HW2 2328   1.321   0.865   5.533
  768SOL     OW 2329   1.068   1.333   6.435
  768SOL    HW1 2330   1.075   1.249   6.380
  768SOL    HW2 2331   1.130   1.402   6.399
  769SOL     OW 2332   0.319   0.810   6.535
  769SOL    HW1 2333   0.412   0.846   6.540
  769SOL    HW2 2334   0.313   0.725   6.587
  770SOL     OW 2335   0.339   0.509   6.592
  770SOL    HW1 2336   0.287   0.426   6.575
  770SOL    HW2 2337   0.416   0.514   6.528
  771SOL     OW 2338   1.138   0.380   7.264
  771SOL    HW1 2339   1.093   0.443   7.328
  771SOL    HW2 2340   1.231   0.411   7.247
  772SOL     OW 2341   1.160   0.207   7.063
  772SOL    HW1 2342   1.160   0.271   7.140
  772SOL    HW2 2343   1.188   0.255   6.980
  773SOL     OW 2344   0.008   1.326   5.786
  773SOL    HW1 2345  -0.085   1.347   5.755
  773SOL    HW2 2346   0.018   1.227   5.799
  774SOL     OW 2347   0.088   1.801   6.513
  774SOL    HW1 2348   0.046   1.715   6.486
  774SOL    HW2 2349   0.182   1.804   6.479
  775SOL     OW 2350   0.504   1.568   6.496
  775SOL    HW1 2351   0.570   1.642   6.505
  775SOL    HW2 2352   0.548   1.489   6.454
  776SOL     OW 2353   1.002   0.796   6.824
  776SOL    HW1 2354   1.043   0.764   6.910
  776SOL    HW2 2355   0.906   0.769   6.821
  777SOL     OW 2356   0.040   0.544   6.700
  777SOL    HW1 2357   0.125   0.511   6.659
  777SOL    HW2 2358   0.053   0.559   6.798
  778SOL     OW 2359   0.189   0.520   7.308
  778SOL    HW1 2360   0.248   0.480   7.238
  778SOL    HW2 2361   0.131   0.591   7.267
  779SOL     OW 2362   1.369   0.950   7.246
  779SOL    HW1 2363   1.408   1.039   7.266
  779SOL    HW2 2364   1.379   0.930   7.149
  780SOL     OW 2365   0.815   0.572   5.911
  780SOL    HW1 2366   0.822   0.483   5.865
  780SOL    HW2 2367   0.721   0.606   5.903
  781SOL     OW 2368   1.657   0.604   6.792
  781SOL    HW1 2369   1.619   0.535   6.854
  781SOL    HW2 2370   1.739   0.568   6.748
  782SOL     OW 2371   0.252   1.564   7.330
  782SOL    HW1 2372   0.222   1.621   7.406
  782SOL    HW2 2373   0.245   1.467   7.356
  783SOL     OW 2374   0.671   0.464   6.855
  783SOL    HW1 2375   0.637   0.375   6.825
  783SOL    HW2 2376   0.697   0.518   6.775
  784SOL     OW 2377   0.930   1.678   7.051
  784SOL    HW1 2378   0.906   1.660   6.956
  784SOL    HW2 2379   0.960   1.772   7.061
  785SOL     OW 2380   0.473   0.500   5.777
  785SOL    HW1 2381   0.534   0.580   5.781
  785SOL    HW2 2382   0.378   0.531   5.784
  786SOL     OW 2383   0.159   1.137   7.052
  786SOL    HW1 2384   0.181   1.076   7.128
  786SOL    HW2 2385   0.169   1.088   6.966
  787SOL     OW 2386   1.347   1.059   6.820
  787SOL    HW1 2387   1.371   0.996   6.746
  787SOL    HW2 2388   1.257   1.099   6.802
  788SOL     OW 2389   1.302   0.855   5.895
  788SOL    HW1 2390   1.216   0.824   5.937
  788SOL    HW2 2391   1.298   0.841   5.796
  789SOL     OW 2392   1.759   1.747   6.740
  789SOL    HW1 2393   1.820   1.777   6.667
  789SOL    HW2 2394   1.721   1.658   6.718
  790SOL     OW 2395   1.252   1.731   6.714
  790SOL    HW1 2396   1.336   1.736   6.660
  790SOL    HW2 2397   1.229   1.635   6.732
  791SOL     OW 2398   0.083   1.258   6.608
  791SOL    HW1 2399   0.078   1.257   6.708
  791SOL    HW2 2400   0.000   1.217   6.570
  792SOL     OW 2401   0.688   1.662   7.302
  792SOL    HW1 2402   0.632   1.743   7.311
  792SOL    HW2 2403   0.740   1.666   7.216
  793SOL     OW 2404   1.726   0.135   6.109
  793SOL    HW1 2405   1.799   0.118   6.042
  793SOL    HW2 2406   1.695   0.048   6.147
  794SOL     OW 2407   1.388   1.573   6.063
  794SOL    HW1 2408   1.455   1.585   5.989
  794SOL    HW2 2409   1.348   1.662   6.086
  795SOL     OW 2410   0.130   1.794   7.437
  795SOL    HW1 2411   0.089   1.720   7.490
  795SOL    HW2 2412   0.194   1.845   7.495
  796SOL     OW 2413   1.280   0.927   6.258
  796SOL    HW1 2414   1.340   0.846   6.260
  796SOL    HW2 2415   1.320   0.996   6.198
  797SOL     OW 2416   0.830   1.273   7.008
  797SOL    HW1 2417   0.825   1.306   7.103
  797SOL    HW2 2418   0.744   1.292   6.962
  798SOL     OW 2419   0.672   1.616   5.740
  798SOL    HW1 2420   0.681   1.626   5.641
  798SOL    HW2 2421   0.632   1.527   5.761
  799SOL     OW 2422   1.650   1.720   6.980
  799SOL    HW1 2423   1.703   1.730   6.896
  799SOL    HW2 2424   1.623   1.810   7.014
  800SOL     OW 2425   1.841   0.175   6.549
  800SOL    HW1 2426   1.880   0.090   6.513
  800SOL    HW2 2427   1.743   0.177   6.530
  801SOL     OW 2428   0.263   0.326   6.306
  801SOL    HW1 2429   0.184   0.377   6.272
  801SOL    HW2 2430   0.254   0.311   6.404
  802SOL     OW 2431   1.194   1.612   5.617
  802SOL    HW1 2432   1.200   1.519   5.654
  802SOL    HW2 2433   1.135   1.612   5.537
  803SOL     OW 2434   0.822   1.002   6.958
  803SOL    HW1 2435   0.862   1.001   6.866
  803SOL    HW2 2436   0.832   1.094   6.998
  804SOL     OW 2437   0.916   0.910   5.877
  804SOL    HW1 2438   0.979   0.948   5.809
  804SOL    HW2 2439   0.956   0.827   5.916
  805SOL     OW 2440   1.504   1.607   5.630
  805SOL    HW1 2441   1.412   1.644   5.637
  805SOL    HW2 2442   1.542   1.627   5.540
  806SOL     OW 2443   0.372   1.288   7.076
  806SOL    HW1 2444   0.359   1.381   7.042
  806SOL    HW2 2445   0.288   1.236   7.063
  807SOL     OW 2446   1.614   1.292   6.875
  807SOL    HW1 2447   1.674   1.295   6.955
  807SOL    HW2 2448   1.539   1.356   6.888
  808SOL     OW 2449   1.039   1.098   6.282
  808SOL    HW1 2450   0.969   1.051   6.336
  808SOL    HW2 2451   1.098   1.030   6.239
  809SOL     OW 2452   1.014   0.236   6.557
  809SOL    HW1 2453   1.006   0.200   6.464
  809SOL    HW2 2454   1.012   0.160   6.622
  810SOL     OW 2455   0.590   1.487   6.077
  810SOL    HW1 2456   0.632   1.429   6.007
  810SOL    HW2 2457   0.546   1.566   6.033
  811SOL     OW 2458   1.709   0.385   6.967
  811SOL    HW1 2459   1.782   0.454   6.971
  811SOL    HW2 2460   1.737   0.310   6.908
  812SOL     OW 2461   0.255   1.348   5.876
  812SOL    HW1 2462   0.159   1.349   5.849
  812SOL    HW2 2463   0.267   1.401   5.960
  813SOL     OW 2464   0.105   1.013   7.312
  813SOL    HW1 2465   0.028   0.980   7.366
  813SOL    HW2 2466   0.190   0.983   7.354
  814SOL     OW 2467   0.672   0.203   7.075
  814SOL    HW1 2468   0.762   0.187   7.035
  814SOL    HW2 2469   0.680   0.208   7.174
  815SOL     OW 2470   0.075   0.345   5.619
  815SOL    HW1 2471  -0.017   0.317   5.590
  815SOL    HW2 2472   0.106   0.422   5.563
  816SOL     OW 2473   1.440   0.856   6.984
  816SOL    HW1 2474   1.383   0.908   6.921
  816SOL    HW2 2475   1.536   0.868   6.960
  817SOL     OW 2476   0.072   0.166   5.904
  817SOL    HW1 2477   0.055   0.249   5.850
  817SOL    HW2 2478   0.162   0.129   5.882
  818SOL     OW 2479   1.183   1.335   5.705
  818SOL    HW1 2480   1.084   1.324   5.707
  818SOL    HW2 2481   1.217   1.350   5.798
  819SOL     OW 2482   0.613   0.842   7.017
  819SOL    HW1 2483   0.669   0.923   7.000
  819SOL    HW2 2484   0.672   0.762   7.020
  820SOL     OW 2485   1.493   1.767   6.545
  820SOL    HW1 2486   1.526   1.831   6.476
  820SOL    HW2 2487   1.559   1.761   6.620
  821SOL     OW 2488   0.716   0.565   7.294
  821SOL    HW1 2489   0.735   0.630   7.368
  821SOL    HW2 2490   0.776   0.485   7.303
  822SOL     OW 2491   1.450   1.220   7.219
  822SOL    HW1 2492   1.441   1.210   7.318
  822SOL    HW2 2493   1.546   1.213   7.193
  823SOL     OW 2494   0.390   1.741   7.146
  823SOL    HW1 2495   0.299   1.782   7.144
  823SOL    HW2 2496   0.383   1.647   7.178
  824SOL     OW 2497   1.674   0.883   6.840
  824SOL    HW1 2498   1.647   0.794   6.803
  824SOL    HW2 2499   1.675   0.951   6.767
  825SOL     OW 2500   1.225   0.325   6.035
  825SOL    HW1 2501   1.290   0.251   6.024
  825SOL    HW2 2502   1.245   0.375   6.119
  826SOL     OW 2503   0.594   0.745   6.238
  826SOL    HW1 2504   0.644   0.830   6.219
  826SOL    HW2 2505   0.506   0.747   6.190
  827SOL     OW 2506   1.777   0.342   7.228
  827SOL    HW1 2507   1.760   0.373   7.134
  827SOL    HW2 2508   1.693   0.305   7.266
  828SOL     OW 2509   1.730   0.934   7.103
  828SOL    HW1 2510   1.768   1.025   7.118
  828SOL    HW2 2511   1.722   0.917   7.004
  829SOL     OW 2512   0.859   1.374   5.602
  829SOL    HW1 2513   0.813   1.389   5.690
  829SOL    HW2 2514   0.903   1.459   5.572
  830SOL     OW 2515   0.661   1.790   6.539
  830SOL    HW1 2516   0.615   1.878   6.526
  830SOL    HW2 2517   0.760   1.802   6.532
  831SOL     OW 2518   0.859   0.956   6.447
  831SOL    HW1 2519   0.913   0.887   6.495
  831SOL    HW2 2520   0.827   1.025   6.513
  832SOL     OW 2521   1.083   0.984   5.673
  832SOL    HW1 2522   1.060   1.037   5.591
  832SOL    HW2 2523   1.164   0.928   5.654
  833SOL     OW 2524   1.861   1.569   6.437
  833SOL    HW1 2525   1.790   1.557   6.367
  833SOL    HW2 2526   1.862   1.490   6.497
  834SOL     OW 2527   0.221   1.314   7.430
  834SOL    HW1 2528   0.156   1.241   7.409
  834SOL    HW2 2529   0.225   1.328   7.528
  835SOL     OW 2530   0.079   1.240   6.239
  835SOL    HW1 2531   0.078   1.193   6.327
  835SOL    HW2 2532   0.161   1.212   6.188
  836SOL     OW 2533   0.672   1.391   7.210
  836SOL    HW1 2534   0.594   1.341   7.248
  836SOL    HW2 2535   0.669   1.486   7.241
  837SOL     OW 2536   1.824   0.192   6.813
  837SOL    HW1 2537   1.820   0.102   6.857
  837SOL    HW2 2538   1.827   0.181   6.714
  838SOL     OW 2539   0.428   0.424   6.106
  838SOL    HW1 2540   0.458   0.352   6.044
  838SOL    HW2 2541   0.389   0.384   6.189
  839SOL     OW 2542   1.705   1.487   6.690
  839SOL    HW1 2543   1.612   1.462   6.663
  839SOL    HW2 2544   1.731   1.437   6.772
  840SOL     OW 2545   0.317   0.547   6.866
  840SOL    HW1 2546   0.355   0.488   6.938
  840SOL    HW2 2547   0.357   0.521   6.778
  841SOL     OW 2548   0.812   1.586   6.273
  841SOL    HW1 2549   0.844   1.596   6.179
  841SOL    HW2 2550   0.733   1.524   6.275
  842SOL     OW 2551   1.424   0.214   6.698
  842SOL    HW1 2552   1.476   0.149   6.753
  842SOL    HW2 2553   1.375   0.277   6.759
  843SOL     OW 2554   1.001   0.034   6.740
  843SOL    HW1 2555   0.938  -0.038   6.709
  843SOL    HW2 2556   1.094  -0.002   6.740
  844SOL     OW 2557   0.770   1.330   5.887
  844SOL    HW1 2558   0.724   1.243   5.904
  844SOL    HW2 2559   0.861   1.327   5.928
  845SOL     OW 2560   0.618   1.567   6.870
  845SOL    HW1 2561   0.613   1.649   6.927
  845SOL    HW2 2562   0.707   1.564   6.825
  846SOL     OW 2563   1.352   0.052   5.754
  846SOL    HW1 2564   1.387   0.011   5.670
  846SOL    HW2 2565   1.262   0.014   5.774
  847SOL     OW 2566   1.300   0.453   6.277
  847SOL    HW1 2567   1.241   0.533   6.281
  847SOL    HW2 2568   1.315   0.418   6.370
  848SOL     OW 2569   1.593   0.221   6.468
  848SOL    HW1 2570   1.509   0.220   6.522
  848SOL    HW2 2571   1.595   0.304   6.412
  849SOL     OW 2572   0.039   1.077   5.886
  849SOL    HW1 2573   0.138   1.066   5.877
  849SOL    HW2 2574  -0.001   0.991   5.918
  850SOL     OW 2575   0.875   1.646   5.923
  850SOL    HW1 2576   0.798   1.611   5.869
  850SOL    HW2 2577   0.843   1.717   5.985
  851SOL     OW 2578   0.230   0.628   7.561
  851SOL    HW1 2579   0.137   0.626   7.598
  851SOL    HW2 2580   0.231   0.589   7.469
  852SOL     OW 2581   0.225   0.275   8.444
  852SOL    HW1 2582   0.260   0.258   8.536
  852SOL    HW2 2583   0.137   0.230   8.432
  853SOL     OW 2584   0.019   0.368   8.095
  853SOL    HW1 2585  -0.063   0.411   8.134
  853SOL    HW2 2586  -0.009   0.295   8.032
  854SOL     OW 2587   0.569   1.275   8.613
  854SOL    HW1 2588   0.476   1.268   8.576
  854SOL    HW2 2589   0.580   1.364   8.657
  855SOL     OW 2590   1.555   1.511   8.151
  855SOL    HW1 2591   1.498   1.495   8.232
  855SOL    HW2 2592   1.496   1.521   8.071
  856SOL     OW 2593   1.135   0.703   8.165
  856SOL    HW1 2594   1.192   0.781   8.140
  856SOL    HW2 2595   1.075   0.729   8.241
  857SOL     OW 2596   1.755   0.607   7.679
  857SOL    HW1 2597   1.743   0.594   7.580
  857SOL    HW2 2598   1.725   0.526   7.728
  858SOL     OW 2599   0.768   1.144   8.471
  858SOL    HW1 2600   0.690   1.161   8.531
  858SOL    HW2 2601   0.802   1.231   8.435
  859SOL     OW 2602   0.850   0.798   9.271
  859SOL    HW1 2603   0.846   0.874   9.336
  859SOL    HW2 2604   0.872   0.834   9.180
  860SOL     OW 2605   0.685   1.012   8.113
  860SOL    HW1 2606   0.754   0.996   8.183
  860SOL    HW2 2607   0.612   1.069   8.151
  861SOL     OW 2608   0.686   1.161   9.251
  861SOL    HW1 2609   0.746   1.240   9.265
  861SOL    HW2 2610   0.600   1.192   9.210
  862SOL     OW 2611   0.335   1.435   8.509
  862SOL    HW1 2612   0.257   1.404   8.456
  862SOL    HW2 2613   0.393   1.493   8.452
  863SOL     OW 2614   1.460   1.505   8.787
  863SOL    HW1 2615   1.484   1.599   8.813
  863SOL    HW2 2616   1.444   1.451   8.869
  864SOL     OW 2617   0.438   0.392   8.947
  864SOL    HW1 2618   0.520   0.336   8.956
  864SOL    HW2 2619   0.357   0.334   8.951
  865SOL     OW 2620   1.603   0.447   8.185
  865SOL    HW1 2621   1.529   0.493   8.135
  865SOL    HW2 2622   1.654   0.515   8.238
  866SOL     OW 2623   0.231   1.713   7.931
  866SOL    HW1 2624   0.265   1.790   7.985
  866SOL    HW2 2625   0.275   1.713   7.841
  867SOL     OW 2626   1.127   1.341   9.138
  867SOL    HW1 2627   1.174   1.341   9.226
  867SOL    HW2 2628   1.079   1.254   9.127
  868SOL     OW 2629   0.230   1.434   7.986
  868SOL    HW1 2630   0.204   1.530   7.986
  868SOL    HW2 2631   0.159   1.380   8.031
  869SOL     OW 2632   0.240   1.091   8.334
  869SOL    HW1 2633   0.254   1.007   8.386
  869SOL    HW2 2634   0.185   1.155   8.389
  870SOL     OW 2635   0.620   1.786   8.887
  870SOL    HW1 2636   0.528   1.769   8.922
  870SOL    HW2 2637   0.648   1.878   8.913
  871SOL     OW 2638   0.606   0.964   7.571
  871SOL    HW1 2639   0.613   1.048   7.517
  871SOL    HW2 2640   0.652   0.977   7.659
  872SOL     OW 2641   1.594   0.114   8.928
  872SOL    HW1 2642   1.576   0.181   8.856
  872SOL    HW2 2643   1.591   0.160   9.017
  873SOL     OW 2644   0.122   0.643   8.011
  873SOL    HW1 2645   0.077   0.555   8.028
  873SOL    HW2 2646   0.121   0.697   8.095
  874SOL     OW 2647   1.842   1.767   7.807
  874SOL    HW1 2648   1.896   1.738   7.887
  874SOL    HW2 2649   1.872   1.857   7.778
  875SOL     OW 2650   0.027   1.596   7.565
  875SOL    HW1 2651   0.008   1.500   7.586
  875SOL    HW2 2652  -0.006   1.654   7.640
  876SOL     OW 2653   1.689   0.922   8.060
  876SOL    HW1 2654   1.784   0.893   8.068
  876SOL    HW2 2655   1.681   0.987   7.985
  877SOL     OW 2656   1.641   1.108   7.880
  877SOL    HW1 2657   1.727   1.110   7.828
  877SOL    HW2 2658   1.655   1.155   7.968
  878SOL     OW 2659   0.113   0.737   9.045
  878SOL    HW1 2660   0.201   0.724   9.090
  878SOL    HW2 2661   0.100   0.834   9.023
  879SOL     OW 2662   0.613   1.365   8.174
  879SOL    HW1 2663   0.564   1.278   8.183
  879SOL    HW2 2664   0.590   1.408   8.087
  880SOL     OW 2665   1.293   1.228   8.871
  880SOL    HW1 2666   1.330   1.155   8.813
  880SOL    HW2 2667   1.345   1.233   8.956
  881SOL     OW 2668   0.809   0.004   7.950
  881SOL    HW1 2669   0.849   0.095   7.941
  881SOL    HW2 2670   0.709   0.012   7.956
  882SOL     OW 2671   0.197   0.976   8.712
  882SOL    HW1 2672   0.286   0.931   8.698
  882SOL    HW2 2673   0.124   0.911   8.693
  883SOL     OW 2674   1.525   0.999   7.638
  883SOL    HW1 2675   1.462   0.923   7.651
  883SOL    HW2 2676   1.573   1.017   7.724
  884SOL     OW 2677   1.187   1.792   9.064
  884SOL    HW1 2678   1.211   1.852   8.988
  884SOL    HW2 2679   1.194   1.697   9.034
  885SOL     OW 2680   0.317   0.251   9.249
  885SOL    HW1 2681   0.388   0.322   9.255
  885SOL    HW2 2682   0.229   0.290   9.277
  886SOL     OW 2683   1.466   1.417   8.401
  886SOL    HW1 2684   1.407   1.423   8.481
  886SOL    HW2 2685   1.451   1.329   8.355
  887SOL     OW 2686   1.667   1.714   8.020
  887SOL    HW1 2687   1.626   1.691   7.932
  887SOL    HW2 2688   1.649   1.640   8.085
  888SOL     OW 2689   0.598   0.729   7.718
  888SOL    HW1 2690   0.622   0.798   7.650
  888SOL    HW2 2691   0.520   0.762   7.772
  889SOL     OW 2692   1.281   0.345   8.392
  889SOL    HW1 2693   1.195   0.295   8.379
  889SOL    HW2 2694   1.343   0.291   8.448
  890SOL     OW 2695   1.576   1.662   7.755
  890SOL    HW1 2696   1.665   1.708   7.758
  890SOL    HW2 2697   1.555   1.638   7.660
  891SOL     OW 2698   0.807   0.605   8.913
  891SOL    HW1 2699   0.760   0.602   9.002
  891SOL    HW2 2700   0.756   0.550   8.847
  892SOL     OW 2701   1.394   0.469   9.122
  892SOL    HW1 2702   1.374   0.512   9.210
  892SOL    HW2 2703   1.472   0.407   9.131
  893SOL     OW 2704   0.973   0.890   9.020
  893SOL    HW1 2705   1.019   0.806   8.991
  893SOL    HW2 2706   0.917   0.924   8.945
  894SOL     OW 2707   0.991   0.410   8.690
  894SOL    HW1 2708   0.914   0.444   8.744
  894SOL    HW2 2709   0.957   0.359   8.611
  895SOL     OW 2710   1.041   0.701   7.877
  895SOL    HW1 2711   1.067   0.697   7.973
  895SOL    HW2 2712   0.956   0.650   7.863
  896SOL     OW 2713   0.076   0.811   8.237
  896SOL    HW1 2714   0.175   0.799   8.246
  896SOL    HW2 2715   0.052   0.906   8.258
  897SOL     OW 2716   0.130   1.821   9.019
  897SOL    HW1 2717   0.120   1.806   9.118
  897SOL    HW2 2718   0.044   1.857   8.983
  898SOL     OW 2719   0.865   0.348   7.643
  898SOL    HW1 2720   0.924   0.411   7.594
  898SOL    HW2 2721   0.884   0.254   7.614
  899SOL     OW 2722   1.719   0.585   9.279
  899SOL    HW1 2723   1.693   0.674   9.243
  899SOL    HW2 2724   1.717   0.517   9.206
  900SOL     OW 2725   1.362   1.144   7.993
  900SOL    HW1 2726   1.445   1.115   7.945
  900SOL    HW2 2727   1.313   1.211   7.937
  901SOL     OW 2728   0.550   0.196   8.333
  901SOL    HW1 2729   0.545   0.191   8.433
  901SOL    HW2 2730   0.552   0.292   8.304
  902SOL     OW 2731   1.008   1.456   7.925
  902SOL    HW1 2732   0.962   1.528   7.873
  902SOL    HW2 2733   1.004   1.476   8.023
  903SOL     OW 2734   0.351   1.801   8.301
  903SOL    HW1 2735   0.401   1.715   8.307
  903SOL    HW2 2736   0.416   1.878   8.298
  904SOL     OW 2737   1.795   1.066   8.321
  904SOL    HW1 2738   1.733   1.051   8.245
  904SOL    HW2 2739   1.743   1.077   8.406
  905SOL     OW 2740   1.227   1.550   8.954
  905SOL    HW1 2741   1.233   1.473   9.018
  905SOL    HW2 2742   1.175   1.524   8.874
  906SOL     OW 2743   0.321   0.943   7.690
  906SOL    HW1 2744   0.403   0.982   7.648
  906SOL    HW2 2745   0.294   0.861   7.641
  907SOL     OW 2746   1.458   0.735   8.176
  907SOL    HW1 2747   1.453   0.670   8.251
  907SOL    HW2 2748   1.538   0.794   8.189
  908SOL     OW 2749   0.461   1.266   9.175
  908SOL    HW1 2750   0.411   1.267   9.089
  908SOL    HW2 2751   0.398   1.248   9.251
  909SOL     OW 2752   1.111   1.776   7.685
  909SOL    HW1 2753   1.051   1.714   7.735
  909SOL    HW2 2754   1.142   1.732   7.600
  910SOL     OW 2755   0.202   0.285   8.946
  910SOL    HW1 2756   0.122   0.345   8.933
  910SOL    HW2 2757   0.192   0.236   9.032
  911SOL     OW 2758   1.632   1.377   7.529
  911SOL    HW1 2759   1.600   1.471   7.519
  911SOL    HW2 2760   1.556   1.314   7.517
  912SOL     OW 2761   0.464   1.743   7.771
  912SOL    HW1 2762   0.497   1.782   7.857
  912SOL    HW2 2763   0.540   1.736   7.706
  913SOL     OW 2764   1.400   0.107   7.874
  913SOL    HW1 2765   1.376   0.070   7.784
  913SOL    HW2 2766   1.499   0.123   7.878
  914SOL     OW 2767   0.249   1.785   8.689
  914SOL    HW1 2768   0.306   1.720   8.739
  914SOL    HW2 2769   0.233   1.752   8.596
  915SOL     OW 2770   0.940   1.698   8.352
  915SOL    HW1 2771   1.020   1.641   8.373
  915SOL    HW2 2772   0.891   1.658   8.275
  916SOL     OW 2773   0.382   0.700   7.928
  916SOL    HW1 2774   0.427   0.610   7.925
  916SOL    HW2 2775   0.288   0.689   7.961
  917SOL     OW 2776   1.547   0.222   9.177
  917SOL    HW1 2777   1.542   0.259   9.269
  917SOL    HW2 2778   1.475   0.153   9.165
  918SOL     OW 2779   0.614   0.122   7.565
  918SOL    HW1 2780   0.712   0.100   7.572
  918SOL    HW2 2781   0.583   0.105   7.472
  919SOL     OW 2782   0.781   0.264   9.197
  919SOL    HW1 2783   0.848   0.203   9.240
  919SOL    HW2 2784   0.708   0.283   9.262
  920SOL     OW 2785   0.888   1.514   8.643
  920SOL    HW1 2786   0.865   1.489   8.549
  920SOL    HW2 2787   0.949   1.445   8.682
  921SOL     OW 2788   1.351   0.590   8.881
  921SOL    HW1 2789   1.379   0.547   8.966
  921SOL    HW2 2790   1.376   0.686   8.882
  922SOL     OW 2791   0.803   1.402   8.372
  922SOL    HW1 2792   0.893   1.416   8.330
  922SOL    HW2 2793   0.732   1.404   8.301
  923SOL     OW 2794   0.922   0.503   8.347
  923SOL    HW1 2795   0.897   0.494   8.251
  923SOL    HW2 2796   0.970   0.421   8.378
  924SOL     OW 2797   0.539   0.064   7.960
  924SOL    HW1 2798   0.458   0.065   8.018
  924SOL    HW2 2799   0.542   0.147   7.905
  925SOL     OW 2800   1.434   1.188   7.489
  925SOL    HW1 2801   1.466   1.112   7.546
  925SOL    HW2 2802   1.342   1.215   7.519
  926SOL     OW 2803   0.297   0.035   7.619
  926SOL    HW1 2804   0.346   0.119   7.598
  926SOL    HW2 2805   0.359  -0.030   7.664
  927SOL     OW 2806   0.935   0.236   7.928
  927SOL    HW1 2807   0.887   0.277   7.850
  927SOL    HW2 2808   1.034   0.234   7.909
  928SOL     OW 2809   1.076   0.683   8.912
  928SOL    HW1 2810   0.996   0.622   8.915
  928SOL    HW2 2811   1.157   0.630   8.888
  929SOL     OW 2812   1.227   1.570   8.241
  929SOL    HW1 2813   1.248   1.644   8.176
  929SOL    HW2 2814   1.295   1.570   8.314
  930SOL     OW 2815   0.459   1.152   8.189
  930SOL    HW1 2816   0.388   1.125   8.254
  930SOL    HW2 2817   0.433   1.124   8.096
  931SOL     OW 2818   1.271   1.797   8.039
  931SOL    HW1 2819   1.315   1.861   7.975
  931SOL    HW2 2820   1.221   1.849   8.109
  932SOL     OW 2821   1.032   0.549   7.464
  932SOL    HW1 2822   0.991   0.631   7.425
  932SOL    HW2 2823   1.096   0.575   7.537
  933SOL     OW 2824   0.078   0.556   8.834
  933SOL    HW1 2825   0.170   0.555   8.793
  933SOL    HW2 2826   0.072   0.630   8.901
  934SOL     OW 2827   0.561   0.222   8.595
  934SOL    HW1 2828   0.599   0.138   8.632
  934SOL    HW2 2829   0.473   0.241   8.639
  935SOL     OW 2830   0.866   0.454   8.090
  935SOL    HW1 2831   0.834   0.526   8.028
  935SOL    HW2 2832   0.890   0.373   8.037
  936SOL     OW 2833   1.017   0.039   8.201
  936SOL    HW1 2834   0.945   0.044   8.132
  936SOL    HW2 2835   0.993  -0.030   8.270
  937SOL     OW 2836   1.429   1.173   8.315
  937SOL    HW1 2837   1.374   1.089   8.308
  937SOL    HW2 2838   1.455   1.202   8.223
  938SOL     OW 2839   1.466   0.590   8.440
  938SOL    HW1 2840   1.436   0.495   8.447
  938SOL    HW2 2841   1.539   0.606   8.506
  939SOL     OW 2842   1.857   0.833   7.825
  939SOL    HW1 2843   1.899   0.769   7.889
  939SOL    HW2 2844   1.819   0.782   7.747
  940SOL     OW 2845   0.488   1.385   7.622
  940SOL    HW1 2846   0.401   1.370   7.669
  940SOL    HW2 2847   0.471   1.411   7.527
  941SOL     OW 2848   1.664   1.280   8.105
  941SOL    HW1 2849   1.763   1.288   8.119
  941SOL    HW2 2850   1.619   1.364   8.136
  942SOL     OW 2851   1.390   0.575   7.526
  942SOL    HW1 2852   1.336   0.554   7.607
  942SOL    HW2 2853   1.481   0.534   7.535
  943SOL     OW 2854   0.527   0.256   7.776
  943SOL    HW1 2855   0.554   0.197   7.701
  943SOL    HW2 2856   0.527   0.351   7.745
  944SOL     OW 2857   1.754   1.223   9.036
  944SOL    HW1 2858   1.845   1.184   9.023
  944SOL    HW2 2859   1.762   1.319   9.060
  945SOL     OW 2860   1.064   1.347   8.788
  945SOL    HW1 2861   0.984   1.324   8.843
  945SOL    HW2 2862   1.147   1.321   8.837
  946SOL     OW 2863   1.592   1.629   9.073
  946SOL    HW1 2864   1.619   1.663   8.983
  946SOL    HW2 2865   1.671   1.591   9.119
  947SOL     OW 2866   1.111   1.195   8.548
  947SOL    HW1 2867   1.071   1.239   8.629
  947SOL    HW2 2868   1.070   1.232   8.465
  948SOL     OW 2869   1.638   1.099   8.527
  948SOL    HW1 2870   1.643   1.180   8.586
  948SOL    HW2 2871   1.552   1.101   8.476
  949SOL     OW 2872   0.915   0.089   8.850
  949SOL    HW1 2873   0.940   0.069   8.755
  949SOL    HW2 2874   0.987   0.145   8.892
  950SOL     OW 2875   0.980   1.116   9.167
  950SOL    HW1 2876   0.881   1.122   9.177
  950SOL    HW2 2877   1.003   1.036   9.111
  951SOL     OW 2878   0.705   1.050   7.816
  951SOL    HW1 2879   0.691   1.057   7.915
  951SOL    HW2 2880   0.789   0.999   7.798
  952SOL     OW 2881   0.410   0.813   8.699
  952SOL    HW1 2882   0.496   0.825   8.749
  952SOL    HW2 2883   0.368   0.726   8.726
  953SOL     OW 2884   1.274   0.386   8.710
  953SOL    HW1 2885   1.295   0.460   8.774
  953SOL    HW2 2886   1.185   0.403   8.667
  954SOL     OW 2887   0.064   1.564   8.779
  954SOL    HW1 2888   0.018   1.646   8.745
  954SOL    HW2 2889   0.162   1.583   8.788
  955SOL     OW 2890   0.367   1.100   7.949
  955SOL    HW1 2891   0.360   1.183   7.893
  955SOL    HW2 2892   0.371   1.020   7.889
  956SOL     OW 2893   0.566   0.537   8.313
  956SOL    HW1 2894   0.578   0.603   8.239
  956SOL    HW2 2895   0.612   0.571   8.396
  957SOL     OW 2896   1.252   1.348   7.836
  957SOL    HW1 2897   1.302   1.425   7.876
  957SOL    HW2 2898   1.157   1.350   7.868
  958SOL     OW 2899   1.272   1.445   8.590
  958SOL    HW1 2900   1.319   1.458   8.677
  958SOL    HW2 2901   1.206   1.371   8.599
  959SOL     OW 2902   1.582   0.639   7.920
  959SOL    HW1 2903   1.551   0.700   7.993
  959SOL    HW2 2904   1.632   0.691   7.851
  960SOL     OW 2905   0.354   1.510   8.777
  960SOL    HW1 2906   0.333   1.466   8.690
  960SOL    HW2 2907   0.451   1.536   8.780
  961SOL     OW 2908   0.402   0.751   9.046
  961SOL    HW1 2909   0.470   0.806   8.999
  961SOL    HW2 2910   0.442   0.663   9.073
  962SOL     OW 2911   1.587   0.779   9.118
  962SOL    HW1 2912   1.495   0.817   9.113
  962SOL    HW2 2913   1.647   0.826   9.053
  963SOL     OW 2914   1.013   0.105   9.218
  963SOL    HW1 2915   1.019   0.190   9.166
  963SOL    HW2 2916   1.045   0.029   9.161
  964SOL     OW 2917   0.504   0.050   9.188
  964SOL    HW1 2918   0.462  -0.007   9.118
  964SOL    HW2 2919   0.438   0.119   9.220
  965SOL     OW 2920   0.573   0.870   8.477
  965SOL    HW1 2921   0.617   0.959   8.468
  965SOL    HW2 2922   0.510   0.870   8.554
  966SOL     OW 2923   1.360   0.862   8.493
  966SOL    HW1 2924   1.285   0.862   8.427
  966SOL    HW2 2925   1.397   0.770   8.502
  967SOL     OW 2926   1.209   0.525   7.723
  967SOL    HW1 2927   1.222   0.441   7.777
  967SOL    HW2 2928   1.180   0.599   7.783
  968SOL     OW 2929   0.307   0.213   8.679
  968SOL    HW1 2930   0.284   0.250   8.769
  968SOL    HW2 2931   0.277   0.118   8.673
  969SOL     OW 2932   0.037   1.310   8.730
  969SOL    HW1 2933   0.090   1.261   8.798
  969SOL    HW2 2934   0.059   1.408   8.735
  970SOL     OW 2935   0.732   0.634   8.512
  970SOL    HW1 2936   0.791   0.608   8.436
  970SOL    HW2 2937   0.704   0.730   8.501
  971SOL     OW 2938   1.728   0.935   9.302
  971SOL    HW1 2939   1.682   0.928   9.213
  971SOL    HW2 2940   1.666   0.979   9.368
  972SOL     OW 2941   0.307   0.063   8.066
  972SOL    HW1 2942   0.296   0.157   8.099
  972SOL    HW2 2943   0.302   0.000   8.143
  973SOL     OW 2944   1.622   0.367   7.822
  973SOL    HW1 2945   1.624   0.291   7.886
  973SOL    HW2 2946   1.574   0.444   7.862
  974SOL     OW 2947   1.023   0.766   8.414
  974SOL    HW1 2948   1.038   0.787   8.510
  974SOL    HW2 2949   0.993   0.671   8.405
  975SOL     OW 2950   0.980   1.573   9.148
  975SOL    HW1 2951   0.960   1.617   9.060
  975SOL    HW2 2952   1.019   1.482   9.132
  976SOL     OW 2953   1.859   1.518   9.053
  976SOL    HW1 2954   1.873   1.545   8.958
  976SOL    HW2 2955   1.942   1.540   9.106
  977SOL     OW 2956   0.350   0.898   9.252
  977SOL    HW1 2957   0.426   0.942   9.300
  977SOL    HW2 2958   0.385   0.851   9.170
  978SOL     OW 2959   1.540   0.274   7.573
  978SOL    HW1 2960   1.479   0.199   7.596
  978SOL    HW2 2961   1.562   0.326   7.656
  979SOL     OW 2962   1.303   0.838   7.490
  979SOL    HW1 2963   1.337   0.745   7.505
  979SOL    HW2 2964   1.321   0.865   7.395
  980SOL     OW 2965   1.068   1.333   8.297
  980SOL    HW1 2966   1.075   1.249   8.242
  980SOL    HW2 2967   1.130   1.402   8.261
  981SOL     OW 2968   0.319   0.810   8.397
  981SOL    HW1 2969   0.412   0.846   8.402
  981SOL    HW2 2970   0.313   0.725   8.449
  982SOL     OW 2971   0.339   0.509   8.454
  982SOL    HW1 2972   0.287   0.426   8.437
  982SOL    HW2 2973   0.416   0.514   8.390
  983SOL     OW 2974   1.138   0.380   9.126
  983SOL    HW1 2975   1.093   0.443   9.190
  983SOL    HW2 2976   1.231   0.411   9.109
  984SOL     OW 2977   1.160   0.207   8.925
  984SOL    HW1 2978   1.160   0.271   9.002
  984SOL    HW2 2979   1.188   0.255   8.842
  985SOL     OW 2980   0.008   1.326   7.648
  985SOL    HW1 2981  -0.085   1.347   7.617
  985SOL    HW2 2982   0.018   1.227   7.661
  986SOL     OW 2983   0.088   1.801   8.375
  986SOL    HW1 2984   0.046   1.715   8.348
  986SOL    HW2 2985   0.182   1.804   8.341
  987SOL     OW 2986   0.504   1.568   8.358
  987SOL    HW1 2987   0.570   1.642   8.367
  987SOL    HW2 2988   0.548   1.489   8.316
  988SOL     OW 2989   1.002   0.796   8.686
  988SOL    HW1 2990   1.043   0.764   8.772
  988SOL    HW2 2991   0.906   0.769   8.683
  989SOL     OW 2992   0.040   0.544   8.562
  989SOL    HW1 2993   0.125   0.511   8.521
  989SOL    HW2 2994   0.053   0.559   8.660
  990SOL     OW 2995   0.189   0.520   9.170
  990SOL    HW1 2996   0.248   0.480   9.100
  990SOL    HW2 2997   0.131   0.591   9.129
  991SOL     OW 2998   1.369   0.950   9.108
  991SOL    HW1 2999   1.408   1.039   9.128
  991SOL    HW2 3000   1.379   0.930   9.011
  992SOL     OW 3001   0.815   0.572   7.773
  992SOL    HW1 3002   0.822   0.483   7.727
  992SOL    HW2 3003   0.721   0.606   7.765
  993SOL     OW 3004   1.657   0.604   8.654
  993SOL    HW1 3005   1.619   0.535   8.716
  993SOL    HW2 3006   1.739   0.568   8.610
  994SOL     OW 3007   0.252   1.564   9.192
  994SOL    HW1 3008   0.222   1.621   9.268
  994SOL    HW2 3009   0.245   1.467   9.218
  995SOL     OW 3010   0.671   0.464   8.717
  995SOL    HW1 3011   0.637   0.375   8.687
  995SOL    HW2 3012   0.697   0.518   8.637
  996SOL     OW 3013   0.930   1.678   8.913
  996SOL    HW1 3014   0.906   1.660   8.818
  996SOL    HW2 3015   0.960   1.772   8.923
  997SOL     OW 3016   0.473   0.500   7.639
  997SOL    HW1 3017   0.534   0.580   7.643
  997SOL    HW2 3018   0.378   0.531   7.646
  998SOL     OW 3019   0.159   1.137   8.914
  998SOL    HW1 3020   0.181   1.076   8.990
  998SOL    HW2 3021   0.169   1.088   8.828
  999SOL     OW 3022   1.347   1.059   8.682
  999SOL    HW1 3023   1.371   0.996   8.608
  999SOL    HW2 3024   1.257   1.099   8.664
 1000SOL     OW 3025   1.302   0.855   7.757
 1000SOL    HW1 3026   1.216   0.824   7.799
 1000SOL    HW2 3027   1.298   0.841   7.658
 1001SOL     OW 3028   1.759   1.747   8.602
 1001SOL    HW1 3029   1.820   1.777   8.529
 1001SOL    HW2 3030   1.721   1.658   8.580
 1002SOL     OW 3031   1.252   1.731   8.576
 1002SOL    HW1 3032   1.336   1.736   8.522
 1002SOL    HW2 3033   1.229   1.635   8.594
 1003SOL     OW 3034   0.083   1.258   8.470
 1003SOL    HW1 3035   0.078   1.257   8.570
 1003SOL    HW2 3036   0.000   1.217   8.432
 1004SOL     OW 3037   0.688   1.662   9.164
 1004SOL    HW1 3038   0.632   1.743   9.173
 1004SOL    HW2 3039   0.740   1.666   9.078
 1005SOL     OW 3040   1.726   0.135   7.971
 1005SOL    HW1 3041   1.799   0.118   7.904
 1005SOL    HW2 3042   1.695   0.048   8.009
 1006SOL     OW 3043   1.388   1.573   7.925
 1006SOL    HW1 3044   1.455   1.585   7.851
 1006SOL    HW2 3045   1.348   1.662   7.948
 1007SOL     OW 3046   0.130   1.794   9.299
 1007SOL    HW1 3047   0.089   1.720   9.352
 1007SOL    HW2 3048   0.194   1.845   9.357
 1008SOL     OW 3049   1.280   0.927   8.120
 1008SOL    HW1 3050   1.340   0.846   8.122
 1008SOL    HW2 3051   1.320   0.996   8.060
 1009SOL     OW 3052   0.830   1.273   8.870
 1009SOL    HW1 3053   0.825   1.306   8.965
 1009SOL    HW2 3054   0.744   1.292   8.824
 1010SOL     OW 3055   0.672   1.616   7.602
 1010SOL    HW1 3056   0.681   1.626   7.503
 1010SOL    HW2 3057   0.632   1.527   7.623
 1011SOL     OW 3058   1.650   1.720   8.842
 1011SOL    HW1 3059   1.703   1.730   8.758
 1011SOL    HW2 3060   1.623   1.810   8.876
 1012SOL     OW 3061   1.841   0.175   8.411
 1012SOL    HW1 3062   1.880   0.090   8.375
 1012SOL    HW2 3063   1.743   0.177   8.392
 1013SOL     OW 3064   0.263   0.326   8.168
 1013SOL    HW1 3065   0.184   0.377   8.134
 1013SOL    HW2 3066   0.254   0.311   8.266
 1014SOL     OW 3067   1.194   1.612   7.479
 1014SOL    HW1 3068   1.200   1.519   7.516
 1014SOL    HW2 3069   1.135   1.612   7.399
 1015SOL     OW 3070   0.822   1.002   8.820
 1015SOL    HW1 3071   0.862   1.001   8.728
 1015SOL    HW2 3072   0.832   1.094   8.860
 1016SOL     OW 3073   0.916   0.910   7.739
 1016SOL    HW1 3074   0.979   0.948   7.671
 1016SOL    HW2 3075   0.956   0.827   7.778
 1017SOL     OW 3076   1.504   1.607   7.492
 1017SOL    HW1 3077   1.412   1.644   7.499
 1017SOL    HW2 3078   1.542   1.627   7.402
 1018SOL     OW 3079   0.372   1.288   8.938
 1018SOL    HW1 3080   0.359   1.381   8.904
 1018SOL    HW2 3081   0.288   1.236   8.925
 1019SOL     OW 3082   1.614   1.292   8.737
 1019SOL    HW1 3083   1.674   1.295   8.817
 1019SOL    HW2 3084   1.539   1.356   8.750
 1020SOL     OW 3085   1.039   1.098   8.144
 1020SOL    HW1 3086   0.969   1.051   8.198
 1020SOL    HW2 3087   1.098   1.030   8.101
 1021SOL     OW 3088   1.014   0.236   8.419
 1021SOL    HW1 3089   1.006   0.200   8.326
 1021SOL    HW2 3090   1.012   0.160   8.484
 1022SOL     OW 3091   0.590   1.487   7.939
 1022SOL    HW1 3092   0.632   1.429   7.869
 1022SOL    HW2 3093   0.546   1.566   7.895
 1023SOL     OW 3094   1.709   0.385   8.829
 1023SOL    HW1 3095   1.782   0.454   8.833
 1023SOL    HW2 3096   1.737   0.310   8.770
 1024SOL     OW 3097   0.255   1.348   7.738
 1024SOL    HW1 3098   0.159   1.349   7.711
 1024SOL    HW2 3099   0.267   1.401   7.822
 1025SOL     OW 3100   0.105   1.013   9.174
 1025SOL    HW1 3101   0.028   0.980   9.228
 1025SOL    HW2 3102   0.190   0.983   9.216
 1026SOL     OW 3103   0.672   0.203   8.937
 1026SOL    HW1 3104   0.762   0.187   8.897
 1026SOL    HW2 3105   0.680   0.208   9.036
 1027SOL     OW 3106   0.075   0.345   7.481
 1027SOL    HW1 3107  -0.017   0.317   7.452
 1027SOL    HW2 3108   0.106   0.422   7.425
 1028SOL     OW 3109   1.440   0.856   8.846
 1028SOL    HW1 3110   1.383   0.908   8.783
 1028SOL    HW2 3111   1.536   0.868   8.822
 1029SOL     OW 3112   0.072   0.166   7.766
 1029SOL    HW1 3113   0.055   0.249   7.712
 1029SOL    HW2 3114   0.162   0.129   7.744
 1030SOL     OW 3115   1.183   1.335   7.567
 1030SOL    HW1 3116   1.084   1.324   7.569
 1030SOL    HW2 3117   1.217   1.350   7.660
 1031SOL     OW 3118   0.613   0.842   8.879
 1031SOL    HW1 3119   0.669   0.923   8.862
 1031SOL    HW2 3120   0.672   0.762   8.882
 1032SOL     OW 3121   1.493   1.767   8.407
 1032SOL    HW1 3122   1.526   1.831   8.338
 1032SOL    HW2 3123   1.559   1.761   8.482
 1033SOL     OW 3124   0.716   0.565   9.156
 1033SOL    HW1 3125   0.735   0.630   9.230
 1033SOL    HW2 3126   0.776   0.485   9.165
 1034SOL     OW 3127   1.450   1.220   9.081
 1034SOL    HW1 3128   1.441   1.210   9.180
 1034SOL    HW2 3129   1.546   1.213   9.055
 1035SOL     OW 3130   0.390   1.741   9.008
 1035SOL    HW1 3131   0.299   1.782   9.006
 1035SOL    HW2 3132   0.383   1.647   9.040
 1036SOL     OW 3133   1.674   0.883   8.702
 1036SOL    HW1 3134   1.647   0.794   8.665
 1036SOL    HW2 3135   1.675   0.951   8.629
 1037SOL     OW 3136   1.225   0.325   7.897
 1037SOL    HW1 3137   1.290   0.251   7.886
 1037SOL    HW2 3138   1.245   0.375   7.981
 1038SOL     OW 3139   0.594   0.745   8.100
 1038SOL    HW1 3140   0.644   0.830   8.081
 1038SOL    HW2 3141   0.506   0.747   8.052
 1039SOL     OW 3142   1.777   0.342   9.090
 1039SOL    HW1 3143   1.760   0.373   8.996
 1039SOL    HW2 3144   1.693   0.305   9.128
 1040SOL     OW 3145   1.730   0.934   8.965
 1040SOL    HW1 3146   1.768   1.025   8.980
 1040SOL    HW2 3147   1.722   0.917   8.866
 1041SOL     OW 3148   0.859   1.374   7.464
 1041SOL    HW1 3149   0.813   1.389   7.552
 1041SOL    HW2 3150   0.903   1.459   7.434
 1042SOL     OW 3151   0.661   1.790   8.401
 1042SOL    HW1 3152   0.615   1.878   8.388
 1042SOL    HW2 3153   0.760   1.802   8.394
 1043SOL     OW 3154   0.859   0.956   8.309
 1043SOL    HW1 3155   0.913   0.887   8.357
 1043SOL    HW2 3156   0.827   1.025   8.375
 1044SOL     OW 3157   1.083   0.984   7.535
 1044SOL    HW1 3158   1.060   1.037   7.453
 1044SOL    HW2 3159   1.164   0.928   7.516
 1045SOL     OW 3160   1.861   1.569   8.299
 1045SOL    HW1 3161   1.790   1.557   8.229
 1045SOL    HW2 3162   1.862   1.490   8.359
 1046SOL     OW 3163   0.221   1.314   9.292
 1046SOL    HW1 3164   0.156   1.241   9.271
 1046SOL    HW2 3165   0.225   1.328   9.390
 1047SOL     OW 3166   0.079   1.240   8.101
 1047SOL    HW1 3167   0.078   1.193   8.189
 1047SOL    HW2 3168   0.161   1.212   8.050
 1048SOL     OW 3169   0.672   1.391   9.072
 1048SOL    HW1 3170   0.594   1.341   9.110
 1048SOL    HW2 3171   0.669   1.486   9.103
 1049SOL     OW 3172   1.824   0.192   8.675
 1049SOL    HW1 3173   1.820   0.102   8.719
 1049SOL    HW2 3174   1.827   0.181   8.576
 1050SOL     OW 3175   0.428   0.424   7.968
 1050SOL    HW1 3176   0.458   0.352   7.906
 1050SOL    HW2 3177   0.389   0.384   8.051
 1051SOL     OW 3178   1.705   1.487   8.552
 1051SOL    HW1 3179   1.612   1.462   8.525
 1051SOL    HW2 3180   1.731   1.437   8.634
 1052SOL     OW 3181   0.317   0.547   8.728
 1052SOL    HW1 3182   0.355   0.488   8.800
 1052SOL    HW2 3183   0.357   0.521   8.640
 1053SOL     OW 3184   0.812   1.586   8.135
 1053SOL    HW1 3185   0.844   1.596   8.041
 1053SOL    HW2 3186   0.733   1.524   8.137
 1054SOL     OW 3187   1.424   0.214   8.560
 1054SOL    HW1 3188   1.476   0.149   8.615
 1054SOL    HW2 3189   1.375   0.277   8.621
 1055SOL     OW 3190   1.001   0.034   8.602
 1055SOL    HW1 3191   0.938  -0.038   8.571
 1055SOL    HW2 3192   1.094  -0.002   8.602
 1056SOL     OW 3193   0.770   1.330   7.749
 1056SOL    HW1 3194   0.724   1.243   7.766
 1056SOL    HW2 3195   0.861   1.327   7.790
 1057SOL     OW 3196   0.618   1.567   8.732
 1057SOL    HW1 3197   0.613   1.649   8.789
 1057SOL    HW2 3198   0.707   1.564   8.687
 1058SOL     OW 3199   1.352   0.052   7.616
 1058SOL    HW1 3200   1.387   0.011   7.532
 1058SOL    HW2 3201   1.262   0.014   7.636
 1059SOL     OW 3202   1.300   0.453   8.139
 1059SOL    HW1 3203   1.241   0.533   8.143
 1059SOL    HW2 3204   1.315   0.418   8.232
 1060SOL     OW 3205   1.593   0.221   8.330
 1060SOL    HW1 3206   1.509   0.220   8.384
 1060SOL    HW2 3207   1.595   0.304   8.274
 1061SOL     OW 3208   0.039   1.077   7.748
 1061SOL    HW1 3209   0.138   1.066   7.739
 1061SOL    HW2 3210  -0.001   0.991   7.780
 1062SOL     OW 3211   0.875   1.646   7.785
 1062SOL    HW1 3212   0.798   1.611   7.731
 1062SOL    HW2 3213   0.843   1.717   7.847
 1063SOL     OW 3214   0.230   0.628   9.423
 1063SOL    HW1 3215   0.137   0.626   9.460
 1063SOL    HW2 3216   0.231   0.589   9.331
 1064SOL     OW 3217   0.225   0.275  10.306
 1064SOL    HW1 3218   0.260   0.258  10.398
 1064SOL    HW2 3219   0.137   0.230  10.294
 1065SOL     OW 3220   0.019   0.368   9.957
 1065SOL    HW1 3221  -0.063   0.411   9.996
 1065SOL    HW2 3222  -0.009   0.295   9.894
 1066SOL     OW 3223   0.569   1.275  10.475
 1066SOL    HW1 3224   0.476   1.268  10.438
 1066SOL    HW2 3225   0.580   1.364  10.519
 1067SOL     OW 3226   1.555   1.511  10.013
 1067SOL    HW1 3227   1.498   1.495  10.094
 1067SOL    HW2 3228   1.496   1.521   9.933
 1068SOL     OW 3229   1.135   0.703  10.027
 1068SOL    HW1 3230   1.192   0.781  10.002
 1068SOL    HW2 3231   1.075   0.729  10.103
 1069SOL     OW 3232   1.755   0.607   9.541
 1069SOL    HW1 3233   1.743   0.594   9.442
 1069SOL    HW2 3234   1.725   0.526   9.590
 1070SOL     OW 3235   0.768   1.144  10.333
 1070SOL    HW1 3236   0.690   1.161  10.393
 1070SOL    HW2 3237   0.802   1.231  10.297
 1071SOL     OW 3238   0.850   0.798  11.133
 1071SOL    HW1 3239   0.846   0.874  11.198
 1071SOL    HW2 3240   0.872   0.834  11.042
 1072SOL     OW 3241   0.685   1.012   9.975
 1072SOL    HW1 3242   0.754   0.996  10.045
 1072SOL    HW2 3243   0.612   1.069  10.013
 1073SOL     OW 3244   0.686   1.161  11.113
 1073SOL    HW1 3245   0.746   1.240  11.127
 1073SOL    HW2 3246   0.600   1.192  11.072
 1074SOL     OW 3247   0.335   1.435  10.371
 1074SOL    HW1 3248   0.257   1.404  10.318
 1074SOL    HW2 3249   0.393   1.493  10.314
 1075SOL     OW 3250   1.460   1.505  10.649
 1075SOL    HW1 3251   1.484   1.599  10.675
 1075SOL    HW2 3252   1.444   1.451  10.731
 1076SOL     OW 3253   0.438   0.392  10.809
 1076SOL    HW1 3254   0.520   0.336  10.818
 1076SOL    HW2 3255   0.357   0.334  10.813
 1077SOL     OW 3256   1.603   0.447  10.047
 1077SOL    HW1 3257   1.529   0.493   9.997
 1077SOL    HW2 3258   1.654   0.515  10.100
 1078SOL     OW 3259   0.231   1.713   9.793
 1078SOL    HW1 3260   0.265   1.790   9.847
 1078SOL    HW2 3261   0.275   1.713   9.703
 1079SOL     OW 3262   1.127   1.341  11.000
 1079SOL    HW1 3263   1.174   1.341  11.088
 1079SOL    HW2 3264   1.079   1.254  10.989
 1080SOL     OW 3265   0.230   1.434   9.848
 1080SOL    HW1 3266   0.204   1.530   9.848
 1080SOL    HW2 3267   0.159   1.380   9.893
 1081SOL     OW 3268   0.240   1.091  10.196
 1081SOL    HW1 3269   0.254   1.007  10.248
 1081SOL    HW2 3270   0.185   1.155  10.251
 1082SOL     OW 3271   0.620   1.786  10.749
 1082SOL    HW1 3272   0.528   1.769  10.784
 1082SOL    HW2 3273   0.648   1.878  10.775
 1083SOL     OW 3274   0.606   0.964   9.433
 1083SOL    HW1 3275   0.613   1.048   9.379
 1083SOL    HW2 3276   0.652   0.977   9.521
 1084SOL     OW 3277   1.594   0.114  10.790
 1084SOL    HW1 3278   1.576   0.181  10.718
 1084SOL    HW2 3279   1.591   0.160  10.879
 1085SOL     OW 3280   0.122   0.643   9.873
 1085SOL    HW1 3281   0.077   0.555   9.890
 1085SOL    HW2 3282   0.121   0.697   9.957
 1086SOL     OW 3283   1.842   1.767   9.669
 1086SOL    HW1 3284   1.896   1.738   9.749
 1086SOL    HW2 3285   1.872   1.857   9.640
 1087SOL     OW 3286   0.027   1.596   9.427
 1087SOL    HW1 3287   0.008   1.500   9.448
 1087SOL    HW2 3288  -0.006   1.654   9.502
 1088SOL     OW 3289   1.689   0.922   9.922
 1088SOL    HW1 3290   1.784   0.893   9.930
 1088SOL    HW2 3291   1.681   0.987   9.847
 1089SOL     OW 3292   1.641   1.108   9.742
 1089SOL    HW1 3293   1.727   1.110   9.690
 1089SOL    HW2 3294   1.655   1.155   9.830
 1090SOL     OW 3295   0.113   0.737  10.907
 1090SOL    HW1 3296   0.201   0.724  10.952
 1090SOL    HW2 3297   0.100   0.834  10.885
 1091SOL     OW 3298   0.613   1.365  10.036
 1091SOL    HW1 3299   0.564   1.278  10.045
 1091SOL    HW2 3300   0.590   1.408   9.949
 1092SOL     OW 3301   1.293   1.228  10.733
 1092SOL    HW1 3302   1.330   1.155  10.675
 1092SOL    HW2 3303   1.345   1.233  10.818
 1093SOL     OW 3304   0.809   0.004   9.812
 1093SOL    HW1 3305   0.849   0.095   9.803
 1093SOL    HW2 3306   0.709   0.012   9.818
 1094SOL     OW 3307   0.197   0.976  10.574
 1094SOL    HW1 3308   0.286   0.931  10.560
 1094SOL    HW2 3309   0.124   0.911  10.555
 1095SOL     OW 3310   1.525   0.999   9.500
 1095SOL    HW1 3311   1.462   0.923   9.513
 1095SOL    HW2 3312   1.573   1.017   9.586
 1096SOL     OW 3313   1.187   1.792  10.926
 1096SOL    HW1 3314   1.211   1.852  10.850
 1096SOL    HW2 3315   1.194   1.697  10.896
 1097SOL     OW 3316   0.317   0.251  11.111
 1097SOL    HW1 3317   0.388   0.322  11.117
 1097SOL    HW2 3318   0.229   0.290  11.139
 1098SOL     OW 3319   1.466   1.417  10.263
 1098SOL    HW1 3320   1.407   1.423  10.343
 1098SOL    HW2 3321   1.451   1.329  10.217
 1099SOL     OW 3322   1.667   1.714   9.882
 1099SOL    HW1 3323   1.626   1.691   9.794
 1099SOL    HW2 3324   1.649   1.640   9.947
 1100SOL     OW 3325   0.598   0.729   9.580
 1100SOL    HW1 3326   0.622   0.798   9.512
 1100SOL    HW2 3327   0.520   0.762   9.634
 1101SOL     OW 3328   1.281   0.345  10.254
 1101SOL    HW1 3329   1.195   0.295  10.241
 1101SOL    HW2 3330   1.343   0.291  10.310
 1102SOL     OW 3331   1.576   1.662   9.617
 1102SOL    HW1 3332   1.665   1.708   9.620
 1102SOL    HW2 3333   1.555   1.638   9.522
 1103SOL     OW 3334   0.807   0.605  10.775
 1103SOL    HW1 3335   0.760   0.602  10.864
 1103SOL    HW2 3336   0.756   0.550  10.709
 1104SOL     OW 3337   1.394   0.469  10.984
 1104SOL    HW1 3338   1.374   0.512  11.072
 1104SOL    HW2 3339   1.472   0.407  10.993
 1105SOL     OW 3340   0.973   0.890  10.882
 1105SOL    HW1 3341   1.019   0.806  10.853
 1105SOL    HW2 3342   0.917   0.924  10.807
 1106SOL     OW 3343   0.991   0.410  10.552
 1106SOL    HW1 3344   0.914   0.444  10.606
 1106SOL    HW2 3345   0.957   0.359  10.473
 1107SOL     OW 3346   1.041   0.701   9.739
 1107SOL    HW1 3347   1.067   0.697   9.835
 1107SOL    HW2 3348   0.956   0.650   9.725
 1108SOL     OW 3349   0.076   0.811  10.099
 1108SOL    HW1 3350   0.175   0.799  10.108
 1108SOL    HW2 3351   0.052   0.906  10.120
 1109SOL     OW 3352   0.130   1.821  10.881
 1109SOL    HW1 3353   0.120   1.806  10.980
 1109SOL    HW2 3354   0.044   1.857  10.845
 1110SOL     OW 3355   0.865   0.348   9.505
 1110SOL    HW1 3356   0.924   0.411   9.456
 1110SOL    HW2 3357   0.884   0.254   9.476
 1111SOL     OW 3358   1.719   0.585  11.141
 1111SOL    HW1 3359   1.693   0.674  11.105
 1111SOL    HW2 3360   1.717   0.517  11.068
 1112SOL     OW 3361   1.362   1.144   9.855
 1112SOL    HW1 3362   1.445   1.115   9.807
 1112SOL    HW2 3363   1.313   1.211   9.799
 1113SOL     OW 3364   0.550   0.196  10.195
 1113SOL    HW1 3365   0.545   0.191  10.295
 1113SOL    HW2 3366   0.552   0.292  10.166
 1114SOL     OW 3367   1.008   1.456   9.787
 1114SOL    HW1 3368   0.962   1.528   9.735
 1114SOL    HW2 3369   1.004   1.476   9.885
 1115SOL     OW 3370   0.351   1.801  10.163
 1115SOL    HW1 3371   0.401   1.715  10.169
 1115SOL    HW2 3372   0.416   1.878  10.160
 1116SOL     OW 3373   1.795   1.066  10.183
 1116SOL    HW1 3374   1.733   1.051  10.107
 1116SOL    HW2 3375   1.743   1.077  10.268
 1117SOL     OW 3376   1.227   1.550  10.816
 1117SOL    HW1 3377   1.233   1.473  10.880
 1117SOL    HW2 3378   1.175   1.524  10.736
 1118SOL     OW 3379   0.321   0.943   9.552
 1118SOL    HW1 3380   0.403   0.982   9.510
 1118SOL    HW2 3381   0.294   0.861   9.503
 1119SOL     OW 3382   1.458   0.735  10.038
 1119SOL    HW1 3383   1.453   0.670  10.113
 1119SOL    HW2 3384   1.538   0.794  10.051
 1120SOL     OW 3385   0.461   1.266  11.037
 1120SOL    HW1 3386   0.411   1.267  10.951
 1120SOL    HW2 3387   0.398   1.248  11.113
 1121SOL     OW 3388   1.111   1.776   9.547
 1121SOL    HW1 3389   1.051   1.714   9.597
 1121SOL    HW2 3390   1.142   1.732   9.462
 1122SOL     OW 3391   0.202   0.285  10.808
 1122SOL    HW1 3392   0.122   0.345  10.795
 1122SOL    HW2 3393   0.192   0.236  10.894
 1123SOL     OW 3394   1.632   1.377   9.391
 1123SOL    HW1 3395   1.600   1.471   9.381
 1123SOL    HW2 3396   1.556   1.314   9.379
 1124SOL     OW 3397   0.464   1.743   9.633
 1124SOL    HW1 3398   0.497   1.782   9.719
 1124SOL    HW2 3399   0.540   1.736   9.568
 1125SOL     OW 3400   1.400   0.107   9.736
 1125SOL    HW1 3401   1.376   0.070   9.646
 1125SOL    HW2 3402   1.499   0.123   9.740
 1126SOL     OW 3403   0.249   1.785  10.551
 1126SOL    HW1 3404   0.306   1.720  10.601
 1126SOL    HW2 3405   0.233   1.752  10.458
 1127SOL     OW 3406   0.940   1.698  10.214
 1127SOL    HW1 3407   1.020   1.641  10.235
 1127SOL    HW2 3408   0.891   1.658  10.137
 1128SOL     OW 3409   0.382   0.700   9.790
 1128SOL    HW1 3410   0.427   0.610   9.787
 1128SOL    HW2 3411   0.288   0.689   9.823
 1129SOL     OW 3412   1.547   0.222  11.039
 1129SOL    HW1 3413   1.542   0.259  11.131
 1129SOL    HW2 3414   1.475   0.153  11.027
 1130SOL     OW 3415   0.614   0.122   9.427
 1130SOL    HW1 3416   0.712   0.100   9.434
 1130SOL    HW2 3417   0.583   0.105   9.334
 1131SOL     OW 3418   0.781   0.264  11.059
 1131SOL    HW1 3419   0.848   0.203  11.102
 1131SOL    HW2 3420   0.708   0.283  11.124
 1132SOL     OW 3421   0.888   1.514  10.505
 1132SOL    HW1 3422   0.865   1.489  10.411
 1132SOL    HW2 3423   0.949   1.445  10.544
 1133SOL     OW 3424   1.351   0.590  10.743
 1133SOL    HW1 3425   1.379   0.547  10.828
 1133SOL    HW2 3426   1.376   0.686  10.744
 1134SOL     OW 3427   0.803   1.402  10.234
 1134SOL    HW1 3428   0.893   1.416  10.192
 1134SOL    HW2 3429   0.732   1.404  10.163
 1135SOL     OW 3430   0.922   0.503  10.209
 1135SOL    HW1 3431   0.897   0.494  10.113
 1135SOL    HW2 3432   0.970   0.421  10.240
 1136SOL     OW 3433   0.539   0.064   9.822
 1136SOL    HW1 3434   0.458   0.065   9.880
 1136SOL    HW2 3435   0.542   0.147   9.767
 1137SOL     OW 3436   1.434   1.188   9.351
 1137SOL    HW1 3437   1.466   1.112   9.408
 1137SOL    HW2 3438   1.342   1.215   9.381
 1138SOL     OW 3439   0.297   0.035   9.481
 1138SOL    HW1 3440   0.346   0.119   9.460
 1138SOL    HW2 3441   0.359  -0.030   9.526
 1139SOL     OW 3442   0.935   0.236   9.790
 1139SOL    HW1 3443   0.887   0.277   9.712
 1139SOL    HW2 3444   1.034   0.234   9.771
 1140SOL     OW 3445   1.076   0.683  10.774
 1140SOL    HW1 3446   0.996   0.622  10.777
 1140SOL    HW2 3447   1.157   0.630  10.750
 1141SOL     OW 3448   1.227   1.570  10.103
 1141SOL    HW1 3449   1.248   1.644  10.038
 1141SOL    HW2 3450   1.295   1.570  10.176
 1142SOL     OW 3451   0.459   1.152  10.051
 1142SOL    HW1 3452   0.388   1.125  10.116
 1142SOL    HW2 3453   0.433   1.124   9.958
 1143SOL     OW 3454   1.271   1.797   9.901
 1143SOL    HW1 3455   1.315   1.861   9.837
 1143SOL    HW2 3456   1.221   1.849   9.971
 1144SOL     OW 3457   1.032   0.549   9.326
 1144SOL    HW1 3458   0.991   0.631   9.287
 1144SOL    HW2 3459   1.096   0.575   9.399
 1145SOL     OW 3460   0.078   0.556  10.696
 1145SOL    HW1 3461   0.170   0.555  10.655
 1145SOL    HW2 3462   0.072   0.630  10.763
 1146SOL     OW 3463   0.561   0.222  10.457
 1146SOL    HW1 3464   0.599   0.138  10.494
 1146SOL    HW2 3465   0.473   0.241  10.501
 1147SOL     OW 3466   0.866   0.454   9.952
 1147SOL    HW1 3467   0.834   0.526   9.890
 1147SOL    HW2 3468   0.890   0.373   9.899
 1148SOL     OW 3469   1.017   0.039  10.063
 1148SOL    HW1 3470   0.945   0.044   9.994
 1148SOL    HW2 3471   0.993  -0.030  10.132
 1149SOL     OW 3472   1.429   1.173  10.177
 1149SOL    HW1 3473   1.374   1.089  10.170
 1149SOL    HW2 3474   1.455   1.202  10.085
 1150SOL     OW 3475   1.466   0.590  10.302
 1150SOL    HW1 3476   1.436   0.495  10.309
 1150SOL    HW2 3477   1.539   0.606  10.368
 1151SOL     OW 3478   1.857   0.833   9.687
 1151SOL    HW1 3479   1.899   0.769   9.751
 1151SOL    HW2 3480   1.819   0.782   9.609
 1152SOL     OW 3481   0.488   1.385   9.484
 1152SOL    HW1 3482   0.401   1.370   9.531
 1152SOL    HW2 3483   0.471   1.411   9.389
 1153SOL     OW 3484   1.664   1.280   9.967
 1153SOL    HW1 3485   1.763   1.288   9.981
 1153SOL    HW2 3486   1.619   1.364   9.998
 1154SOL     OW 3487   1.390   0.575   9.388
 1154SOL    HW1 3488   1.336   0.554   9.469
 1154SOL    HW2 3489   1.481   0.534   9.397
 1155SOL     OW 3490   0.527   0.256   9.638
 1155SOL    HW1 3491   0.554   0.197   9.563
 1155SOL    HW2 3492   0.527   0.351   9.607
 1156SOL     OW 3493   1.754   1.223  10.898
 1156SOL    HW1 3494   1.845   1.184  10.885
 1156SOL    HW2 3495   1.762   1.319  10.922
 1157SOL     OW 3496   1.064   1.347  10.650
 1157SOL    HW1 3497   0.984   1.324  10.705
 1157SOL    HW2 3498   1.147   1.321  10.699
 1158SOL     OW 3499   1.592   1.629  10.935
 1158SOL    HW1 3500   1.619   1.663  10.845
 1158SOL    HW2 3501   1.671   1.591  10.981
 1159SOL     OW 3502   1.111   1.195  10.410
 1159SOL    HW1 3503   1.071   1.239  10.491
 1159SOL    HW2 3504   1.070   1.232  10.327
 1160SOL     OW 3505   1.638   1.099  10.389
 1160SOL    HW1 3506   1.643   1.180  10.448
 1160SOL    HW2 3507   1.552   1.101  10.338
 1161SOL     OW 3508   0.915   0.089  10.712
 1161SOL    HW1 3509   0.940   0.069  10.617
 1161SOL    HW2 3510   0.987   0.145  10.754
 1162SOL     OW 3511   0.980   1.116  11.029
 1162SOL    HW1 3512   0.881   1.122  11.039
 1162SOL    HW2 3513   1.003   1.036  10.973
 1163SOL     OW 3514   0.705   1.050   9.678
 1163SOL    HW1 3515   0.691   1.057   9.777
 1163SOL    HW2 3516   0.789   0.999   9.660
 1164SOL     OW 3517   0.410   0.813  10.561
 1164SOL    HW1 3518   0.496   0.825  10.611
 1164SOL    HW2 3519   0.368   0.726  10.588
 1165SOL     OW 3520   1.274   0.386  10.572
 1165SOL    HW1 3521   1.295   0.460  10.636
 1165SOL    HW2 3522   1.185   0.403  10.529
 1166SOL     OW 3523   0.064   1.564  10.641
 1166SOL    HW1 3524   0.018   1.646  10.607
 1166SOL    HW2 3525   0.162   1.583  10.650
 1167SOL     OW 3526   0.367   1.100   9.811
 1167SOL    HW1 3527   0.360   1.183   9.755
 1167SOL    HW2 3528   0.371   1.020   9.751
 1168SOL     OW 3529   0.566   0.537  10.175
 1168SOL    HW1 3530   0.578   0.603  10.101
 1168SOL    HW2 3531   0.612   0.571  10.258
 1169SOL     OW 3532   1.252   1.348   9.698
 1169SOL    HW1 3533   1.302   1.425   9.738
 1169SOL    HW2 3534   1.157   1.350   9.730
 1170SOL     OW 3535   1.272   1.445  10.452
 1170SOL    HW1 3536   1.319   1.458  10.539
 1170SOL    HW2 3537   1.206   1.371  10.461
 1171SOL     OW 3538   1.582   0.639   9.782
 1171SOL    HW1 3539   1.551   0.700   9.855
 1171SOL    HW2 3540   1.632   0.691   9.713
 1172SOL     OW 3541   0.354   1.510  10.639
 1172SOL    HW1 3542   0.333   1.466  10.552
 1172SOL    HW2 3543   0.451   1.536  10.642
 1173SOL     OW 3544   0.402   0.751  10.908
 1173SOL    HW1 3545   0.470   0.806  10.861
 1173SOL    HW2 3546   0.442   0.663  10.935
 1174SOL     OW 3547   1.587   0.779  10.980
 1174SOL    HW1 3548   1.495   0.817  10.975
 1174SOL    HW2 3549   1.647   0.826  10.915
 1175SOL     OW 3550   1.013   0.105  11.080
 1175SOL    HW1 3551   1.019   0.190  11.028
 1175SOL    HW2 3552   1.045   0.029  11.023
 1176SOL     OW 3553   0.504   0.050  11.050
 1176SOL    HW1 3554   0.462  -0.007  10.980
 1176SOL    HW2 3555   0.438   0.119  11.082
 1177SOL     OW 3556   0.573   0.870  10.339
 1177SOL    HW1 3557   0.617   0.959  10.330
 1177SOL    HW2 3558   0.510   0.870  10.416
 1178SOL     OW 3559   1.360   0.862  10.355
 1178SOL    HW1 3560   1.285   0.862  10.289
 1178SOL    HW2 3561   1.397   0.770  10.364
 1179SOL     OW 3562   1.209   0.525   9.585
 1179SOL    HW1 3563   1.222   0.441   9.639
 1179SOL    HW2 3564   1.180   0.599   9.645
 1180SOL     OW 3565   0.307   0.213  10.541
 1180SOL    HW1 3566   0.284   0.250  10.631
 1180SOL    HW2 3567   0.277   0.118  10.535
 1181SOL     OW 3568   0.037   1.310  10.592
 1181SOL    HW1 3569   0.090   1.261  10.660
 1181SOL    HW2 3570   0.059   1.408  10.597
 1182SOL     OW 3571   0.732   0.634  10.374
 1182SOL    HW1 3572   0.791   0.608  10.298
 1182SOL    HW2 3573   0.704   0.730  10.363
 1183SOL     OW 3574   1.728   0.935  11.164
 1183SOL    HW1 3575   1.682   0.928  11.075
 1183SOL    HW2 3576   1.666   0.979  11.230
 1184SOL     OW 3577   0.307   0.063   9.928
 1184SOL    HW1 3578   0.296   0.157   9.961
 1184SOL    HW2 3579   0.302   0.000  10.005
 1185SOL     OW 3580   1.622   0.367   9.684
 1185SOL    HW1 3581   1.624   0.291   9.748
 1185SOL    HW2 3582   1.574   0.444   9.724
 1186SOL     OW 3583   1.023   0.766  10.276
 1186SOL    HW1 3584   1.038   0.787  10.372
 1186SOL    HW2 3585   0.993   0.671  10.267
 1187SOL     OW 3586   0.980   1.573  11.010
 1187SOL    HW1 3587   0.960   1.617  10.922
 1187SOL    HW2 3588   1.019   1.482  10.994
 1188SOL     OW 3589   1.859   1.518  10.915
 1188SOL    HW1 3590   1.873   1.545  10.820
 1188SOL    HW2 3591   1.942   1.540  10.968
 1189SOL     OW 3592   0.350   0.898  11.114
 1189SOL    HW1 3593   0.426   0.942  11.162
 1189SOL    HW2 3594   0.385   0.851  11.032
 1190SOL     OW 3595   1.540   0.274   9.435
 1190SOL    HW1 3596   1.479   0.199   9.458
 1190SOL    HW2 3597   1.562   0.326   9.518
 1191SOL     OW 3598   1.303   0.838   9.352
 1191SOL    HW1 3599   1.337   0.745   9.367
 1191SOL    HW2 3600   1.321   0.865   9.257
 1192SOL     OW 3601   1.068   1.333  10.159
 1192SOL    HW1 3602   1.075   1.249  10.104
 1192SOL    HW2 3603   1.130   1.402  10.123
 1193SOL     OW 3604   0.319   0.810  10.259
 1193SOL    HW1 3605   0.412   0.846  10.264
 1193SOL    HW2 3606   0.313   0.725  10.311
 1194SOL     OW 3607   0.339   0.509  10.316
 1194SOL    HW1 3608   0.287   0.426  10.299
 1194SOL    HW2 3609   0.416   0.514  10.252
 1195SOL     OW 3610   1.138   0.380  10.988
 1195SOL    HW1 3611   1.093   0.443  11.052
 1195SOL    HW2 3612   1.231   0.411  10.971
 1196SOL     OW 3613   1.160   0.207  10.787
 1196SOL    HW1 3614   1.160   0.271  10.864
 1196SOL    HW2 3615   1.188   0.255  10.704
 1197SOL     OW 3616   0.008   1.326   9.510
 1197SOL    HW1 3617  -0.085   1.347   9.479
 1197SOL    HW2 3618   0.018   1.227   9.523
 1198SOL     OW 3619   0.088   1.801  10.237
 1198SOL    HW1 3620   0.046   1.715  10.210
 1198SOL    HW2 3621   0.182   1.804  10.203
 1199SOL     OW 3622   0.504   1.568  10.220
 1199SOL    HW1 3623   0.570   1.642  10.229
 1199SOL    HW2 3624   0.548   1.489  10.178
 1200SOL     OW 3625   1.002   0.796  10.548
 1200SOL    HW1 3626   1.043   0.764  10.634
 1200SOL    HW2 3627   0.906   0.769  10.545
 1201SOL     OW 3628   0.040   0.544  10.424
 1201SOL    HW1 3629   0.125   0.511  10.383
 1201SOL    HW2 3630   0.053   0.559  10.522
 1202SOL     OW 3631   0.189   0.520  11.032
 1202SOL    HW1 3632   0.248   0.480  10.962
 1202SOL    HW2 3633   0.131   0.591  10.991
 1203SOL     OW 3634   1.369   0.950  10.970
 1203SOL    HW1 3635   1.408   1.039  10.990
 1203SOL    HW2 3636   1.379   0.930  10.873
 1204SOL     OW 3637   0.815   0.572   9.635
 1204SOL    HW1 3638   0.822   0.483   9.589
 1204SOL    HW2 3639   0.721   0.606   9.627
 1205SOL     OW 3640   1.657   0.604  10.516
 1205SOL    HW1 3641   1.619   0.535  10.578
 1205SOL    HW2 3642   1.739   0.568  10.472
 1206SOL     OW 3643   0.252   1.564  11.054
 1206SOL    HW1 3644   0.222   1.621  11.130
 1206SOL    HW2 3645   0.245   1.467  11.080
 1207SOL     OW 3646   0.671   0.464  10.579
 1207SOL    HW1 3647   0.637   0.375  10.549
 1207SOL    HW2 3648   0.697   0.518  10.499
 1208SOL     OW 3649   0.930   1.678  10.775
 1208SOL    HW1 3650   0.906   1.660  10.680
 1208SOL    HW2 3651   0.960   1.772  10.785
 1209SOL     OW 3652   0.473   0.500   9.501
 1209SOL    HW1 3653   0.534   0.580   9.505
 1209SOL    HW2 3654   0.378   0.531   9.508
 1210SOL     OW 3655   0.159   1.137  10.776
 1210SOL    HW1 3656   0.181   1.076  10.852
 1210SOL    HW2 3657   0.169   1.088  10.690
 1211SOL     OW 3658   1.347   1.059  10.544
 1211SOL    HW1 3659   1.371   0.996  10.470
 1211SOL    HW2 3660   1.257   1.099  10.526
 1212SOL     OW 3661   1.302   0.855   9.619
 1212SOL    HW1 3662   1.216   0.824   9.661
 1212SOL    HW2 3663   1.298   0.841   9.520
 1213SOL     OW 3664   1.759   1.747  10.464
 1213SOL    HW1 3665   1.820   1.777  10.391
 1213SOL    HW2 3666   1.721   1.658  10.442
 1214SOL     OW 3667   1.252   1.731  10.438
 1214SOL    HW1 3668   1.336   1.736  10.384
 1214SOL    HW2 3669   1.229   1.635  10.456
 1215SOL     OW 3670   0.083   1.258  10.332
 1215SOL    HW1 3671   0.078   1.257  10.432
 1215SOL    HW2 3672   0.000   1.217  10.294
 1216SOL     OW 3673   0.688   1.662  11.026
 1216SOL    HW1 3674   0.632   1.743  11.035
 1216SOL    HW2 3675   0.740   1.666  10.940
 1217SOL     OW 3676   1.726   0.135   9.833
 1217SOL    HW1 3677   1.799   0.118   9.766
 1217SOL    HW2 3678   1.695   0.048   9.871
 1218SOL     OW 3679   1.388   1.573   9.787
 1218SOL    HW1 3680   1.455   1.585   9.713
 1218SOL    HW2 3681   1.348   1.662   9.810
 1219SOL     OW 3682   0.130   1.794  11.161
 1219SOL    HW1 3683   0.089   1.720  11.214
 1219SOL    HW2 3684   0.194   1.845  11.219
 1220SOL     OW 3685   1.280   0.927   9.982
 1220SOL    HW1 3686   1.340   0.846   9.984
 1220SOL    HW2 3687   1.320   0.996   9.922
 1221SOL     OW 3688   0.830   1.273  10.732
 1221SOL    HW1 3689   0.825   1.306  10.827
 1221SOL    HW2 3690   0.744   1.292  10.686
 1222SOL     OW 3691   0.672   1.616   9.464
 1222SOL    HW1 3692   0.681   1.626   9.365
 1222SOL    HW2 3693   0.632   1.527   9.485
 1223SOL     OW 3694   1.650   1.720  10.704
 1223SOL    HW1 3695   1.703   1.730  10.620
 1223SOL    HW2 3696   1.623   1.810  10.738
 1224SOL     OW 3697   1.841   0.175  10.273
 1224SOL    HW1 3698   1.880   0.090  10.237
 1224SOL    HW2 3699   1.743   0.177  10.254
 1225SOL     OW 3700   0.263   0.326  10.030
 1225SOL    HW1 3701   0.184   0.377   9.996
 1225SOL    HW2 3702   0.254   0.311  10.128
 1226SOL     OW 3703   1.194   1.612   9.341
 1226SOL    HW1 3704   1.200   1.519   9.378
 1226SOL    HW2 3705   1.135   1.612   9.261
 1227SOL     OW 3706   0.822   1.002  10.682
 1227SOL    HW1 3707   0.862   1.001  10.590
 1227SOL    HW2 3708   0.832   1.094  10.722
 1228SOL     OW 3709   0.916   0.910   9.601
 1228SOL    HW1 3710   0.979   0.948   9.533
 1228SOL    HW2 3711   0.956   0.827   9.640
 1229SOL     OW 3712   1.504   1.607   9.354
 1229SOL    HW1 3713   1.412   1.644   9.361
 1229SOL    HW2 3714   1.542   1.627   9.264
 1230SOL     OW 3715   0.372   1.288  10.800
 1230SOL    HW1 3716   0.359   1.381  10.766
 1230SOL    HW2 3717   0.288   1.236  10.787
 1231SOL     OW 3718   1.614   1.292  10.599
 1231SOL    HW1 3719   1.674   1.295  10.679
 1231SOL    HW2 3720   1.539   1.356  10.612
 1232SOL     OW 3721   1.039   1.098  10.006
 1232SOL    HW1 3722   0.969   1.051  10.060
 1232SOL    HW2 3723   1.098   1.030   9.963
 1233SOL     OW 3724   1.014   0.236  10.281
 1233SOL    HW1 3725   1.006   0.200  10.188
 1233SOL    HW2 3726   1.012   0.160  10.346
 1234SOL     OW 3727   0.590   1.487   9.801
 1234SOL    HW1 3728   0.632   1.429   9.731
 1234SOL    HW2 3729   0.546   1.566   9.757
 1235SOL     OW 3730   1.709   0.385  10.691
 1235SOL    HW1 3731   1.782   0.454  10.695
 1235SOL    HW2 3732   1.737   0.310  10.632
 1236SOL     OW 3733   0.255   1.348   9.600
 1236SOL    HW1 3734   0.159   1.349   9.573
 1236SOL    HW2 3735   0.267   1.401   9.684
 1237SOL     OW 3736   0.105   1.013  11.036
 1237SOL    HW1 3737   0.028   0.980  11.090
 1237SOL    HW2 3738   0.190   0.983  11.078
 1238SOL     OW 3739   0.672   0.203  10.799
 1238SOL    HW1 3740   0.762   0.187  10.759
 1238SOL    HW2 3741   0.680   0.208  10.898
 1239SOL     OW 3742   0.075   0.345   9.343
 1239SOL    HW1 3743  -0.017   0.317   9.314
 1239SOL    HW2 3744   0.106   0.422   9.287
 1240SOL     OW 3745   1.440   0.856  10.708
 1240SOL    HW1 3746   1.383   0.908  10.645
 1240SOL    HW2 3747   1.536   0.868  10.684
 1241SOL     OW 3748   0.072   0.166   9.628
 1241SOL    HW1 3749   0.055   0.249   9.574
 1241SOL    HW2 3750   0.162   0.129   9.606
 1242SOL     OW 3751   1.183   1.335   9.429
 1242SOL    HW1 3752   1.084   1.324   9.431
 1242SOL    HW2 3753   1.217   1.350   9.522
 1243SOL     OW 3754   0.613   0.842  10.741
 1243SOL    HW1 3755   0.669   0.923  10.724
 1243SOL    HW2 3756   0.672   0.762  10.744
 1244SOL     OW 3757   1.493   1.767  10.269
 1244SOL    HW1 3758   1.526   1.831  10.200
 1244SOL    HW2 3759   1.559   1.761  10.344
 1245SOL     OW 3760   0.716   0.565  11.018
 1245SOL    HW1 3761   0.735   0.630  11.092
 1245SOL    HW2 3762   0.776   0.485  11.027
 1246SOL     OW 3763   1.450   1.220  10.943
 1246SOL    HW1 3764   1.441   1.210  11.042
 1246SOL    HW2 3765   1.546   1.213  10.917
 1247SOL     OW 3766   0.390   1.741  10.870
 1247SOL    HW1 3767   0.299   1.782  10.868
 1247SOL    HW2 3768   0.383   1.647  10.902
 1248SOL     OW 3769   1.674   0.883  10.564
 1248SOL    HW1 3770   1.647   0.794  10.527
 1248SOL    HW2 3771   1.675   0.951  10.491
 1249SOL     OW 3772   1.225   0.325   9.759
 1249SOL    HW1 3773   1.290   0.251   9.748
 1249SOL    HW2 3774   1.245   0.375   9.843
 1250SOL     OW 3775   0.594   0.745   9.962
 1250SOL    HW1 3776   0.644   0.830   9.943
 1250SOL    HW2 3777   0.506   0.747   9.914
 1251SOL     OW 3778   1.777   0.342  10.952
 1251SOL    HW1 3779   1.760   0.373  10.858
 1251SOL    HW2 3780   1.693   0.305  10.990
 1252SOL     OW 3781   1.730   0.934  10.827
 1252SOL    HW1 3782   1.768   1.025  10.842
 1252SOL    HW2 3783   1.722   0.917  10.728
 1253SOL     OW 3784   0.859   1.374   9.326
 1253SOL    HW1 3785   0.813   1.389   9.414
 1253SOL    HW2 3786   0.903   1.459   9.296
 1254SOL     OW 3787   0.661   1.790  10.263
 1254SOL    HW1 3788   0.615   1.878  10.250
 1254SOL    HW2 3789   0.760   1.802  10.256
 1255SOL     OW 3790   0.859   0.956  10.171
 1255SOL    HW1 3791   0.913   0.887  10.219
 1255SOL    HW2 3792   0.827   1.025  10.237
 1256SOL     OW 3793   1.083   0.984   9.397
 1256SOL    HW1 3794   1.060   1.037   9.315
 1256SOL    HW2 3795   1.164   0.928   9.378
 1257SOL     OW 3796   1.861   1.569  10.161
 1257SOL    HW1 3797   1.790   1.557  10.091
 1257SOL    HW2 3798   1.862   1.490  10.221
 1258SOL     OW 3799   0.221   1.314  11.154
 1258SOL    HW1 3800   0.156   1.241  11.133
 1258SOL    HW2 3801   0.225   1.328  11.252
 1259SOL     OW 3802   0.079   1.240   9.963
 1259SOL    HW1 3803   0.078   1.193  10.051
 1259SOL    HW2 3804   0.161   1.212   9.912
 1260SOL     OW 3805   0.672   1.391  10.934
 1260SOL    HW1 3806   0.594   1.341  10.972
 1260SOL    HW2 3807   0.669   1.486  10.965
 1261SOL     OW 3808   1.824   0.192  10.537
 1261SOL    HW1 3809   1.820   0.102  10.581
 1261SOL    HW2 3810   1.827   0.181  10.438
 1262SOL     OW 3811   0.428   0.424   9.830
 1262SOL    HW1 3812   0.458   0.352   9.768
 1262SOL    HW2 3813   0.389   0.384   9.913
 1263SOL     OW 3814   1.705   1.487  10.414
 1263SOL    HW1 3815   1.612   1.462  10.387
 1263SOL    HW2 3816   1.731   1.437  10.496
 1264SOL     OW 3817   0.317   0.547  10.590
 1264SOL    HW1 3818   0.355   0.488  10.662
 1264SOL    HW2 3819   0.357   0.521  10.502
 1265SOL     OW 3820   0.812   1.586   9.997
 1265SOL    HW1 3821   0.844   1.596   9.903
 1265SOL    HW2 3822   0.733   1.524   9.999
 1266SOL     OW 3823   1.424   0.214  10.422
 1266SOL    HW1 3824   1.476   0.149  10.477
 1266SOL    HW2 3825   1.375   0.277  10.483
 1267SOL     OW 3826   1.001   0.034  10.464
 1267SOL    HW1 3827   0.938  -0.038  10.433
 1267SOL    HW2 3828   1.094  -0.002  10.464
 1268SOL     OW 3829   0.770   1.330   9.611
 1268SOL    HW1 3830   0.724   1.243   9.628
 1268SOL    HW2 3831   0.861   1.327   9.652
 1269SOL     OW 3832   0.618   1.567  10.594
 1269SOL    HW1 3833   0.613   1.649  10.651
 1269SOL    HW2 3834   0.707   1.564  10.549
 1270SOL     OW 3835   1.352   0.052   9.478
 1270SOL    HW1 3836   1.387   0.011   9.394
 1270SOL    HW2 3837   1.262   0.014   9.498
 1271SOL     OW 3838   1.300   0.453  10.001
 1271SOL    HW1 3839   1.241   0.533  10.005
 1271SOL    HW2 3840   1.315   0.418  10.094
 1272SOL     OW 3841   1.593   0.221  10.192
 1272SOL    HW1 3842   1.509   0.220  10.246
 1272SOL    HW2 3843   1.595   0.304  10.136
 1273SOL     OW 3844   0.039   1.077   9.610
 1273SOL    HW1 3845   0.138   1.066   9.601
 1273SOL    HW2 3846  -0.001   0.991   9.642
 1274SOL     OW 3847   0.875   1.646   9.647
 1274SOL    HW1 3848   0.798   1.611   9.593
 1274SOL    HW2 3849   0.843   1.717   9.709
 1275SOL     OW 3850   0.230   0.628  11.285
 1275SOL    HW1 3851   0.137   0.626  11.322
 1275SOL    HW2 3852   0.231   0.589  11.193
 1276SOL     OW 3853   0.225   0.275  12.168
 1276SOL    HW1 3854   0.260   0.258  12.260
 1276SOL    HW2 3855   0.137   0.230  12.156
 1277SOL     OW 3856   0.019   0.368  11.819
 1277SOL    HW1 3857  -0.063   0.411  11.858
 1277SOL    HW2 3858  -0.009   0.295  11.756
 1278SOL     OW 3859   0.569   1.275  12.337
 1278SOL    HW1 3860   0.476   1.268  12.300
 1278SOL    HW2 3861   0.580   1.364  12.381
 1279SOL     OW 3862   1.555   1.511  11.875
 1279SOL    HW1 3863   1.498   1.495  11.956
 1279SOL    HW2 3864   1.496   1.521  11.795
 1280SOL     OW 3865   1.135   0.703  11.889
 1280SOL    HW1 3866   1.192   0.781  11.864
 1280SOL    HW2 3867   1.075   0.729  11.965
 1281SOL     OW 3868   1.755   0.607  11.403
 1281SOL    HW1 3869   1.743   0.594  11.304
 1281SOL    HW2 3870   1.725   0.526  11.452
 1282SOL     OW 3871   0.768   1.144  12.195
 1282SOL    HW1 3872   0.690   1.161  12.255
 1282SOL    HW2 3873   0.802   1.231  12.159
 1283SOL     OW 3874   0.685   1.012  11.837
 1283SOL    HW1 3875   0.754   0.996  11.907
 1283SOL    HW2 3876   0.612   1.069  11.875
 1284SOL     OW 3877   0.335   1.435  12.233
 1284SOL    HW1 3878   0.257   1.404  12.180
 1284SOL    HW2 3879   0.393   1.493  12.176
 1285SOL     OW 3880   1.460   1.505  12.511
 1285SOL    HW1 3881   1.484   1.599  12.537
 1285SOL    HW2 3882   1.444   1.451  12.593
 1286SOL     OW 3883   0.438   0.392  12.671
 1286SOL    HW1 3884   0.520   0.336  12.680
 1286SOL    HW2 3885   0.357   0.334  12.675
 1287SOL     OW 3886   1.603   0.447  11.909
 1287SOL    HW1 3887   1.529   0.493  11.859
 1287SOL    HW2 3888   1.654   0.515  11.962
 1288SOL     OW 3889   0.231   1.713  11.655
 1288SOL    HW1 3890   0.265   1.790  11.709
 1288SOL    HW2 3891   0.275   1.713  11.565
 1289SOL     OW 3892   0.230   1.434  11.710
 1289SOL    HW1 3893   0.204   1.530  11.710
 1289SOL    HW2 3894   0.159   1.380  11.755
 1290SOL     OW 3895   0.240   1.091  12.058
 1290SOL    HW1 3896   0.254   1.007  12.110
 1290SOL    HW2 3897   0.185   1.155  12.113
 1291SOL     OW 3898   0.620   1.786  12.611
 1291SOL    HW1 3899   0.528   1.769  12.646
 1291SOL    HW2 3900   0.648   1.878  12.637
 1292SOL     OW 3901   0.606   0.964  11.295
 1292SOL    HW1 3902   0.613   1.048  11.241
 1292SOL    HW2 3903   0.652   0.977  11.383
 1293SOL     OW 3904   1.594   0.114  12.652
 1293SOL    HW1 3905   1.576   0.181  12.580
 1293SOL    HW2 3906   1.591   0.160  12.741
 1294SOL     OW 3907   0.122   0.643  11.735
 1294SOL    HW1 3908   0.077   0.555  11.752
 1294SOL    HW2 3909   0.121   0.697  11.819
 1295SOL     OW 3910   1.842   1.767  11.531
 1295SOL    HW1 3911   1.896   1.738  11.611
 1295SOL    HW2 3912   1.872   1.857  11.502
 1296SOL     OW 3913   0.027   1.596  11.289
 1296SOL    HW1 3914   0.008   1.500  11.310
 1296SOL    HW2 3915  -0.006   1.654  11.364
 1297SOL     OW 3916   1.689   0.922  11.784
 1297SOL    HW1 3917   1.784   0.893  11.792
 1297SOL    HW2 3918   1.681   0.987  11.709
 1298SOL     OW 3919   1.641   1.108  11.604
 1298SOL    HW1 3920   1.727   1.110  11.552
 1298SOL    HW2 3921   1.655   1.155  11.692
 1299SOL     OW 3922   0.613   1.365  11.898
 1299SOL    HW1 3923   0.564   1.278  11.907
 1299SOL    HW2 3924   0.590   1.408  11.811
 1300SOL     OW 3925   0.809   0.004  11.674
 1300SOL    HW1 3926   0.849   0.095  11.665
 1300SOL    HW2 3927   0.709   0.012  11.680
 1301SOL     OW 3928   0.197   0.976  12.436
 1301SOL    HW1 3929   0.286   0.931  12.422
 1301SOL    HW2 3930   0.124   0.911  12.417
 1302SOL     OW 3931   1.525   0.999  11.362
 1302SOL    HW1 3932   1.462   0.923  11.375
 1302SOL    HW2 3933   1.573   1.017  11.448
 1303SOL     OW 3934   0.317   0.251  12.973
 1303SOL    HW1 3935   0.388   0.322  12.979
 1303SOL    HW2 3936   0.229   0.290  13.001
 1304SOL     OW 3937   1.466   1.417  12.125
 1304SOL    HW1 3938   1.407   1.423  12.205
 1304SOL    HW2 3939   1.451   1.329  12.079
 1305SOL     OW 3940   1.667   1.714  11.744
 1305SOL    HW1 3941   1.626   1.691  11.656
 1305SOL    HW2 3942   1.649   1.640  11.809
 1306SOL     OW 3943   0.598   0.729  11.442
 1306SOL    HW1 3944   0.622   0.798  11.374
 1306SOL    HW2 3945   0.520   0.762  11.496
 1307SOL     OW 3946   1.281   0.345  12.116
 1307SOL    HW1 3947   1.195   0.295  12.103
 1307SOL    HW2 3948   1.343   0.291  12.172
 1308SOL     OW 3949   1.576   1.662  11.479
 1308SOL    HW1 3950   1.665   1.708  11.482
 1308SOL    HW2 3951   1.555   1.638  11.384
 1309SOL     OW 3952   0.807   0.605  12.637
 1309SOL    HW1 3953   0.760   0.602  12.726
 1309SOL    HW2 3954   0.756   0.550  12.571
 1310SOL     OW 3955   0.991   0.410  12.414
 1310SOL    HW1 3956   0.914   0.444  12.468
 1310SOL    HW2 3957   0.957   0.359  12.335
 1311SOL     OW 3958   1.041   0.701  11.601
 1311SOL    HW1 3959   1.067   0.697  11.697
 1311SOL    HW2 3960   0.956   0.650  11.587
 1312SOL     OW 3961   0.076   0.811  11.961
 1312SOL    HW1 3962   0.175   0.799  11.970
 1312SOL    HW2 3963   0.052   0.906  11.982
 1313SOL     OW 3964   0.130   1.821  12.743
 1313SOL    HW1 3965   0.120   1.806  12.842
 1313SOL    HW2 3966   0.044   1.857  12.707
 1314SOL     OW 3967   0.865   0.348  11.367
 1314SOL    HW1 3968   0.924   0.411  11.318
 1314SOL    HW2 3969   0.884   0.254  11.338
 1315SOL     OW 3970   1.362   1.144  11.717
 1315SOL    HW1 3971   1.445   1.115  11.669
 1315SOL    HW2 3972   1.313   1.211  11.661
 1316SOL     OW 3973   0.550   0.196  12.057
 1316SOL    HW1 3974   0.545   0.191  12.157
 1316SOL    HW2 3975   0.552   0.292  12.028
 1317SOL     OW 3976   1.008   1.456  11.649
 1317SOL    HW1 3977   0.962   1.528  11.597
 1317SOL    HW2 3978   1.004   1.476  11.747
 1318SOL     OW 3979   0.351   1.801  12.025
 1318SOL    HW1 3980   0.401   1.715  12.031
 1318SOL    HW2 3981   0.416   1.878  12.022
 1319SOL     OW 3982   1.795   1.066  12.045
 1319SOL    HW1 3983   1.733   1.051  11.969
 1319SOL    HW2 3984   1.743   1.077  12.130
 1320SOL     OW 3985   0.321   0.943  11.414
 1320SOL    HW1 3986   0.403   0.982  11.372
 1320SOL    HW2 3987   0.294   0.861  11.365
 1321SOL     OW 3988   1.458   0.735  11.900
 1321SOL    HW1 3989   1.453   0.670  11.975
 1321SOL    HW2 3990   1.538   0.794  11.913
 1322SOL     OW 3991   1.111   1.776  11.409
 1322SOL    HW1 3992   1.051   1.714  11.459
 1322SOL    HW2 3993   1.142   1.732  11.324
 1323SOL     OW 3994   1.632   1.377  11.253
 1323SOL    HW1 3995   1.600   1.471  11.243
 1323SOL    HW2 3996   1.556   1.314  11.241
 1324SOL     OW 3997   0.464   1.743  11.495
 1324SOL    HW1 3998   0.497   1.782  11.581
 1324SOL    HW2 3999   0.540   1.736  11.430
 1325SOL     OW 4000   1.400   0.107  11.598
 1325SOL    HW1 4001   1.376   0.070  11.508
 1325SOL    HW2 4002   1.499   0.123  11.602
 1326SOL     OW 4003   0.249   1.785  12.413
 1326SOL    HW1 4004   0.306   1.720  12.463
 1326SOL    HW2 4005   0.233   1.752  12.320
 1327SOL     OW 4006   0.940   1.698  12.076
 1327SOL    HW1 4007   1.020   1.641  12.097
 1327SOL    HW2 4008   0.891   1.658  11.999
 1328SOL     OW 4009   0.382   0.700  11.652
 1328SOL    HW1 4010   0.427   0.610  11.649
 1328SOL    HW2 4011   0.288   0.689  11.685
 1329SOL     OW 4012   0.614   0.122  11.289
 1329SOL    HW1 4013   0.712   0.100  11.296
 1329SOL    HW2 4014   0.583   0.105  11.196
 1330SOL     OW 4015   0.888   1.514  12.367
 1330SOL    HW1 4016   0.865   1.489  12.273
 1330SOL    HW2 4017   0.949   1.445  12.406
 1331SOL     OW 4018   0.803   1.402  12.096
 1331SOL    HW1 4019   0.893   1.416  12.054
 1331SOL    HW2 4020   0.732   1.404  12.025
 1332SOL     OW 4021   0.922   0.503  12.071
 1332SOL    HW1 4022   0.897   0.494  11.975
 1332SOL    HW2 4023   0.970   0.421  12.102
 1333SOL     OW 4024   0.539   0.064  11.684
 1333SOL    HW1 4025   0.458   0.065  11.742
 1333SOL    HW2 4026   0.542   0.147  11.629
 1334SOL     OW 4027   1.434   1.188  11.213
 1334SOL    HW1 4028   1.466   1.112  11.270
 1334SOL    HW2 4029   1.342   1.215  11.243
 1335SOL     OW 4030   0.297   0.035  11.343
 1335SOL    HW1 4031   0.346   0.119  11.322
 1335SOL    HW2 4032   0.359  -0.030  11.388
 1336SOL     OW 4033   0.935   0.236  11.652
 1336SOL    HW1 4034   0.887   0.277  11.574
 1336SOL    HW2 4035   1.034   0.234  11.633
 1337SOL     OW 4036   1.227   1.570  11.965
 1337SOL    HW1 4037   1.248   1.644  11.900
 1337SOL    HW2 4038   1.295   1.570  12.038
 1338SOL     OW 4039   0.459   1.152  11.913
 1338SOL    HW1 4040   0.388   1.125  11.978
 1338SOL    HW2 4041   0.433   1.124  11.820
 1339SOL     OW 4042   1.271   1.797  11.763
 1339SOL    HW1 4043   1.315   1.861  11.699
 1339SOL    HW2 4044   1.221   1.849  11.833
 1340SOL     OW 4045   1.032   0.549  11.188
 1340SOL    HW1 4046   0.991   0.631  11.149
 1340SOL    HW2 4047   1.096   0.575  11.261
 1341SOL     OW 4048   0.078   0.556  12.558
 1341SOL    HW1 4049   0.170   0.555  12.517
 1341SOL    HW2 4050   0.072   0.630  12.625
 1342SOL     OW 4051   0.561   0.222  12.319
 1342SOL    HW1 4052   0.599   0.138  12.356
 1342SOL    HW2 4053   0.473   0.241  12.363
 1343SOL     OW 4054   0.866   0.454  11.814
 1343SOL    HW1 4055   0.834   0.526  11.752
 1343SOL    HW2 4056   0.890   0.373  11.761
 1344SOL     OW 4057   1.017   0.039  11.925
 1344SOL    HW1 4058   0.945   0.044  11.856
 1344SOL    HW2 4059   0.993  -0.030  11.994
 1345SOL     OW 4060   1.429   1.173  12.039
 1345SOL    HW1 4061   1.374   1.089  12.032
 1345SOL    HW2 4062   1.455   1.202  11.947
 1346SOL     OW 4063   1.466   0.590  12.164
 1346SOL    HW1 4064   1.436   0.495  12.171
 1346SOL    HW2 4065   1.539   0.606  12.230
 1347SOL     OW 4066   1.857   0.833  11.549
 1347SOL    HW1 4067   1.899   0.769  11.613
 1347SOL    HW2 4068   1.819   0.782  11.471
 1348SOL     OW 4069   0.488   1.385  11.346
 1348SOL    HW1 4070   0.401   1.370  11.393
 1348SOL    HW2 4071   0.471   1.411  11.251
 1349SOL     OW 4072   1.664   1.280  11.829
 1349SOL    HW1 4073   1.763   1.288  11.843
 1349SOL    HW2 4074   1.619   1.364  11.860
 1350SOL     OW 4075   1.390   0.575  11.250
 1350SOL    HW1 4076   1.336   0.554  11.331
 1350SOL    HW2 4077   1.481   0.534  11.259
 1351SOL     OW 4078   0.527   0.256  11.500
 1351SOL    HW1 4079   0.554   0.197  11.425
 1351SOL    HW2 4080   0.527   0.351  11.469
 1352SOL     OW 4081   1.064   1.347  12.512
 1352SOL    HW1 4082   0.984   1.324  12.567
 1352SOL    HW2 4083   1.147   1.321  12.561
 1353SOL     OW 4084   1.111   1.195  12.272
 1353SOL    HW1 4085   1.071   1.239  12.353
 1353SOL    HW2 4086   1.070   1.232  12.189
 1354SOL     OW 4087   1.638   1.099  12.251
 1354SOL    HW1 4088   1.643   1.180  12.310
 1354SOL    HW2 4089   1.552   1.101  12.200
 1355SOL     OW 4090   0.915   0.089  12.574
 1355SOL    HW1 4091   0.940   0.069  12.479
 1355SOL    HW2 4092   0.987   0.145  12.616
 1356SOL     OW 4093   0.705   1.050  11.540
 1356SOL    HW1 4094   0.691   1.057  11.639
 1356SOL    HW2 4095   0.789   0.999  11.522
 1357SOL     OW 4096   0.410   0.813  12.423
 1357SOL    HW1 4097   0.496   0.825  12.473
 1357SOL    HW2 4098   0.368   0.726  12.450
 1358SOL     OW 4099   1.274   0.386  12.434
 1358SOL    HW1 4100   1.295   0.460  12.498
 1358SOL    HW2 4101   1.185   0.403  12.391
 1359SOL     OW 4102   0.064   1.564  12.503
 1359SOL    HW1 4103   0.018   1.646  12.469
 1359SOL    HW2 4104   0.162   1.583  12.512
 1360SOL     OW 4105   0.367   1.100  11.673
 1360SOL    HW1 4106   0.360   1.183  11.617
 1360SOL    HW2 4107   0.371   1.020  11.613
 1361SOL     OW 4108   0.566   0.537  12.037
 1361SOL    HW1 4109   0.578   0.603  11.963
 1361SOL    HW2 4110   0.612   0.571  12.120
 1362SOL     OW 4111   1.252   1.348  11.560
 1362SOL    HW1 4112   1.302   1.425  11.600
 1362SOL    HW2 4113   1.157   1.350  11.592
 1363SOL     OW 4114   1.272   1.445  12.314
 1363SOL    HW1 4115   1.319   1.458  12.401
 1363SOL    HW2 4116   1.206   1.371  12.323
 1364SOL     OW 4117   1.582   0.639  11.644
 1364SOL    HW1 4118   1.551   0.700  11.717
 1364SOL    HW2 4119   1.632   0.691  11.575
 1365SOL     OW 4120   0.354   1.510  12.501
 1365SOL    HW1 4121   0.333   1.466  12.414
 1365SOL    HW2 4122   0.451   1.536  12.504
 1366SOL     OW 4123   0.402   0.751  12.770
 1366SOL    HW1 4124   0.470   0.806  12.723
 1366SOL    HW2 4125   0.442   0.663  12.797
 1367SOL     OW 4126   1.587   0.779  12.842
 1367SOL    HW1 4127   1.495   0.817  12.837
 1367SOL    HW2 4128   1.647   0.826  12.777
 1368SOL     OW 4129   0.573   0.870  12.201
 1368SOL    HW1 4130   0.617   0.959  12.192
 1368SOL    HW2 4131   0.510   0.870  12.278
 1369SOL     OW 4132   1.360   0.862  12.217
 1369SOL    HW1 4133   1.285   0.862  12.151
 1369SOL    HW2 4134   1.397   0.770  12.226
 1370SOL     OW 4135   1.209   0.525  11.447
 1370SOL    HW1 4136   1.222   0.441  11.501
 1370SOL    HW2 4137   1.180   0.599  11.507
 1371SOL     OW 4138   0.307   0.213  12.403
 1371SOL    HW1 4139   0.284   0.250  12.493
 1371SOL    HW2 4140   0.277   0.118  12.397
 1372SOL     OW 4141   0.037   1.310  12.454
 1372SOL    HW1 4142   0.090   1.261  12.522
 1372SOL    HW2 4143   0.059   1.408  12.459
 1373SOL     OW 4144   0.732   0.634  12.236
 1373SOL    HW1 4145   0.791   0.608  12.160
 1373SOL    HW2 4146   0.704   0.730  12.225
 1374SOL     OW 4147   0.307   0.063  11.790
 1374SOL    HW1 4148   0.296   0.157  11.823
 1374SOL    HW2 4149   0.302   0.000  11.867
 1375SOL     OW 4150   1.622   0.367  11.546
 1375SOL    HW1 4151   1.624   0.291  11.610
 1375SOL    HW2 4152   1.574   0.444  11.586
 1376SOL     OW 4153   1.023   0.766  12.138
 1376SOL    HW1 4154   1.038   0.787  12.234
 1376SOL    HW2 4155   0.993   0.671  12.129
 1377SOL     OW 4156   0.980   1.573  12.872
 1377SOL    HW1 4157   0.960   1.617  12.784
 1377SOL    HW2 4158   1.019   1.482  12.856
 1378SOL     OW 4159   1.540   0.274  11.297
 1378SOL    HW1 4160   1.479   0.199  11.320
 1378SOL    HW2 4161   1.562   0.326  11.380
 1379SOL     OW 4162   1.303   0.838  11.214
 1379SOL    HW1 4163   1.337   0.745  11.229
 1379SOL    HW2 4164   1.321   0.865  11.119
 1380SOL     OW 4165   1.068   1.333  12.021
 1380SOL    HW1 4166   1.075   1.249  11.966
 1380SOL    HW2 4167   1.130   1.402  11.985
 1381SOL     OW 4168   0.319   0.810  12.121
 1381SOL    HW1 4169   0.412   0.846  12.126
 1381SOL    HW2 4170   0.313   0.725  12.173
 1382SOL     OW 4171   0.339   0.509  12.178
 1382SOL    HW1 4172   0.287   0.426  12.161
 1382SOL    HW2 4173   0.416   0.514  12.114
 1383SOL     OW 4174   1.138   0.380  12.850
 1383SOL    HW1 4175   1.093   0.443  12.914
 1383SOL    HW2 4176   1.231   0.411  12.833
 1384SOL     OW 4177   1.160   0.207  12.649
 1384SOL    HW1 4178   1.160   0.271  12.726
 1384SOL    HW2 4179   1.188   0.255  12.566
 1385SOL     OW 4180   0.008   1.326  11.372
 1385SOL    HW1 4181  -0.085   1.347  11.341
 1385SOL    HW2 4182   0.018   1.227  11.385
 1386SOL     OW 4183   0.088   1.801  12.099
 1386SOL    HW1 4184   0.046   1.715  12.072
 1386SOL    HW2 4185   0.182   1.804  12.065
 1387SOL     OW 4186   0.504   1.568  12.082
 1387SOL    HW1 4187   0.570   1.642  12.091
 1387SOL    HW2 4188   0.548   1.489  12.040
 1388SOL     OW 4189   1.002   0.796  12.410
 1388SOL    HW1 4190   1.043   0.764  12.496
 1388SOL    HW2 4191   0.906   0.769  12.407
 1389SOL     OW 4192   0.040   0.544  12.286
 1389SOL    HW1 4193   0.125   0.511  12.245
 1389SOL    HW2 4194   0.053   0.559  12.384
 1390SOL     OW 4195   0.815   0.572  11.497
 1390SOL    HW1 4196   0.822   0.483  11.451
 1390SOL    HW2 4197   0.721   0.606  11.489
 1391SOL     OW 4198   1.657   0.604  12.378
 1391SOL    HW1 4199   1.619   0.535  12.440
 1391SOL    HW2 4200   1.739   0.568  12.334
 1392SOL     OW 4201   0.671   0.464  12.441
 1392SOL    HW1 4202   0.637   0.375  12.411
 1392SOL    HW2 4203   0.697   0.518  12.361
 1393SOL     OW 4204   0.930   1.678  12.637
 1393SOL    HW1 4205   0.906   1.660  12.542
 1393SOL    HW2 4206   0.960   1.772  12.647
 1394SOL     OW 4207   0.473   0.500  11.363
 1394SOL    HW1 4208   0.534   0.580  11.367
 1394SOL    HW2 4209   0.378   0.531  11.370
 1395SOL     OW 4210   0.159   1.137  12.638
 1395SOL    HW1 4211   0.181   1.076  12.714
 1395SOL    HW2 4212   0.169   1.088  12.552
 1396SOL     OW 4213   1.347   1.059  12.406
 1396SOL    HW1 4214   1.371   0.996  12.332
 1396SOL    HW2 4215   1.257   1.099  12.388
 1397SOL     OW 4216   1.302   0.855  11.481
 1397SOL    HW1 4217   1.216   0.824  11.523
 1397SOL    HW2 4218   1.298   0.841  11.382
 1398SOL     OW 4219   1.759   1.747  12.326
 1398SOL    HW1 4220   1.820   1.777  12.253
 1398SOL    HW2 4221   1.721   1.658  12.304
 1399SOL     OW 4222   1.252   1.731  12.300
 1399SOL    HW1 4223   1.336   1.736  12.246
 1399SOL    HW2 4224   1.229   1.635  12.318
 1400SOL     OW 4225   0.083   1.258  12.194
 1400SOL    HW1 4226   0.078   1.257  12.294
 1400SOL    HW2 4227   0.000   1.217  12.156
 1401SOL     OW 4228   1.726   0.135  11.695
 1401SOL    HW1 4229   1.799   0.118  11.628
 1401SOL    HW2 4230   1.695   0.048  11.733
 1402SOL     OW 4231   1.388   1.573  11.649
 1402SOL    HW1 4232   1.455   1.585  11.575
 1402SOL    HW2 4233   1.348   1.662  11.672
 1403SOL     OW 4234   1.280   0.927  11.844
 1403SOL    HW1 4235   1.340   0.846  11.846
 1403SOL    HW2 4236   1.320   0.996  11.784
 1404SOL     OW 4237   0.672   1.616  11.326
 1404SOL    HW1 4238   0.681   1.626  11.227
 1404SOL    HW2 4239   0.632   1.527  11.347
 1405SOL     OW 4240   1.650   1.720  12.566
 1405SOL    HW1 4241   1.703   1.730  12.482
 1405SOL    HW2 4242   1.623   1.810  12.600
 1406SOL     OW 4243   1.841   0.175  12.135
 1406SOL    HW1 4244   1.880   0.090  12.099
 1406SOL    HW2 4245   1.743   0.177  12.116
 1407SOL     OW 4246   0.263   0.326  11.892
 1407SOL    HW1 4247   0.184   0.377  11.858
 1407SOL    HW2 4248   0.254   0.311  11.990
 1408SOL     OW 4249   1.194   1.612  11.203
 1408SOL    HW1 4250   1.200   1.519  11.240
 1408SOL    HW2 4251   1.135   1.612  11.123
 1409SOL     OW 4252   0.822   1.002  12.544
 1409SOL    HW1 4253   0.862   1.001  12.452
 1409SOL    HW2 4254   0.832   1.094  12.584
 1410SOL     OW 4255   0.916   0.910  11.463
 1410SOL    HW1 4256   0.979   0.948  11.395
 1410SOL    HW2 4257   0.956   0.827  11.502
 1411SOL     OW 4258   1.504   1.607  11.216
 1411SOL    HW1 4259   1.412   1.644  11.223
 1411SOL    HW2 4260   1.542   1.627  11.126
 1412SOL     OW 4261   0.372   1.288  12.662
 1412SOL    HW1 4262   0.359   1.381  12.628
 1412SOL    HW2 4263   0.288   1.236  12.649
 1413SOL     OW 4264   1.614   1.292  12.461
 1413SOL    HW1 4265   1.674   1.295  12.541
 1413SOL    HW2 4266   1.539   1.356  12.474
 1414SOL     OW 4267   1.039   1.098  11.868
 1414SOL    HW1 4268   0.969   1.051  11.922
 1414SOL    HW2 4269   1.098   1.030  11.825
 1415SOL     OW 4270   1.014   0.236  12.143
 1415SOL    HW1 4271   1.006   0.200  12.050
 1415SOL    HW2 4272   1.012   0.160  12.208
 1416SOL     OW 4273   0.590   1.487  11.663
 1416SOL    HW1 4274   0.632   1.429  11.593
 1416SOL    HW2 4275   0.546   1.566  11.619
 1417SOL     OW 4276   1.709   0.385  12.553
 1417SOL    HW1 4277   1.782   0.454  12.557
 1417SOL    HW2 4278   1.737   0.310  12.494
 1418SOL     OW 4279   0.255   1.348  11.462
 1418SOL    HW1 4280   0.159   1.349  11.435
 1418SOL    HW2 4281   0.267   1.401  11.546
 1419SOL     OW 4282   0.075   0.345  11.205
 1419SOL    HW1 4283  -0.017   0.317  11.176
 1419SOL    HW2 4284   0.106   0.422  11.149
 1420SOL     OW 4285   1.440   0.856  12.570
 1420SOL    HW1 4286   1.383   0.908  12.507
 1420SOL    HW2 4287   1.536   0.868  12.546
 1421SOL     OW 4288   0.072   0.166  11.490
 1421SOL    HW1 4289   0.055   0.249  11.436
 1421SOL    HW2 4290   0.162   0.129  11.468
 1422SOL     OW 4291   1.183   1.335  11.291
 1422SOL    HW1 4292   1.084   1.324  11.293
 1422SOL    HW2 4293   1.217   1.350  11.384
 1423SOL     OW 4294   0.613   0.842  12.603
 1423SOL    HW1 4295   0.669   0.923  12.586
 1423SOL    HW2 4296   0.672   0.762  12.606
 1424SOL     OW 4297   1.493   1.767  12.131
 1424SOL    HW1 4298   1.526   1.831  12.062
 1424SOL    HW2 4299   1.559   1.761  12.206
 1425SOL     OW 4300   0.390   1.741  12.732
 1425SOL    HW1 4301   0.299   1.782  12.730
 1425SOL    HW2 4302   0.383   1.647  12.764
 1426SOL     OW 4303   1.674   0.883  12.426
 1426SOL    HW1 4304   1.647   0.794  12.389
 1426SOL    HW2 4305   1.675   0.951  12.353
 1427SOL     OW 4306   1.225   0.325  11.621
 1427SOL    HW1 4307   1.290   0.251  11.610
 1427SOL    HW2 4308   1.245   0.375  11.705
 1428SOL     OW 4309   0.594   0.745  11.824
 1428SOL    HW1 4310   0.644   0.830  11.805
 1428SOL    HW2 4311   0.506   0.747  11.776
 1429SOL     OW 4312   1.777   0.342  12.814
 1429SOL    HW1 4313   1.760   0.373  12.720
 1429SOL    HW2 4314   1.693   0.305  12.852
 1430SOL     OW 4315   1.730   0.934  12.689
 1430SOL    HW1 4316   1.768   1.025  12.704
 1430SOL    HW2 4317   1.722   0.917  12.590
 1431SOL     OW 4318   0.859   1.374  11.188
 1431SOL    HW1 4319   0.813   1.389  11.276
 1431SOL    HW2 4320   0.903   1.459  11.158
 1432SOL     OW 4321   0.661   1.790  12.125
 1432SOL    HW1 4322   0.615   1.878  12.112
 1432SOL    HW2 4323   0.760   1.802  12.118
 1433SOL     OW 4324   0.859   0.956  12.033
 1433SOL    HW1 4325   0.913   0.887  12.081
 1433SOL    HW2 4326   0.827   1.025  12.099
 1434SOL     OW 4327   1.083   0.984  11.259
 1434SOL    HW1 4328   1.060   1.037  11.177
 1434SOL    HW2 4329   1.164   0.928  11.240
 1435SOL     OW 4330   1.861   1.569  12.023
 1435SOL    HW1 4331   1.790   1.557  11.953
 1435SOL    HW2 4332   1.862   1.490  12.083
 1436SOL     OW 4333   0.079   1.240  11.825
 1436SOL    HW1 4334   0.078   1.193  11.913
 1436SOL    HW2 4335   0.161   1.212  11.774
 1437SOL     OW 4336   1.824   0.192  12.399
 1437SOL    HW1 4337   1.820   0.102  12.443
 1437SOL    HW2 4338   1.827   0.181  12.300
 1438SOL     OW 4339   0.428   0.424  11.692
 1438SOL    HW1 4340   0.458   0.352  11.630
 1438SOL    HW2 4341   0.389   0.384  11.775
 1439SOL     OW 4342   1.705   1.487  12.276
 1439SOL    HW1 4343   1.612   1.462  12.249
 1439SOL    HW2 4344   1.731   1.437  12.358
 1440SOL     OW 4345   0.317   0.547  12.452
 1440SOL    HW1 4346   0.355   0.488  12.524
 1440SOL    HW2 4347   0.357   0.521  12.364
 1441SOL     OW 4348   0.812   1.586  11.859
 1441SOL    HW1 4349   0.844   1.596  11.765
 1441SOL    HW2 4350   0.733   1.524  11.861
 1442SOL     OW 4351   1.424   0.214  12.284
 1442SOL    HW1 4352   1.476   0.149  12.339
 1442SOL    HW2 4353   1.375   0.277  12.345
 1443SOL     OW 4354   1.001   0.034  12.326
 1443SOL    HW1 4355   0.938  -0.038  12.295
 1443SOL    HW2 4356   1.094  -0.002  12.326
 1444SOL     OW 4357   0.770   1.330  11.473
 1444SOL    HW1 4358   0.724   1.243  11.490
 1444SOL    HW2 4359   0.861   1.327  11.514
 1445SOL     OW 4360   0.618   1.567  12.456
 1445SOL    HW1 4361   0.613   1.649  12.513
 1445SOL    HW2 4362   0.707   1.564  12.411
 1446SOL     OW 4363   1.352   0.052  11.340
 1446SOL    HW1 4364   1.387   0.011  11.256
 1446SOL    HW2 4365   1.262   0.014  11.360
 1447SOL     OW 4366   1.300   0.453  11.863
 1447SOL    HW1 4367   1.241   0.533  11.867
 1447SOL    HW2 4368   1.315   0.418  11.956
 1448SOL     OW 4369   1.593   0.221  12.054
 1448SOL    HW1 4370   1.509   0.220  12.108
 1448SOL    HW2 4371   1.595   0.304  11.998
 1449SOL     OW 4372   0.039   1.077  11.472
 1449SOL    HW1 4373   0.138   1.066  11.463
 1449SOL    HW2 4374  -0.001   0.991  11.504
 1450SOL     OW 4375   0.875   1.646  11.509
 1450SOL    HW1 4376   0.798   1.611  11.455
 1450SOL    HW2 4377   0.843   1.717  11.571
 1451SOL     OW 4378   0.230   2.490   0.113
 1451SOL    HW1 4379   0.137   2.488   0.150
 1451SOL    HW2 4380   0.231   2.451   0.021
 1452SOL     OW 4381   0.225   2.137   0.996
 1452SOL    HW1 4382   0.260   2.120   1.088
 1452SOL    HW2 4383   0.137   2.092   0.984
 1453SOL     OW 4384   0.019   2.230   0.647
 1453SOL    HW1 4385  -0.063   2.273   0.686
 1453SOL    HW2 4386  -0.009   2.157   0.584
 1454SOL     OW 4387   0.569   3.137   1.165
 1454SOL    HW1 4388   0.476   3.130   1.128
 1454SOL    HW2 4389   0.580   3.226   1.209
 1455SOL     OW 4390   1.555   3.373   0.703
 1455SOL    HW1 4391   1.498   3.357   0.784
 1455SOL    HW2 4392   1.496   3.383   0.623
 1456SOL     OW 4393   1.135   2.565   0.717
 1456SOL    HW1 4394   1.192   2.643   0.692
 1456SOL    HW2 4395   1.075   2.591   0.793
 1457SOL     OW 4396   1.755   2.469   0.231
 1457SOL    HW1 4397   1.743   2.456   0.132
 1457SOL    HW2 4398   1.725   2.388   0.280
 1458SOL     OW 4399   0.768   3.006   1.023
 1458SOL    HW1 4400   0.690   3.023   1.083
 1458SOL    HW2 4401   0.802   3.093   0.987
 1459SOL     OW 4402   0.850   2.660   1.823
 1459SOL    HW1 4403   0.846   2.736   1.888
 1459SOL    HW2 4404   0.872   2.696   1.732
 1460SOL     OW 4405   0.685   2.874   0.665
 1460SOL    HW1 4406   0.754   2.858   0.735
 1460SOL    HW2 4407   0.612   2.931   0.703
 1461SOL     OW 4408   0.686   3.023   1.803
 1461SOL    HW1 4409   0.746   3.102   1.817
 1461SOL    HW2 4410   0.600   3.054   1.762
 1462SOL     OW 4411   0.335   3.297   1.061
 1462SOL    HW1 4412   0.257   3.266   1.008
 1462SOL    HW2 4413   0.393   3.355   1.004
 1463SOL     OW 4414   1.460   3.367   1.339
 1463SOL    HW1 4415   1.484   3.461   1.365
 1463SOL    HW2 4416   1.444   3.313   1.421
 1464SOL     OW 4417   0.438   2.254   1.499
 1464SOL    HW1 4418   0.520   2.198   1.508
 1464SOL    HW2 4419   0.357   2.196   1.503
 1465SOL     OW 4420   1.603   2.309   0.737
 1465SOL    HW1 4421   1.529   2.355   0.687
 1465SOL    HW2 4422   1.654   2.377   0.790
 1466SOL     OW 4423   0.231   3.575   0.483
 1466SOL    HW1 4424   0.265   3.652   0.537
 1466SOL    HW2 4425   0.275   3.575   0.393
 1467SOL     OW 4426   1.127   3.203   1.690
 1467SOL    HW1 4427   1.174   3.203   1.778
 1467SOL    HW2 4428   1.079   3.116   1.679
 1468SOL     OW 4429   0.230   3.296   0.538
 1468SOL    HW1 4430   0.204   3.392   0.538
 1468SOL    HW2 4431   0.159   3.242   0.583
 1469SOL     OW 4432   0.240   2.953   0.886
 1469SOL    HW1 4433   0.254   2.869   0.938
 1469SOL    HW2 4434   0.185   3.017   0.941
 1470SOL     OW 4435   0.620   3.648   1.439
 1470SOL    HW1 4436   0.528   3.631   1.474
 1470SOL    HW2 4437   0.648   3.740   1.465
 1471SOL     OW 4438   0.606   2.826   0.123
 1471SOL    HW1 4439   0.613   2.910   0.069
 1471SOL    HW2 4440   0.652   2.839   0.211
 1472SOL     OW 4441   1.594   1.976   1.480
 1472SOL    HW1 4442   1.576   2.043   1.408
 1472SOL    HW2 4443   1.591   2.022   1.569
 1473SOL     OW 4444   0.122   2.505   0.563
 1473SOL    HW1 4445   0.077   2.417   0.580
 1473SOL    HW2 4446   0.121   2.559   0.647
 1474SOL     OW 4447   1.842   3.629   0.359
 1474SOL    HW1 4448   1.896   3.600   0.439
 1474SOL    HW2 4449   1.872   3.719   0.330
 1475SOL     OW 4450   0.027   3.458   0.117
 1475SOL    HW1 4451   0.008   3.362   0.138
 1475SOL    HW2 4452  -0.006   3.516   0.192
 1476SOL     OW 4453   1.689   2.784   0.612
 1476SOL    HW1 4454   1.784   2.755   0.620
 1476SOL    HW2 4455   1.681   2.849   0.537
 1477SOL     OW 4456   1.641   2.970   0.432
 1477SOL    HW1 4457   1.727   2.972   0.380
 1477SOL    HW2 4458   1.655   3.017   0.520
 1478SOL     OW 4459   0.113   2.599   1.597
 1478SOL    HW1 4460   0.201   2.586   1.642
 1478SOL    HW2 4461   0.100   2.696   1.575
 1479SOL     OW 4462   0.613   3.227   0.726
 1479SOL    HW1 4463   0.564   3.140   0.735
 1479SOL    HW2 4464   0.590   3.270   0.639
 1480SOL     OW 4465   1.293   3.090   1.423
 1480SOL    HW1 4466   1.330   3.017   1.365
 1480SOL    HW2 4467   1.345   3.095   1.508
 1481SOL     OW 4468   0.809   1.866   0.502
 1481SOL    HW1 4469   0.849   1.957   0.493
 1481SOL    HW2 4470   0.709   1.874   0.508
 1482SOL     OW 4471   0.197   2.838   1.264
 1482SOL    HW1 4472   0.286   2.793   1.250
 1482SOL    HW2 4473   0.124   2.773   1.245
 1483SOL     OW 4474   1.525   2.861   0.190
 1483SOL    HW1 4475   1.462   2.785   0.203
 1483SOL    HW2 4476   1.573   2.879   0.276
 1484SOL     OW 4477   1.187   3.654   1.616
 1484SOL    HW1 4478   1.211   3.714   1.540
 1484SOL    HW2 4479   1.194   3.559   1.586
 1485SOL     OW 4480   0.317   2.113   1.801
 1485SOL    HW1 4481   0.388   2.184   1.807
 1485SOL    HW2 4482   0.229   2.152   1.829
 1486SOL     OW 4483   1.466   3.279   0.953
 1486SOL    HW1 4484   1.407   3.285   1.033
 1486SOL    HW2 4485   1.451   3.191   0.907
 1487SOL     OW 4486   1.667   3.576   0.572
 1487SOL    HW1 4487   1.626   3.553   0.484
 1487SOL    HW2 4488   1.649   3.502   0.637
 1488SOL     OW 4489   0.598   2.591   0.270
 1488SOL    HW1 4490   0.622   2.660   0.202
 1488SOL    HW2 4491   0.520   2.624   0.324
 1489SOL     OW 4492   1.281   2.207   0.944
 1489SOL    HW1 4493   1.195   2.157   0.931
 1489SOL    HW2 4494   1.343   2.153   1.000
 1490SOL     OW 4495   1.576   3.524   0.307
 1490SOL    HW1 4496   1.665   3.570   0.310
 1490SOL    HW2 4497   1.555   3.500   0.212
 1491SOL     OW 4498   0.807   2.467   1.465
 1491SOL    HW1 4499   0.760   2.464   1.554
 1491SOL    HW2 4500   0.756   2.412   1.399
 1492SOL     OW 4501   1.394   2.331   1.674
 1492SOL    HW1 4502   1.374   2.374   1.762
 1492SOL    HW2 4503   1.472   2.269   1.683
 1493SOL     OW 4504   0.973   2.752   1.572
 1493SOL    HW1 4505   1.019   2.668   1.543
 1493SOL    HW2 4506   0.917   2.786   1.497
 1494SOL     OW 4507   0.991   2.272   1.242
 1494SOL    HW1 4508   0.914   2.306   1.296
 1494SOL    HW2 4509   0.957   2.221   1.163
 1495SOL     OW 4510   1.041   2.563   0.429
 1495SOL    HW1 4511   1.067   2.559   0.525
 1495SOL    HW2 4512   0.956   2.512   0.415
 1496SOL     OW 4513   0.076   2.673   0.789
 1496SOL    HW1 4514   0.175   2.661   0.798
 1496SOL    HW2 4515   0.052   2.768   0.810
 1497SOL     OW 4516   0.130   3.683   1.571
 1497SOL    HW1 4517   0.120   3.668   1.670
 1497SOL    HW2 4518   0.044   3.719   1.535
 1498SOL     OW 4519   0.865   2.210   0.195
 1498SOL    HW1 4520   0.924   2.273   0.146
 1498SOL    HW2 4521   0.884   2.116   0.166
 1499SOL     OW 4522   1.719   2.447   1.831
 1499SOL    HW1 4523   1.693   2.536   1.795
 1499SOL    HW2 4524   1.717   2.379   1.758
 1500SOL     OW 4525   1.362   3.006   0.545
 1500SOL    HW1 4526   1.445   2.977   0.497
 1500SOL    HW2 4527   1.313   3.073   0.489
 1501SOL     OW 4528   0.550   2.058   0.885
 1501SOL    HW1 4529   0.545   2.053   0.985
 1501SOL    HW2 4530   0.552   2.154   0.856
 1502SOL     OW 4531   1.008   3.318   0.477
 1502SOL    HW1 4532   0.962   3.390   0.425
 1502SOL    HW2 4533   1.004   3.338   0.575
 1503SOL     OW 4534   0.351   3.663   0.853
 1503SOL    HW1 4535   0.401   3.577   0.859
 1503SOL    HW2 4536   0.416   3.740   0.850
 1504SOL     OW 4537   1.795   2.928   0.873
 1504SOL    HW1 4538   1.733   2.913   0.797
 1504SOL    HW2 4539   1.743   2.939   0.958
 1505SOL     OW 4540   1.227   3.412   1.506
 1505SOL    HW1 4541   1.233   3.335   1.570
 1505SOL    HW2 4542   1.175   3.386   1.426
 1506SOL     OW 4543   0.321   2.805   0.242
 1506SOL    HW1 4544   0.403   2.844   0.200
 1506SOL    HW2 4545   0.294   2.723   0.193
 1507SOL     OW 4546   1.458   2.597   0.728
 1507SOL    HW1 4547   1.453   2.532   0.803
 1507SOL    HW2 4548   1.538   2.656   0.741
 1508SOL     OW 4549   0.461   3.128   1.727
 1508SOL    HW1 4550   0.411   3.129   1.641
 1508SOL    HW2 4551   0.398   3.110   1.803
 1509SOL     OW 4552   1.111   3.638   0.237
 1509SOL    HW1 4553   1.051   3.576   0.287
 1509SOL    HW2 4554   1.142   3.594   0.152
 1510SOL     OW 4555   0.202   2.147   1.498
 1510SOL    HW1 4556   0.122   2.207   1.485
 1510SOL    HW2 4557   0.192   2.098   1.584
 1511SOL     OW 4558   1.632   3.239   0.081
 1511SOL    HW1 4559   1.600   3.333   0.071
 1511SOL    HW2 4560   1.556   3.176   0.069
 1512SOL     OW 4561   0.464   3.605   0.323
 1512SOL    HW1 4562   0.497   3.644   0.409
 1512SOL    HW2 4563   0.540   3.598   0.258
 1513SOL     OW 4564   1.400   1.969   0.426
 1513SOL    HW1 4565   1.376   1.932   0.336
 1513SOL    HW2 4566   1.499   1.985   0.430
 1514SOL     OW 4567   0.249   3.647   1.241
 1514SOL    HW1 4568   0.306   3.582   1.291
 1514SOL    HW2 4569   0.233   3.614   1.148
 1515SOL     OW 4570   0.940   3.560   0.904
 1515SOL    HW1 4571   1.020   3.503   0.925
 1515SOL    HW2 4572   0.891   3.520   0.827
 1516SOL     OW 4573   0.382   2.562   0.480
 1516SOL    HW1 4574   0.427   2.472   0.477
 1516SOL    HW2 4575   0.288   2.551   0.513
 1517SOL     OW 4576   1.547   2.084   1.729
 1517SOL    HW1 4577   1.542   2.121   1.821
 1517SOL    HW2 4578   1.475   2.015   1.717
 1518SOL     OW 4579   0.614   1.984   0.117
 1518SOL    HW1 4580   0.712   1.962   0.124
 1518SOL    HW2 4581   0.583   1.967   0.024
 1519SOL     OW 4582   0.781   2.126   1.749
 1519SOL    HW1 4583   0.848   2.065   1.792
 1519SOL    HW2 4584   0.708   2.145   1.814
 1520SOL     OW 4585   0.888   3.376   1.195
 1520SOL    HW1 4586   0.865   3.351   1.101
 1520SOL    HW2 4587   0.949   3.307   1.234
 1521SOL     OW 4588   1.351   2.452   1.433
 1521SOL    HW1 4589   1.379   2.409   1.518
 1521SOL    HW2 4590   1.376   2.548   1.434
 1522SOL     OW 4591   0.803   3.264   0.924
 1522SOL    HW1 4592   0.893   3.278   0.882
 1522SOL    HW2 4593   0.732   3.266   0.853
 1523SOL     OW 4594   0.922   2.365   0.899
 1523SOL    HW1 4595   0.897   2.356   0.803
 1523SOL    HW2 4596   0.970   2.283   0.930
 1524SOL     OW 4597   0.539   1.926   0.512
 1524SOL    HW1 4598   0.458   1.927   0.570
 1524SOL    HW2 4599   0.542   2.009   0.457
 1525SOL     OW 4600   1.434   3.050   0.041
 1525SOL    HW1 4601   1.466   2.974   0.098
 1525SOL    HW2 4602   1.342   3.077   0.071
 1526SOL     OW 4603   0.297   1.897   0.171
 1526SOL    HW1 4604   0.346   1.981   0.150
 1526SOL    HW2 4605   0.359   1.832   0.216
 1527SOL     OW 4606   0.935   2.098   0.480
 1527SOL    HW1 4607   0.887   2.139   0.402
 1527SOL    HW2 4608   1.034   2.096   0.461
 1528SOL     OW 4609   1.076   2.545   1.464
 1528SOL    HW1 4610   0.996   2.484   1.467
 1528SOL    HW2 4611   1.157   2.492   1.440
 1529SOL     OW 4612   1.227   3.432   0.793
 1529SOL    HW1 4613   1.248   3.506   0.728
 1529SOL    HW2 4614   1.295   3.432   0.866
 1530SOL     OW 4615   0.459   3.014   0.741
 1530SOL    HW1 4616   0.388   2.987   0.806
 1530SOL    HW2 4617   0.433   2.986   0.648
 1531SOL     OW 4618   1.271   3.659   0.591
 1531SOL    HW1 4619   1.315   3.723   0.527
 1531SOL    HW2 4620   1.221   3.711   0.661
 1532SOL     OW 4621   1.032   2.411   0.016
 1532SOL    HW1 4622   0.991   2.493  -0.023
 1532SOL    HW2 4623   1.096   2.437   0.089
 1533SOL     OW 4624   0.078   2.418   1.386
 1533SOL    HW1 4625   0.170   2.417   1.345
 1533SOL    HW2 4626   0.072   2.492   1.453
 1534SOL     OW 4627   0.561   2.084   1.147
 1534SOL    HW1 4628   0.599   2.000   1.184
 1534SOL    HW2 4629   0.473   2.103   1.191
 1535SOL     OW 4630   0.866   2.316   0.642
 1535SOL    HW1 4631   0.834   2.388   0.580
 1535SOL    HW2 4632   0.890   2.235   0.589
 1536SOL     OW 4633   1.017   1.901   0.753
 1536SOL    HW1 4634   0.945   1.906   0.684
 1536SOL    HW2 4635   0.993   1.832   0.822
 1537SOL     OW 4636   1.429   3.035   0.867
 1537SOL    HW1 4637   1.374   2.951   0.860
 1537SOL    HW2 4638   1.455   3.064   0.775
 1538SOL     OW 4639   1.466   2.452   0.992
 1538SOL    HW1 4640   1.436   2.357   0.999
 1538SOL    HW2 4641   1.539   2.468   1.058
 1539SOL     OW 4642   1.857   2.695   0.377
 1539SOL    HW1 4643   1.899   2.631   0.441
 1539SOL    HW2 4644   1.819   2.644   0.299
 1540SOL     OW 4645   0.488   3.247   0.174
 1540SOL    HW1 4646   0.401   3.232   0.221
 1540SOL    HW2 4647   0.471   3.273   0.079
 1541SOL     OW 4648   1.664   3.142   0.657
 1541SOL    HW1 4649   1.763   3.150   0.671
 1541SOL    HW2 4650   1.619   3.226   0.688
 1542SOL     OW 4651   1.390   2.437   0.078
 1542SOL    HW1 4652   1.336   2.416   0.159
 1542SOL    HW2 4653   1.481   2.396   0.087
 1543SOL     OW 4654   0.527   2.118   0.328
 1543SOL    HW1 4655   0.554   2.059   0.253
 1543SOL    HW2 4656   0.527   2.213   0.297
 1544SOL     OW 4657   1.754   3.085   1.588
 1544SOL    HW1 4658   1.845   3.046   1.575
 1544SOL    HW2 4659   1.762   3.181   1.612
 1545SOL     OW 4660   1.064   3.209   1.340
 1545SOL    HW1 4661   0.984   3.186   1.395
 1545SOL    HW2 4662   1.147   3.183   1.389
 1546SOL     OW 4663   1.592   3.491   1.625
 1546SOL    HW1 4664   1.619   3.525   1.535
 1546SOL    HW2 4665   1.671   3.453   1.671
 1547SOL     OW 4666   1.111   3.057   1.100
 1547SOL    HW1 4667   1.071   3.101   1.181
 1547SOL    HW2 4668   1.070   3.094   1.017
 1548SOL     OW 4669   1.638   2.961   1.079
 1548SOL    HW1 4670   1.643   3.042   1.138
 1548SOL    HW2 4671   1.552   2.963   1.028
 1549SOL     OW 4672   0.915   1.951   1.402
 1549SOL    HW1 4673   0.940   1.931   1.307
 1549SOL    HW2 4674   0.987   2.007   1.444
 1550SOL     OW 4675   0.980   2.978   1.719
 1550SOL    HW1 4676   0.881   2.984   1.729
 1550SOL    HW2 4677   1.003   2.898   1.663
 1551SOL     OW 4678   0.705   2.912   0.368
 1551SOL    HW1 4679   0.691   2.919   0.467
 1551SOL    HW2 4680   0.789   2.861   0.350
 1552SOL     OW 4681   0.410   2.675   1.251
 1552SOL    HW1 4682   0.496   2.687   1.301
 1552SOL    HW2 4683   0.368   2.588   1.278
 1553SOL     OW 4684   1.274   2.248   1.262
 1553SOL    HW1 4685   1.295   2.322   1.326
 1553SOL    HW2 4686   1.185   2.265   1.219
 1554SOL     OW 4687   0.064   3.426   1.331
 1554SOL    HW1 4688   0.018   3.508   1.297
 1554SOL    HW2 4689   0.162   3.445   1.340
 1555SOL     OW 4690   0.367   2.962   0.501
 1555SOL    HW1 4691   0.360   3.045   0.445
 1555SOL    HW2 4692   0.371   2.882   0.441
 1556SOL     OW 4693   0.566   2.399   0.865
 1556SOL    HW1 4694   0.578   2.465   0.791
 1556SOL    HW2 4695   0.612   2.433   0.948
 1557SOL     OW 4696   1.252   3.210   0.388
 1557SOL    HW1 4697   1.302   3.287   0.428
 1557SOL    HW2 4698   1.157   3.212   0.420
 1558SOL     OW 4699   1.272   3.307   1.142
 1558SOL    HW1 4700   1.319   3.320   1.229
 1558SOL    HW2 4701   1.206   3.233   1.151
 1559SOL     OW 4702   1.582   2.501   0.472
 1559SOL    HW1 4703   1.551   2.562   0.545
 1559SOL    HW2 4704   1.632   2.553   0.403
 1560SOL     OW 4705   0.354   3.372   1.329
 1560SOL    HW1 4706   0.333   3.328   1.242
 1560SOL    HW2 4707   0.451   3.398   1.332
 1561SOL     OW 4708   0.402   2.613   1.598
 1561SOL    HW1 4709   0.470   2.668   1.551
 1561SOL    HW2 4710   0.442   2.525   1.625
 1562SOL     OW 4711   1.587   2.641   1.670
 1562SOL    HW1 4712   1.495   2.679   1.665
 1562SOL    HW2 4713   1.647   2.688   1.605
 1563SOL     OW 4714   1.013   1.967   1.770
 1563SOL    HW1 4715   1.019   2.052   1.718
 1563SOL    HW2 4716   1.045   1.891   1.713
 1564SOL     OW 4717   0.504   1.912   1.740
 1564SOL    HW1 4718   0.462   1.855   1.670
 1564SOL    HW2 4719   0.438   1.981   1.772
 1565SOL     OW 4720   0.573   2.732   1.029
 1565SOL    HW1 4721   0.617   2.821   1.020
 1565SOL    HW2 4722   0.510   2.732   1.106
 1566SOL     OW 4723   1.360   2.724   1.045
 1566SOL    HW1 4724   1.285   2.724   0.979
 1566SOL    HW2 4725   1.397   2.632   1.054
 1567SOL     OW 4726   1.209   2.387   0.275
 1567SOL    HW1 4727   1.222   2.303   0.329
 1567SOL    HW2 4728   1.180   2.461   0.335
 1568SOL     OW 4729   0.307   2.075   1.231
 1568SOL    HW1 4730   0.284   2.112   1.321
 1568SOL    HW2 4731   0.277   1.980   1.225
 1569SOL     OW 4732   0.037   3.172   1.282
 1569SOL    HW1 4733   0.090   3.123   1.350
 1569SOL    HW2 4734   0.059   3.270   1.287
 1570SOL     OW 4735   0.732   2.496   1.064
 1570SOL    HW1 4736   0.791   2.470   0.988
 1570SOL    HW2 4737   0.704   2.592   1.053
 1571SOL     OW 4738   1.728   2.797   1.854
 1571SOL    HW1 4739   1.682   2.790   1.765
 1571SOL    HW2 4740   1.666   2.841   1.920
 1572SOL     OW 4741   0.307   1.925   0.618
 1572SOL    HW1 4742   0.296   2.019   0.651
 1572SOL    HW2 4743   0.302   1.862   0.695
 1573SOL     OW 4744   1.622   2.229   0.374
 1573SOL    HW1 4745   1.624   2.153   0.438
 1573SOL    HW2 4746   1.574   2.306   0.414
 1574SOL     OW 4747   1.023   2.628   0.966
 1574SOL    HW1 4748   1.038   2.649   1.062
 1574SOL    HW2 4749   0.993   2.533   0.957
 1575SOL     OW 4750   0.980   3.435   1.700
 1575SOL    HW1 4751   0.960   3.479   1.612
 1575SOL    HW2 4752   1.019   3.344   1.684
 1576SOL     OW 4753   1.859   3.380   1.605
 1576SOL    HW1 4754   1.873   3.407   1.510
 1576SOL    HW2 4755   1.942   3.402   1.658
 1577SOL     OW 4756   0.350   2.760   1.804
 1577SOL    HW1 4757   0.426   2.804   1.852
 1577SOL    HW2 4758   0.385   2.713   1.722
 1578SOL     OW 4759   1.540   2.136   0.125
 1578SOL    HW1 4760   1.479   2.061   0.148
 1578SOL    HW2 4761   1.562   2.188   0.208
 1579SOL     OW 4762   1.303   2.700   0.042
 1579SOL    HW1 4763   1.337   2.607   0.057
 1579SOL    HW2 4764   1.321   2.727  -0.053
 1580SOL     OW 4765   1.068   3.195   0.849
 1580SOL    HW1 4766   1.075   3.111   0.794
 1580SOL    HW2 4767   1.130   3.264   0.813
 1581SOL     OW 4768   0.319   2.672   0.949
 1581SOL    HW1 4769   0.412   2.708   0.954
 1581SOL    HW2 4770   0.313   2.587   1.001
 1582SOL     OW 4771   0.339   2.371   1.006
 1582SOL    HW1 4772   0.287   2.288   0.989
 1582SOL    HW2 4773   0.416   2.376   0.942
 1583SOL     OW 4774   1.138   2.242   1.678
 1583SOL    HW1 4775   1.093   2.305   1.742
 1583SOL    HW2 4776   1.231   2.273   1.661
 1584SOL     OW 4777   1.160   2.069   1.477
 1584SOL    HW1 4778   1.160   2.133   1.554
 1584SOL    HW2 4779   1.188   2.117   1.394
 1585SOL     OW 4780   0.008   3.188   0.200
 1585SOL    HW1 4781  -0.085   3.209   0.169
 1585SOL    HW2 4782   0.018   3.089   0.213
 1586SOL     OW 4783   0.088   3.663   0.927
 1586SOL    HW1 4784   0.046   3.577   0.900
 1586SOL    HW2 4785   0.182   3.666   0.893
 1587SOL     OW 4786   0.504   3.430   0.910
 1587SOL    HW1 4787   0.570   3.504   0.919
 1587SOL    HW2 4788   0.548   3.351   0.868
 1588SOL     OW 4789   1.002   2.658   1.238
 1588SOL    HW1 4790   1.043   2.626   1.324
 1588SOL    HW2 4791   0.906   2.631   1.235
 1589SOL     OW 4792   0.040   2.406   1.114
 1589SOL    HW1 4793   0.125   2.373   1.073
 1589SOL    HW2 4794   0.053   2.421   1.212
 1590SOL     OW 4795   0.189   2.382   1.722
 1590SOL    HW1 4796   0.248   2.342   1.652
 1590SOL    HW2 4797   0.131   2.453   1.681
 1591SOL     OW 4798   1.369   2.812   1.660
 1591SOL    HW1 4799   1.408   2.901   1.680
 1591SOL    HW2 4800   1.379   2.792   1.563
 1592SOL     OW 4801   0.815   2.434   0.325
 1592SOL    HW1 4802   0.822   2.345   0.279
 1592SOL    HW2 4803   0.721   2.468   0.317
 1593SOL     OW 4804   1.657   2.466   1.206
 1593SOL    HW1 4805   1.619   2.397   1.268
 1593SOL    HW2 4806   1.739   2.430   1.162
 1594SOL     OW 4807   0.252   3.426   1.744
 1594SOL    HW1 4808   0.222   3.483   1.820
 1594SOL    HW2 4809   0.245   3.329   1.770
 1595SOL     OW 4810   0.671   2.326   1.269
 1595SOL    HW1 4811   0.637   2.237   1.239
 1595SOL    HW2 4812   0.697   2.380   1.189
 1596SOL     OW 4813   0.930   3.540   1.465
 1596SOL    HW1 4814   0.906   3.522   1.370
 1596SOL    HW2 4815   0.960   3.634   1.475
 1597SOL     OW 4816   0.473   2.362   0.191
 1597SOL    HW1 4817   0.534   2.442   0.195
 1597SOL    HW2 4818   0.378   2.393   0.198
 1598SOL     OW 4819   0.159   2.999   1.466
 1598SOL    HW1 4820   0.181   2.938   1.542
 1598SOL    HW2 4821   0.169   2.950   1.380
 1599SOL     OW 4822   1.347   2.921   1.234
 1599SOL    HW1 4823   1.371   2.858   1.160
 1599SOL    HW2 4824   1.257   2.961   1.216
 1600SOL     OW 4825   1.302   2.717   0.309
 1600SOL    HW1 4826   1.216   2.686   0.351
 1600SOL    HW2 4827   1.298   2.703   0.210
 1601SOL     OW 4828   1.759   3.609   1.154
 1601SOL    HW1 4829   1.820   3.639   1.081
 1601SOL    HW2 4830   1.721   3.520   1.132
 1602SOL     OW 4831   1.252   3.593   1.128
 1602SOL    HW1 4832   1.336   3.598   1.074
 1602SOL    HW2 4833   1.229   3.497   1.146
 1603SOL     OW 4834   0.083   3.120   1.022
 1603SOL    HW1 4835   0.078   3.119   1.122
 1603SOL    HW2 4836   0.000   3.079   0.984
 1604SOL     OW 4837   0.688   3.524   1.716
 1604SOL    HW1 4838   0.632   3.605   1.725
 1604SOL    HW2 4839   0.740   3.528   1.630
 1605SOL     OW 4840   0.903   1.948   0.133
 1605SOL    HW1 4841   0.954   1.949   0.047
 1605SOL    HW2 4842   0.959   1.906   0.204
 1606SOL     OW 4843   1.726   1.997   0.523
 1606SOL    HW1 4844   1.799   1.980   0.456
 1606SOL    HW2 4845   1.695   1.910   0.561
 1607SOL     OW 4846   1.388   3.435   0.477
 1607SOL    HW1 4847   1.455   3.447   0.403
 1607SOL    HW2 4848   1.348   3.524   0.500
 1608SOL     OW 4849   0.130   3.656   1.851
 1608SOL    HW1 4850   0.089   3.582   1.904
 1608SOL    HW2 4851   0.194   3.707   1.909
 1609SOL     OW 4852   1.280   2.789   0.672
 1609SOL    HW1 4853   1.340   2.708   0.674
 1609SOL    HW2 4854   1.320   2.858   0.612
 1610SOL     OW 4855   0.830   3.135   1.422
 1610SOL    HW1 4856   0.825   3.168   1.517
 1610SOL    HW2 4857   0.744   3.154   1.376
 1611SOL     OW 4858   0.672   3.478   0.154
 1611SOL    HW1 4859   0.681   3.488   0.055
 1611SOL    HW2 4860   0.632   3.389   0.175
 1612SOL     OW 4861   1.650   3.582   1.394
 1612SOL    HW1 4862   1.703   3.592   1.310
 1612SOL    HW2 4863   1.623   3.672   1.428
 1613SOL     OW 4864   1.841   2.037   0.963
 1613SOL    HW1 4865   1.880   1.952   0.927
 1613SOL    HW2 4866   1.743   2.039   0.944
 1614SOL     OW 4867   0.263   2.188   0.720
 1614SOL    HW1 4868   0.184   2.239   0.686
 1614SOL    HW2 4869   0.254   2.173   0.818
 1615SOL     OW 4870   1.194   3.474   0.031
 1615SOL    HW1 4871   1.200   3.381   0.068
 1615SOL    HW2 4872   1.135   3.474  -0.049
 1616SOL     OW 4873   0.822   2.864   1.372
 1616SOL    HW1 4874   0.862   2.863   1.280
 1616SOL    HW2 4875   0.832   2.956   1.412
 1617SOL     OW 4876   0.916   2.772   0.291
 1617SOL    HW1 4877   0.979   2.810   0.223
 1617SOL    HW2 4878   0.956   2.689   0.330
 1618SOL     OW 4879   1.504   3.469   0.044
 1618SOL    HW1 4880   1.412   3.506   0.051
 1618SOL    HW2 4881   1.542   3.489  -0.046
 1619SOL     OW 4882   0.372   3.150   1.490
 1619SOL    HW1 4883   0.359   3.243   1.456
 1619SOL    HW2 4884   0.288   3.098   1.477
 1620SOL     OW 4885   1.614   3.154   1.289
 1620SOL    HW1 4886   1.674   3.157   1.369
 1620SOL    HW2 4887   1.539   3.218   1.302
 1621SOL     OW 4888   1.039   2.960   0.696
 1621SOL    HW1 4889   0.969   2.913   0.750
 1621SOL    HW2 4890   1.098   2.892   0.653
 1622SOL     OW 4891   1.014   2.098   0.971
 1622SOL    HW1 4892   1.006   2.062   0.878
 1622SOL    HW2 4893   1.012   2.022   1.036
 1623SOL     OW 4894   0.590   3.349   0.491
 1623SOL    HW1 4895   0.632   3.291   0.421
 1623SOL    HW2 4896   0.546   3.428   0.447
 1624SOL     OW 4897   1.709   2.247   1.381
 1624SOL    HW1 4898   1.782   2.316   1.385
 1624SOL    HW2 4899   1.737   2.172   1.322
 1625SOL     OW 4900   0.255   3.210   0.290
 1625SOL    HW1 4901   0.159   3.211   0.263
 1625SOL    HW2 4902   0.267   3.263   0.374
 1626SOL     OW 4903   0.105   2.875   1.726
 1626SOL    HW1 4904   0.028   2.842   1.780
 1626SOL    HW2 4905   0.190   2.845   1.768
 1627SOL     OW 4906   0.672   2.065   1.489
 1627SOL    HW1 4907   0.762   2.049   1.449
 1627SOL    HW2 4908   0.680   2.070   1.588
 1628SOL     OW 4909   0.075   2.207   0.033
 1628SOL    HW1 4910  -0.017   2.179   0.004
 1628SOL    HW2 4911   0.106   2.284  -0.023
 1629SOL     OW 4912   1.440   2.718   1.398
 1629SOL    HW1 4913   1.383   2.770   1.335
 1629SOL    HW2 4914   1.536   2.730   1.374
 1630SOL     OW 4915   0.072   2.028   0.318
 1630SOL    HW1 4916   0.055   2.111   0.264
 1630SOL    HW2 4917   0.162   1.991   0.296
 1631SOL     OW 4918   1.183   3.197   0.119
 1631SOL    HW1 4919   1.084   3.186   0.121
 1631SOL    HW2 4920   1.217   3.212   0.212
 1632SOL     OW 4921   0.613   2.704   1.431
 1632SOL    HW1 4922   0.669   2.785   1.414
 1632SOL    HW2 4923   0.672   2.624   1.434
 1633SOL     OW 4924   1.493   3.629   0.959
 1633SOL    HW1 4925   1.526   3.693   0.890
 1633SOL    HW2 4926   1.559   3.623   1.034
 1634SOL     OW 4927   0.716   2.427   1.708
 1634SOL    HW1 4928   0.735   2.492   1.782
 1634SOL    HW2 4929   0.776   2.347   1.717
 1635SOL     OW 4930   1.450   3.082   1.633
 1635SOL    HW1 4931   1.441   3.072   1.732
 1635SOL    HW2 4932   1.546   3.075   1.607
 1636SOL     OW 4933   0.390   3.603   1.560
 1636SOL    HW1 4934   0.299   3.644   1.558
 1636SOL    HW2 4935   0.383   3.509   1.592
 1637SOL     OW 4936   1.674   2.745   1.254
 1637SOL    HW1 4937   1.647   2.656   1.217
 1637SOL    HW2 4938   1.675   2.813   1.181
 1638SOL     OW 4939   1.225   2.187   0.449
 1638SOL    HW1 4940   1.290   2.113   0.438
 1638SOL    HW2 4941   1.245   2.237   0.533
 1639SOL     OW 4942   0.594   2.607   0.652
 1639SOL    HW1 4943   0.644   2.692   0.633
 1639SOL    HW2 4944   0.506   2.609   0.604
 1640SOL     OW 4945   1.777   2.204   1.642
 1640SOL    HW1 4946   1.760   2.235   1.548
 1640SOL    HW2 4947   1.693   2.167   1.680
 1641SOL     OW 4948   1.730   2.796   1.517
 1641SOL    HW1 4949   1.768   2.887   1.532
 1641SOL    HW2 4950   1.722   2.779   1.418
 1642SOL     OW 4951   0.859   3.236   0.016
 1642SOL    HW1 4952   0.813   3.251   0.104
 1642SOL    HW2 4953   0.903   3.321  -0.014
 1643SOL     OW 4954   0.661   3.652   0.953
 1643SOL    HW1 4955   0.615   3.740   0.940
 1643SOL    HW2 4956   0.760   3.664   0.946
 1644SOL     OW 4957   0.859   2.818   0.861
 1644SOL    HW1 4958   0.913   2.749   0.909
 1644SOL    HW2 4959   0.827   2.887   0.927
 1645SOL     OW 4960   1.083   2.846   0.087
 1645SOL    HW1 4961   1.060   2.899   0.005
 1645SOL    HW2 4962   1.164   2.790   0.068
 1646SOL     OW 4963   1.861   3.431   0.851
 1646SOL    HW1 4964   1.790   3.419   0.781
 1646SOL    HW2 4965   1.862   3.352   0.911
 1647SOL     OW 4966   0.221   3.176   1.844
 1647SOL    HW1 4967   0.156   3.103   1.823
 1647SOL    HW2 4968   0.225   3.190   1.942
 1648SOL     OW 4969   0.079   3.102   0.653
 1648SOL    HW1 4970   0.078   3.055   0.741
 1648SOL    HW2 4971   0.161   3.074   0.602
 1649SOL     OW 4972   0.672   3.253   1.624
 1649SOL    HW1 4973   0.594   3.203   1.662
 1649SOL    HW2 4974   0.669   3.348   1.655
 1650SOL     OW 4975   1.824   2.054   1.227
 1650SOL    HW1 4976   1.820   1.964   1.271
 1650SOL    HW2 4977   1.827   2.043   1.128
 1651SOL     OW 4978   0.428   2.286   0.520
 1651SOL    HW1 4979   0.458   2.214   0.458
 1651SOL    HW2 4980   0.389   2.246   0.603
 1652SOL     OW 4981   1.705   3.349   1.104
 1652SOL    HW1 4982   1.612   3.324   1.077
 1652SOL    HW2 4983   1.731   3.299   1.186
 1653SOL     OW 4984   0.317   2.409   1.280
 1653SOL    HW1 4985   0.355   2.350   1.352
 1653SOL    HW2 4986   0.357   2.383   1.192
 1654SOL     OW 4987   0.812   3.448   0.687
 1654SOL    HW1 4988   0.844   3.458   0.593
 1654SOL    HW2 4989   0.733   3.386   0.689
 1655SOL     OW 4990   1.424   2.076   1.112
 1655SOL    HW1 4991   1.476   2.011   1.167
 1655SOL    HW2 4992   1.375   2.139   1.173
 1656SOL     OW 4993   1.001   1.896   1.154
 1656SOL    HW1 4994   0.938   1.824   1.123
 1656SOL    HW2 4995   1.094   1.860   1.154
 1657SOL     OW 4996   0.770   3.192   0.301
 1657SOL    HW1 4997   0.724   3.105   0.318
 1657SOL    HW2 4998   0.861   3.189   0.342
 1658SOL     OW 4999   0.618   3.429   1.284
 1658SOL    HW1 5000   0.613   3.511   1.341
 1658SOL    HW2 5001   0.707   3.426   1.239
 1659SOL     OW 5002   1.352   1.914   0.168
 1659SOL    HW1 5003   1.387   1.873   0.084
 1659SOL    HW2 5004   1.262   1.876   0.188
 1660SOL     OW 5005   1.300   2.315   0.691
 1660SOL    HW1 5006   1.241   2.395   0.695
 1660SOL    HW2 5007   1.315   2.280   0.784
 1661SOL     OW 5008   1.593   2.083   0.882
 1661SOL    HW1 5009   1.509   2.082   0.936
 1661SOL    HW2 5010   1.595   2.166   0.826
 1662SOL     OW 5011   0.039   2.939   0.300
 1662SOL    HW1 5012   0.138   2.928   0.291
 1662SOL    HW2 5013  -0.001   2.853   0.332
 1663SOL     OW 5014   0.875   3.508   0.337
 1663SOL    HW1 5015   0.798   3.473   0.283
 1663SOL    HW2 5016   0.843   3.579   0.399
 1664SOL     OW 5017   0.230   2.490   1.975
 1664SOL    HW1 5018   0.137   2.488   2.012
 1664SOL    HW2 5019   0.231   2.451   1.883
 1665SOL     OW 5020   0.225   2.137   2.858
 1665SOL    HW1 5021   0.260   2.120   2.950
 1665SOL    HW2 5022   0.137   2.092   2.846
 1666SOL     OW 5023   0.019   2.230   2.509
 1666SOL    HW1 5024  -0.063   2.273   2.548
 1666SOL    HW2 5025  -0.009   2.157   2.446
 1667SOL     OW 5026   0.569   3.137   3.027
 1667SOL    HW1 5027   0.476   3.130   2.990
 1667SOL    HW2 5028   0.580   3.226   3.071
 1668SOL     OW 5029   1.555   3.373   2.565
 1668SOL    HW1 5030   1.498   3.357   2.646
 1668SOL    HW2 5031   1.496   3.383   2.485
 1669SOL     OW 5032   1.135   2.565   2.579
 1669SOL    HW1 5033   1.192   2.643   2.554
 1669SOL    HW2 5034   1.075   2.591   2.655
 1670SOL     OW 5035   1.755   2.469   2.093
 1670SOL    HW1 5036   1.743   2.456   1.994
 1670SOL    HW2 5037   1.725   2.388   2.142
 1671SOL     OW 5038   0.768   3.006   2.885
 1671SOL    HW1 5039   0.690   3.023   2.945
 1671SOL    HW2 5040   0.802   3.093   2.849
 1672SOL     OW 5041   0.850   2.660   3.685
 1672SOL    HW1 5042   0.846   2.736   3.750
 1672SOL    HW2 5043   0.872   2.696   3.594
 1673SOL     OW 5044   0.685   2.874   2.527
 1673SOL    HW1 5045   0.754   2.858   2.597
 1673SOL    HW2 5046   0.612   2.931   2.565
 1674SOL     OW 5047   0.686   3.023   3.665
 1674SOL    HW1 5048   0.746   3.102   3.679
 1674SOL    HW2 5049   0.600   3.054   3.624
 1675SOL     OW 5050   0.335   3.297   2.923
 1675SOL    HW1 5051   0.257   3.266   2.870
 1675SOL    HW2 5052   0.393   3.355   2.866
 1676SOL     OW 5053   1.460   3.367   3.201
 1676SOL    HW1 5054   1.484   3.461   3.227
 1676SOL    HW2 5055   1.444   3.313   3.283
 1677SOL     OW 5056   0.438   2.254   3.361
 1677SOL    HW1 5057   0.520   2.198   3.370
 1677SOL    HW2 5058   0.357   2.196   3.365
 1678SOL     OW 5059   1.603   2.309   2.599
 1678SOL    HW1 5060   1.529   2.355   2.549
 1678SOL    HW2 5061   1.654   2.377   2.652
 1679SOL     OW 5062   0.231   3.575   2.345
 1679SOL    HW1 5063   0.265   3.652   2.399
 1679SOL    HW2 5064   0.275   3.575   2.255
 1680SOL     OW 5065   1.127   3.203   3.552
 1680SOL    HW1 5066   1.174   3.203   3.640
 1680SOL    HW2 5067   1.079   3.116   3.541
 1681SOL     OW 5068   0.230   3.296   2.400
 1681SOL    HW1 5069   0.204   3.392   2.400
 1681SOL    HW2 5070   0.159   3.242   2.445
 1682SOL     OW 5071   0.240   2.953   2.748
 1682SOL    HW1 5072   0.254   2.869   2.800
 1682SOL    HW2 5073   0.185   3.017   2.803
 1683SOL     OW 5074   0.620   3.648   3.301
 1683SOL    HW1 5075   0.528   3.631   3.336
 1683SOL    HW2 5076   0.648   3.740   3.327
 1684SOL     OW 5077   0.606   2.826   1.985
 1684SOL    HW1 5078   0.613   2.910   1.931
 1684SOL    HW2 5079   0.652   2.839   2.073
 1685SOL     OW 5080   1.594   1.976   3.342
 1685SOL    HW1 5081   1.576   2.043   3.270
 1685SOL    HW2 5082   1.591   2.022   3.431
 1686SOL     OW 5083   0.122   2.505   2.425
 1686SOL    HW1 5084   0.077   2.417   2.442
 1686SOL    HW2 5085   0.121   2.559   2.509
 1687SOL     OW 5086   1.842   3.629   2.221
 1687SOL    HW1 5087   1.896   3.600   2.301
 1687SOL    HW2 5088   1.872   3.719   2.192
 1688SOL     OW 5089   0.027   3.458   1.979
 1688SOL    HW1 5090   0.008   3.362   2.000
 1688SOL    HW2 5091  -0.006   3.516   2.054
 1689SOL     OW 5092   1.689   2.784   2.474
 1689SOL    HW1 5093   1.784   2.755   2.482
 1689SOL    HW2 5094   1.681   2.849   2.399
 1690SOL     OW 5095   1.641   2.970   2.294
 1690SOL    HW1 5096   1.727   2.972   2.242
 1690SOL    HW2 5097   1.655   3.017   2.382
 1691SOL     OW 5098   0.113   2.599   3.459
 1691SOL    HW1 5099   0.201   2.586   3.504
 1691SOL    HW2 5100   0.100   2.696   3.437
 1692SOL     OW 5101   0.613   3.227   2.588
 1692SOL    HW1 5102   0.564   3.140   2.597
 1692SOL    HW2 5103   0.590   3.270   2.501
 1693SOL     OW 5104   1.293   3.090   3.285
 1693SOL    HW1 5105   1.330   3.017   3.227
 1693SOL    HW2 5106   1.345   3.095   3.370
 1694SOL     OW 5107   0.809   1.866   2.364
 1694SOL    HW1 5108   0.849   1.957   2.355
 1694SOL    HW2 5109   0.709   1.874   2.370
 1695SOL     OW 5110   0.197   2.838   3.126
 1695SOL    HW1 5111   0.286   2.793   3.112
 1695SOL    HW2 5112   0.124   2.773   3.107
 1696SOL     OW 5113   1.525   2.861   2.052
 1696SOL    HW1 5114   1.462   2.785   2.065
 1696SOL    HW2 5115   1.573   2.879   2.138
 1697SOL     OW 5116   1.187   3.654   3.478
 1697SOL    HW1 5117   1.211   3.714   3.402
 1697SOL    HW2 5118   1.194   3.559   3.448
 1698SOL     OW 5119   0.317   2.113   3.663
 1698SOL    HW1 5120   0.388   2.184   3.669
 1698SOL    HW2 5121   0.229   2.152   3.691
 1699SOL     OW 5122   1.466   3.279   2.815
 1699SOL    HW1 5123   1.407   3.285   2.895
 1699SOL    HW2 5124   1.451   3.191   2.769
 1700SOL     OW 5125   1.667   3.576   2.434
 1700SOL    HW1 5126   1.626   3.553   2.346
 1700SOL    HW2 5127   1.649   3.502   2.499
 1701SOL     OW 5128   0.598   2.591   2.132
 1701SOL    HW1 5129   0.622   2.660   2.064
 1701SOL    HW2 5130   0.520   2.624   2.186
 1702SOL     OW 5131   1.281   2.207   2.806
 1702SOL    HW1 5132   1.195   2.157   2.793
 1702SOL    HW2 5133   1.343   2.153   2.862
 1703SOL     OW 5134   1.576   3.524   2.169
 1703SOL    HW1 5135   1.665   3.570   2.172
 1703SOL    HW2 5136   1.555   3.500   2.074
 1704SOL     OW 5137   0.807   2.467   3.327
 1704SOL    HW1 5138   0.760   2.464   3.416
 1704SOL    HW2 5139   0.756   2.412   3.261
 1705SOL     OW 5140   1.394   2.331   3.536
 1705SOL    HW1 5141   1.374   2.374   3.624
 1705SOL    HW2 5142   1.472   2.269   3.545
 1706SOL     OW 5143   0.973   2.752   3.434
 1706SOL    HW1 5144   1.019   2.668   3.405
 1706SOL    HW2 5145   0.917   2.786   3.359
 1707SOL     OW 5146   0.991   2.272   3.104
 1707SOL    HW1 5147   0.914   2.306   3.158
 1707SOL    HW2 5148   0.957   2.221   3.025
 1708SOL     OW 5149   1.041   2.563   2.291
 1708SOL    HW1 5150   1.067   2.559   2.387
 1708SOL    HW2 5151   0.956   2.512   2.277
 1709SOL     OW 5152   0.076   2.673   2.651
 1709SOL    HW1 5153   0.175   2.661   2.660
 1709SOL    HW2 5154   0.052   2.768   2.672
 1710SOL     OW 5155   0.130   3.683   3.433
 1710SOL    HW1 5156   0.120   3.668   3.532
 1710SOL    HW2 5157   0.044   3.719   3.397
 1711SOL     OW 5158   0.865   2.210   2.057
 1711SOL    HW1 5159   0.924   2.273   2.008
 1711SOL    HW2 5160   0.884   2.116   2.028
 1712SOL     OW 5161   1.719   2.447   3.693
 1712SOL    HW1 5162   1.693   2.536   3.657
 1712SOL    HW2 5163   1.717   2.379   3.620
 1713SOL     OW 5164   1.362   3.006   2.407
 1713SOL    HW1 5165   1.445   2.977   2.359
 1713SOL    HW2 5166   1.313   3.073   2.351
 1714SOL     OW 5167   0.550   2.058   2.747
 1714SOL    HW1 5168   0.545   2.053   2.847
 1714SOL    HW2 5169   0.552   2.154   2.718
 1715SOL     OW 5170   1.008   3.318   2.339
 1715SOL    HW1 5171   0.962   3.390   2.287
 1715SOL    HW2 5172   1.004   3.338   2.437
 1716SOL     OW 5173   0.351   3.663   2.715
 1716SOL    HW1 5174   0.401   3.577   2.721
 1716SOL    HW2 5175   0.416   3.740   2.712
 1717SOL     OW 5176   1.795   2.928   2.735
 1717SOL    HW1 5177   1.733   2.913   2.659
 1717SOL    HW2 5178   1.743   2.939   2.820
 1718SOL     OW 5179   1.227   3.412   3.368
 1718SOL    HW1 5180   1.233   3.335   3.432
 1718SOL    HW2 5181   1.175   3.386   3.288
 1719SOL     OW 5182   0.321   2.805   2.104
 1719SOL    HW1 5183   0.403   2.844   2.062
 1719SOL    HW2 5184   0.294   2.723   2.055
 1720SOL     OW 5185   1.458   2.597   2.590
 1720SOL    HW1 5186   1.453   2.532   2.665
 1720SOL    HW2 5187   1.538   2.656   2.603
 1721SOL     OW 5188   0.461   3.128   3.589
 1721SOL    HW1 5189   0.411   3.129   3.503
 1721SOL    HW2 5190   0.398   3.110   3.665
 1722SOL     OW 5191   1.111   3.638   2.099
 1722SOL    HW1 5192   1.051   3.576   2.149
 1722SOL    HW2 5193   1.142   3.594   2.014
 1723SOL     OW 5194   0.202   2.147   3.360
 1723SOL    HW1 5195   0.122   2.207   3.347
 1723SOL    HW2 5196   0.192   2.098   3.446
 1724SOL     OW 5197   1.632   3.239   1.943
 1724SOL    HW1 5198   1.600   3.333   1.933
 1724SOL    HW2 5199   1.556   3.176   1.931
 1725SOL     OW 5200   0.464   3.605   2.185
 1725SOL    HW1 5201   0.497   3.644   2.271
 1725SOL    HW2 5202   0.540   3.598   2.120
 1726SOL     OW 5203   1.400   1.969   2.288
 1726SOL    HW1 5204   1.376   1.932   2.198
 1726SOL    HW2 5205   1.499   1.985   2.292
 1727SOL     OW 5206   0.249   3.647   3.103
 1727SOL    HW1 5207   0.306   3.582   3.153
 1727SOL    HW2 5208   0.233   3.614   3.010
 1728SOL     OW 5209   0.940   3.560   2.766
 1728SOL    HW1 5210   1.020   3.503   2.787
 1728SOL    HW2 5211   0.891   3.520   2.689
 1729SOL     OW 5212   0.382   2.562   2.342
 1729SOL    HW1 5213   0.427   2.472   2.339
 1729SOL    HW2 5214   0.288   2.551   2.375
 1730SOL     OW 5215   1.547   2.084   3.591
 1730SOL    HW1 5216   1.542   2.121   3.683
 1730SOL    HW2 5217   1.475   2.015   3.579
 1731SOL     OW 5218   0.614   1.984   1.979
 1731SOL    HW1 5219   0.712   1.962   1.986
 1731SOL    HW2 5220   0.583   1.967   1.886
 1732SOL     OW 5221   0.781   2.126   3.611
 1732SOL    HW1 5222   0.848   2.065   3.654
 1732SOL    HW2 5223   0.708   2.145   3.676
 1733SOL     OW 5224   0.888   3.376   3.057
 1733SOL    HW1 5225   0.865   3.351   2.963
 1733SOL    HW2 5226   0.949   3.307   3.096
 1734SOL     OW 5227   1.351   2.452   3.295
 1734SOL    HW1 5228   1.379   2.409   3.380
 1734SOL    HW2 5229   1.376   2.548   3.296
 1735SOL     OW 5230   0.803   3.264   2.786
 1735SOL    HW1 5231   0.893   3.278   2.744
 1735SOL    HW2 5232   0.732   3.266   2.715
 1736SOL     OW 5233   0.922   2.365   2.761
 1736SOL    HW1 5234   0.897   2.356   2.665
 1736SOL    HW2 5235   0.970   2.283   2.792
 1737SOL     OW 5236   0.539   1.926   2.374
 1737SOL    HW1 5237   0.458   1.927   2.432
 1737SOL    HW2 5238   0.542   2.009   2.319
 1738SOL     OW 5239   1.434   3.050   1.903
 1738SOL    HW1 5240   1.466   2.974   1.960
 1738SOL    HW2 5241   1.342   3.077   1.933
 1739SOL     OW 5242   0.297   1.897   2.033
 1739SOL    HW1 5243   0.346   1.981   2.012
 1739SOL    HW2 5244   0.359   1.832   2.078
 1740SOL     OW 5245   0.935   2.098   2.342
 1740SOL    HW1 5246   0.887   2.139   2.264
 1740SOL    HW2 5247   1.034   2.096   2.323
 1741SOL     OW 5248   1.076   2.545   3.326
 1741SOL    HW1 5249   0.996   2.484   3.329
 1741SOL    HW2 5250   1.157   2.492   3.302
 1742SOL     OW 5251   1.227   3.432   2.655
 1742SOL    HW1 5252   1.248   3.506   2.590
 1742SOL    HW2 5253   1.295   3.432   2.728
 1743SOL     OW 5254   0.459   3.014   2.603
 1743SOL    HW1 5255   0.388   2.987   2.668
 1743SOL    HW2 5256   0.433   2.986   2.510
 1744SOL     OW 5257   1.271   3.659   2.453
 1744SOL    HW1 5258   1.315   3.723   2.389
 1744SOL    HW2 5259   1.221   3.711   2.523
 1745SOL     OW 5260   1.032   2.411   1.878
 1745SOL    HW1 5261   0.991   2.493   1.839
 1745SOL    HW2 5262   1.096   2.437   1.951
 1746SOL     OW 5263   0.078   2.418   3.248
 1746SOL    HW1 5264   0.170   2.417   3.207
 1746SOL    HW2 5265   0.072   2.492   3.315
 1747SOL     OW 5266   0.561   2.084   3.009
 1747SOL    HW1 5267   0.599   2.000   3.046
 1747SOL    HW2 5268   0.473   2.103   3.053
 1748SOL     OW 5269   0.866   2.316   2.504
 1748SOL    HW1 5270   0.834   2.388   2.442
 1748SOL    HW2 5271   0.890   2.235   2.451
 1749SOL     OW 5272   1.017   1.901   2.615
 1749SOL    HW1 5273   0.945   1.906   2.546
 1749SOL    HW2 5274   0.993   1.832   2.684
 1750SOL     OW 5275   1.429   3.035   2.729
 1750SOL    HW1 5276   1.374   2.951   2.722
 1750SOL    HW2 5277   1.455   3.064   2.637
 1751SOL     OW 5278   1.466   2.452   2.854
 1751SOL    HW1 5279   1.436   2.357   2.861
 1751SOL    HW2 5280   1.539   2.468   2.920
 1752SOL     OW 5281   1.857   2.695   2.239
 1752SOL    HW1 5282   1.899   2.631   2.303
 1752SOL    HW2 5283   1.819   2.644   2.161
 1753SOL     OW 5284   0.488   3.247   2.036
 1753SOL    HW1 5285   0.401   3.232   2.083
 1753SOL    HW2 5286   0.471   3.273   1.941
 1754SOL     OW 5287   1.664   3.142   2.519
 1754SOL    HW1 5288   1.763   3.150   2.533
 1754SOL    HW2 5289   1.619   3.226   2.550
 1755SOL     OW 5290   1.390   2.437   1.940
 1755SOL    HW1 5291   1.336   2.416   2.021
 1755SOL    HW2 5292   1.481   2.396   1.949
 1756SOL     OW 5293   0.527   2.118   2.190
 1756SOL    HW1 5294   0.554   2.059   2.115
 1756SOL    HW2 5295   0.527   2.213   2.159
 1757SOL     OW 5296   1.754   3.085   3.450
 1757SOL    HW1 5297   1.845   3.046   3.437
 1757SOL    HW2 5298   1.762   3.181   3.474
 1758SOL     OW 5299   1.064   3.209   3.202
 1758SOL    HW1 5300   0.984   3.186   3.257
 1758SOL    HW2 5301   1.147   3.183   3.251
 1759SOL     OW 5302   1.592   3.491   3.487
 1759SOL    HW1 5303   1.619   3.525   3.397
 1759SOL    HW2 5304   1.671   3.453   3.533
 1760SOL     OW 5305   1.111   3.057   2.962
 1760SOL    HW1 5306   1.071   3.101   3.043
 1760SOL    HW2 5307   1.070   3.094   2.879
 1761SOL     OW 5308   1.638   2.961   2.941
 1761SOL    HW1 5309   1.643   3.042   3.000
 1761SOL    HW2 5310   1.552   2.963   2.890
 1762SOL     OW 5311   0.915   1.951   3.264
 1762SOL    HW1 5312   0.940   1.931   3.169
 1762SOL    HW2 5313   0.987   2.007   3.306
 1763SOL     OW 5314   0.980   2.978   3.581
 1763SOL    HW1 5315   0.881   2.984   3.591
 1763SOL    HW2 5316   1.003   2.898   3.525
 1764SOL     OW 5317   0.705   2.912   2.230
 1764SOL    HW1 5318   0.691   2.919   2.329
 1764SOL    HW2 5319   0.789   2.861   2.212
 1765SOL     OW 5320   0.410   2.675   3.113
 1765SOL    HW1 5321   0.496   2.687   3.163
 1765SOL    HW2 5322   0.368   2.588   3.140
 1766SOL     OW 5323   1.274   2.248   3.124
 1766SOL    HW1 5324   1.295   2.322   3.188
 1766SOL    HW2 5325   1.185   2.265   3.081
 1767SOL     OW 5326   0.064   3.426   3.193
 1767SOL    HW1 5327   0.018   3.508   3.159
 1767SOL    HW2 5328   0.162   3.445   3.202
 1768SOL     OW 5329   0.367   2.962   2.363
 1768SOL    HW1 5330   0.360   3.045   2.307
 1768SOL    HW2 5331   0.371   2.882   2.303
 1769SOL     OW 5332   0.566   2.399   2.727
 1769SOL    HW1 5333   0.578   2.465   2.653
 1769SOL    HW2 5334   0.612   2.433   2.810
 1770SOL     OW 5335   1.252   3.210   2.250
 1770SOL    HW1 5336   1.302   3.287   2.290
 1770SOL    HW2 5337   1.157   3.212   2.282
 1771SOL     OW 5338   1.272   3.307   3.004
 1771SOL    HW1 5339   1.319   3.320   3.091
 1771SOL    HW2 5340   1.206   3.233   3.013
 1772SOL     OW 5341   1.582   2.501   2.334
 1772SOL    HW1 5342   1.551   2.562   2.407
 1772SOL    HW2 5343   1.632   2.553   2.265
 1773SOL     OW 5344   0.354   3.372   3.191
 1773SOL    HW1 5345   0.333   3.328   3.104
 1773SOL    HW2 5346   0.451   3.398   3.194
 1774SOL     OW 5347   0.402   2.613   3.460
 1774SOL    HW1 5348   0.470   2.668   3.413
 1774SOL    HW2 5349   0.442   2.525   3.487
 1775SOL     OW 5350   1.587   2.641   3.532
 1775SOL    HW1 5351   1.495   2.679   3.527
 1775SOL    HW2 5352   1.647   2.688   3.467
 1776SOL     OW 5353   1.013   1.967   3.632
 1776SOL    HW1 5354   1.019   2.052   3.580
 1776SOL    HW2 5355   1.045   1.891   3.575
 1777SOL     OW 5356   0.504   1.912   3.602
 1777SOL    HW1 5357   0.462   1.855   3.532
 1777SOL    HW2 5358   0.438   1.981   3.634
 1778SOL     OW 5359   0.573   2.732   2.891
 1778SOL    HW1 5360   0.617   2.821   2.882
 1778SOL    HW2 5361   0.510   2.732   2.968
 1779SOL     OW 5362   1.360   2.724   2.907
 1779SOL    HW1 5363   1.285   2.724   2.841
 1779SOL    HW2 5364   1.397   2.632   2.916
 1780SOL     OW 5365   1.209   2.387   2.137
 1780SOL    HW1 5366   1.222   2.303   2.191
 1780SOL    HW2 5367   1.180   2.461   2.197
 1781SOL     OW 5368   0.307   2.075   3.093
 1781SOL    HW1 5369   0.284   2.112   3.183
 1781SOL    HW2 5370   0.277   1.980   3.087
 1782SOL     OW 5371   0.037   3.172   3.144
 1782SOL    HW1 5372   0.090   3.123   3.212
 1782SOL    HW2 5373   0.059   3.270   3.149
 1783SOL     OW 5374   0.732   2.496   2.926
 1783SOL    HW1 5375   0.791   2.470   2.850
 1783SOL    HW2 5376   0.704   2.592   2.915
 1784SOL     OW 5377   1.728   2.797   3.716
 1784SOL    HW1 5378   1.682   2.790   3.627
 1784SOL    HW2 5379   1.666   2.841   3.782
 1785SOL     OW 5380   0.307   1.925   2.480
 1785SOL    HW1 5381   0.296   2.019   2.513
 1785SOL    HW2 5382   0.302   1.862   2.557
 1786SOL     OW 5383   1.622   2.229   2.236
 1786SOL    HW1 5384   1.624   2.153   2.300
 1786SOL    HW2 5385   1.574   2.306   2.276
 1787SOL     OW 5386   1.023   2.628   2.828
 1787SOL    HW1 5387   1.038   2.649   2.924
 1787SOL    HW2 5388   0.993   2.533   2.819
 1788SOL     OW 5389   0.980   3.435   3.562
 1788SOL    HW1 5390   0.960   3.479   3.474
 1788SOL    HW2 5391   1.019   3.344   3.546
 1789SOL     OW 5392   1.859   3.380   3.467
 1789SOL    HW1 5393   1.873   3.407   3.372
 1789SOL    HW2 5394   1.942   3.402   3.520
 1790SOL     OW 5395   0.350   2.760   3.666
 1790SOL    HW1 5396   0.426   2.804   3.714
 1790SOL    HW2 5397   0.385   2.713   3.584
 1791SOL     OW 5398   1.540   2.136   1.987
 1791SOL    HW1 5399   1.479   2.061   2.010
 1791SOL    HW2 5400   1.562   2.188   2.070
 1792SOL     OW 5401   1.303   2.700   1.904
 1792SOL    HW1 5402   1.337   2.607   1.919
 1792SOL    HW2 5403   1.321   2.727   1.809
 1793SOL     OW 5404   1.068   3.195   2.711
 1793SOL    HW1 5405   1.075   3.111   2.656
 1793SOL    HW2 5406   1.130   3.264   2.675
 1794SOL     OW 5407   0.319   2.672   2.811
 1794SOL    HW1 5408   0.412   2.708   2.816
 1794SOL    HW2 5409   0.313   2.587   2.863
 1795SOL     OW 5410   0.339   2.371   2.868
 1795SOL    HW1 5411   0.287   2.288   2.851
 1795SOL    HW2 5412   0.416   2.376   2.804
 1796SOL     OW 5413   1.138   2.242   3.540
 1796SOL    HW1 5414   1.093   2.305   3.604
 1796SOL    HW2 5415   1.231   2.273   3.523
 1797SOL     OW 5416   1.160   2.069   3.339
 1797SOL    HW1 5417   1.160   2.133   3.416
 1797SOL    HW2 5418   1.188   2.117   3.256
 1798SOL     OW 5419   0.008   3.188   2.062
 1798SOL    HW1 5420  -0.085   3.209   2.031
 1798SOL    HW2 5421   0.018   3.089   2.075
 1799SOL     OW 5422   0.088   3.663   2.789
 1799SOL    HW1 5423   0.046   3.577   2.762
 1799SOL    HW2 5424   0.182   3.666   2.755
 1800SOL     OW 5425   0.504   3.430   2.772
 1800SOL    HW1 5426   0.570   3.504   2.781
 1800SOL    HW2 5427   0.548   3.351   2.730
 1801SOL     OW 5428   1.002   2.658   3.100
 1801SOL    HW1 5429   1.043   2.626   3.186
 1801SOL    HW2 5430   0.906   2.631   3.097
 1802SOL     OW 5431   0.040   2.406   2.976
 1802SOL    HW1 5432   0.125   2.373   2.935
 1802SOL    HW2 5433   0.053   2.421   3.074
 1803SOL     OW 5434   0.189   2.382   3.584
 1803SOL    HW1 5435   0.248   2.342   3.514
 1803SOL    HW2 5436   0.131   2.453   3.543
 1804SOL     OW 5437   1.369   2.812   3.522
 1804SOL    HW1 5438   1.408   2.901   3.542
 1804SOL    HW2 5439   1.379   2.792   3.425
 1805SOL     OW 5440   0.815   2.434   2.187
 1805SOL    HW1 5441   0.822   2.345   2.141
 1805SOL    HW2 5442   0.721   2.468   2.179
 1806SOL     OW 5443   1.657   2.466   3.068
 1806SOL    HW1 5444   1.619   2.397   3.130
 1806SOL    HW2 5445   1.739   2.430   3.024
 1807SOL     OW 5446   0.252   3.426   3.606
 1807SOL    HW1 5447   0.222   3.483   3.682
 1807SOL    HW2 5448   0.245   3.329   3.632
 1808SOL     OW 5449   0.671   2.326   3.131
 1808SOL    HW1 5450   0.637   2.237   3.101
 1808SOL    HW2 5451   0.697   2.380   3.051
 1809SOL     OW 5452   0.930   3.540   3.327
 1809SOL    HW1 5453   0.906   3.522   3.232
 1809SOL    HW2 5454   0.960   3.634   3.337
 1810SOL     OW 5455   0.473   2.362   2.053
 1810SOL    HW1 5456   0.534   2.442   2.057
 1810SOL    HW2 5457   0.378   2.393   2.060
 1811SOL     OW 5458   0.159   2.999   3.328
 1811SOL    HW1 5459   0.181   2.938   3.404
 1811SOL    HW2 5460   0.169   2.950   3.242
 1812SOL     OW 5461   1.347   2.921   3.096
 1812SOL    HW1 5462   1.371   2.858   3.022
 1812SOL    HW2 5463   1.257   2.961   3.078
 1813SOL     OW 5464   1.302   2.717   2.171
 1813SOL    HW1 5465   1.216   2.686   2.213
 1813SOL    HW2 5466   1.298   2.703   2.072
 1814SOL     OW 5467   1.759   3.609   3.016
 1814SOL    HW1 5468   1.820   3.639   2.943
 1814SOL    HW2 5469   1.721   3.520   2.994
 1815SOL     OW 5470   1.252   3.593   2.990
 1815SOL    HW1 5471   1.336   3.598   2.936
 1815SOL    HW2 5472   1.229   3.497   3.008
 1816SOL     OW 5473   0.083   3.120   2.884
 1816SOL    HW1 5474   0.078   3.119   2.984
 1816SOL    HW2 5475   0.000   3.079   2.846
 1817SOL     OW 5476   0.688   3.524   3.578
 1817SOL    HW1 5477   0.632   3.605   3.587
 1817SOL    HW2 5478   0.740   3.528   3.492
 1818SOL     OW 5479   1.726   1.997   2.385
 1818SOL    HW1 5480   1.799   1.980   2.318
 1818SOL    HW2 5481   1.695   1.910   2.423
 1819SOL     OW 5482   1.388   3.435   2.339
 1819SOL    HW1 5483   1.455   3.447   2.265
 1819SOL    HW2 5484   1.348   3.524   2.362
 1820SOL     OW 5485   0.130   3.656   3.713
 1820SOL    HW1 5486   0.089   3.582   3.766
 1820SOL    HW2 5487   0.194   3.707   3.771
 1821SOL     OW 5488   1.280   2.789   2.534
 1821SOL    HW1 5489   1.340   2.708   2.536
 1821SOL    HW2 5490   1.320   2.858   2.474
 1822SOL     OW 5491   0.830   3.135   3.284
 1822SOL    HW1 5492   0.825   3.168   3.379
 1822SOL    HW2 5493   0.744   3.154   3.238
 1823SOL     OW 5494   0.672   3.478   2.016
 1823SOL    HW1 5495   0.681   3.488   1.917
 1823SOL    HW2 5496   0.632   3.389   2.037
 1824SOL     OW 5497   1.650   3.582   3.256
 1824SOL    HW1 5498   1.703   3.592   3.172
 1824SOL    HW2 5499   1.623   3.672   3.290
 1825SOL     OW 5500   1.841   2.037   2.825
 1825SOL    HW1 5501   1.880   1.952   2.789
 1825SOL    HW2 5502   1.743   2.039   2.806
 1826SOL     OW 5503   0.263   2.188   2.582
 1826SOL    HW1 5504   0.184   2.239   2.548
 1826SOL    HW2 5505   0.254   2.173   2.680
 1827SOL     OW 5506   1.194   3.474   1.893
 1827SOL    HW1 5507   1.200   3.381   1.930
 1827SOL    HW2 5508   1.135   3.474   1.813
 1828SOL     OW 5509   0.822   2.864   3.234
 1828SOL    HW1 5510   0.862   2.863   3.142
 1828SOL    HW2 5511   0.832   2.956   3.274
 1829SOL     OW 5512   0.916   2.772   2.153
 1829SOL    HW1 5513   0.979   2.810   2.085
 1829SOL    HW2 5514   0.956   2.689   2.192
 1830SOL     OW 5515   1.504   3.469   1.906
 1830SOL    HW1 5516   1.412   3.506   1.913
 1830SOL    HW2 5517   1.542   3.489   1.816
 1831SOL     OW 5518   0.372   3.150   3.352
 1831SOL    HW1 5519   0.359   3.243   3.318
 1831SOL    HW2 5520   0.288   3.098   3.339
 1832SOL     OW 5521   1.614   3.154   3.151
 1832SOL    HW1 5522   1.674   3.157   3.231
 1832SOL    HW2 5523   1.539   3.218   3.164
 1833SOL     OW 5524   1.039   2.960   2.558
 1833SOL    HW1 5525   0.969   2.913   2.612
 1833SOL    HW2 5526   1.098   2.892   2.515
 1834SOL     OW 5527   1.014   2.098   2.833
 1834SOL    HW1 5528   1.006   2.062   2.740
 1834SOL    HW2 5529   1.012   2.022   2.898
 1835SOL     OW 5530   0.590   3.349   2.353
 1835SOL    HW1 5531   0.632   3.291   2.283
 1835SOL    HW2 5532   0.546   3.428   2.309
 1836SOL     OW 5533   1.709   2.247   3.243
 1836SOL    HW1 5534   1.782   2.316   3.247
 1836SOL    HW2 5535   1.737   2.172   3.184
 1837SOL     OW 5536   0.255   3.210   2.152
 1837SOL    HW1 5537   0.159   3.211   2.125
 1837SOL    HW2 5538   0.267   3.263   2.236
 1838SOL     OW 5539   0.105   2.875   3.588
 1838SOL    HW1 5540   0.028   2.842   3.642
 1838SOL    HW2 5541   0.190   2.845   3.630
 1839SOL     OW 5542   0.672   2.065   3.351
 1839SOL    HW1 5543   0.762   2.049   3.311
 1839SOL    HW2 5544   0.680   2.070   3.450
 1840SOL     OW 5545   0.075   2.207   1.895
 1840SOL    HW1 5546  -0.017   2.179   1.866
 1840SOL    HW2 5547   0.106   2.284   1.839
 1841SOL     OW 5548   1.440   2.718   3.260
 1841SOL    HW1 5549   1.383   2.770   3.197
 1841SOL    HW2 5550   1.536   2.730   3.236
 1842SOL     OW 5551   0.072   2.028   2.180
 1842SOL    HW1 5552   0.055   2.111   2.126
 1842SOL    HW2 5553   0.162   1.991   2.158
 1843SOL     OW 5554   1.183   3.197   1.981
 1843SOL    HW1 5555   1.084   3.186   1.983
 1843SOL    HW2 5556   1.217   3.212   2.074
 1844SOL     OW 5557   0.613   2.704   3.293
 1844SOL    HW1 5558   0.669   2.785   3.276
 1844SOL    HW2 5559   0.672   2.624   3.296
 1845SOL     OW 5560   1.493   3.629   2.821
 1845SOL    HW1 5561   1.526   3.693   2.752
 1845SOL    HW2 5562   1.559   3.623   2.896
 1846SOL     OW 5563   0.716   2.427   3.570
 1846SOL    HW1 5564   0.735   2.492   3.644
 1846SOL    HW2 5565   0.776   2.347   3.579
 1847SOL     OW 5566   1.450   3.082   3.495
 1847SOL    HW1 5567   1.441   3.072   3.594
 1847SOL    HW2 5568   1.546   3.075   3.469
 1848SOL     OW 5569   0.390   3.603   3.422
 1848SOL    HW1 5570   0.299   3.644   3.420
 1848SOL    HW2 5571   0.383   3.509   3.454
 1849SOL     OW 5572   1.674   2.745   3.116
 1849SOL    HW1 5573   1.647   2.656   3.079
 1849SOL    HW2 5574   1.675   2.813   3.043
 1850SOL     OW 5575   1.225   2.187   2.311
 1850SOL    HW1 5576   1.290   2.113   2.300
 1850SOL    HW2 5577   1.245   2.237   2.395
 1851SOL     OW 5578   0.594   2.607   2.514
 1851SOL    HW1 5579   0.644   2.692   2.495
 1851SOL    HW2 5580   0.506   2.609   2.466
 1852SOL     OW 5581   1.777   2.204   3.504
 1852SOL    HW1 5582   1.760   2.235   3.410
 1852SOL    HW2 5583   1.693   2.167   3.542
 1853SOL     OW 5584   1.730   2.796   3.379
 1853SOL    HW1 5585   1.768   2.887   3.394
 1853SOL    HW2 5586   1.722   2.779   3.280
 1854SOL     OW 5587   0.859   3.236   1.878
 1854SOL    HW1 5588   0.813   3.251   1.966
 1854SOL    HW2 5589   0.903   3.321   1.848
 1855SOL     OW 5590   0.661   3.652   2.815
 1855SOL    HW1 5591   0.615   3.740   2.802
 1855SOL    HW2 5592   0.760   3.664   2.808
 1856SOL     OW 5593   0.859   2.818   2.723
 1856SOL    HW1 5594   0.913   2.749   2.771
 1856SOL    HW2 5595   0.827   2.887   2.789
 1857SOL     OW 5596   1.083   2.846   1.949
 1857SOL    HW1 5597   1.060   2.899   1.867
 1857SOL    HW2 5598   1.164   2.790   1.930
 1858SOL     OW 5599   1.861   3.431   2.713
 1858SOL    HW1 5600   1.790   3.419   2.643
 1858SOL    HW2 5601   1.862   3.352   2.773
 1859SOL     OW 5602   0.221   3.176   3.706
 1859SOL    HW1 5603   0.156   3.103   3.685
 1859SOL    HW2 5604   0.225   3.190   3.804
 1860SOL     OW 5605   0.079   3.102   2.515
 1860SOL    HW1 5606   0.078   3.055   2.603
 1860SOL    HW2 5607   0.161   3.074   2.464
 1861SOL     OW 5608   0.672   3.253   3.486
 1861SOL    HW1 5609   0.594   3.203   3.524
 1861SOL    HW2 5610   0.669   3.348   3.517
 1862SOL     OW 5611   1.824   2.054   3.089
 1862SOL    HW1 5612   1.820   1.964   3.133
 1862SOL    HW2 5613   1.827   2.043   2.990
 1863SOL     OW 5614   0.428   2.286   2.382
 1863SOL    HW1 5615   0.458   2.214   2.320
 1863SOL    HW2 5616   0.389   2.246   2.465
 1864SOL     OW 5617   1.705   3.349   2.966
 1864SOL    HW1 5618   1.612   3.324   2.939
 1864SOL    HW2 5619   1.731   3.299   3.048
 1865SOL     OW 5620   0.317   2.409   3.142
 1865SOL    HW1 5621   0.355   2.350   3.214
 1865SOL    HW2 5622   0.357   2.383   3.054
 1866SOL     OW 5623   0.812   3.448   2.549
 1866SOL    HW1 5624   0.844   3.458   2.455
 1866SOL    HW2 5625   0.733   3.386   2.551
 1867SOL     OW 5626   1.424   2.076   2.974
 1867SOL    HW1 5627   1.476   2.011   3.029
 1867SOL    HW2 5628   1.375   2.139   3.035
 1868SOL     OW 5629   1.001   1.896   3.016
 1868SOL    HW1 5630   0.938   1.824   2.985
 1868SOL    HW2 5631   1.094   1.860   3.016
 1869SOL     OW 5632   0.770   3.192   2.163
 1869SOL    HW1 5633   0.724   3.105   2.180
 1869SOL    HW2 5634   0.861   3.189   2.204
 1870SOL     OW 5635   0.618   3.429   3.146
 1870SOL    HW1 5636   0.613   3.511   3.203
 1870SOL    HW2 5637   0.707   3.426   3.101
 1871SOL     OW 5638   1.352   1.914   2.030
 1871SOL    HW1 5639   1.387   1.873   1.946
 1871SOL    HW2 5640   1.262   1.876   2.050
 1872SOL     OW 5641   1.300   2.315   2.553
 1872SOL    HW1 5642   1.241   2.395   2.557
 1872SOL    HW2 5643   1.315   2.280   2.646
 1873SOL     OW 5644   1.593   2.083   2.744
 1873SOL    HW1 5645   1.509   2.082   2.798
 1873SOL    HW2 5646   1.595   2.166   2.688
 1874SOL     OW 5647   0.039   2.939   2.162
 1874SOL    HW1 5648   0.138   2.928   2.153
 1874SOL    HW2 5649  -0.001   2.853   2.194
 1875SOL     OW 5650   0.875   3.508   2.199
 1875SOL    HW1 5651   0.798   3.473   2.145
 1875SOL    HW2 5652   0.843   3.579   2.261
 1876SOL     OW 5653   0.230   2.490   3.837
 1876SOL    HW1 5654   0.137   2.488   3.874
 1876SOL    HW2 5655   0.231   2.451   3.745
 1877SOL     OW 5656   0.225   2.137   4.720
 1877SOL    HW1 5657   0.260   2.120   4.812
 1877SOL    HW2 5658   0.137   2.092   4.708
 1878SOL     OW 5659   0.019   2.230   4.371
 1878SOL    HW1 5660  -0.063   2.273   4.410
 1878SOL    HW2 5661  -0.009   2.157   4.308
 1879SOL     OW 5662   0.569   3.137   4.889
 1879SOL    HW1 5663   0.476   3.130   4.852
 1879SOL    HW2 5664   0.580   3.226   4.933
 1880SOL     OW 5665   1.555   3.373   4.427
 1880SOL    HW1 5666   1.498   3.357   4.508
 1880SOL    HW2 5667   1.496   3.383   4.347
 1881SOL     OW 5668   1.135   2.565   4.441
 1881SOL    HW1 5669   1.192   2.643   4.416
 1881SOL    HW2 5670   1.075   2.591   4.517
 1882SOL     OW 5671   1.755   2.469   3.955
 1882SOL    HW1 5672   1.743   2.456   3.856
 1882SOL    HW2 5673   1.725   2.388   4.004
 1883SOL     OW 5674   0.768   3.006   4.747
 1883SOL    HW1 5675   0.690   3.023   4.807
 1883SOL    HW2 5676   0.802   3.093   4.711
 1884SOL     OW 5677   0.850   2.660   5.547
 1884SOL    HW1 5678   0.846   2.736   5.612
 1884SOL    HW2 5679   0.872   2.696   5.456
 1885SOL     OW 5680   0.685   2.874   4.389
 1885SOL    HW1 5681   0.754   2.858   4.459
 1885SOL    HW2 5682   0.612   2.931   4.427
 1886SOL     OW 5683   0.686   3.023   5.527
 1886SOL    HW1 5684   0.746   3.102   5.541
 1886SOL    HW2 5685   0.600   3.054   5.486
 1887SOL     OW 5686   0.335   3.297   4.785
 1887SOL    HW1 5687   0.257   3.266   4.732
 1887SOL    HW2 5688   0.393   3.355   4.728
 1888SOL     OW 5689   1.460   3.367   5.063
 1888SOL    HW1 5690   1.484   3.461   5.089
 1888SOL    HW2 5691   1.444   3.313   5.145
 1889SOL     OW 5692   0.438   2.254   5.223
 1889SOL    HW1 5693   0.520   2.198   5.232
 1889SOL    HW2 5694   0.357   2.196   5.227
 1890SOL     OW 5695   1.603   2.309   4.461
 1890SOL    HW1 5696   1.529   2.355   4.411
 1890SOL    HW2 5697   1.654   2.377   4.514
 1891SOL     OW 5698   0.231   3.575   4.207
 1891SOL    HW1 5699   0.265   3.652   4.261
 1891SOL    HW2 5700   0.275   3.575   4.117
 1892SOL     OW 5701   1.127   3.203   5.414
 1892SOL    HW1 5702   1.174   3.203   5.502
 1892SOL    HW2 5703   1.079   3.116   5.403
 1893SOL     OW 5704   0.230   3.296   4.262
 1893SOL    HW1 5705   0.204   3.392   4.262
 1893SOL    HW2 5706   0.159   3.242   4.307
 1894SOL     OW 5707   0.240   2.953   4.610
 1894SOL    HW1 5708   0.254   2.869   4.662
 1894SOL    HW2 5709   0.185   3.017   4.665
 1895SOL     OW 5710   0.620   3.648   5.163
 1895SOL    HW1 5711   0.528   3.631   5.198
 1895SOL    HW2 5712   0.648   3.740   5.189
 1896SOL     OW 5713   0.606   2.826   3.847
 1896SOL    HW1 5714   0.613   2.910   3.793
 1896SOL    HW2 5715   0.652   2.839   3.935
 1897SOL     OW 5716   1.594   1.976   5.204
 1897SOL    HW1 5717   1.576   2.043   5.132
 1897SOL    HW2 5718   1.591   2.022   5.293
 1898SOL     OW 5719   0.122   2.505   4.287
 1898SOL    HW1 5720   0.077   2.417   4.304
 1898SOL    HW2 5721   0.121   2.559   4.371
 1899SOL     OW 5722   1.842   3.629   4.083
 1899SOL    HW1 5723   1.896   3.600   4.163
 1899SOL    HW2 5724   1.872   3.719   4.054
 1900SOL     OW 5725   0.027   3.458   3.841
 1900SOL    HW1 5726   0.008   3.362   3.862
 1900SOL    HW2 5727  -0.006   3.516   3.916
 1901SOL     OW 5728   1.689   2.784   4.336
 1901SOL    HW1 5729   1.784   2.755   4.344
 1901SOL    HW2 5730   1.681   2.849   4.261
 1902SOL     OW 5731   1.641   2.970   4.156
 1902SOL    HW1 5732   1.727   2.972   4.104
 1902SOL    HW2 5733   1.655   3.017   4.244
 1903SOL     OW 5734   0.113   2.599   5.321
 1903SOL    HW1 5735   0.201   2.586   5.366
 1903SOL    HW2 5736   0.100   2.696   5.299
 1904SOL     OW 5737   0.613   3.227   4.450
 1904SOL    HW1 5738   0.564   3.140   4.459
 1904SOL    HW2 5739   0.590   3.270   4.363
 1905SOL     OW 5740   1.293   3.090   5.147
 1905SOL    HW1 5741   1.330   3.017   5.089
 1905SOL    HW2 5742   1.345   3.095   5.232
 1906SOL     OW 5743   0.809   1.866   4.226
 1906SOL    HW1 5744   0.849   1.957   4.217
 1906SOL    HW2 5745   0.709   1.874   4.232
 1907SOL     OW 5746   0.197   2.838   4.988
 1907SOL    HW1 5747   0.286   2.793   4.974
 1907SOL    HW2 5748   0.124   2.773   4.969
 1908SOL     OW 5749   1.525   2.861   3.914
 1908SOL    HW1 5750   1.462   2.785   3.927
 1908SOL    HW2 5751   1.573   2.879   4.000
 1909SOL     OW 5752   1.187   3.654   5.340
 1909SOL    HW1 5753   1.211   3.714   5.264
 1909SOL    HW2 5754   1.194   3.559   5.310
 1910SOL     OW 5755   0.317   2.113   5.525
 1910SOL    HW1 5756   0.388   2.184   5.531
 1910SOL    HW2 5757   0.229   2.152   5.553
 1911SOL     OW 5758   1.466   3.279   4.677
 1911SOL    HW1 5759   1.407   3.285   4.757
 1911SOL    HW2 5760   1.451   3.191   4.631
 1912SOL     OW 5761   1.667   3.576   4.296
 1912SOL    HW1 5762   1.626   3.553   4.208
 1912SOL    HW2 5763   1.649   3.502   4.361
 1913SOL     OW 5764   0.598   2.591   3.994
 1913SOL    HW1 5765   0.622   2.660   3.926
 1913SOL    HW2 5766   0.520   2.624   4.048
 1914SOL     OW 5767   1.281   2.207   4.668
 1914SOL    HW1 5768   1.195   2.157   4.655
 1914SOL    HW2 5769   1.343   2.153   4.724
 1915SOL     OW 5770   1.576   3.524   4.031
 1915SOL    HW1 5771   1.665   3.570   4.034
 1915SOL    HW2 5772   1.555   3.500   3.936
 1916SOL     OW 5773   0.807   2.467   5.189
 1916SOL    HW1 5774   0.760   2.464   5.278
 1916SOL    HW2 5775   0.756   2.412   5.123
 1917SOL     OW 5776   1.394   2.331   5.398
 1917SOL    HW1 5777   1.374   2.374   5.486
 1917SOL    HW2 5778   1.472   2.269   5.407
 1918SOL     OW 5779   0.973   2.752   5.296
 1918SOL    HW1 5780   1.019   2.668   5.267
 1918SOL    HW2 5781   0.917   2.786   5.221
 1919SOL     OW 5782   0.991   2.272   4.966
 1919SOL    HW1 5783   0.914   2.306   5.020
 1919SOL    HW2 5784   0.957   2.221   4.887
 1920SOL     OW 5785   1.041   2.563   4.153
 1920SOL    HW1 5786   1.067   2.559   4.249
 1920SOL    HW2 5787   0.956   2.512   4.139
 1921SOL     OW 5788   0.076   2.673   4.513
 1921SOL    HW1 5789   0.175   2.661   4.522
 1921SOL    HW2 5790   0.052   2.768   4.534
 1922SOL     OW 5791   0.130   3.683   5.295
 1922SOL    HW1 5792   0.120   3.668   5.394
 1922SOL    HW2 5793   0.044   3.719   5.259
 1923SOL     OW 5794   0.865   2.210   3.919
 1923SOL    HW1 5795   0.924   2.273   3.870
 1923SOL    HW2 5796   0.884   2.116   3.890
 1924SOL     OW 5797   1.719   2.447   5.555
 1924SOL    HW1 5798   1.693   2.536   5.519
 1924SOL    HW2 5799   1.717   2.379   5.482
 1925SOL     OW 5800   1.362   3.006   4.269
 1925SOL    HW1 5801   1.445   2.977   4.221
 1925SOL    HW2 5802   1.313   3.073   4.213
 1926SOL     OW 5803   0.550   2.058   4.609
 1926SOL    HW1 5804   0.545   2.053   4.709
 1926SOL    HW2 5805   0.552   2.154   4.580
 1927SOL     OW 5806   1.008   3.318   4.201
 1927SOL    HW1 5807   0.962   3.390   4.149
 1927SOL    HW2 5808   1.004   3.338   4.299
 1928SOL     OW 5809   0.351   3.663   4.577
 1928SOL    HW1 5810   0.401   3.577   4.583
 1928SOL    HW2 5811   0.416   3.740   4.574
 1929SOL     OW 5812   1.795   2.928   4.597
 1929SOL    HW1 5813   1.733   2.913   4.521
 1929SOL    HW2 5814   1.743   2.939   4.682
 1930SOL     OW 5815   1.227   3.412   5.230
 1930SOL    HW1 5816   1.233   3.335   5.294
 1930SOL    HW2 5817   1.175   3.386   5.150
 1931SOL     OW 5818   0.321   2.805   3.966
 1931SOL    HW1 5819   0.403   2.844   3.924
 1931SOL    HW2 5820   0.294   2.723   3.917
 1932SOL     OW 5821   1.458   2.597   4.452
 1932SOL    HW1 5822   1.453   2.532   4.527
 1932SOL    HW2 5823   1.538   2.656   4.465
 1933SOL     OW 5824   0.461   3.128   5.451
 1933SOL    HW1 5825   0.411   3.129   5.365
 1933SOL    HW2 5826   0.398   3.110   5.527
 1934SOL     OW 5827   1.111   3.638   3.961
 1934SOL    HW1 5828   1.051   3.576   4.011
 1934SOL    HW2 5829   1.142   3.594   3.876
 1935SOL     OW 5830   0.202   2.147   5.222
 1935SOL    HW1 5831   0.122   2.207   5.209
 1935SOL    HW2 5832   0.192   2.098   5.308
 1936SOL     OW 5833   1.632   3.239   3.805
 1936SOL    HW1 5834   1.600   3.333   3.795
 1936SOL    HW2 5835   1.556   3.176   3.793
 1937SOL     OW 5836   0.464   3.605   4.047
 1937SOL    HW1 5837   0.497   3.644   4.133
 1937SOL    HW2 5838   0.540   3.598   3.982
 1938SOL     OW 5839   1.400   1.969   4.150
 1938SOL    HW1 5840   1.376   1.932   4.060
 1938SOL    HW2 5841   1.499   1.985   4.154
 1939SOL     OW 5842   0.249   3.647   4.965
 1939SOL    HW1 5843   0.306   3.582   5.015
 1939SOL    HW2 5844   0.233   3.614   4.872
 1940SOL     OW 5845   0.940   3.560   4.628
 1940SOL    HW1 5846   1.020   3.503   4.649
 1940SOL    HW2 5847   0.891   3.520   4.551
 1941SOL     OW 5848   0.382   2.562   4.204
 1941SOL    HW1 5849   0.427   2.472   4.201
 1941SOL    HW2 5850   0.288   2.551   4.237
 1942SOL     OW 5851   1.547   2.084   5.453
 1942SOL    HW1 5852   1.542   2.121   5.545
 1942SOL    HW2 5853   1.475   2.015   5.441
 1943SOL     OW 5854   0.614   1.984   3.841
 1943SOL    HW1 5855   0.712   1.962   3.848
 1943SOL    HW2 5856   0.583   1.967   3.748
 1944SOL     OW 5857   0.781   2.126   5.473
 1944SOL    HW1 5858   0.848   2.065   5.516
 1944SOL    HW2 5859   0.708   2.145   5.538
 1945SOL     OW 5860   0.888   3.376   4.919
 1945SOL    HW1 5861   0.865   3.351   4.825
 1945SOL    HW2 5862   0.949   3.307   4.958
 1946SOL     OW 5863   1.351   2.452   5.157
 1946SOL    HW1 5864   1.379   2.409   5.242
 1946SOL    HW2 5865   1.376   2.548   5.158
 1947SOL     OW 5866   0.803   3.264   4.648
 1947SOL    HW1 5867   0.893   3.278   4.606
 1947SOL    HW2 5868   0.732   3.266   4.577
 1948SOL     OW 5869   0.922   2.365   4.623
 1948SOL    HW1 5870   0.897   2.356   4.527
 1948SOL    HW2 5871   0.970   2.283   4.654
 1949SOL     OW 5872   0.539   1.926   4.236
 1949SOL    HW1 5873   0.458   1.927   4.294
 1949SOL    HW2 5874   0.542   2.009   4.181
 1950SOL     OW 5875   1.434   3.050   3.765
 1950SOL    HW1 5876   1.466   2.974   3.822
 1950SOL    HW2 5877   1.342   3.077   3.795
 1951SOL     OW 5878   0.297   1.897   3.895
 1951SOL    HW1 5879   0.346   1.981   3.874
 1951SOL    HW2 5880   0.359   1.832   3.940
 1952SOL     OW 5881   0.935   2.098   4.204
 1952SOL    HW1 5882   0.887   2.139   4.126
 1952SOL    HW2 5883   1.034   2.096   4.185
 1953SOL     OW 5884   1.076   2.545   5.188
 1953SOL    HW1 5885   0.996   2.484   5.191
 1953SOL    HW2 5886   1.157   2.492   5.164
 1954SOL     OW 5887   1.227   3.432   4.517
 1954SOL    HW1 5888   1.248   3.506   4.452
 1954SOL    HW2 5889   1.295   3.432   4.590
 1955SOL     OW 5890   0.459   3.014   4.465
 1955SOL    HW1 5891   0.388   2.987   4.530
 1955SOL    HW2 5892   0.433   2.986   4.372
 1956SOL     OW 5893   1.271   3.659   4.315
 1956SOL    HW1 5894   1.315   3.723   4.251
 1956SOL    HW2 5895   1.221   3.711   4.385
 1957SOL     OW 5896   1.032   2.411   3.740
 1957SOL    HW1 5897   0.991   2.493   3.701
 1957SOL    HW2 5898   1.096   2.437   3.813
 1958SOL     OW 5899   0.078   2.418   5.110
 1958SOL    HW1 5900   0.170   2.417   5.069
 1958SOL    HW2 5901   0.072   2.492   5.177
 1959SOL     OW 5902   0.561   2.084   4.871
 1959SOL    HW1 5903   0.599   2.000   4.908
 1959SOL    HW2 5904   0.473   2.103   4.915
 1960SOL     OW 5905   0.866   2.316   4.366
 1960SOL    HW1 5906   0.834   2.388   4.304
 1960SOL    HW2 5907   0.890   2.235   4.313
 1961SOL     OW 5908   1.017   1.901   4.477
 1961SOL    HW1 5909   0.945   1.906   4.408
 1961SOL    HW2 5910   0.993   1.832   4.546
 1962SOL     OW 5911   1.429   3.035   4.591
 1962SOL    HW1 5912   1.374   2.951   4.584
 1962SOL    HW2 5913   1.455   3.064   4.499
 1963SOL     OW 5914   1.466   2.452   4.716
 1963SOL    HW1 5915   1.436   2.357   4.723
 1963SOL    HW2 5916   1.539   2.468   4.782
 1964SOL     OW 5917   1.857   2.695   4.101
 1964SOL    HW1 5918   1.899   2.631   4.165
 1964SOL    HW2 5919   1.819   2.644   4.023
 1965SOL     OW 5920   0.488   3.247   3.898
 1965SOL    HW1 5921   0.401   3.232   3.945
 1965SOL    HW2 5922   0.471   3.273   3.803
 1966SOL     OW 5923   1.664   3.142   4.381
 1966SOL    HW1 5924   1.763   3.150   4.395
 1966SOL    HW2 5925   1.619   3.226   4.412
 1967SOL     OW 5926   1.390   2.437   3.802
 1967SOL    HW1 5927   1.336   2.416   3.883
 1967SOL    HW2 5928   1.481   2.396   3.811
 1968SOL     OW 5929   0.527   2.118   4.052
 1968SOL    HW1 5930   0.554   2.059   3.977
 1968SOL    HW2 5931   0.527   2.213   4.021
 1969SOL     OW 5932   1.754   3.085   5.312
 1969SOL    HW1 5933   1.845   3.046   5.299
 1969SOL    HW2 5934   1.762   3.181   5.336
 1970SOL     OW 5935   1.064   3.209   5.064
 1970SOL    HW1 5936   0.984   3.186   5.119
 1970SOL    HW2 5937   1.147   3.183   5.113
 1971SOL     OW 5938   1.592   3.491   5.349
 1971SOL    HW1 5939   1.619   3.525   5.259
 1971SOL    HW2 5940   1.671   3.453   5.395
 1972SOL     OW 5941   1.111   3.057   4.824
 1972SOL    HW1 5942   1.071   3.101   4.905
 1972SOL    HW2 5943   1.070   3.094   4.741
 1973SOL     OW 5944   1.638   2.961   4.803
 1973SOL    HW1 5945   1.643   3.042   4.862
 1973SOL    HW2 5946   1.552   2.963   4.752
 1974SOL     OW 5947   0.915   1.951   5.126
 1974SOL    HW1 5948   0.940   1.931   5.031
 1974SOL    HW2 5949   0.987   2.007   5.168
 1975SOL     OW 5950   0.980   2.978   5.443
 1975SOL    HW1 5951   0.881   2.984   5.453
 1975SOL    HW2 5952   1.003   2.898   5.387
 1976SOL     OW 5953   0.705   2.912   4.092
 1976SOL    HW1 5954   0.691   2.919   4.191
 1976SOL    HW2 5955   0.789   2.861   4.074
 1977SOL     OW 5956   0.410   2.675   4.975
 1977SOL    HW1 5957   0.496   2.687   5.025
 1977SOL    HW2 5958   0.368   2.588   5.002
 1978SOL     OW 5959   1.274   2.248   4.986
 1978SOL    HW1 5960   1.295   2.322   5.050
 1978SOL    HW2 5961   1.185   2.265   4.943
 1979SOL     OW 5962   0.064   3.426   5.055
 1979SOL    HW1 5963   0.018   3.508   5.021
 1979SOL    HW2 5964   0.162   3.445   5.064
 1980SOL     OW 5965   0.367   2.962   4.225
 1980SOL    HW1 5966   0.360   3.045   4.169
 1980SOL    HW2 5967   0.371   2.882   4.165
 1981SOL     OW 5968   0.566   2.399   4.589
 1981SOL    HW1 5969   0.578   2.465   4.515
 1981SOL    HW2 5970   0.612   2.433   4.672
 1982SOL     OW 5971   1.252   3.210   4.112
 1982SOL    HW1 5972   1.302   3.287   4.152
 1982SOL    HW2 5973   1.157   3.212   4.144
 1983SOL     OW 5974   1.272   3.307   4.866
 1983SOL    HW1 5975   1.319   3.320   4.953
 1983SOL    HW2 5976   1.206   3.233   4.875
 1984SOL     OW 5977   1.582   2.501   4.196
 1984SOL    HW1 5978   1.551   2.562   4.269
 1984SOL    HW2 5979   1.632   2.553   4.127
 1985SOL     OW 5980   0.354   3.372   5.053
 1985SOL    HW1 5981   0.333   3.328   4.966
 1985SOL    HW2 5982   0.451   3.398   5.056
 1986SOL     OW 5983   0.402   2.613   5.322
 1986SOL    HW1 5984   0.470   2.668   5.275
 1986SOL    HW2 5985   0.442   2.525   5.349
 1987SOL     OW 5986   1.587   2.641   5.394
 1987SOL    HW1 5987   1.495   2.679   5.389
 1987SOL    HW2 5988   1.647   2.688   5.329
 1988SOL     OW 5989   1.013   1.967   5.494
 1988SOL    HW1 5990   1.019   2.052   5.442
 1988SOL    HW2 5991   1.045   1.891   5.437
 1989SOL     OW 5992   0.504   1.912   5.464
 1989SOL    HW1 5993   0.462   1.855   5.394
 1989SOL    HW2 5994   0.438   1.981   5.496
 1990SOL     OW 5995   0.573   2.732   4.753
 1990SOL    HW1 5996   0.617   2.821   4.744
 1990SOL    HW2 5997   0.510   2.732   4.830
 1991SOL     OW 5998   1.360   2.724   4.769
 1991SOL    HW1 5999   1.285   2.724   4.703
 1991SOL    HW2 6000   1.397   2.632   4.778
 1992SOL     OW 6001   1.209   2.387   3.999
 1992SOL    HW1 6002   1.222   2.303   4.053
 1992SOL    HW2 6003   1.180   2.461   4.059
 1993SOL     OW 6004   0.307   2.075   4.955
 1993SOL    HW1 6005   0.284   2.112   5.045
 1993SOL    HW2 6006   0.277   1.980   4.949
 1994SOL     OW 6007   0.037   3.172   5.006
 1994SOL    HW1 6008   0.090   3.123   5.074
 1994SOL    HW2 6009   0.059   3.270   5.011
 1995SOL     OW 6010   0.732   2.496   4.788
 1995SOL    HW1 6011   0.791   2.470   4.712
 1995SOL    HW2 6012   0.704   2.592   4.777
 1996SOL     OW 6013   1.728   2.797   5.578
 1996SOL    HW1 6014   1.682   2.790   5.489
 1996SOL    HW2 6015   1.666   2.841   5.644
 1997SOL     OW 6016   0.307   1.925   4.342
 1997SOL    HW1 6017   0.296   2.019   4.375
 1997SOL    HW2 6018   0.302   1.862   4.419
 1998SOL     OW 6019   1.622   2.229   4.098
 1998SOL    HW1 6020   1.624   2.153   4.162
 1998SOL    HW2 6021   1.574   2.306   4.138
 1999SOL     OW 6022   1.023   2.628   4.690
 1999SOL    HW1 6023   1.038   2.649   4.786
 1999SOL    HW2 6024   0.993   2.533   4.681
 2000SOL     OW 6025   0.980   3.435   5.424
 2000SOL    HW1 6026   0.960   3.479   5.336
 2000SOL    HW2 6027   1.019   3.344   5.408
 2001SOL     OW 6028   1.859   3.380   5.329
 2001SOL    HW1 6029   1.873   3.407   5.234
 2001SOL    HW2 6030   1.942   3.402   5.382
 2002SOL     OW 6031   0.350   2.760   5.528
 2002SOL    HW1 6032   0.426   2.804   5.576
 2002SOL    HW2 6033   0.385   2.713   5.446
 2003SOL     OW 6034   1.540   2.136   3.849
 2003SOL    HW1 6035   1.479   2.061   3.872
 2003SOL    HW2 6036   1.562   2.188   3.932
 2004SOL     OW 6037   1.303   2.700   3.766
 2004SOL    HW1 6038   1.337   2.607   3.781
 2004SOL    HW2 6039   1.321   2.727   3.671
 2005SOL     OW 6040   1.068   3.195   4.573
 2005SOL    HW1 6041   1.075   3.111   4.518
 2005SOL    HW2 6042   1.130   3.264   4.537
 2006SOL     OW 6043   0.319   2.672   4.673
 2006SOL    HW1 6044   0.412   2.708   4.678
 2006SOL    HW2 6045   0.313   2.587   4.725
 2007SOL     OW 6046   0.339   2.371   4.730
 2007SOL    HW1 6047   0.287   2.288   4.713
 2007SOL    HW2 6048   0.416   2.376   4.666
 2008SOL     OW 6049   1.138   2.242   5.402
 2008SOL    HW1 6050   1.093   2.305   5.466
 2008SOL    HW2 6051   1.231   2.273   5.385
 2009SOL     OW 6052   1.160   2.069   5.201
 2009SOL    HW1 6053   1.160   2.133   5.278
 2009SOL    HW2 6054   1.188   2.117   5.118
 2010SOL     OW 6055   0.008   3.188   3.924
 2010SOL    HW1 6056  -0.085   3.209   3.893
 2010SOL    HW2 6057   0.018   3.089   3.937
 2011SOL     OW 6058   0.088   3.663   4.651
 2011SOL    HW1 6059   0.046   3.577   4.624
 2011SOL    HW2 6060   0.182   3.666   4.617
 2012SOL     OW 6061   0.504   3.430   4.634
 2012SOL    HW1 6062   0.570   3.504   4.643
 2012SOL    HW2 6063   0.548   3.351   4.592
 2013SOL     OW 6064   1.002   2.658   4.962
 2013SOL    HW1 6065   1.043   2.626   5.048
 2013SOL    HW2 6066   0.906   2.631   4.959
 2014SOL     OW 6067   0.040   2.406   4.838
 2014SOL    HW1 6068   0.125   2.373   4.797
 2014SOL    HW2 6069   0.053   2.421   4.936
 2015SOL     OW 6070   0.189   2.382   5.446
 2015SOL    HW1 6071   0.248   2.342   5.376
 2015SOL    HW2 6072   0.131   2.453   5.405
 2016SOL     OW 6073   1.369   2.812   5.384
 2016SOL    HW1 6074   1.408   2.901   5.404
 2016SOL    HW2 6075   1.379   2.792   5.287
 2017SOL     OW 6076   0.815   2.434   4.049
 2017SOL    HW1 6077   0.822   2.345   4.003
 2017SOL    HW2 6078   0.721   2.468   4.041
 2018SOL     OW 6079   1.657   2.466   4.930
 2018SOL    HW1 6080   1.619   2.397   4.992
 2018SOL    HW2 6081   1.739   2.430   4.886
 2019SOL     OW 6082   0.252   3.426   5.468
 2019SOL    HW1 6083   0.222   3.483   5.544
 2019SOL    HW2 6084   0.245   3.329   5.494
 2020SOL     OW 6085   0.671   2.326   4.993
 2020SOL    HW1 6086   0.637   2.237   4.963
 2020SOL    HW2 6087   0.697   2.380   4.913
 2021SOL     OW 6088   0.930   3.540   5.189
 2021SOL    HW1 6089   0.906   3.522   5.094
 2021SOL    HW2 6090   0.960   3.634   5.199
 2022SOL     OW 6091   0.473   2.362   3.915
 2022SOL    HW1 6092   0.534   2.442   3.919
 2022SOL    HW2 6093   0.378   2.393   3.922
 2023SOL     OW 6094   0.159   2.999   5.190
 2023SOL    HW1 6095   0.181   2.938   5.266
 2023SOL    HW2 6096   0.169   2.950   5.104
 2024SOL     OW 6097   1.347   2.921   4.958
 2024SOL    HW1 6098   1.371   2.858   4.884
 2024SOL    HW2 6099   1.257   2.961   4.940
 2025SOL     OW 6100   1.302   2.717   4.033
 2025SOL    HW1 6101   1.216   2.686   4.075
 2025SOL    HW2 6102   1.298   2.703   3.934
 2026SOL     OW 6103   1.759   3.609   4.878
 2026SOL    HW1 6104   1.820   3.639   4.805
 2026SOL    HW2 6105   1.721   3.520   4.856
 2027SOL     OW 6106   1.252   3.593   4.852
 2027SOL    HW1 6107   1.336   3.598   4.798
 2027SOL    HW2 6108   1.229   3.497   4.870
 2028SOL     OW 6109   0.083   3.120   4.746
 2028SOL    HW1 6110   0.078   3.119   4.846
 2028SOL    HW2 6111   0.000   3.079   4.708
 2029SOL     OW 6112   0.688   3.524   5.440
 2029SOL    HW1 6113   0.632   3.605   5.449
 2029SOL    HW2 6114   0.740   3.528   5.354
 2030SOL     OW 6115   1.726   1.997   4.247
 2030SOL    HW1 6116   1.799   1.980   4.180
 2030SOL    HW2 6117   1.695   1.910   4.285
 2031SOL     OW 6118   1.388   3.435   4.201
 2031SOL    HW1 6119   1.455   3.447   4.127
 2031SOL    HW2 6120   1.348   3.524   4.224
 2032SOL     OW 6121   0.130   3.656   5.575
 2032SOL    HW1 6122   0.089   3.582   5.628
 2032SOL    HW2 6123   0.194   3.707   5.633
 2033SOL     OW 6124   1.280   2.789   4.396
 2033SOL    HW1 6125   1.340   2.708   4.398
 2033SOL    HW2 6126   1.320   2.858   4.336
 2034SOL     OW 6127   0.830   3.135   5.146
 2034SOL    HW1 6128   0.825   3.168   5.241
 2034SOL    HW2 6129   0.744   3.154   5.100
 2035SOL     OW 6130   0.672   3.478   3.878
 2035SOL    HW1 6131   0.681   3.488   3.779
 2035SOL    HW2 6132   0.632   3.389   3.899
 2036SOL     OW 6133   1.650   3.582   5.118
 2036SOL    HW1 6134   1.703   3.592   5.034
 2036SOL    HW2 6135   1.623   3.672   5.152
 2037SOL     OW 6136   1.841   2.037   4.687
 2037SOL    HW1 6137   1.880   1.952   4.651
 2037SOL    HW2 6138   1.743   2.039   4.668
 2038SOL     OW 6139   0.263   2.188   4.444
 2038SOL    HW1 6140   0.184   2.239   4.410
 2038SOL    HW2 6141   0.254   2.173   4.542
 2039SOL     OW 6142   1.194   3.474   3.755
 2039SOL    HW1 6143   1.200   3.381   3.792
 2039SOL    HW2 6144   1.135   3.474   3.675
 2040SOL     OW 6145   0.822   2.864   5.096
 2040SOL    HW1 6146   0.862   2.863   5.004
 2040SOL    HW2 6147   0.832   2.956   5.136
 2041SOL     OW 6148   0.916   2.772   4.015
 2041SOL    HW1 6149   0.979   2.810   3.947
 2041SOL    HW2 6150   0.956   2.689   4.054
 2042SOL     OW 6151   1.504   3.469   3.768
 2042SOL    HW1 6152   1.412   3.506   3.775
 2042SOL    HW2 6153   1.542   3.489   3.678
 2043SOL     OW 6154   0.372   3.150   5.214
 2043SOL    HW1 6155   0.359   3.243   5.180
 2043SOL    HW2 6156   0.288   3.098   5.201
 2044SOL     OW 6157   1.614   3.154   5.013
 2044SOL    HW1 6158   1.674   3.157   5.093
 2044SOL    HW2 6159   1.539   3.218   5.026
 2045SOL     OW 6160   1.039   2.960   4.420
 2045SOL    HW1 6161   0.969   2.913   4.474
 2045SOL    HW2 6162   1.098   2.892   4.377
 2046SOL     OW 6163   1.014   2.098   4.695
 2046SOL    HW1 6164   1.006   2.062   4.602
 2046SOL    HW2 6165   1.012   2.022   4.760
 2047SOL     OW 6166   0.590   3.349   4.215
 2047SOL    HW1 6167   0.632   3.291   4.145
 2047SOL    HW2 6168   0.546   3.428   4.171
 2048SOL     OW 6169   1.709   2.247   5.105
 2048SOL    HW1 6170   1.782   2.316   5.109
 2048SOL    HW2 6171   1.737   2.172   5.046
 2049SOL     OW 6172   0.255   3.210   4.014
 2049SOL    HW1 6173   0.159   3.211   3.987
 2049SOL    HW2 6174   0.267   3.263   4.098
 2050SOL     OW 6175   0.105   2.875   5.450
 2050SOL    HW1 6176   0.028   2.842   5.504
 2050SOL    HW2 6177   0.190   2.845   5.492
 2051SOL     OW 6178   0.672   2.065   5.213
 2051SOL    HW1 6179   0.762   2.049   5.173
 2051SOL    HW2 6180   0.680   2.070   5.312
 2052SOL     OW 6181   0.075   2.207   3.757
 2052SOL    HW1 6182  -0.017   2.179   3.728
 2052SOL    HW2 6183   0.106   2.284   3.701
 2053SOL     OW 6184   1.440   2.718   5.122
 2053SOL    HW1 6185   1.383   2.770   5.059
 2053SOL    HW2 6186   1.536   2.730   5.098
 2054SOL     OW 6187   0.072   2.028   4.042
 2054SOL    HW1 6188   0.055   2.111   3.988
 2054SOL    HW2 6189   0.162   1.991   4.020
 2055SOL     OW 6190   1.183   3.197   3.843
 2055SOL    HW1 6191   1.084   3.186   3.845
 2055SOL    HW2 6192   1.217   3.212   3.936
 2056SOL     OW 6193   0.613   2.704   5.155
 2056SOL    HW1 6194   0.669   2.785   5.138
 2056SOL    HW2 6195   0.672   2.624   5.158
 2057SOL     OW 6196   1.493   3.629   4.683
 2057SOL    HW1 6197   1.526   3.693   4.614
 2057SOL    HW2 6198   1.559   3.623   4.758
 2058SOL     OW 6199   0.716   2.427   5.432
 2058SOL    HW1 6200   0.735   2.492   5.506
 2058SOL    HW2 6201   0.776   2.347   5.441
 2059SOL     OW 6202   1.450   3.082   5.357
 2059SOL    HW1 6203   1.441   3.072   5.456
 2059SOL    HW2 6204   1.546   3.075   5.331
 2060SOL     OW 6205   0.390   3.603   5.284
 2060SOL    HW1 6206   0.299   3.644   5.282
 2060SOL    HW2 6207   0.383   3.509   5.316
 2061SOL     OW 6208   1.674   2.745   4.978
 2061SOL    HW1 6209   1.647   2.656   4.941
 2061SOL    HW2 6210   1.675   2.813   4.905
 2062SOL     OW 6211   1.225   2.187   4.173
 2062SOL    HW1 6212   1.290   2.113   4.162
 2062SOL    HW2 6213   1.245   2.237   4.257
 2063SOL     OW 6214   0.594   2.607   4.376
 2063SOL    HW1 6215   0.644   2.692   4.357
 2063SOL    HW2 6216   0.506   2.609   4.328
 2064SOL     OW 6217   1.777   2.204   5.366
 2064SOL    HW1 6218   1.760   2.235   5.272
 2064SOL    HW2 6219   1.693   2.167   5.404
 2065SOL     OW 6220   1.730   2.796   5.241
 2065SOL    HW1 6221   1.768   2.887   5.256
 2065SOL    HW2 6222   1.722   2.779   5.142
 2066SOL     OW 6223   0.859   3.236   3.740
 2066SOL    HW1 6224   0.813   3.251   3.828
 2066SOL    HW2 6225   0.903   3.321   3.710
 2067SOL     OW 6226   0.661   3.652   4.677
 2067SOL    HW1 6227   0.615   3.740   4.664
 2067SOL    HW2 6228   0.760   3.664   4.670
 2068SOL     OW 6229   0.859   2.818   4.585
 2068SOL    HW1 6230   0.913   2.749   4.633
 2068SOL    HW2 6231   0.827   2.887   4.651
 2069SOL     OW 6232   1.083   2.846   3.811
 2069SOL    HW1 6233   1.060   2.899   3.729
 2069SOL    HW2 6234   1.164   2.790   3.792
 2070SOL     OW 6235   1.861   3.431   4.575
 2070SOL    HW1 6236   1.790   3.419   4.505
 2070SOL    HW2 6237   1.862   3.352   4.635
 2071SOL     OW 6238   0.221   3.176   5.568
 2071SOL    HW1 6239   0.156   3.103   5.547
 2071SOL    HW2 6240   0.225   3.190   5.666
 2072SOL     OW 6241   0.079   3.102   4.377
 2072SOL    HW1 6242   0.078   3.055   4.465
 2072SOL    HW2 6243   0.161   3.074   4.326
 2073SOL     OW 6244   0.672   3.253   5.348
 2073SOL    HW1 6245   0.594   3.203   5.386
 2073SOL    HW2 6246   0.669   3.348   5.379
 2074SOL     OW 6247   1.824   2.054   4.951
 2074SOL    HW1 6248   1.820   1.964   4.995
 2074SOL    HW2 6249   1.827   2.043   4.852
 2075SOL     OW 6250   0.428   2.286   4.244
 2075SOL    HW1 6251   0.458   2.214   4.182
 2075SOL    HW2 6252   0.389   2.246   4.327
 2076SOL     OW 6253   1.705   3.349   4.828
 2076SOL    HW1 6254   1.612   3.324   4.801
 2076SOL    HW2 6255   1.731   3.299   4.910
 2077SOL     OW 6256   0.317   2.409   5.004
 2077SOL    HW1 6257   0.355   2.350   5.076
 2077SOL    HW2 6258   0.357   2.383   4.916
 2078SOL     OW 6259   0.812   3.448   4.411
 2078SOL    HW1 6260   0.844   3.458   4.317
 2078SOL    HW2 6261   0.733   3.386   4.413
 2079SOL     OW 6262   1.424   2.076   4.836
 2079SOL    HW1 6263   1.476   2.011   4.891
 2079SOL    HW2 6264   1.375   2.139   4.897
 2080SOL     OW 6265   1.001   1.896   4.878
 2080SOL    HW1 6266   0.938   1.824   4.847
 2080SOL    HW2 6267   1.094   1.860   4.878
 2081SOL     OW 6268   0.770   3.192   4.025
 2081SOL    HW1 6269   0.724   3.105   4.042
 2081SOL    HW2 6270   0.861   3.189   4.066
 2082SOL     OW 6271   0.618   3.429   5.008
 2082SOL    HW1 6272   0.613   3.511   5.065
 2082SOL    HW2 6273   0.707   3.426   4.963
 2083SOL     OW 6274   1.352   1.914   3.892
 2083SOL    HW1 6275   1.387   1.873   3.808
 2083SOL    HW2 6276   1.262   1.876   3.912
 2084SOL     OW 6277   1.300   2.315   4.415
 2084SOL    HW1 6278   1.241   2.395   4.419
 2084SOL    HW2 6279   1.315   2.280   4.508
 2085SOL     OW 6280   1.593   2.083   4.606
 2085SOL    HW1 6281   1.509   2.082   4.660
 2085SOL    HW2 6282   1.595   2.166   4.550
 2086SOL     OW 6283   0.039   2.939   4.024
 2086SOL    HW1 6284   0.138   2.928   4.015
 2086SOL    HW2 6285  -0.001   2.853   4.056
 2087SOL     OW 6286   0.875   3.508   4.061
 2087SOL    HW1 6287   0.798   3.473   4.007
 2087SOL    HW2 6288   0.843   3.579   4.123
 2088SOL     OW 6289   0.230   2.490   5.699
 2088SOL    HW1 6290   0.137   2.488   5.736
 2088SOL    HW2 6291   0.231   2.451   5.607
 2089SOL     OW 6292   0.225   2.137   6.582
 2089SOL    HW1 6293   0.260   2.120   6.674
 2089SOL    HW2 6294   0.137   2.092   6.570
 2090SOL     OW 6295   0.019   2.230   6.233
 2090SOL    HW1 6296  -0.063   2.273   6.272
 2090SOL    HW2 6297  -0.009   2.157   6.170
 2091SOL     OW 6298   0.569   3.137   6.751
 2091SOL    HW1 6299   0.476   3.130   6.714
 2091SOL    HW2 6300   0.580   3.226   6.795
 2092SOL     OW 6301   1.555   3.373   6.289
 2092SOL    HW1 6302   1.498   3.357   6.370
 2092SOL    HW2 6303   1.496   3.383   6.209
 2093SOL     OW 6304   1.135   2.565   6.303
 2093SOL    HW1 6305   1.192   2.643   6.278
 2093SOL    HW2 6306   1.075   2.591   6.379
 2094SOL     OW 6307   1.755   2.469   5.817
 2094SOL    HW1 6308   1.743   2.456   5.718
 2094SOL    HW2 6309   1.725   2.388   5.866
 2095SOL     OW 6310   0.768   3.006   6.609
 2095SOL    HW1 6311   0.690   3.023   6.669
 2095SOL    HW2 6312   0.802   3.093   6.573
 2096SOL     OW 6313   0.850   2.660   7.409
 2096SOL    HW1 6314   0.846   2.736   7.474
 2096SOL    HW2 6315   0.872   2.696   7.318
 2097SOL     OW 6316   0.685   2.874   6.251
 2097SOL    HW1 6317   0.754   2.858   6.321
 2097SOL    HW2 6318   0.612   2.931   6.289
 2098SOL     OW 6319   0.686   3.023   7.389
 2098SOL    HW1 6320   0.746   3.102   7.403
 2098SOL    HW2 6321   0.600   3.054   7.348
 2099SOL     OW 6322   0.335   3.297   6.647
 2099SOL    HW1 6323   0.257   3.266   6.594
 2099SOL    HW2 6324   0.393   3.355   6.590
 2100SOL     OW 6325   1.460   3.367   6.925
 2100SOL    HW1 6326   1.484   3.461   6.951
 2100SOL    HW2 6327   1.444   3.313   7.007
 2101SOL     OW 6328   0.438   2.254   7.085
 2101SOL    HW1 6329   0.520   2.198   7.094
 2101SOL    HW2 6330   0.357   2.196   7.089
 2102SOL     OW 6331   1.603   2.309   6.323
 2102SOL    HW1 6332   1.529   2.355   6.273
 2102SOL    HW2 6333   1.654   2.377   6.376
 2103SOL     OW 6334   0.231   3.575   6.069
 2103SOL    HW1 6335   0.265   3.652   6.123
 2103SOL    HW2 6336   0.275   3.575   5.979
 2104SOL     OW 6337   1.127   3.203   7.276
 2104SOL    HW1 6338   1.174   3.203   7.364
 2104SOL    HW2 6339   1.079   3.116   7.265
 2105SOL     OW 6340   0.230   3.296   6.124
 2105SOL    HW1 6341   0.204   3.392   6.124
 2105SOL    HW2 6342   0.159   3.242   6.169
 2106SOL     OW 6343   0.240   2.953   6.472
 2106SOL    HW1 6344   0.254   2.869   6.524
 2106SOL    HW2 6345   0.185   3.017   6.527
 2107SOL     OW 6346   0.620   3.648   7.025
 2107SOL    HW1 6347   0.528   3.631   7.060
 2107SOL    HW2 6348   0.648   3.740   7.051
 2108SOL     OW 6349   0.606   2.826   5.709
 2108SOL    HW1 6350   0.613   2.910   5.655
 2108SOL    HW2 6351   0.652   2.839   5.797
 2109SOL     OW 6352   1.594   1.976   7.066
 2109SOL    HW1 6353   1.576   2.043   6.994
 2109SOL    HW2 6354   1.591   2.022   7.155
 2110SOL     OW 6355   0.122   2.505   6.149
 2110SOL    HW1 6356   0.077   2.417   6.166
 2110SOL    HW2 6357   0.121   2.559   6.233
 2111SOL     OW 6358   1.842   3.629   5.945
 2111SOL    HW1 6359   1.896   3.600   6.025
 2111SOL    HW2 6360   1.872   3.719   5.916
 2112SOL     OW 6361   0.027   3.458   5.703
 2112SOL    HW1 6362   0.008   3.362   5.724
 2112SOL    HW2 6363  -0.006   3.516   5.778
 2113SOL     OW 6364   1.689   2.784   6.198
 2113SOL    HW1 6365   1.784   2.755   6.206
 2113SOL    HW2 6366   1.681   2.849   6.123
 2114SOL     OW 6367   1.641   2.970   6.018
 2114SOL    HW1 6368   1.727   2.972   5.966
 2114SOL    HW2 6369   1.655   3.017   6.106
 2115SOL     OW 6370   0.113   2.599   7.183
 2115SOL    HW1 6371   0.201   2.586   7.228
 2115SOL    HW2 6372   0.100   2.696   7.161
 2116SOL     OW 6373   0.613   3.227   6.312
 2116SOL    HW1 6374   0.564   3.140   6.321
 2116SOL    HW2 6375   0.590   3.270   6.225
 2117SOL     OW 6376   1.293   3.090   7.009
 2117SOL    HW1 6377   1.330   3.017   6.951
 2117SOL    HW2 6378   1.345   3.095   7.094
 2118SOL     OW 6379   0.809   1.866   6.088
 2118SOL    HW1 6380   0.849   1.957   6.079
 2118SOL    HW2 6381   0.709   1.874   6.094
 2119SOL     OW 6382   0.197   2.838   6.850
 2119SOL    HW1 6383   0.286   2.793   6.836
 2119SOL    HW2 6384   0.124   2.773   6.831
 2120SOL     OW 6385   1.525   2.861   5.776
 2120SOL    HW1 6386   1.462   2.785   5.789
 2120SOL    HW2 6387   1.573   2.879   5.862
 2121SOL     OW 6388   1.187   3.654   7.202
 2121SOL    HW1 6389   1.211   3.714   7.126
 2121SOL    HW2 6390   1.194   3.559   7.172
 2122SOL     OW 6391   0.317   2.113   7.387
 2122SOL    HW1 6392   0.388   2.184   7.393
 2122SOL    HW2 6393   0.229   2.152   7.415
 2123SOL     OW 6394   1.466   3.279   6.539
 2123SOL    HW1 6395   1.407   3.285   6.619
 2123SOL    HW2 6396   1.451   3.191   6.493
 2124SOL     OW 6397   1.667   3.576   6.158
 2124SOL    HW1 6398   1.626   3.553   6.070
 2124SOL    HW2 6399   1.649   3.502   6.223
 2125SOL     OW 6400   0.598   2.591   5.856
 2125SOL    HW1 6401   0.622   2.660   5.788
 2125SOL    HW2 6402   0.520   2.624   5.910
 2126SOL     OW 6403   1.281   2.207   6.530
 2126SOL    HW1 6404   1.195   2.157   6.517
 2126SOL    HW2 6405   1.343   2.153   6.586
 2127SOL     OW 6406   1.576   3.524   5.893
 2127SOL    HW1 6407   1.665   3.570   5.896
 2127SOL    HW2 6408   1.555   3.500   5.798
 2128SOL     OW 6409   0.807   2.467   7.051
 2128SOL    HW1 6410   0.760   2.464   7.140
 2128SOL    HW2 6411   0.756   2.412   6.985
 2129SOL     OW 6412   1.394   2.331   7.260
 2129SOL    HW1 6413   1.374   2.374   7.348
 2129SOL    HW2 6414   1.472   2.269   7.269
 2130SOL     OW 6415   0.973   2.752   7.158
 2130SOL    HW1 6416   1.019   2.668   7.129
 2130SOL    HW2 6417   0.917   2.786   7.083
 2131SOL     OW 6418   0.991   2.272   6.828
 2131SOL    HW1 6419   0.914   2.306   6.882
 2131SOL    HW2 6420   0.957   2.221   6.749
 2132SOL     OW 6421   1.041   2.563   6.015
 2132SOL    HW1 6422   1.067   2.559   6.111
 2132SOL    HW2 6423   0.956   2.512   6.001
 2133SOL     OW 6424   0.076   2.673   6.375
 2133SOL    HW1 6425   0.175   2.661   6.384
 2133SOL    HW2 6426   0.052   2.768   6.396
 2134SOL     OW 6427   0.130   3.683   7.157
 2134SOL    HW1 6428   0.120   3.668   7.256
 2134SOL    HW2 6429   0.044   3.719   7.121
 2135SOL     OW 6430   0.865   2.210   5.781
 2135SOL    HW1 6431   0.924   2.273   5.732
 2135SOL    HW2 6432   0.884   2.116   5.752
 2136SOL     OW 6433   1.719   2.447   7.417
 2136SOL    HW1 6434   1.693   2.536   7.381
 2136SOL    HW2 6435   1.717   2.379   7.344
 2137SOL     OW 6436   1.362   3.006   6.131
 2137SOL    HW1 6437   1.445   2.977   6.083
 2137SOL    HW2 6438   1.313   3.073   6.075
 2138SOL     OW 6439   0.550   2.058   6.471
 2138SOL    HW1 6440   0.545   2.053   6.571
 2138SOL    HW2 6441   0.552   2.154   6.442
 2139SOL     OW 6442   1.008   3.318   6.063
 2139SOL    HW1 6443   0.962   3.390   6.011
 2139SOL    HW2 6444   1.004   3.338   6.161
 2140SOL     OW 6445   0.351   3.663   6.439
 2140SOL    HW1 6446   0.401   3.577   6.445
 2140SOL    HW2 6447   0.416   3.740   6.436
 2141SOL     OW 6448   1.795   2.928   6.459
 2141SOL    HW1 6449   1.733   2.913   6.383
 2141SOL    HW2 6450   1.743   2.939   6.544
 2142SOL     OW 6451   1.227   3.412   7.092
 2142SOL    HW1 6452   1.233   3.335   7.156
 2142SOL    HW2 6453   1.175   3.386   7.012
 2143SOL     OW 6454   0.321   2.805   5.828
 2143SOL    HW1 6455   0.403   2.844   5.786
 2143SOL    HW2 6456   0.294   2.723   5.779
 2144SOL     OW 6457   1.458   2.597   6.314
 2144SOL    HW1 6458   1.453   2.532   6.389
 2144SOL    HW2 6459   1.538   2.656   6.327
 2145SOL     OW 6460   0.461   3.128   7.313
 2145SOL    HW1 6461   0.411   3.129   7.227
 2145SOL    HW2 6462   0.398   3.110   7.389
 2146SOL     OW 6463   1.111   3.638   5.823
 2146SOL    HW1 6464   1.051   3.576   5.873
 2146SOL    HW2 6465   1.142   3.594   5.738
 2147SOL     OW 6466   0.202   2.147   7.084
 2147SOL    HW1 6467   0.122   2.207   7.071
 2147SOL    HW2 6468   0.192   2.098   7.170
 2148SOL     OW 6469   1.632   3.239   5.667
 2148SOL    HW1 6470   1.600   3.333   5.657
 2148SOL    HW2 6471   1.556   3.176   5.655
 2149SOL     OW 6472   0.464   3.605   5.909
 2149SOL    HW1 6473   0.497   3.644   5.995
 2149SOL    HW2 6474   0.540   3.598   5.844
 2150SOL     OW 6475   1.400   1.969   6.012
 2150SOL    HW1 6476   1.376   1.932   5.922
 2150SOL    HW2 6477   1.499   1.985   6.016
 2151SOL     OW 6478   0.249   3.647   6.827
 2151SOL    HW1 6479   0.306   3.582   6.877
 2151SOL    HW2 6480   0.233   3.614   6.734
 2152SOL     OW 6481   0.940   3.560   6.490
 2152SOL    HW1 6482   1.020   3.503   6.511
 2152SOL    HW2 6483   0.891   3.520   6.413
 2153SOL     OW 6484   0.382   2.562   6.066
 2153SOL    HW1 6485   0.427   2.472   6.063
 2153SOL    HW2 6486   0.288   2.551   6.099
 2154SOL     OW 6487   1.547   2.084   7.315
 2154SOL    HW1 6488   1.542   2.121   7.407
 2154SOL    HW2 6489   1.475   2.015   7.303
 2155SOL     OW 6490   0.614   1.984   5.703
 2155SOL    HW1 6491   0.712   1.962   5.710
 2155SOL    HW2 6492   0.583   1.967   5.610
 2156SOL     OW 6493   0.781   2.126   7.335
 2156SOL    HW1 6494   0.848   2.065   7.378
 2156SOL    HW2 6495   0.708   2.145   7.400
 2157SOL     OW 6496   0.888   3.376   6.781
 2157SOL    HW1 6497   0.865   3.351   6.687
 2157SOL    HW2 6498   0.949   3.307   6.820
 2158SOL     OW 6499   1.351   2.452   7.019
 2158SOL    HW1 6500   1.379   2.409   7.104
 2158SOL    HW2 6501   1.376   2.548   7.020
 2159SOL     OW 6502   0.803   3.264   6.510
 2159SOL    HW1 6503   0.893   3.278   6.468
 2159SOL    HW2 6504   0.732   3.266   6.439
 2160SOL     OW 6505   0.922   2.365   6.485
 2160SOL    HW1 6506   0.897   2.356   6.389
 2160SOL    HW2 6507   0.970   2.283   6.516
 2161SOL     OW 6508   0.539   1.926   6.098
 2161SOL    HW1 6509   0.458   1.927   6.156
 2161SOL    HW2 6510   0.542   2.009   6.043
 2162SOL     OW 6511   1.434   3.050   5.627
 2162SOL    HW1 6512   1.466   2.974   5.684
 2162SOL    HW2 6513   1.342   3.077   5.657
 2163SOL     OW 6514   0.297   1.897   5.757
 2163SOL    HW1 6515   0.346   1.981   5.736
 2163SOL    HW2 6516   0.359   1.832   5.802
 2164SOL     OW 6517   0.935   2.098   6.066
 2164SOL    HW1 6518   0.887   2.139   5.988
 2164SOL    HW2 6519   1.034   2.096   6.047
 2165SOL     OW 6520   1.076   2.545   7.050
 2165SOL    HW1 6521   0.996   2.484   7.053
 2165SOL    HW2 6522   1.157   2.492   7.026
 2166SOL     OW 6523   1.227   3.432   6.379
 2166SOL    HW1 6524   1.248   3.506   6.314
 2166SOL    HW2 6525   1.295   3.432   6.452
 2167SOL     OW 6526   0.459   3.014   6.327
 2167SOL    HW1 6527   0.388   2.987   6.392
 2167SOL    HW2 6528   0.433   2.986   6.234
 2168SOL     OW 6529   1.271   3.659   6.177
 2168SOL    HW1 6530   1.315   3.723   6.113
 2168SOL    HW2 6531   1.221   3.711   6.247
 2169SOL     OW 6532   1.032   2.411   5.602
 2169SOL    HW1 6533   0.991   2.493   5.563
 2169SOL    HW2 6534   1.096   2.437   5.675
 2170SOL     OW 6535   0.078   2.418   6.972
 2170SOL    HW1 6536   0.170   2.417   6.931
 2170SOL    HW2 6537   0.072   2.492   7.039
 2171SOL     OW 6538   0.561   2.084   6.733
 2171SOL    HW1 6539   0.599   2.000   6.770
 2171SOL    HW2 6540   0.473   2.103   6.777
 2172SOL     OW 6541   0.866   2.316   6.228
 2172SOL    HW1 6542   0.834   2.388   6.166
 2172SOL    HW2 6543   0.890   2.235   6.175
 2173SOL     OW 6544   1.017   1.901   6.339
 2173SOL    HW1 6545   0.945   1.906   6.270
 2173SOL    HW2 6546   0.993   1.832   6.408
 2174SOL     OW 6547   1.429   3.035   6.453
 2174SOL    HW1 6548   1.374   2.951   6.446
 2174SOL    HW2 6549   1.455   3.064   6.361
 2175SOL     OW 6550   1.466   2.452   6.578
 2175SOL    HW1 6551   1.436   2.357   6.585
 2175SOL    HW2 6552   1.539   2.468   6.644
 2176SOL     OW 6553   1.857   2.695   5.963
 2176SOL    HW1 6554   1.899   2.631   6.027
 2176SOL    HW2 6555   1.819   2.644   5.885
 2177SOL     OW 6556   0.488   3.247   5.760
 2177SOL    HW1 6557   0.401   3.232   5.807
 2177SOL    HW2 6558   0.471   3.273   5.665
 2178SOL     OW 6559   1.664   3.142   6.243
 2178SOL    HW1 6560   1.763   3.150   6.257
 2178SOL    HW2 6561   1.619   3.226   6.274
 2179SOL     OW 6562   1.390   2.437   5.664
 2179SOL    HW1 6563   1.336   2.416   5.745
 2179SOL    HW2 6564   1.481   2.396   5.673
 2180SOL     OW 6565   0.527   2.118   5.914
 2180SOL    HW1 6566   0.554   2.059   5.839
 2180SOL    HW2 6567   0.527   2.213   5.883
 2181SOL     OW 6568   1.754   3.085   7.174
 2181SOL    HW1 6569   1.845   3.046   7.161
 2181SOL    HW2 6570   1.762   3.181   7.198
 2182SOL     OW 6571   1.064   3.209   6.926
 2182SOL    HW1 6572   0.984   3.186   6.981
 2182SOL    HW2 6573   1.147   3.183   6.975
 2183SOL     OW 6574   1.592   3.491   7.211
 2183SOL    HW1 6575   1.619   3.525   7.121
 2183SOL    HW2 6576   1.671   3.453   7.257
 2184SOL     OW 6577   1.111   3.057   6.686
 2184SOL    HW1 6578   1.071   3.101   6.767
 2184SOL    HW2 6579   1.070   3.094   6.603
 2185SOL     OW 6580   1.638   2.961   6.665
 2185SOL    HW1 6581   1.643   3.042   6.724
 2185SOL    HW2 6582   1.552   2.963   6.614
 2186SOL     OW 6583   0.915   1.951   6.988
 2186SOL    HW1 6584   0.940   1.931   6.893
 2186SOL    HW2 6585   0.987   2.007   7.030
 2187SOL     OW 6586   0.980   2.978   7.305
 2187SOL    HW1 6587   0.881   2.984   7.315
 2187SOL    HW2 6588   1.003   2.898   7.249
 2188SOL     OW 6589   0.705   2.912   5.954
 2188SOL    HW1 6590   0.691   2.919   6.053
 2188SOL    HW2 6591   0.789   2.861   5.936
 2189SOL     OW 6592   0.410   2.675   6.837
 2189SOL    HW1 6593   0.496   2.687   6.887
 2189SOL    HW2 6594   0.368   2.588   6.864
 2190SOL     OW 6595   1.274   2.248   6.848
 2190SOL    HW1 6596   1.295   2.322   6.912
 2190SOL    HW2 6597   1.185   2.265   6.805
 2191SOL     OW 6598   0.064   3.426   6.917
 2191SOL    HW1 6599   0.018   3.508   6.883
 2191SOL    HW2 6600   0.162   3.445   6.926
 2192SOL     OW 6601   0.367   2.962   6.087
 2192SOL    HW1 6602   0.360   3.045   6.031
 2192SOL    HW2 6603   0.371   2.882   6.027
 2193SOL     OW 6604   0.566   2.399   6.451
 2193SOL    HW1 6605   0.578   2.465   6.377
 2193SOL    HW2 6606   0.612   2.433   6.534
 2194SOL     OW 6607   1.252   3.210   5.974
 2194SOL    HW1 6608   1.302   3.287   6.014
 2194SOL    HW2 6609   1.157   3.212   6.006
 2195SOL     OW 6610   1.272   3.307   6.728
 2195SOL    HW1 6611   1.319   3.320   6.815
 2195SOL    HW2 6612   1.206   3.233   6.737
 2196SOL     OW 6613   1.582   2.501   6.058
 2196SOL    HW1 6614   1.551   2.562   6.131
 2196SOL    HW2 6615   1.632   2.553   5.989
 2197SOL     OW 6616   0.354   3.372   6.915
 2197SOL    HW1 6617   0.333   3.328   6.828
 2197SOL    HW2 6618   0.451   3.398   6.918
 2198SOL     OW 6619   0.402   2.613   7.184
 2198SOL    HW1 6620   0.470   2.668   7.137
 2198SOL    HW2 6621   0.442   2.525   7.211
 2199SOL     OW 6622   1.587   2.641   7.256
 2199SOL    HW1 6623   1.495   2.679   7.251
 2199SOL    HW2 6624   1.647   2.688   7.191
 2200SOL     OW 6625   1.013   1.967   7.356
 2200SOL    HW1 6626   1.019   2.052   7.304
 2200SOL    HW2 6627   1.045   1.891   7.299
 2201SOL     OW 6628   0.504   1.912   7.326
 2201SOL    HW1 6629   0.462   1.855   7.256
 2201SOL    HW2 6630   0.438   1.981   7.358
 2202SOL     OW 6631   0.573   2.732   6.615
 2202SOL    HW1 6632   0.617   2.821   6.606
 2202SOL    HW2 6633   0.510   2.732   6.692
 2203SOL     OW 6634   1.360   2.724   6.631
 2203SOL    HW1 6635   1.285   2.724   6.565
 2203SOL    HW2 6636   1.397   2.632   6.640
 2204SOL     OW 6637   1.209   2.387   5.861
 2204SOL    HW1 6638   1.222   2.303   5.915
 2204SOL    HW2 6639   1.180   2.461   5.921
 2205SOL     OW 6640   0.307   2.075   6.817
 2205SOL    HW1 6641   0.284   2.112   6.907
 2205SOL    HW2 6642   0.277   1.980   6.811
 2206SOL     OW 6643   0.037   3.172   6.868
 2206SOL    HW1 6644   0.090   3.123   6.936
 2206SOL    HW2 6645   0.059   3.270   6.873
 2207SOL     OW 6646   0.732   2.496   6.650
 2207SOL    HW1 6647   0.791   2.470   6.574
 2207SOL    HW2 6648   0.704   2.592   6.639
 2208SOL     OW 6649   1.728   2.797   7.440
 2208SOL    HW1 6650   1.682   2.790   7.351
 2208SOL    HW2 6651   1.666   2.841   7.506
 2209SOL     OW 6652   0.307   1.925   6.204
 2209SOL    HW1 6653   0.296   2.019   6.237
 2209SOL    HW2 6654   0.302   1.862   6.281
 2210SOL     OW 6655   1.622   2.229   5.960
 2210SOL    HW1 6656   1.624   2.153   6.024
 2210SOL    HW2 6657   1.574   2.306   6.000
 2211SOL     OW 6658   1.023   2.628   6.552
 2211SOL    HW1 6659   1.038   2.649   6.648
 2211SOL    HW2 6660   0.993   2.533   6.543
 2212SOL     OW 6661   0.980   3.435   7.286
 2212SOL    HW1 6662   0.960   3.479   7.198
 2212SOL    HW2 6663   1.019   3.344   7.270
 2213SOL     OW 6664   1.859   3.380   7.191
 2213SOL    HW1 6665   1.873   3.407   7.096
 2213SOL    HW2 6666   1.942   3.402   7.244
 2214SOL     OW 6667   0.350   2.760   7.390
 2214SOL    HW1 6668   0.426   2.804   7.438
 2214SOL    HW2 6669   0.385   2.713   7.308
 2215SOL     OW 6670   1.540   2.136   5.711
 2215SOL    HW1 6671   1.479   2.061   5.734
 2215SOL    HW2 6672   1.562   2.188   5.794
 2216SOL     OW 6673   1.303   2.700   5.628
 2216SOL    HW1 6674   1.337   2.607   5.643
 2216SOL    HW2 6675   1.321   2.727   5.533
 2217SOL     OW 6676   1.068   3.195   6.435
 2217SOL    HW1 6677   1.075   3.111   6.380
 2217SOL    HW2 6678   1.130   3.264   6.399
 2218SOL     OW 6679   0.319   2.672   6.535
 2218SOL    HW1 6680   0.412   2.708   6.540
 2218SOL    HW2 6681   0.313   2.587   6.587
 2219SOL     OW 6682   0.339   2.371   6.592
 2219SOL    HW1 6683   0.287   2.288   6.575
 2219SOL    HW2 6684   0.416   2.376   6.528
 2220SOL     OW 6685   1.138   2.242   7.264
 2220SOL    HW1 6686   1.093   2.305   7.328
 2220SOL    HW2 6687   1.231   2.273   7.247
 2221SOL     OW 6688   1.160   2.069   7.063
 2221SOL    HW1 6689   1.160   2.133   7.140
 2221SOL    HW2 6690   1.188   2.117   6.980
 2222SOL     OW 6691   0.008   3.188   5.786
 2222SOL    HW1 6692  -0.085   3.209   5.755
 2222SOL    HW2 6693   0.018   3.089   5.799
 2223SOL     OW 6694   0.088   3.663   6.513
 2223SOL    HW1 6695   0.046   3.577   6.486
 2223SOL    HW2 6696   0.182   3.666   6.479
 2224SOL     OW 6697   0.504   3.430   6.496
 2224SOL    HW1 6698   0.570   3.504   6.505
 2224SOL    HW2 6699   0.548   3.351   6.454
 2225SOL     OW 6700   1.002   2.658   6.824
 2225SOL    HW1 6701   1.043   2.626   6.910
 2225SOL    HW2 6702   0.906   2.631   6.821
 2226SOL     OW 6703   0.040   2.406   6.700
 2226SOL    HW1 6704   0.125   2.373   6.659
 2226SOL    HW2 6705   0.053   2.421   6.798
 2227SOL     OW 6706   0.189   2.382   7.308
 2227SOL    HW1 6707   0.248   2.342   7.238
 2227SOL    HW2 6708   0.131   2.453   7.267
 2228SOL     OW 6709   1.369   2.812   7.246
 2228SOL    HW1 6710   1.408   2.901   7.266
 2228SOL    HW2 6711   1.379   2.792   7.149
 2229SOL     OW 6712   0.815   2.434   5.911
 2229SOL    HW1 6713   0.822   2.345   5.865
 2229SOL    HW2 6714   0.721   2.468   5.903
 2230SOL     OW 6715   1.657   2.466   6.792
 2230SOL    HW1 6716   1.619   2.397   6.854
 2230SOL    HW2 6717   1.739   2.430   6.748
 2231SOL     OW 6718   0.252   3.426   7.330
 2231SOL    HW1 6719   0.222   3.483   7.406
 2231SOL    HW2 6720   0.245   3.329   7.356
 2232SOL     OW 6721   0.671   2.326   6.855
 2232SOL    HW1 6722   0.637   2.237   6.825
 2232SOL    HW2 6723   0.697   2.380   6.775
 2233SOL     OW 6724   0.930   3.540   7.051
 2233SOL    HW1 6725   0.906   3.522   6.956
 2233SOL    HW2 6726   0.960   3.634   7.061
 2234SOL     OW 6727   0.473   2.362   5.777
 2234SOL    HW1 6728   0.534   2.442   5.781
 2234SOL    HW2 6729   0.378   2.393   5.784
 2235SOL     OW 6730   0.159   2.999   7.052
 2235SOL    HW1 6731   0.181   2.938   7.128
 2235SOL    HW2 6732   0.169   2.950   6.966
 2236SOL     OW 6733   1.347   2.921   6.820
 2236SOL    HW1 6734   1.371   2.858   6.746
 2236SOL    HW2 6735   1.257   2.961   6.802
 2237SOL     OW 6736   1.302   2.717   5.895
 2237SOL    HW1 6737   1.216   2.686   5.937
 2237SOL    HW2 6738   1.298   2.703   5.796
 2238SOL     OW 6739   1.759   3.609   6.740
 2238SOL    HW1 6740   1.820   3.639   6.667
 2238SOL    HW2 6741   1.721   3.520   6.718
 2239SOL     OW 6742   1.252   3.593   6.714
 2239SOL    HW1 6743   1.336   3.598   6.660
 2239SOL    HW2 6744   1.229   3.497   6.732
 2240SOL     OW 6745   0.083   3.120   6.608
 2240SOL    HW1 6746   0.078   3.119   6.708
 2240SOL    HW2 6747   0.000   3.079   6.570
 2241SOL     OW 6748   0.688   3.524   7.302
 2241SOL    HW1 6749   0.632   3.605   7.311
 2241SOL    HW2 6750   0.740   3.528   7.216
 2242SOL     OW 6751   1.726   1.997   6.109
 2242SOL    HW1 6752   1.799   1.980   6.042
 2242SOL    HW2 6753   1.695   1.910   6.147
 2243SOL     OW 6754   1.388   3.435   6.063
 2243SOL    HW1 6755   1.455   3.447   5.989
 2243SOL    HW2 6756   1.348   3.524   6.086
 2244SOL     OW 6757   0.130   3.656   7.437
 2244SOL    HW1 6758   0.089   3.582   7.490
 2244SOL    HW2 6759   0.194   3.707   7.495
 2245SOL     OW 6760   1.280   2.789   6.258
 2245SOL    HW1 6761   1.340   2.708   6.260
 2245SOL    HW2 6762   1.320   2.858   6.198
 2246SOL     OW 6763   0.830   3.135   7.008
 2246SOL    HW1 6764   0.825   3.168   7.103
 2246SOL    HW2 6765   0.744   3.154   6.962
 2247SOL     OW 6766   0.672   3.478   5.740
 2247SOL    HW1 6767   0.681   3.488   5.641
 2247SOL    HW2 6768   0.632   3.389   5.761
 2248SOL     OW 6769   1.650   3.582   6.980
 2248SOL    HW1 6770   1.703   3.592   6.896
 2248SOL    HW2 6771   1.623   3.672   7.014
 2249SOL     OW 6772   1.841   2.037   6.549
 2249SOL    HW1 6773   1.880   1.952   6.513
 2249SOL    HW2 6774   1.743   2.039   6.530
 2250SOL     OW 6775   0.263   2.188   6.306
 2250SOL    HW1 6776   0.184   2.239   6.272
 2250SOL    HW2 6777   0.254   2.173   6.404
 2251SOL     OW 6778   1.194   3.474   5.617
 2251SOL    HW1 6779   1.200   3.381   5.654
 2251SOL    HW2 6780   1.135   3.474   5.537
 2252SOL     OW 6781   0.822   2.864   6.958
 2252SOL    HW1 6782   0.862   2.863   6.866
 2252SOL    HW2 6783   0.832   2.956   6.998
 2253SOL     OW 6784   0.916   2.772   5.877
 2253SOL    HW1 6785   0.979   2.810   5.809
 2253SOL    HW2 6786   0.956   2.689   5.916
 2254SOL     OW 6787   1.504   3.469   5.630
 2254SOL    HW1 6788   1.412   3.506   5.637
 2254SOL    HW2 6789   1.542   3.489   5.540
 2255SOL     OW 6790   0.372   3.150   7.076
 2255SOL    HW1 6791   0.359   3.243   7.042
 2255SOL    HW2 6792   0.288   3.098   7.063
 2256SOL     OW 6793   1.614   3.154   6.875
 2256SOL    HW1 6794   1.674   3.157   6.955
 2256SOL    HW2 6795   1.539   3.218   6.888
 2257SOL     OW 6796   1.039   2.960   6.282
 2257SOL    HW1 6797   0.969   2.913   6.336
 2257SOL    HW2 6798   1.098   2.892   6.239
 2258SOL     OW 6799   1.014   2.098   6.557
 2258SOL    HW1 6800   1.006   2.062   6.464
 2258SOL    HW2 6801   1.012   2.022   6.622
 2259SOL     OW 6802   0.590   3.349   6.077
 2259SOL    HW1 6803   0.632   3.291   6.007
 2259SOL    HW2 6804   0.546   3.428   6.033
 2260SOL     OW 6805   1.709   2.247   6.967
 2260SOL    HW1 6806   1.782   2.316   6.971
 2260SOL    HW2 6807   1.737   2.172   6.908
 2261SOL     OW 6808   0.255   3.210   5.876
 2261SOL    HW1 6809   0.159   3.211   5.849
 2261SOL    HW2 6810   0.267   3.263   5.960
 2262SOL     OW 6811   0.105   2.875   7.312
 2262SOL    HW1 6812   0.028   2.842   7.366
 2262SOL    HW2 6813   0.190   2.845   7.354
 2263SOL     OW 6814   0.672   2.065   7.075
 2263SOL    HW1 6815   0.762   2.049   7.035
 2263SOL    HW2 6816   0.680   2.070   7.174
 2264SOL     OW 6817   0.075   2.207   5.619
 2264SOL    HW1 6818  -0.017   2.179   5.590
 2264SOL    HW2 6819   0.106   2.284   5.563
 2265SOL     OW 6820   1.440   2.718   6.984
 2265SOL    HW1 6821   1.383   2.770   6.921
 2265SOL    HW2 6822   1.536   2.730   6.960
 2266SOL     OW 6823   0.072   2.028   5.904
 2266SOL    HW1 6824   0.055   2.111   5.850
 2266SOL    HW2 6825   0.162   1.991   5.882
 2267SOL     OW 6826   1.183   3.197   5.705
 2267SOL    HW1 6827   1.084   3.186   5.707
 2267SOL    HW2 6828   1.217   3.212   5.798
 2268SOL     OW 6829   0.613   2.704   7.017
 2268SOL    HW1 6830   0.669   2.785   7.000
 2268SOL    HW2 6831   0.672   2.624   7.020
 2269SOL     OW 6832   1.493   3.629   6.545
 2269SOL    HW1 6833   1.526   3.693   6.476
 2269SOL    HW2 6834   1.559   3.623   6.620
 2270SOL     OW 6835   0.716   2.427   7.294
 2270SOL    HW1 6836   0.735   2.492   7.368
 2270SOL    HW2 6837   0.776   2.347   7.303
 2271SOL     OW 6838   1.450   3.082   7.219
 2271SOL    HW1 6839   1.441   3.072   7.318
 2271SOL    HW2 6840   1.546   3.075   7.193
 2272SOL     OW 6841   0.390   3.603   7.146
 2272SOL    HW1 6842   0.299   3.644   7.144
 2272SOL    HW2 6843   0.383   3.509   7.178
 2273SOL     OW 6844   1.674   2.745   6.840
 2273SOL    HW1 6845   1.647   2.656   6.803
 2273SOL    HW2 6846   1.675   2.813   6.767
 2274SOL     OW 6847   1.225   2.187   6.035
 2274SOL    HW1 6848   1.290   2.113   6.024
 2274SOL    HW2 6849   1.245   2.237   6.119
 2275SOL     OW 6850   0.594   2.607   6.238
 2275SOL    HW1 6851   0.644   2.692   6.219
 2275SOL    HW2 6852   0.506   2.609   6.190
 2276SOL     OW 6853   1.777   2.204   7.228
 2276SOL    HW1 6854   1.760   2.235   7.134
 2276SOL    HW2 6855   1.693   2.167   7.266
 2277SOL     OW 6856   1.730   2.796   7.103
 2277SOL    HW1 6857   1.768   2.887   7.118
 2277SOL    HW2 6858   1.722   2.779   7.004
 2278SOL     OW 6859   0.859   3.236   5.602
 2278SOL    HW1 6860   0.813   3.251   5.690
 2278SOL    HW2 6861   0.903   3.321   5.572
 2279SOL     OW 6862   0.661   3.652   6.539
 2279SOL    HW1 6863   0.615   3.740   6.526
 2279SOL    HW2 6864   0.760   3.664   6.532
 2280SOL     OW 6865   0.859   2.818   6.447
 2280SOL    HW1 6866   0.913   2.749   6.495
 2280SOL    HW2 6867   0.827   2.887   6.513
 2281SOL     OW 6868   1.083   2.846   5.673
 2281SOL    HW1 6869   1.060   2.899   5.591
 2281SOL    HW2 6870   1.164   2.790   5.654
 2282SOL     OW 6871   1.861   3.431   6.437
 2282SOL    HW1 6872   1.790   3.419   6.367
 2282SOL    HW2 6873   1.862   3.352   6.497
 2283SOL     OW 6874   0.221   3.176   7.430
 2283SOL    HW1 6875   0.156   3.103   7.409
 2283SOL    HW2 6876   0.225   3.190   7.528
 2284SOL     OW 6877   0.079   3.102   6.239
 2284SOL    HW1 6878   0.078   3.055   6.327
 2284SOL    HW2 6879   0.161   3.074   6.188
 2285SOL     OW 6880   0.672   3.253   7.210
 2285SOL    HW1 6881   0.594   3.203   7.248
 2285SOL    HW2 6882   0.669   3.348   7.241
 2286SOL     OW 6883   1.824   2.054   6.813
 2286SOL    HW1 6884   1.820   1.964   6.857
 2286SOL    HW2 6885   1.827   2.043   6.714
 2287SOL     OW 6886   0.428   2.286   6.106
 2287SOL    HW1 6887   0.458   2.214   6.044
 2287SOL    HW2 6888   0.389   2.246   6.189
 2288SOL     OW 6889   1.705   3.349   6.690
 2288SOL    HW1 6890   1.612   3.324   6.663
 2288SOL    HW2 6891   1.731   3.299   6.772
 2289SOL     OW 6892   0.317   2.409   6.866
 2289SOL    HW1 6893   0.355   2.350   6.938
 2289SOL    HW2 6894   0.357   2.383   6.778
 2290SOL     OW 6895   0.812   3.448   6.273
 2290SOL    HW1 6896   0.844   3.458   6.179
 2290SOL    HW2 6897   0.733   3.386   6.275
 2291SOL     OW 6898   1.424   2.076   6.698
 2291SOL    HW1 6899   1.476   2.011   6.753
 2291SOL    HW2 6900   1.375   2.139   6.759
 2292SOL     OW 6901   1.001   1.896   6.740
 2292SOL    HW1 6902   0.938   1.824   6.709
 2292SOL    HW2 6903   1.094   1.860   6.740
 2293SOL     OW 6904   0.770   3.192   5.887
 2293SOL    HW1 6905   0.724   3.105   5.904
 2293SOL    HW2 6906   0.861   3.189   5.928
 2294SOL     OW 6907   0.618   3.429   6.870
 2294SOL    HW1 6908   0.613   3.511   6.927
 2294SOL    HW2 6909   0.707   3.426   6.825
 2295SOL     OW 6910   1.352   1.914   5.754
 2295SOL    HW1 6911   1.387   1.873   5.670
 2295SOL    HW2 6912   1.262   1.876   5.774
 2296SOL     OW 6913   1.300   2.315   6.277
 2296SOL    HW1 6914   1.241   2.395   6.281
 2296SOL    HW2 6915   1.315   2.280   6.370
 2297SOL     OW 6916   1.593   2.083   6.468
 2297SOL    HW1 6917   1.509   2.082   6.522
 2297SOL    HW2 6918   1.595   2.166   6.412
 2298SOL     OW 6919   0.039   2.939   5.886
 2298SOL    HW1 6920   0.138   2.928   5.877
 2298SOL    HW2 6921  -0.001   2.853   5.918
 2299SOL     OW 6922   0.875   3.508   5.923
 2299SOL    HW1 6923   0.798   3.473   5.869
 2299SOL    HW2 6924   0.843   3.579   5.985
 2300SOL     OW 6925   0.230   2.490   7.561
 2300SOL    HW1 6926   0.137   2.488   7.598
 2300SOL    HW2 6927   0.231   2.451   7.469
 2301SOL     OW 6928   0.225   2.137   8.444
 2301SOL    HW1 6929   0.260   2.120   8.536
 2301SOL    HW2 6930   0.137   2.092   8.432
 2302SOL     OW 6931   0.019   2.230   8.095
 2302SOL    HW1 6932  -0.063   2.273   8.134
 2302SOL    HW2 6933  -0.009   2.157   8.032
 2303SOL     OW 6934   0.569   3.137   8.613
 2303SOL    HW1 6935   0.476   3.130   8.576
 2303SOL    HW2 6936   0.580   3.226   8.657
 2304SOL     OW 6937   1.555   3.373   8.151
 2304SOL    HW1 6938   1.498   3.357   8.232
 2304SOL    HW2 6939   1.496   3.383   8.071
 2305SOL     OW 6940   1.135   2.565   8.165
 2305SOL    HW1 6941   1.192   2.643   8.140
 2305SOL    HW2 6942   1.075   2.591   8.241
 2306SOL     OW 6943   1.755   2.469   7.679
 2306SOL    HW1 6944   1.743   2.456   7.580
 2306SOL    HW2 6945   1.725   2.388   7.728
 2307SOL     OW 6946   0.768   3.006   8.471
 2307SOL    HW1 6947   0.690   3.023   8.531
 2307SOL    HW2 6948   0.802   3.093   8.435
 2308SOL     OW 6949   0.850   2.660   9.271
 2308SOL    HW1 6950   0.846   2.736   9.336
 2308SOL    HW2 6951   0.872   2.696   9.180
 2309SOL     OW 6952   0.685   2.874   8.113
 2309SOL    HW1 6953   0.754   2.858   8.183
 2309SOL    HW2 6954   0.612   2.931   8.151
 2310SOL     OW 6955   0.686   3.023   9.251
 2310SOL    HW1 6956   0.746   3.102   9.265
 2310SOL    HW2 6957   0.600   3.054   9.210
 2311SOL     OW 6958   0.335   3.297   8.509
 2311SOL    HW1 6959   0.257   3.266   8.456
 2311SOL    HW2 6960   0.393   3.355   8.452
 2312SOL     OW 6961   1.460   3.367   8.787
 2312SOL    HW1 6962   1.484   3.461   8.813
 2312SOL    HW2 6963   1.444   3.313   8.869
 2313SOL     OW 6964   0.438   2.254   8.947
 2313SOL    HW1 6965   0.520   2.198   8.956
 2313SOL    HW2 6966   0.357   2.196   8.951
 2314SOL     OW 6967   1.603   2.309   8.185
 2314SOL    HW1 6968   1.529   2.355   8.135
 2314SOL    HW2 6969   1.654   2.377   8.238
 2315SOL     OW 6970   0.231   3.575   7.931
 2315SOL    HW1 6971   0.265   3.652   7.985
 2315SOL    HW2 6972   0.275   3.575   7.841
 2316SOL     OW 6973   1.127   3.203   9.138
 2316SOL    HW1 6974   1.174   3.203   9.226
 2316SOL    HW2 6975   1.079   3.116   9.127
 2317SOL     OW 6976   0.230   3.296   7.986
 2317SOL    HW1 6977   0.204   3.392   7.986
 2317SOL    HW2 6978   0.159   3.242   8.031
 2318SOL     OW 6979   0.240   2.953   8.334
 2318SOL    HW1 6980   0.254   2.869   8.386
 2318SOL    HW2 6981   0.185   3.017   8.389
 2319SOL     OW 6982   0.620   3.648   8.887
 2319SOL    HW1 6983   0.528   3.631   8.922
 2319SOL    HW2 6984   0.648   3.740   8.913
 2320SOL     OW 6985   0.606   2.826   7.571
 2320SOL    HW1 6986   0.613   2.910   7.517
 2320SOL    HW2 6987   0.652   2.839   7.659
 2321SOL     OW 6988   1.594   1.976   8.928
 2321SOL    HW1 6989   1.576   2.043   8.856
 2321SOL    HW2 6990   1.591   2.022   9.017
 2322SOL     OW 6991   0.122   2.505   8.011
 2322SOL    HW1 6992   0.077   2.417   8.028
 2322SOL    HW2 6993   0.121   2.559   8.095
 2323SOL     OW 6994   1.842   3.629   7.807
 2323SOL    HW1 6995   1.896   3.600   7.887
 2323SOL    HW2 6996   1.872   3.719   7.778
 2324SOL     OW 6997   0.027   3.458   7.565
 2324SOL    HW1 6998   0.008   3.362   7.586
 2324SOL    HW2 6999  -0.006   3.516   7.640
 2325SOL     OW 7000   1.689   2.784   8.060
 2325SOL    HW1 7001   1.784   2.755   8.068
 2325SOL    HW2 7002   1.681   2.849   7.985
 2326SOL     OW 7003   1.641   2.970   7.880
 2326SOL    HW1 7004   1.727   2.972   7.828
 2326SOL    HW2 7005   1.655   3.017   7.968
 2327SOL     OW 7006   0.113   2.599   9.045
 2327SOL    HW1 7007   0.201   2.586   9.090
 2327SOL    HW2 7008   0.100   2.696   9.023
 2328SOL     OW 7009   0.613   3.227   8.174
 2328SOL    HW1 7010   0.564   3.140   8.183
 2328SOL    HW2 7011   0.590   3.270   8.087
 2329SOL     OW 7012   1.293   3.090   8.871
 2329SOL    HW1 7013   1.330   3.017   8.813
 2329SOL    HW2 7014   1.345   3.095   8.956
 2330SOL     OW 7015   0.809   1.866   7.950
 2330SOL    HW1 7016   0.849   1.957   7.941
 2330SOL    HW2 7017   0.709   1.874   7.956
 2331SOL     OW 7018   0.197   2.838   8.712
 2331SOL    HW1 7019   0.286   2.793   8.698
 2331SOL    HW2 7020   0.124   2.773   8.693
 2332SOL     OW 7021   1.525   2.861   7.638
 2332SOL    HW1 7022   1.462   2.785   7.651
 2332SOL    HW2 7023   1.573   2.879   7.724
 2333SOL     OW 7024   1.187   3.654   9.064
 2333SOL    HW1 7025   1.211   3.714   8.988
 2333SOL    HW2 7026   1.194   3.559   9.034
 2334SOL     OW 7027   0.317   2.113   9.249
 2334SOL    HW1 7028   0.388   2.184   9.255
 2334SOL    HW2 7029   0.229   2.152   9.277
 2335SOL     OW 7030   1.466   3.279   8.401
 2335SOL    HW1 7031   1.407   3.285   8.481
 2335SOL    HW2 7032   1.451   3.191   8.355
 2336SOL     OW 7033   1.667   3.576   8.020
 2336SOL    HW1 7034   1.626   3.553   7.932
 2336SOL    HW2 7035   1.649   3.502   8.085
 2337SOL     OW 7036   0.598   2.591   7.718
 2337SOL    HW1 7037   0.622   2.660   7.650
 2337SOL    HW2 7038   0.520   2.624   7.772
 2338SOL     OW 7039   1.281   2.207   8.392
 2338SOL    HW1 7040   1.195   2.157   8.379
 2338SOL    HW2 7041   1.343   2.153   8.448
 2339SOL     OW 7042   1.576   3.524   7.755
 2339SOL    HW1 7043   1.665   3.570   7.758
 2339SOL    HW2 7044   1.555   3.500   7.660
 2340SOL     OW 7045   0.807   2.467   8.913
 2340SOL    HW1 7046   0.760   2.464   9.002
 2340SOL    HW2 7047   0.756   2.412   8.847
 2341SOL     OW 7048   1.394   2.331   9.122
 2341SOL    HW1 7049   1.374   2.374   9.210
 2341SOL    HW2 7050   1.472   2.269   9.131
 2342SOL     OW 7051   0.973   2.752   9.020
 2342SOL    HW1 7052   1.019   2.668   8.991
 2342SOL    HW2 7053   0.917   2.786   8.945
 2343SOL     OW 7054   0.991   2.272   8.690
 2343SOL    HW1 7055   0.914   2.306   8.744
 2343SOL    HW2 7056   0.957   2.221   8.611
 2344SOL     OW 7057   1.041   2.563   7.877
 2344SOL    HW1 7058   1.067   2.559   7.973
 2344SOL    HW2 7059   0.956   2.512   7.863
 2345SOL     OW 7060   0.076   2.673   8.237
 2345SOL    HW1 7061   0.175   2.661   8.246
 2345SOL    HW2 7062   0.052   2.768   8.258
 2346SOL     OW 7063   0.130   3.683   9.019
 2346SOL    HW1 7064   0.120   3.668   9.118
 2346SOL    HW2 7065   0.044   3.719   8.983
 2347SOL     OW 7066   0.865   2.210   7.643
 2347SOL    HW1 7067   0.924   2.273   7.594
 2347SOL    HW2 7068   0.884   2.116   7.614
 2348SOL     OW 7069   1.719   2.447   9.279
 2348SOL    HW1 7070   1.693   2.536   9.243
 2348SOL    HW2 7071   1.717   2.379   9.206
 2349SOL     OW 7072   1.362   3.006   7.993
 2349SOL    HW1 7073   1.445   2.977   7.945
 2349SOL    HW2 7074   1.313   3.073   7.937
 2350SOL     OW 7075   0.550   2.058   8.333
 2350SOL    HW1 7076   0.545   2.053   8.433
 2350SOL    HW2 7077   0.552   2.154   8.304
 2351SOL     OW 7078   1.008   3.318   7.925
 2351SOL    HW1 7079   0.962   3.390   7.873
 2351SOL    HW2 7080   1.004   3.338   8.023
 2352SOL     OW 7081   0.351   3.663   8.301
 2352SOL    HW1 7082   0.401   3.577   8.307
 2352SOL    HW2 7083   0.416   3.740   8.298
 2353SOL     OW 7084   1.795   2.928   8.321
 2353SOL    HW1 7085   1.733   2.913   8.245
 2353SOL    HW2 7086   1.743   2.939   8.406
 2354SOL     OW 7087   1.227   3.412   8.954
 2354SOL    HW1 7088   1.233   3.335   9.018
 2354SOL    HW2 7089   1.175   3.386   8.874
 2355SOL     OW 7090   0.321   2.805   7.690
 2355SOL    HW1 7091   0.403   2.844   7.648
 2355SOL    HW2 7092   0.294   2.723   7.641
 2356SOL     OW 7093   1.458   2.597   8.176
 2356SOL    HW1 7094   1.453   2.532   8.251
 2356SOL    HW2 7095   1.538   2.656   8.189
 2357SOL     OW 7096   0.461   3.128   9.175
 2357SOL    HW1 7097   0.411   3.129   9.089
 2357SOL    HW2 7098   0.398   3.110   9.251
 2358SOL     OW 7099   1.111   3.638   7.685
 2358SOL    HW1 7100   1.051   3.576   7.735
 2358SOL    HW2 7101   1.142   3.594   7.600
 2359SOL     OW 7102   0.202   2.147   8.946
 2359SOL    HW1 7103   0.122   2.207   8.933
 2359SOL    HW2 7104   0.192   2.098   9.032
 2360SOL     OW 7105   1.632   3.239   7.529
 2360SOL    HW1 7106   1.600   3.333   7.519
 2360SOL    HW2 7107   1.556   3.176   7.517
 2361SOL     OW 7108   0.464   3.605   7.771
 2361SOL    HW1 7109   0.497   3.644   7.857
 2361SOL    HW2 7110   0.540   3.598   7.706
 2362SOL     OW 7111   1.400   1.969   7.874
 2362SOL    HW1 7112   1.376   1.932   7.784
 2362SOL    HW2 7113   1.499   1.985   7.878
 2363SOL     OW 7114   0.249   3.647   8.689
 2363SOL    HW1 7115   0.306   3.582   8.739
 2363SOL    HW2 7116   0.233   3.614   8.596
 2364SOL     OW 7117   0.940   3.560   8.352
 2364SOL    HW1 7118   1.020   3.503   8.373
 2364SOL    HW2 7119   0.891   3.520   8.275
 2365SOL     OW 7120   0.382   2.562   7.928
 2365SOL    HW1 7121   0.427   2.472   7.925
 2365SOL    HW2 7122   0.288   2.551   7.961
 2366SOL     OW 7123   1.547   2.084   9.177
 2366SOL    HW1 7124   1.542   2.121   9.269
 2366SOL    HW2 7125   1.475   2.015   9.165
 2367SOL     OW 7126   0.614   1.984   7.565
 2367SOL    HW1 7127   0.712   1.962   7.572
 2367SOL    HW2 7128   0.583   1.967   7.472
 2368SOL     OW 7129   0.781   2.126   9.197
 2368SOL    HW1 7130   0.848   2.065   9.240
 2368SOL    HW2 7131   0.708   2.145   9.262
 2369SOL     OW 7132   0.888   3.376   8.643
 2369SOL    HW1 7133   0.865   3.351   8.549
 2369SOL    HW2 7134   0.949   3.307   8.682
 2370SOL     OW 7135   1.351   2.452   8.881
 2370SOL    HW1 7136   1.379   2.409   8.966
 2370SOL    HW2 7137   1.376   2.548   8.882
 2371SOL     OW 7138   0.803   3.264   8.372
 2371SOL    HW1 7139   0.893   3.278   8.330
 2371SOL    HW2 7140   0.732   3.266   8.301
 2372SOL     OW 7141   0.922   2.365   8.347
 2372SOL    HW1 7142   0.897   2.356   8.251
 2372SOL    HW2 7143   0.970   2.283   8.378
 2373SOL     OW 7144   0.539   1.926   7.960
 2373SOL    HW1 7145   0.458   1.927   8.018
 2373SOL    HW2 7146   0.542   2.009   7.905
 2374SOL     OW 7147   1.434   3.050   7.489
 2374SOL    HW1 7148   1.466   2.974   7.546
 2374SOL    HW2 7149   1.342   3.077   7.519
 2375SOL     OW 7150   0.297   1.897   7.619
 2375SOL    HW1 7151   0.346   1.981   7.598
 2375SOL    HW2 7152   0.359   1.832   7.664
 2376SOL     OW 7153   0.935   2.098   7.928
 2376SOL    HW1 7154   0.887   2.139   7.850
 2376SOL    HW2 7155   1.034   2.096   7.909
 2377SOL     OW 7156   1.076   2.545   8.912
 2377SOL    HW1 7157   0.996   2.484   8.915
 2377SOL    HW2 7158   1.157   2.492   8.888
 2378SOL     OW 7159   1.227   3.432   8.241
 2378SOL    HW1 7160   1.248   3.506   8.176
 2378SOL    HW2 7161   1.295   3.432   8.314
 2379SOL     OW 7162   0.459   3.014   8.189
 2379SOL    HW1 7163   0.388   2.987   8.254
 2379SOL    HW2 7164   0.433   2.986   8.096
 2380SOL     OW 7165   1.271   3.659   8.039
 2380SOL    HW1 7166   1.315   3.723   7.975
 2380SOL    HW2 7167   1.221   3.711   8.109
 2381SOL     OW 7168   1.032   2.411   7.464
 2381SOL    HW1 7169   0.991   2.493   7.425
 2381SOL    HW2 7170   1.096   2.437   7.537
 2382SOL     OW 7171   0.078   2.418   8.834
 2382SOL    HW1 7172   0.170   2.417   8.793
 2382SOL    HW2 7173   0.072   2.492   8.901
 2383SOL     OW 7174   0.561   2.084   8.595
 2383SOL    HW1 7175   0.599   2.000   8.632
 2383SOL    HW2 7176   0.473   2.103   8.639
 2384SOL     OW 7177   0.866   2.316   8.090
 2384SOL    HW1 7178   0.834   2.388   8.028
 2384SOL    HW2 7179   0.890   2.235   8.037
 2385SOL     OW 7180   1.017   1.901   8.201
 2385SOL    HW1 7181   0.945   1.906   8.132
 2385SOL    HW2 7182   0.993   1.832   8.270
 2386SOL     OW 7183   1.429   3.035   8.315
 2386SOL    HW1 7184   1.374   2.951   8.308
 2386SOL    HW2 7185   1.455   3.064   8.223
 2387SOL     OW 7186   1.466   2.452   8.440
 2387SOL    HW1 7187   1.436   2.357   8.447
 2387SOL    HW2 7188   1.539   2.468   8.506
 2388SOL     OW 7189   1.857   2.695   7.825
 2388SOL    HW1 7190   1.899   2.631   7.889
 2388SOL    HW2 7191   1.819   2.644   7.747
 2389SOL     OW 7192   0.488   3.247   7.622
 2389SOL    HW1 7193   0.401   3.232   7.669
 2389SOL    HW2 7194   0.471   3.273   7.527
 2390SOL     OW 7195   1.664   3.142   8.105
 2390SOL    HW1 7196   1.763   3.150   8.119
 2390SOL    HW2 7197   1.619   3.226   8.136
 2391SOL     OW 7198   1.390   2.437   7.526
 2391SOL    HW1 7199   1.336   2.416   7.607
 2391SOL    HW2 7200   1.481   2.396   7.535
 2392SOL     OW 7201   0.527   2.118   7.776
 2392SOL    HW1 7202   0.554   2.059   7.701
 2392SOL    HW2 7203   0.527   2.213   7.745
 2393SOL     OW 7204   1.754   3.085   9.036
 2393SOL    HW1 7205   1.845   3.046   9.023
 2393SOL    HW2 7206   1.762   3.181   9.060
 2394SOL     OW 7207   1.064   3.209   8.788
 2394SOL    HW1 7208   0.984   3.186   8.843
 2394SOL    HW2 7209   1.147   3.183   8.837
 2395SOL     OW 7210   1.592   3.491   9.073
 2395SOL    HW1 7211   1.619   3.525   8.983
 2395SOL    HW2 7212   1.671   3.453   9.119
 2396SOL     OW 7213   1.111   3.057   8.548
 2396SOL    HW1 7214   1.071   3.101   8.629
 2396SOL    HW2 7215   1.070   3.094   8.465
 2397SOL     OW 7216   1.638   2.961   8.527
 2397SOL    HW1 7217   1.643   3.042   8.586
 2397SOL    HW2 7218   1.552   2.963   8.476
 2398SOL     OW 7219   0.915   1.951   8.850
 2398SOL    HW1 7220   0.940   1.931   8.755
 2398SOL    HW2 7221   0.987   2.007   8.892
 2399SOL     OW 7222   0.980   2.978   9.167
 2399SOL    HW1 7223   0.881   2.984   9.177
 2399SOL    HW2 7224   1.003   2.898   9.111
 2400SOL     OW 7225   0.705   2.912   7.816
 2400SOL    HW1 7226   0.691   2.919   7.915
 2400SOL    HW2 7227   0.789   2.861   7.798
 2401SOL     OW 7228   0.410   2.675   8.699
 2401SOL    HW1 7229   0.496   2.687   8.749
 2401SOL    HW2 7230   0.368   2.588   8.726
 2402SOL     OW 7231   1.274   2.248   8.710
 2402SOL    HW1 7232   1.295   2.322   8.774
 2402SOL    HW2 7233   1.185   2.265   8.667
 2403SOL     OW 7234   0.064   3.426   8.779
 2403SOL    HW1 7235   0.018   3.508   8.745
 2403SOL    HW2 7236   0.162   3.445   8.788
 2404SOL     OW 7237   0.367   2.962   7.949
 2404SOL    HW1 7238   0.360   3.045   7.893
 2404SOL    HW2 7239   0.371   2.882   7.889
 2405SOL     OW 7240   0.566   2.399   8.313
 2405SOL    HW1 7241   0.578   2.465   8.239
 2405SOL    HW2 7242   0.612   2.433   8.396
 2406SOL     OW 7243   1.252   3.210   7.836
 2406SOL    HW1 7244   1.302   3.287   7.876
 2406SOL    HW2 7245   1.157   3.212   7.868
 2407SOL     OW 7246   1.272   3.307   8.590
 2407SOL    HW1 7247   1.319   3.320   8.677
 2407SOL    HW2 7248   1.206   3.233   8.599
 2408SOL     OW 7249   1.582   2.501   7.920
 2408SOL    HW1 7250   1.551   2.562   7.993
 2408SOL    HW2 7251   1.632   2.553   7.851
 2409SOL     OW 7252   0.354   3.372   8.777
 2409SOL    HW1 7253   0.333   3.328   8.690
 2409SOL    HW2 7254   0.451   3.398   8.780
 2410SOL     OW 7255   0.402   2.613   9.046
 2410SOL    HW1 7256   0.470   2.668   8.999
 2410SOL    HW2 7257   0.442   2.525   9.073
 2411SOL     OW 7258   1.587   2.641   9.118
 2411SOL    HW1 7259   1.495   2.679   9.113
 2411SOL    HW2 7260   1.647   2.688   9.053
 2412SOL     OW 7261   1.013   1.967   9.218
 2412SOL    HW1 7262   1.019   2.052   9.166
 2412SOL    HW2 7263   1.045   1.891   9.161
 2413SOL     OW 7264   0.504   1.912   9.188
 2413SOL    HW1 7265   0.462   1.855   9.118
 2413SOL    HW2 7266   0.438   1.981   9.220
 2414SOL     OW 7267   0.573   2.732   8.477
 2414SOL    HW1 7268   0.617   2.821   8.468
 2414SOL    HW2 7269   0.510   2.732   8.554
 2415SOL     OW 7270   1.360   2.724   8.493
 2415SOL    HW1 7271   1.285   2.724   8.427
 2415SOL    HW2 7272   1.397   2.632   8.502
 2416SOL     OW 7273   1.209   2.387   7.723
 2416SOL    HW1 7274   1.222   2.303   7.777
 2416SOL    HW2 7275   1.180   2.461   7.783
 2417SOL     OW 7276   0.307   2.075   8.679
 2417SOL    HW1 7277   0.284   2.112   8.769
 2417SOL    HW2 7278   0.277   1.980   8.673
 2418SOL     OW 7279   0.037   3.172   8.730
 2418SOL    HW1 7280   0.090   3.123   8.798
 2418SOL    HW2 7281   0.059   3.270   8.735
 2419SOL     OW 7282   0.732   2.496   8.512
 2419SOL    HW1 7283   0.791   2.470   8.436
 2419SOL    HW2 7284   0.704   2.592   8.501
 2420SOL     OW 7285   1.728   2.797   9.302
 2420SOL    HW1 7286   1.682   2.790   9.213
 2420SOL    HW2 7287   1.666   2.841   9.368
 2421SOL     OW 7288   0.307   1.925   8.066
 2421SOL    HW1 7289   0.296   2.019   8.099
 2421SOL    HW2 7290   0.302   1.862   8.143
 2422SOL     OW 7291   1.622   2.229   7.822
 2422SOL    HW1 7292   1.624   2.153   7.886
 2422SOL    HW2 7293   1.574   2.306   7.862
 2423SOL     OW 7294   1.023   2.628   8.414
 2423SOL    HW1 7295   1.038   2.649   8.510
 2423SOL    HW2 7296   0.993   2.533   8.405
 2424SOL     OW 7297   0.980   3.435   9.148
 2424SOL    HW1 7298   0.960   3.479   9.060
 2424SOL    HW2 7299   1.019   3.344   9.132
 2425SOL     OW 7300   1.859   3.380   9.053
 2425SOL    HW1 7301   1.873   3.407   8.958
 2425SOL    HW2 7302   1.942   3.402   9.106
 2426SOL     OW 7303   0.350   2.760   9.252
 2426SOL    HW1 7304   0.426   2.804   9.300
 2426SOL    HW2 7305   0.385   2.713   9.170
 2427SOL     OW 7306   1.540   2.136   7.573
 2427SOL    HW1 7307   1.479   2.061   7.596
 2427SOL    HW2 7308   1.562   2.188   7.656
 2428SOL     OW 7309   1.303   2.700   7.490
 2428SOL    HW1 7310   1.337   2.607   7.505
 2428SOL    HW2 7311   1.321   2.727   7.395
 2429SOL     OW 7312   1.068   3.195   8.297
 2429SOL    HW1 7313   1.075   3.111   8.242
 2429SOL    HW2 7314   1.130   3.264   8.261
 2430SOL     OW 7315   0.319   2.672   8.397
 2430SOL    HW1 7316   0.412   2.708   8.402
 2430SOL    HW2 7317   0.313   2.587   8.449
 2431SOL     OW 7318   0.339   2.371   8.454
 2431SOL    HW1 7319   0.287   2.288   8.437
 2431SOL    HW2 7320   0.416   2.376   8.390
 2432SOL     OW 7321   1.138   2.242   9.126
 2432SOL    HW1 7322   1.093   2.305   9.190
 2432SOL    HW2 7323   1.231   2.273   9.109
 2433SOL     OW 7324   1.160   2.069   8.925
 2433SOL    HW1 7325   1.160   2.133   9.002
 2433SOL    HW2 7326   1.188   2.117   8.842
 2434SOL     OW 7327   0.008   3.188   7.648
 2434SOL    HW1 7328  -0.085   3.209   7.617
 2434SOL    HW2 7329   0.018   3.089   7.661
 2435SOL     OW 7330   0.088   3.663   8.375
 2435SOL    HW1 7331   0.046   3.577   8.348
 2435SOL    HW2 7332   0.182   3.666   8.341
 2436SOL     OW 7333   0.504   3.430   8.358
 2436SOL    HW1 7334   0.570   3.504   8.367
 2436SOL    HW2 7335   0.548   3.351   8.316
 2437SOL     OW 7336   1.002   2.658   8.686
 2437SOL    HW1 7337   1.043   2.626   8.772
 2437SOL    HW2 7338   0.906   2.631   8.683
 2438SOL     OW 7339   0.040   2.406   8.562
 2438SOL    HW1 7340   0.125   2.373   8.521
 2438SOL    HW2 7341   0.053   2.421   8.660
 2439SOL     OW 7342   0.189   2.382   9.170
 2439SOL    HW1 7343   0.248   2.342   9.100
 2439SOL    HW2 7344   0.131   2.453   9.129
 2440SOL     OW 7345   1.369   2.812   9.108
 2440SOL    HW1 7346   1.408   2.901   9.128
 2440SOL    HW2 7347   1.379   2.792   9.011
 2441SOL     OW 7348   0.815   2.434   7.773
 2441SOL    HW1 7349   0.822   2.345   7.727
 2441SOL    HW2 7350   0.721   2.468   7.765
 2442SOL     OW 7351   1.657   2.466   8.654
 2442SOL    HW1 7352   1.619   2.397   8.716
 2442SOL    HW2 7353   1.739   2.430   8.610
 2443SOL     OW 7354   0.252   3.426   9.192
 2443SOL    HW1 7355   0.222   3.483   9.268
 2443SOL    HW2 7356   0.245   3.329   9.218
 2444SOL     OW 7357   0.671   2.326   8.717
 2444SOL    HW1 7358   0.637   2.237   8.687
 2444SOL    HW2 7359   0.697   2.380   8.637
 2445SOL     OW 7360   0.930   3.540   8.913
 2445SOL    HW1 7361   0.906   3.522   8.818
 2445SOL    HW2 7362   0.960   3.634   8.923
 2446SOL     OW 7363   0.473   2.362   7.639
 2446SOL    HW1 7364   0.534   2.442   7.643
 2446SOL    HW2 7365   0.378   2.393   7.646
 2447SOL     OW 7366   0.159   2.999   8.914
 2447SOL    HW1 7367   0.181   2.938   8.990
 2447SOL    HW2 7368   0.169   2.950   8.828
 2448SOL     OW 7369   1.347   2.921   8.682
 2448SOL    HW1 7370   1.371   2.858   8.608
 2448SOL    HW2 7371   1.257   2.961   8.664
 2449SOL     OW 7372   1.302   2.717   7.757
 2449SOL    HW1 7373   1.216   2.686   7.799
 2449SOL    HW2 7374   1.298   2.703   7.658
 2450SOL     OW 7375   1.759   3.609   8.602
 2450SOL    HW1 7376   1.820   3.639   8.529
 2450SOL    HW2 7377   1.721   3.520   8.580
 2451SOL     OW 7378   1.252   3.593   8.576
 2451SOL    HW1 7379   1.336   3.598   8.522
 2451SOL    HW2 7380   1.229   3.497   8.594
 2452SOL     OW 7381   0.083   3.120   8.470
 2452SOL    HW1 7382   0.078   3.119   8.570
 2452SOL    HW2 7383   0.000   3.079   8.432
 2453SOL     OW 7384   0.688   3.524   9.164
 2453SOL    HW1 7385   0.632   3.605   9.173
 2453SOL    HW2 7386   0.740   3.528   9.078
 2454SOL     OW 7387   1.726   1.997   7.971
 2454SOL    HW1 7388   1.799   1.980   7.904
 2454SOL    HW2 7389   1.695   1.910   8.009
 2455SOL     OW 7390   1.388   3.435   7.925
 2455SOL    HW1 7391   1.455   3.447   7.851
 2455SOL    HW2 7392   1.348   3.524   7.948
 2456SOL     OW 7393   0.130   3.656   9.299
 2456SOL    HW1 7394   0.089   3.582   9.352
 2456SOL    HW2 7395   0.194   3.707   9.357
 2457SOL     OW 7396   1.280   2.789   8.120
 2457SOL    HW1 7397   1.340   2.708   8.122
 2457SOL    HW2 7398   1.320   2.858   8.060
 2458SOL     OW 7399   0.830   3.135   8.870
 2458SOL    HW1 7400   0.825   3.168   8.965
 2458SOL    HW2 7401   0.744   3.154   8.824
 2459SOL     OW 7402   0.672   3.478   7.602
 2459SOL    HW1 7403   0.681   3.488   7.503
 2459SOL    HW2 7404   0.632   3.389   7.623
 2460SOL     OW 7405   1.650   3.582   8.842
 2460SOL    HW1 7406   1.703   3.592   8.758
 2460SOL    HW2 7407   1.623   3.672   8.876
 2461SOL     OW 7408   1.841   2.037   8.411
 2461SOL    HW1 7409   1.880   1.952   8.375
 2461SOL    HW2 7410   1.743   2.039   8.392
 2462SOL     OW 7411   0.263   2.188   8.168
 2462SOL    HW1 7412   0.184   2.239   8.134
 2462SOL    HW2 7413   0.254   2.173   8.266
 2463SOL     OW 7414   1.194   3.474   7.479
 2463SOL    HW1 7415   1.200   3.381   7.516
 2463SOL    HW2 7416   1.135   3.474   7.399
 2464SOL     OW 7417   0.822   2.864   8.820
 2464SOL    HW1 7418   0.862   2.863   8.728
 2464SOL    HW2 7419   0.832   2.956   8.860
 2465SOL     OW 7420   0.916   2.772   7.739
 2465SOL    HW1 7421   0.979   2.810   7.671
 2465SOL    HW2 7422   0.956   2.689   7.778
 2466SOL     OW 7423   1.504   3.469   7.492
 2466SOL    HW1 7424   1.412   3.506   7.499
 2466SOL    HW2 7425   1.542   3.489   7.402
 2467SOL     OW 7426   0.372   3.150   8.938
 2467SOL    HW1 7427   0.359   3.243   8.904
 2467SOL    HW2 7428   0.288   3.098   8.925
 2468SOL     OW 7429   1.614   3.154   8.737
 2468SOL    HW1 7430   1.674   3.157   8.817
 2468SOL    HW2 7431   1.539   3.218   8.750
 2469SOL     OW 7432   1.039   2.960   8.144
 2469SOL    HW1 7433   0.969   2.913   8.198
 2469SOL    HW2 7434   1.098   2.892   8.101
 2470SOL     OW 7435   1.014   2.098   8.419
 2470SOL    HW1 7436   1.006   2.062   8.326
 2470SOL    HW2 7437   1.012   2.022   8.484
 2471SOL     OW 7438   0.590   3.349   7.939
 2471SOL    HW1 7439   0.632   3.291   7.869
 2471SOL    HW2 7440   0.546   3.428   7.895
 2472SOL     OW 7441   1.709   2.247   8.829
 2472SOL    HW1 7442   1.782   2.316   8.833
 2472SOL    HW2 7443   1.737   2.172   8.770
 2473SOL     OW 7444   0.255   3.210   7.738
 2473SOL    HW1 7445   0.159   3.211   7.711
 2473SOL    HW2 7446   0.267   3.263   7.822
 2474SOL     OW 7447   0.105   2.875   9.174
 2474SOL    HW1 7448   0.028   2.842   9.228
 2474SOL    HW2 7449   0.190   2.845   9.216
 2475SOL     OW 7450   0.672   2.065   8.937
 2475SOL    HW1 7451   0.762   2.049   8.897
 2475SOL    HW2 7452   0.680   2.070   9.036
 2476SOL     OW 7453   0.075   2.207   7.481
 2476SOL    HW1 7454  -0.017   2.179   7.452
 2476SOL    HW2 7455   0.106   2.284   7.425
 2477SOL     OW 7456   1.440   2.718   8.846
 2477SOL    HW1 7457   1.383   2.770   8.783
 2477SOL    HW2 7458   1.536   2.730   8.822
 2478SOL     OW 7459   0.072   2.028   7.766
 2478SOL    HW1 7460   0.055   2.111   7.712
 2478SOL    HW2 7461   0.162   1.991   7.744
 2479SOL     OW 7462   1.183   3.197   7.567
 2479SOL    HW1 7463   1.084   3.186   7.569
 2479SOL    HW2 7464   1.217   3.212   7.660
 2480SOL     OW 7465   0.613   2.704   8.879
 2480SOL    HW1 7466   0.669   2.785   8.862
 2480SOL    HW2 7467   0.672   2.624   8.882
 2481SOL     OW 7468   1.493   3.629   8.407
 2481SOL    HW1 7469   1.526   3.693   8.338
 2481SOL    HW2 7470   1.559   3.623   8.482
 2482SOL     OW 7471   0.716   2.427   9.156
 2482SOL    HW1 7472   0.735   2.492   9.230
 2482SOL    HW2 7473   0.776   2.347   9.165
 2483SOL     OW 7474   1.450   3.082   9.081
 2483SOL    HW1 7475   1.441   3.072   9.180
 2483SOL    HW2 7476   1.546   3.075   9.055
 2484SOL     OW 7477   0.390   3.603   9.008
 2484SOL    HW1 7478   0.299   3.644   9.006
 2484SOL    HW2 7479   0.383   3.509   9.040
 2485SOL     OW 7480   1.674   2.745   8.702
 2485SOL    HW1 7481   1.647   2.656   8.665
 2485SOL    HW2 7482   1.675   2.813   8.629
 2486SOL     OW 7483   1.225   2.187   7.897
 2486SOL    HW1 7484   1.290   2.113   7.886
 2486SOL    HW2 7485   1.245   2.237   7.981
 2487SOL     OW 7486   0.594   2.607   8.100
 2487SOL    HW1 7487   0.644   2.692   8.081
 2487SOL    HW2 7488   0.506   2.609   8.052
 2488SOL     OW 7489   1.777   2.204   9.090
 2488SOL    HW1 7490   1.760   2.235   8.996
 2488SOL    HW2 7491   1.693   2.167   9.128
 2489SOL     OW 7492   1.730   2.796   8.965
 2489SOL    HW1 7493   1.768   2.887   8.980
 2489SOL    HW2 7494   1.722   2.779   8.866
 2490SOL     OW 7495   0.859   3.236   7.464
 2490SOL    HW1 7496   0.813   3.251   7.552
 2490SOL    HW2 7497   0.903   3.321   7.434
 2491SOL     OW 7498   0.661   3.652   8.401
 2491SOL    HW1 7499   0.615   3.740   8.388
 2491SOL    HW2 7500   0.760   3.664   8.394
 2492SOL     OW 7501   0.859   2.818   8.309
 2492SOL    HW1 7502   0.913   2.749   8.357
 2492SOL    HW2 7503   0.827   2.887   8.375
 2493SOL     OW 7504   1.083   2.846   7.535
 2493SOL    HW1 7505   1.060   2.899   7.453
 2493SOL    HW2 7506   1.164   2.790   7.516
 2494SOL     OW 7507   1.861   3.431   8.299
 2494SOL    HW1 7508   1.790   3.419   8.229
 2494SOL    HW2 7509   1.862   3.352   8.359
 2495SOL     OW 7510   0.221   3.176   9.292
 2495SOL    HW1 7511   0.156   3.103   9.271
 2495SOL    HW2 7512   0.225   3.190   9.390
 2496SOL     OW 7513   0.079   3.102   8.101
 2496SOL    HW1 7514   0.078   3.055   8.189
 2496SOL    HW2 7515   0.161   3.074   8.050
 2497SOL     OW 7516   0.672   3.253   9.072
 2497SOL    HW1 7517   0.594   3.203   9.110
 2497SOL    HW2 7518   0.669   3.348   9.103
 2498SOL     OW 7519   1.824   2.054   8.675
 2498SOL    HW1 7520   1.820   1.964   8.719
 2498SOL    HW2 7521   1.827   2.043   8.576
 2499SOL     OW 7522   0.428   2.286   7.968
 2499SOL    HW1 7523   0.458   2.214   7.906
 2499SOL    HW2 7524   0.389   2.246   8.051
 2500SOL     OW 7525   1.705   3.349   8.552
 2500SOL    HW1 7526   1.612   3.324   8.525
 2500SOL    HW2 7527   1.731   3.299   8.634
 2501SOL     OW 7528   0.317   2.409   8.728
 2501SOL    HW1 7529   0.355   2.350   8.800
 2501SOL    HW2 7530   0.357   2.383   8.640
 2502SOL     OW 7531   0.812   3.448   8.135
 2502SOL    HW1 7532   0.844   3.458   8.041
 2502SOL    HW2 7533   0.733   3.386   8.137
 2503SOL     OW 7534   1.424   2.076   8.560
 2503SOL    HW1 7535   1.476   2.011   8.615
 2503SOL    HW2 7536   1.375   2.139   8.621
 2504SOL     OW 7537   1.001   1.896   8.602
 2504SOL    HW1 7538   0.938   1.824   8.571
 2504SOL    HW2 7539   1.094   1.860   8.602
 2505SOL     OW 7540   0.770   3.192   7.749
 2505SOL    HW1 7541   0.724   3.105   7.766
 2505SOL    HW2 7542   0.861   3.189   7.790
 2506SOL     OW 7543   0.618   3.429   8.732
 2506SOL    HW1 7544   0.613   3.511   8.789
 2506SOL    HW2 7545   0.707   3.426   8.687
 2507SOL     OW 7546   1.352   1.914   7.616
 2507SOL    HW1 7547   1.387   1.873   7.532
 2507SOL    HW2 7548   1.262   1.876   7.636
 2508SOL     OW 7549   1.300   2.315   8.139
 2508SOL    HW1 7550   1.241   2.395   8.143
 2508SOL    HW2 7551   1.315   2.280   8.232
 2509SOL     OW 7552   1.593   2.083   8.330
 2509SOL    HW1 7553   1.509   2.082   8.384
 2509SOL    HW2 7554   1.595   2.166   8.274
 2510SOL     OW 7555   0.039   2.939   7.748
 2510SOL    HW1 7556   0.138   2.928   7.739
 2510SOL    HW2 7557  -0.001   2.853   7.780
 2511SOL     OW 7558   0.875   3.508   7.785
 2511SOL    HW1 7559   0.798   3.473   7.731
 2511SOL    HW2 7560   0.843   3.579   7.847
 2512SOL     OW 7561   0.230   2.490   9.423
 2512SOL    HW1 7562   0.137   2.488   9.460
 2512SOL    HW2 7563   0.231   2.451   9.331
 2513SOL     OW 7564   0.225   2.137  10.306
 2513SOL    HW1 7565   0.260   2.120  10.398
 2513SOL    HW2 7566   0.137   2.092  10.294
 2514SOL     OW 7567   0.019   2.230   9.957
 2514SOL    HW1 7568  -0.063   2.273   9.996
 2514SOL    HW2 7569  -0.009   2.157   9.894
 2515SOL     OW 7570   0.569   3.137  10.475
 2515SOL    HW1 7571   0.476   3.130  10.438
 2515SOL    HW2 7572   0.580   3.226  10.519
 2516SOL     OW 7573   1.555   3.373  10.013
 2516SOL    HW1 7574   1.498   3.357  10.094
 2516SOL    HW2 7575   1.496   3.383   9.933
 2517SOL     OW 7576   1.135   2.565  10.027
 2517SOL    HW1 7577   1.192   2.643  10.002
 2517SOL    HW2 7578   1.075   2.591  10.103
 2518SOL     OW 7579   1.755   2.469   9.541
 2518SOL    HW1 7580   1.743   2.456   9.442
 2518SOL    HW2 7581   1.725   2.388   9.590
 2519SOL     OW 7582   0.768   3.006  10.333
 2519SOL    HW1 7583   0.690   3.023  10.393
 2519SOL    HW2 7584   0.802   3.093  10.297
 2520SOL     OW 7585   0.850   2.660  11.133
 2520SOL    HW1 7586   0.846   2.736  11.198
 2520SOL    HW2 7587   0.872   2.696  11.042
 2521SOL     OW 7588   0.685   2.874   9.975
 2521SOL    HW1 7589   0.754   2.858  10.045
 2521SOL    HW2 7590   0.612   2.931  10.013
 2522SOL     OW 7591   0.686   3.023  11.113
 2522SOL    HW1 7592   0.746   3.102  11.127
 2522SOL    HW2 7593   0.600   3.054  11.072
 2523SOL     OW 7594   0.335   3.297  10.371
 2523SOL    HW1 7595   0.257   3.266  10.318
 2523SOL    HW2 7596   0.393   3.355  10.314
 2524SOL     OW 7597   1.460   3.367  10.649
 2524SOL    HW1 7598   1.484   3.461  10.675
 2524SOL    HW2 7599   1.444   3.313  10.731
 2525SOL     OW 7600   0.438   2.254  10.809
 2525SOL    HW1 7601   0.520   2.198  10.818
 2525SOL    HW2 7602   0.357   2.196  10.813
 2526SOL     OW 7603   1.603   2.309  10.047
 2526SOL    HW1 7604   1.529   2.355   9.997
 2526SOL    HW2 7605   1.654   2.377  10.100
 2527SOL     OW 7606   0.231   3.575   9.793
 2527SOL    HW1 7607   0.265   3.652   9.847
 2527SOL    HW2 7608   0.275   3.575   9.703
 2528SOL     OW 7609   1.127   3.203  11.000
 2528SOL    HW1 7610   1.174   3.203  11.088
 2528SOL    HW2 7611   1.079   3.116  10.989
 2529SOL     OW 7612   0.230   3.296   9.848
 2529SOL    HW1 7613   0.204   3.392   9.848
 2529SOL    HW2 7614   0.159   3.242   9.893
 2530SOL     OW 7615   0.240   2.953  10.196
 2530SOL    HW1 7616   0.254   2.869  10.248
 2530SOL    HW2 7617   0.185   3.017  10.251
 2531SOL     OW 7618   0.620   3.648  10.749
 2531SOL    HW1 7619   0.528   3.631  10.784
 2531SOL    HW2 7620   0.648   3.740  10.775
 2532SOL     OW 7621   0.606   2.826   9.433
 2532SOL    HW1 7622   0.613   2.910   9.379
 2532SOL    HW2 7623   0.652   2.839   9.521
 2533SOL     OW 7624   1.594   1.976  10.790
 2533SOL    HW1 7625   1.576   2.043  10.718
 2533SOL    HW2 7626   1.591   2.022  10.879
 2534SOL     OW 7627   0.122   2.505   9.873
 2534SOL    HW1 7628   0.077   2.417   9.890
 2534SOL    HW2 7629   0.121   2.559   9.957
 2535SOL     OW 7630   1.842   3.629   9.669
 2535SOL    HW1 7631   1.896   3.600   9.749
 2535SOL    HW2 7632   1.872   3.719   9.640
 2536SOL     OW 7633   0.027   3.458   9.427
 2536SOL    HW1 7634   0.008   3.362   9.448
 2536SOL    HW2 7635  -0.006   3.516   9.502
 2537SOL     OW 7636   1.689   2.784   9.922
 2537SOL    HW1 7637   1.784   2.755   9.930
 2537SOL    HW2 7638   1.681   2.849   9.847
 2538SOL     OW 7639   1.641   2.970   9.742
 2538SOL    HW1 7640   1.727   2.972   9.690
 2538SOL    HW2 7641   1.655   3.017   9.830
 2539SOL     OW 7642   0.113   2.599  10.907
 2539SOL    HW1 7643   0.201   2.586  10.952
 2539SOL    HW2 7644   0.100   2.696  10.885
 2540SOL     OW 7645   0.613   3.227  10.036
 2540SOL    HW1 7646   0.564   3.140  10.045
 2540SOL    HW2 7647   0.590   3.270   9.949
 2541SOL     OW 7648   1.293   3.090  10.733
 2541SOL    HW1 7649   1.330   3.017  10.675
 2541SOL    HW2 7650   1.345   3.095  10.818
 2542SOL     OW 7651   0.809   1.866   9.812
 2542SOL    HW1 7652   0.849   1.957   9.803
 2542SOL    HW2 7653   0.709   1.874   9.818
 2543SOL     OW 7654   0.197   2.838  10.574
 2543SOL    HW1 7655   0.286   2.793  10.560
 2543SOL    HW2 7656   0.124   2.773  10.555
 2544SOL     OW 7657   1.525   2.861   9.500
 2544SOL    HW1 7658   1.462   2.785   9.513
 2544SOL    HW2 7659   1.573   2.879   9.586
 2545SOL     OW 7660   1.187   3.654  10.926
 2545SOL    HW1 7661   1.211   3.714  10.850
 2545SOL    HW2 7662   1.194   3.559  10.896
 2546SOL     OW 7663   0.317   2.113  11.111
 2546SOL    HW1 7664   0.388   2.184  11.117
 2546SOL    HW2 7665   0.229   2.152  11.139
 2547SOL     OW 7666   1.466   3.279  10.263
 2547SOL    HW1 7667   1.407   3.285  10.343
 2547SOL    HW2 7668   1.451   3.191  10.217
 2548SOL     OW 7669   1.667   3.576   9.882
 2548SOL    HW1 7670   1.626   3.553   9.794
 2548SOL    HW2 7671   1.649   3.502   9.947
 2549SOL     OW 7672   0.598   2.591   9.580
 2549SOL    HW1 7673   0.622   2.660   9.512
 2549SOL    HW2 7674   0.520   2.624   9.634
 2550SOL     OW 7675   1.281   2.207  10.254
 2550SOL    HW1 7676   1.195   2.157  10.241
 2550SOL    HW2 7677   1.343   2.153  10.310
 2551SOL     OW 7678   1.576   3.524   9.617
 2551SOL    HW1 7679   1.665   3.570   9.620
 2551SOL    HW2 7680   1.555   3.500   9.522
 2552SOL     OW 7681   0.807   2.467  10.775
 2552SOL    HW1 7682   0.760   2.464  10.864
 2552SOL    HW2 7683   0.756   2.412  10.709
 2553SOL     OW 7684   1.394   2.331  10.984
 2553SOL    HW1 7685   1.374   2.374  11.072
 2553SOL    HW2 7686   1.472   2.269  10.993
 2554SOL     OW 7687   0.973   2.752  10.882
 2554SOL    HW1 7688   1.019   2.668  10.853
 2554SOL    HW2 7689   0.917   2.786  10.807
 2555SOL     OW 7690   0.991   2.272  10.552
 2555SOL    HW1 7691   0.914   2.306  10.606
 2555SOL    HW2 7692   0.957   2.221  10.473
 2556SOL     OW 7693   1.041   2.563   9.739
 2556SOL    HW1 7694   1.067   2.559   9.835
 2556SOL    HW2 7695   0.956   2.512   9.725
 2557SOL     OW 7696   0.076   2.673  10.099
 2557SOL    HW1 7697   0.175   2.661  10.108
 2557SOL    HW2 7698   0.052   2.768  10.120
 2558SOL     OW 7699   0.130   3.683  10.881
 2558SOL    HW1 7700   0.120   3.668  10.980
 2558SOL    HW2 7701   0.044   3.719  10.845
 2559SOL     OW 7702   0.865   2.210   9.505
 2559SOL    HW1 7703   0.924   2.273   9.456
 2559SOL    HW2 7704   0.884   2.116   9.476
 2560SOL     OW 7705   1.719   2.447  11.141
 2560SOL    HW1 7706   1.693   2.536  11.105
 2560SOL    HW2 7707   1.717   2.379  11.068
 2561SOL     OW 7708   1.362   3.006   9.855
 2561SOL    HW1 7709   1.445   2.977   9.807
 2561SOL    HW2 7710   1.313   3.073   9.799
 2562SOL     OW 7711   0.550   2.058  10.195
 2562SOL    HW1 7712   0.545   2.053  10.295
 2562SOL    HW2 7713   0.552   2.154  10.166
 2563SOL     OW 7714   1.008   3.318   9.787
 2563SOL    HW1 7715   0.962   3.390   9.735
 2563SOL    HW2 7716   1.004   3.338   9.885
 2564SOL     OW 7717   0.351   3.663  10.163
 2564SOL    HW1 7718   0.401   3.577  10.169
 2564SOL    HW2 7719   0.416   3.740  10.160
 2565SOL     OW 7720   1.795   2.928  10.183
 2565SOL    HW1 7721   1.733   2.913  10.107
 2565SOL    HW2 7722   1.743   2.939  10.268
 2566SOL     OW 7723   1.227   3.412  10.816
 2566SOL    HW1 7724   1.233   3.335  10.880
 2566SOL    HW2 7725   1.175   3.386  10.736
 2567SOL     OW 7726   0.321   2.805   9.552
 2567SOL    HW1 7727   0.403   2.844   9.510
 2567SOL    HW2 7728   0.294   2.723   9.503
 2568SOL     OW 7729   1.458   2.597  10.038
 2568SOL    HW1 7730   1.453   2.532  10.113
 2568SOL    HW2 7731   1.538   2.656  10.051
 2569SOL     OW 7732   0.461   3.128  11.037
 2569SOL    HW1 7733   0.411   3.129  10.951
 2569SOL    HW2 7734   0.398   3.110  11.113
 2570SOL     OW 7735   1.111   3.638   9.547
 2570SOL    HW1 7736   1.051   3.576   9.597
 2570SOL    HW2 7737   1.142   3.594   9.462
 2571SOL     OW 7738   0.202   2.147  10.808
 2571SOL    HW1 7739   0.122   2.207  10.795
 2571SOL    HW2 7740   0.192   2.098  10.894
 2572SOL     OW 7741   1.632   3.239   9.391
 2572SOL    HW1 7742   1.600   3.333   9.381
 2572SOL    HW2 7743   1.556   3.176   9.379
 2573SOL     OW 7744   0.464   3.605   9.633
 2573SOL    HW1 7745   0.497   3.644   9.719
 2573SOL    HW2 7746   0.540   3.598   9.568
 2574SOL     OW 7747   1.400   1.969   9.736
 2574SOL    HW1 7748   1.376   1.932   9.646
 2574SOL    HW2 7749   1.499   1.985   9.740
 2575SOL     OW 7750   0.249   3.647  10.551
 2575SOL    HW1 7751   0.306   3.582  10.601
 2575SOL    HW2 7752   0.233   3.614  10.458
 2576SOL     OW 7753   0.940   3.560  10.214
 2576SOL    HW1 7754   1.020   3.503  10.235
 2576SOL    HW2 7755   0.891   3.520  10.137
 2577SOL     OW 7756   0.382   2.562   9.790
 2577SOL    HW1 7757   0.427   2.472   9.787
 2577SOL    HW2 7758   0.288   2.551   9.823
 2578SOL     OW 7759   1.547   2.084  11.039
 2578SOL    HW1 7760   1.542   2.121  11.131
 2578SOL    HW2 7761   1.475   2.015  11.027
 2579SOL     OW 7762   0.614   1.984   9.427
 2579SOL    HW1 7763   0.712   1.962   9.434
 2579SOL    HW2 7764   0.583   1.967   9.334
 2580SOL     OW 7765   0.781   2.126  11.059
 2580SOL    HW1 7766   0.848   2.065  11.102
 2580SOL    HW2 7767   0.708   2.145  11.124
 2581SOL     OW 7768   0.888   3.376  10.505
 2581SOL    HW1 7769   0.865   3.351  10.411
 2581SOL    HW2 7770   0.949   3.307  10.544
 2582SOL     OW 7771   1.351   2.452  10.743
 2582SOL    HW1 7772   1.379   2.409  10.828
 2582SOL    HW2 7773   1.376   2.548  10.744
 2583SOL     OW 7774   0.803   3.264  10.234
 2583SOL    HW1 7775   0.893   3.278  10.192
 2583SOL    HW2 7776   0.732   3.266  10.163
 2584SOL     OW 7777   0.922   2.365  10.209
 2584SOL    HW1 7778   0.897   2.356  10.113
 2584SOL    HW2 7779   0.970   2.283  10.240
 2585SOL     OW 7780   0.539   1.926   9.822
 2585SOL    HW1 7781   0.458   1.927   9.880
 2585SOL    HW2 7782   0.542   2.009   9.767
 2586SOL     OW 7783   1.434   3.050   9.351
 2586SOL    HW1 7784   1.466   2.974   9.408
 2586SOL    HW2 7785   1.342   3.077   9.381
 2587SOL     OW 7786   0.297   1.897   9.481
 2587SOL    HW1 7787   0.346   1.981   9.460
 2587SOL    HW2 7788   0.359   1.832   9.526
 2588SOL     OW 7789   0.935   2.098   9.790
 2588SOL    HW1 7790   0.887   2.139   9.712
 2588SOL    HW2 7791   1.034   2.096   9.771
 2589SOL     OW 7792   1.076   2.545  10.774
 2589SOL    HW1 7793   0.996   2.484  10.777
 2589SOL    HW2 7794   1.157   2.492  10.750
 2590SOL     OW 7795   1.227   3.432  10.103
 2590SOL    HW1 7796   1.248   3.506  10.038
 2590SOL    HW2 7797   1.295   3.432  10.176
 2591SOL     OW 7798   0.459   3.014  10.051
 2591SOL    HW1 7799   0.388   2.987  10.116
 2591SOL    HW2 7800   0.433   2.986   9.958
 2592SOL     OW 7801   1.271   3.659   9.901
 2592SOL    HW1 7802   1.315   3.723   9.837
 2592SOL    HW2 7803   1.221   3.711   9.971
 2593SOL     OW 7804   1.032   2.411   9.326
 2593SOL    HW1 7805   0.991   2.493   9.287
 2593SOL    HW2 7806   1.096   2.437   9.399
 2594SOL     OW 7807   0.078   2.418  10.696
 2594SOL    HW1 7808   0.170   2.417  10.655
 2594SOL    HW2 7809   0.072   2.492  10.763
 2595SOL     OW 7810   0.561   2.084  10.457
 2595SOL    HW1 7811   0.599   2.000  10.494
 2595SOL    HW2 7812   0.473   2.103  10.501
 2596SOL     OW 7813   0.866   2.316   9.952
 2596SOL    HW1 7814   0.834   2.388   9.890
 2596SOL    HW2 7815   0.890   2.235   9.899
 2597SOL     OW 7816   1.017   1.901  10.063
 2597SOL    HW1 7817   0.945   1.906   9.994
 2597SOL    HW2 7818   0.993   1.832  10.132
 2598SOL     OW 7819   1.429   3.035  10.177
 2598SOL    HW1 7820   1.374   2.951  10.170
 2598SOL    HW2 7821   1.455   3.064  10.085
 2599SOL     OW 7822   1.466   2.452  10.302
 2599SOL    HW1 7823   1.436   2.357  10.309
 2599SOL    HW2 7824   1.539   2.468  10.368
 2600SOL     OW 7825   1.857   2.695   9.687
 2600SOL    HW1 7826   1.899   2.631   9.751
 2600SOL    HW2 7827   1.819   2.644   9.609
 2601SOL     OW 7828   0.488   3.247   9.484
 2601SOL    HW1 7829   0.401   3.232   9.531
 2601SOL    HW2 7830   0.471   3.273   9.389
 2602SOL     OW 7831   1.664   3.142   9.967
 2602SOL    HW1 7832   1.763   3.150   9.981
 2602SOL    HW2 7833   1.619   3.226   9.998
 2603SOL     OW 7834   1.390   2.437   9.388
 2603SOL    HW1 7835   1.336   2.416   9.469
 2603SOL    HW2 7836   1.481   2.396   9.397
 2604SOL     OW 7837   0.527   2.118   9.638
 2604SOL    HW1 7838   0.554   2.059   9.563
 2604SOL    HW2 7839   0.527   2.213   9.607
 2605SOL     OW 7840   1.754   3.085  10.898
 2605SOL    HW1 7841   1.845   3.046  10.885
 2605SOL    HW2 7842   1.762   3.181  10.922
 2606SOL     OW 7843   1.064   3.209  10.650
 2606SOL    HW1 7844   0.984   3.186  10.705
 2606SOL    HW2 7845   1.147   3.183  10.699
 2607SOL     OW 7846   1.592   3.491  10.935
 2607SOL    HW1 7847   1.619   3.525  10.845
 2607SOL    HW2 7848   1.671   3.453  10.981
 2608SOL     OW 7849   1.111   3.057  10.410
 2608SOL    HW1 7850   1.071   3.101  10.491
 2608SOL    HW2 7851   1.070   3.094  10.327
 2609SOL     OW 7852   1.638   2.961  10.389
 2609SOL    HW1 7853   1.643   3.042  10.448
 2609SOL    HW2 7854   1.552   2.963  10.338
 2610SOL     OW 7855   0.915   1.951  10.712
 2610SOL    HW1 7856   0.940   1.931  10.617
 2610SOL    HW2 7857   0.987   2.007  10.754
 2611SOL     OW 7858   0.980   2.978  11.029
 2611SOL    HW1 7859   0.881   2.984  11.039
 2611SOL    HW2 7860   1.003   2.898  10.973
 2612SOL     OW 7861   0.705   2.912   9.678
 2612SOL    HW1 7862   0.691   2.919   9.777
 2612SOL    HW2 7863   0.789   2.861   9.660
 2613SOL     OW 7864   0.410   2.675  10.561
 2613SOL    HW1 7865   0.496   2.687  10.611
 2613SOL    HW2 7866   0.368   2.588  10.588
 2614SOL     OW 7867   1.274   2.248  10.572
 2614SOL    HW1 7868   1.295   2.322  10.636
 2614SOL    HW2 7869   1.185   2.265  10.529
 2615SOL     OW 7870   0.064   3.426  10.641
 2615SOL    HW1 7871   0.018   3.508  10.607
 2615SOL    HW2 7872   0.162   3.445  10.650
 2616SOL     OW 7873   0.367   2.962   9.811
 2616SOL    HW1 7874   0.360   3.045   9.755
 2616SOL    HW2 7875   0.371   2.882   9.751
 2617SOL     OW 7876   0.566   2.399  10.175
 2617SOL    HW1 7877   0.578   2.465  10.101
 2617SOL    HW2 7878   0.612   2.433  10.258
 2618SOL     OW 7879   1.252   3.210   9.698
 2618SOL    HW1 7880   1.302   3.287   9.738
 2618SOL    HW2 7881   1.157   3.212   9.730
 2619SOL     OW 7882   1.272   3.307  10.452
 2619SOL    HW1 7883   1.319   3.320  10.539
 2619SOL    HW2 7884   1.206   3.233  10.461
 2620SOL     OW 7885   1.582   2.501   9.782
 2620SOL    HW1 7886   1.551   2.562   9.855
 2620SOL    HW2 7887   1.632   2.553   9.713
 2621SOL     OW 7888   0.354   3.372  10.639
 2621SOL    HW1 7889   0.333   3.328  10.552
 2621SOL    HW2 7890   0.451   3.398  10.642
 2622SOL     OW 7891   0.402   2.613  10.908
 2622SOL    HW1 7892   0.470   2.668  10.861
 2622SOL    HW2 7893   0.442   2.525  10.935
 2623SOL     OW 7894   1.587   2.641  10.980
 2623SOL    HW1 7895   1.495   2.679  10.975
 2623SOL    HW2 7896   1.647   2.688  10.915
 2624SOL     OW 7897   1.013   1.967  11.080
 2624SOL    HW1 7898   1.019   2.052  11.028
 2624SOL    HW2 7899   1.045   1.891  11.023
 2625SOL     OW 7900   0.504   1.912  11.050
 2625SOL    HW1 7901   0.462   1.855  10.980
 2625SOL    HW2 7902   0.438   1.981  11.082
 2626SOL     OW 7903   0.573   2.732  10.339
 2626SOL    HW1 7904   0.617   2.821  10.330
 2626SOL    HW2 7905   0.510   2.732  10.416
 2627SOL     OW 7906   1.360   2.724  10.355
 2627SOL    HW1 7907   1.285   2.724  10.289
 2627SOL    HW2 7908   1.397   2.632  10.364
 2628SOL     OW 7909   1.209   2.387   9.585
 2628SOL    HW1 7910   1.222   2.303   9.639
 2628SOL    HW2 7911   1.180   2.461   9.645
 2629SOL     OW 7912   0.307   2.075  10.541
 2629SOL    HW1 7913   0.284   2.112  10.631
 2629SOL    HW2 7914   0.277   1.980  10.535
 2630SOL     OW 7915   0.037   3.172  10.592
 2630SOL    HW1 7916   0.090   3.123  10.660
 2630SOL    HW2 7917   0.059   3.270  10.597
 2631SOL     OW 7918   0.732   2.496  10.374
 2631SOL    HW1 7919   0.791   2.470  10.298
 2631SOL    HW2 7920   0.704   2.592  10.363
 2632SOL     OW 7921   1.728   2.797  11.164
 2632SOL    HW1 7922   1.682   2.790  11.075
 2632SOL    HW2 7923   1.666   2.841  11.230
 2633SOL     OW 7924   0.307   1.925   9.928
 2633SOL    HW1 7925   0.296   2.019   9.961
 2633SOL    HW2 7926   0.302   1.862  10.005
 2634SOL     OW 7927   1.622   2.229   9.684
 2634SOL    HW1 7928   1.624   2.153   9.748
 2634SOL    HW2 7929   1.574   2.306   9.724
 2635SOL     OW 7930   1.023   2.628  10.276
 2635SOL    HW1 7931   1.038   2.649  10.372
 2635SOL    HW2 7932   0.993   2.533  10.267
 2636SOL     OW 7933   0.980   3.435  11.010
 2636SOL    HW1 7934   0.960   3.479  10.922
 2636SOL    HW2 7935   1.019   3.344  10.994
 2637SOL     OW 7936   1.859   3.380  10.915
 2637SOL    HW1 7937   1.873   3.407  10.820
 2637SOL    HW2 7938   1.942   3.402  10.968
 2638SOL     OW 7939   0.350   2.760  11.114
 2638SOL    HW1 7940   0.426   2.804  11.162
 2638SOL    HW2 7941   0.385   2.713  11.032
 2639SOL     OW 7942   1.540   2.136   9.435
 2639SOL    HW1 7943   1.479   2.061   9.458
 2639SOL    HW2 7944   1.562   2.188   9.518
 2640SOL     OW 7945   1.303   2.700   9.352
 2640SOL    HW1 7946   1.337   2.607   9.367
 2640SOL    HW2 7947   1.321   2.727   9.257
 2641SOL     OW 7948   1.068   3.195  10.159
 2641SOL    HW1 7949   1.075   3.111  10.104
 2641SOL    HW2 7950   1.130   3.264  10.123
 2642SOL     OW 7951   0.319   2.672  10.259
 2642SOL    HW1 7952   0.412   2.708  10.264
 2642SOL    HW2 7953   0.313   2.587  10.311
 2643SOL     OW 7954   0.339   2.371  10.316
 2643SOL    HW1 7955   0.287   2.288  10.299
 2643SOL    HW2 7956   0.416   2.376  10.252
 2644SOL     OW 7957   1.138   2.242  10.988
 2644SOL    HW1 7958   1.093   2.305  11.052
 2644SOL    HW2 7959   1.231   2.273  10.971
 2645SOL     OW 7960   1.160   2.069  10.787
 2645SOL    HW1 7961   1.160   2.133  10.864
 2645SOL    HW2 7962   1.188   2.117  10.704
 2646SOL     OW 7963   0.008   3.188   9.510
 2646SOL    HW1 7964  -0.085   3.209   9.479
 2646SOL    HW2 7965   0.018   3.089   9.523
 2647SOL     OW 7966   0.088   3.663  10.237
 2647SOL    HW1 7967   0.046   3.577  10.210
 2647SOL    HW2 7968   0.182   3.666  10.203
 2648SOL     OW 7969   0.504   3.430  10.220
 2648SOL    HW1 7970   0.570   3.504  10.229
 2648SOL    HW2 7971   0.548   3.351  10.178
 2649SOL     OW 7972   1.002   2.658  10.548
 2649SOL    HW1 7973   1.043   2.626  10.634
 2649SOL    HW2 7974   0.906   2.631  10.545
 2650SOL     OW 7975   0.040   2.406  10.424
 2650SOL    HW1 7976   0.125   2.373  10.383
 2650SOL    HW2 7977   0.053   2.421  10.522
 2651SOL     OW 7978   0.189   2.382  11.032
 2651SOL    HW1 7979   0.248   2.342  10.962
 2651SOL    HW2 7980   0.131   2.453  10.991
 2652SOL     OW 7981   1.369   2.812  10.970
 2652SOL    HW1 7982   1.408   2.901  10.990
 2652SOL    HW2 7983   1.379   2.792  10.873
 2653SOL     OW 7984   0.815   2.434   9.635
 2653SOL    HW1 7985   0.822   2.345   9.589
 2653SOL    HW2 7986   0.721   2.468   9.627
 2654SOL     OW 7987   1.657   2.466  10.516
 2654SOL    HW1 7988   1.619   2.397  10.578
 2654SOL    HW2 7989   1.739   2.430  10.472
 2655SOL     OW 7990   0.252   3.426  11.054
 2655SOL    HW1 7991   0.222   3.483  11.130
 2655SOL    HW2 7992   0.245   3.329  11.080
 2656SOL     OW 7993   0.671   2.326  10.579
 2656SOL    HW1 7994   0.637   2.237  10.549
 2656SOL    HW2 7995   0.697   2.380  10.499
 2657SOL     OW 7996   0.930   3.540  10.775
 2657SOL    HW1 7997   0.906   3.522  10.680
 2657SOL    HW2 7998   0.960   3.634  10.785
 2658SOL     OW 7999   0.473   2.362   9.501
 2658SOL    HW1 8000   0.534   2.442   9.505
 2658SOL    HW2 8001   0.378   2.393   9.508
 2659SOL     OW 8002   0.159   2.999  10.776
 2659SOL    HW1 8003   0.181   2.938  10.852
 2659SOL    HW2 8004   0.169   2.950  10.690
 2660SOL     OW 8005   1.347   2.921  10.544
 2660SOL    HW1 8006   1.371   2.858  10.470
 2660SOL    HW2 8007   1.257   2.961  10.526
 2661SOL     OW 8008   1.302   2.717   9.619
 2661SOL    HW1 8009   1.216   2.686   9.661
 2661SOL    HW2 8010   1.298   2.703   9.520
 2662SOL     OW 8011   1.759   3.609  10.464
 2662SOL    HW1 8012   1.820   3.639  10.391
 2662SOL    HW2 8013   1.721   3.520  10.442
 2663SOL     OW 8014   1.252   3.593  10.438
 2663SOL    HW1 8015   1.336   3.598  10.384
 2663SOL    HW2 8016   1.229   3.497  10.456
 2664SOL     OW 8017   0.083   3.120  10.332
 2664SOL    HW1 8018   0.078   3.119  10.432
 2664SOL    HW2 8019   0.000   3.079  10.294
 2665SOL     OW 8020   0.688   3.524  11.026
 2665SOL    HW1 8021   0.632   3.605  11.035
 2665SOL    HW2 8022   0.740   3.528  10.940
 2666SOL     OW 8023   1.726   1.997   9.833
 2666SOL    HW1 8024   1.799   1.980   9.766
 2666SOL    HW2 8025   1.695   1.910   9.871
 2667SOL     OW 8026   1.388   3.435   9.787
 2667SOL    HW1 8027   1.455   3.447   9.713
 2667SOL    HW2 8028   1.348   3.524   9.810
 2668SOL     OW 8029   0.130   3.656  11.161
 2668SOL    HW1 8030   0.089   3.582  11.214
 2668SOL    HW2 8031   0.194   3.707  11.219
 2669SOL     OW 8032   1.280   2.789   9.982
 2669SOL    HW1 8033   1.340   2.708   9.984
 2669SOL    HW2 8034   1.320   2.858   9.922
 2670SOL     OW 8035   0.830   3.135  10.732
 2670SOL    HW1 8036   0.825   3.168  10.827
 2670SOL    HW2 8037   0.744   3.154  10.686
 2671SOL     OW 8038   0.672   3.478   9.464
 2671SOL    HW1 8039   0.681   3.488   9.365
 2671SOL    HW2 8040   0.632   3.389   9.485
 2672SOL     OW 8041   1.650   3.582  10.704
 2672SOL    HW1 8042   1.703   3.592  10.620
 2672SOL    HW2 8043   1.623   3.672  10.738
 2673SOL     OW 8044   1.841   2.037  10.273
 2673SOL    HW1 8045   1.880   1.952  10.237
 2673SOL    HW2 8046   1.743   2.039  10.254
 2674SOL     OW 8047   0.263   2.188  10.030
 2674SOL    HW1 8048   0.184   2.239   9.996
 2674SOL    HW2 8049   0.254   2.173  10.128
 2675SOL     OW 8050   1.194   3.474   9.341
 2675SOL    HW1 8051   1.200   3.381   9.378
 2675SOL    HW2 8052   1.135   3.474   9.261
 2676SOL     OW 8053   0.822   2.864  10.682
 2676SOL    HW1 8054   0.862   2.863  10.590
 2676SOL    HW2 8055   0.832   2.956  10.722
 2677SOL     OW 8056   0.916   2.772   9.601
 2677SOL    HW1 8057   0.979   2.810   9.533
 2677SOL    HW2 8058   0.956   2.689   9.640
 2678SOL     OW 8059   1.504   3.469   9.354
 2678SOL    HW1 8060   1.412   3.506   9.361
 2678SOL    HW2 8061   1.542   3.489   9.264
 2679SOL     OW 8062   0.372   3.150  10.800
 2679SOL    HW1 8063   0.359   3.243  10.766
 2679SOL    HW2 8064   0.288   3.098  10.787
 2680SOL     OW 8065   1.614   3.154  10.599
 2680SOL    HW1 8066   1.674   3.157  10.679
 2680SOL    HW2 8067   1.539   3.218  10.612
 2681SOL     OW 8068   1.039   2.960  10.006
 2681SOL    HW1 8069   0.969   2.913  10.060
 2681SOL    HW2 8070   1.098   2.892   9.963
 2682SOL     OW 8071   1.014   2.098  10.281
 2682SOL    HW1 8072   1.006   2.062  10.188
 2682SOL    HW2 8073   1.012   2.022  10.346
 2683SOL     OW 8074   0.590   3.349   9.801
 2683SOL    HW1 8075   0.632   3.291   9.731
 2683SOL    HW2 8076   0.546   3.428   9.757
 2684SOL     OW 8077   1.709   2.247  10.691
 2684SOL    HW1 8078   1.782   2.316  10.695
 2684SOL    HW2 8079   1.737   2.172  10.632
 2685SOL     OW 8080   0.255   3.210   9.600
 2685SOL    HW1 8081   0.159   3.211   9.573
 2685SOL    HW2 8082   0.267   3.263   9.684
 2686SOL     OW 8083   0.105   2.875  11.036
 2686SOL    HW1 8084   0.028   2.842  11.090
 2686SOL    HW2 8085   0.190   2.845  11.078
 2687SOL     OW 8086   0.672   2.065  10.799
 2687SOL    HW1 8087   0.762   2.049  10.759
 2687SOL    HW2 8088   0.680   2.070  10.898
 2688SOL     OW 8089   0.075   2.207   9.343
 2688SOL    HW1 8090  -0.017   2.179   9.314
 2688SOL    HW2 8091   0.106   2.284   9.287
 2689SOL     OW 8092   1.440   2.718  10.708
 2689SOL    HW1 8093   1.383   2.770  10.645
 2689SOL    HW2 8094   1.536   2.730  10.684
 2690SOL     OW 8095   0.072   2.028   9.628
 2690SOL    HW1 8096   0.055   2.111   9.574
 2690SOL    HW2 8097   0.162   1.991   9.606
 2691SOL     OW 8098   1.183   3.197   9.429
 2691SOL    HW1 8099   1.084   3.186   9.431
 2691SOL    HW2 8100   1.217   3.212   9.522
 2692SOL     OW 8101   0.613   2.704  10.741
 2692SOL    HW1 8102   0.669   2.785  10.724
 2692SOL    HW2 8103   0.672   2.624  10.744
 2693SOL     OW 8104   1.493   3.629  10.269
 2693SOL    HW1 8105   1.526   3.693  10.200
 2693SOL    HW2 8106   1.559   3.623  10.344
 2694SOL     OW 8107   0.716   2.427  11.018
 2694SOL    HW1 8108   0.735   2.492  11.092
 2694SOL    HW2 8109   0.776   2.347  11.027
 2695SOL     OW 8110   1.450   3.082  10.943
 2695SOL    HW1 8111   1.441   3.072  11.042
 2695SOL    HW2 8112   1.546   3.075  10.917
 2696SOL     OW 8113   0.390   3.603  10.870
 2696SOL    HW1 8114   0.299   3.644  10.868
 2696SOL    HW2 8115   0.383   3.509  10.902
 2697SOL     OW 8116   1.674   2.745  10.564
 2697SOL    HW1 8117   1.647   2.656  10.527
 2697SOL    HW2 8118   1.675   2.813  10.491
 2698SOL     OW 8119   1.225   2.187   9.759
 2698SOL    HW1 8120   1.290   2.113   9.748
 2698SOL    HW2 8121   1.245   2.237   9.843
 2699SOL     OW 8122   0.594   2.607   9.962
 2699SOL    HW1 8123   0.644   2.692   9.943
 2699SOL    HW2 8124   0.506   2.609   9.914
 2700SOL     OW 8125   1.777   2.204  10.952
 2700SOL    HW1 8126   1.760   2.235  10.858
 2700SOL    HW2 8127   1.693   2.167  10.990
 2701SOL     OW 8128   1.730   2.796  10.827
 2701SOL    HW1 8129   1.768   2.887  10.842
 2701SOL    HW2 8130   1.722   2.779  10.728
 2702SOL     OW 8131   0.859   3.236   9.326
 2702SOL    HW1 8132   0.813   3.251   9.414
 2702SOL    HW2 8133   0.903   3.321   9.296
 2703SOL     OW 8134   0.661   3.652  10.263
 2703SOL    HW1 8135   0.615   3.740  10.250
 2703SOL    HW2 8136   0.760   3.664  10.256
 2704SOL     OW 8137   0.859   2.818  10.171
 2704SOL    HW1 8138   0.913   2.749  10.219
 2704SOL    HW2 8139   0.827   2.887  10.237
 2705SOL     OW 8140   1.083   2.846   9.397
 2705SOL    HW1 8141   1.060   2.899   9.315
 2705SOL    HW2 8142   1.164   2.790   9.378
 2706SOL     OW 8143   1.861   3.431  10.161
 2706SOL    HW1 8144   1.790   3.419  10.091
 2706SOL    HW2 8145   1.862   3.352  10.221
 2707SOL     OW 8146   0.221   3.176  11.154
 2707SOL    HW1 8147   0.156   3.103  11.133
 2707SOL    HW2 8148   0.225   3.190  11.252
 2708SOL     OW 8149   0.079   3.102   9.963
 2708SOL    HW1 8150   0.078   3.055  10.051
 2708SOL    HW2 8151   0.161   3.074   9.912
 2709SOL     OW 8152   0.672   3.253  10.934
 2709SOL    HW1 8153   0.594   3.203  10.972
 2709SOL    HW2 8154   0.669   3.348  10.965
 2710SOL     OW 8155   1.824   2.054  10.537
 2710SOL    HW1 8156   1.820   1.964  10.581
 2710SOL    HW2 8157   1.827   2.043  10.438
 2711SOL     OW 8158   0.428   2.286   9.830
 2711SOL    HW1 8159   0.458   2.214   9.768
 2711SOL    HW2 8160   0.389   2.246   9.913
 2712SOL     OW 8161   1.705   3.349  10.414
 2712SOL    HW1 8162   1.612   3.324  10.387
 2712SOL    HW2 8163   1.731   3.299  10.496
 2713SOL     OW 8164   0.317   2.409  10.590
 2713SOL    HW1 8165   0.355   2.350  10.662
 2713SOL    HW2 8166   0.357   2.383  10.502
 2714SOL     OW 8167   0.812   3.448   9.997
 2714SOL    HW1 8168   0.844   3.458   9.903
 2714SOL    HW2 8169   0.733   3.386   9.999
 2715SOL     OW 8170   1.424   2.076  10.422
 2715SOL    HW1 8171   1.476   2.011  10.477
 2715SOL    HW2 8172   1.375   2.139  10.483
 2716SOL     OW 8173   1.001   1.896  10.464
 2716SOL    HW1 8174   0.938   1.824  10.433
 2716SOL    HW2 8175   1.094   1.860  10.464
 2717SOL     OW 8176   0.770   3.192   9.611
 2717SOL    HW1 8177   0.724   3.105   9.628
 2717SOL    HW2 8178   0.861   3.189   9.652
 2718SOL     OW 8179   0.618   3.429  10.594
 2718SOL    HW1 8180   0.613   3.511  10.651
 2718SOL    HW2 8181   0.707   3.426  10.549
 2719SOL     OW 8182   1.352   1.914   9.478
 2719SOL    HW1 8183   1.387   1.873   9.394
 2719SOL    HW2 8184   1.262   1.876   9.498
 2720SOL     OW 8185   1.300   2.315  10.001
 2720SOL    HW1 8186   1.241   2.395  10.005
 2720SOL    HW2 8187   1.315   2.280  10.094
 2721SOL     OW 8188   1.593   2.083  10.192
 2721SOL    HW1 8189   1.509   2.082  10.246
 2721SOL    HW2 8190   1.595   2.166  10.136
 2722SOL     OW 8191   0.039   2.939   9.610
 2722SOL    HW1 8192   0.138   2.928   9.601
 2722SOL    HW2 8193  -0.001   2.853   9.642
 2723SOL     OW 8194   0.875   3.508   9.647
 2723SOL    HW1 8195   0.798   3.473   9.593
 2723SOL    HW2 8196   0.843   3.579   9.709
 2724SOL     OW 8197   0.230   2.490  11.285
 2724SOL    HW1 8198   0.137   2.488  11.322
 2724SOL    HW2 8199   0.231   2.451  11.193
 2725SOL     OW 8200   0.225   2.137  12.168
 2725SOL    HW1 8201   0.260   2.120  12.260
 2725SOL    HW2 8202   0.137   2.092  12.156
 2726SOL     OW 8203   0.019   2.230  11.819
 2726SOL    HW1 8204  -0.063   2.273  11.858
 2726SOL    HW2 8205  -0.009   2.157  11.756
 2727SOL     OW 8206   0.569   3.137  12.337
 2727SOL    HW1 8207   0.476   3.130  12.300
 2727SOL    HW2 8208   0.580   3.226  12.381
 2728SOL     OW 8209   1.555   3.373  11.875
 2728SOL    HW1 8210   1.498   3.357  11.956
 2728SOL    HW2 8211   1.496   3.383  11.795
 2729SOL     OW 8212   1.135   2.565  11.889
 2729SOL    HW1 8213   1.192   2.643  11.864
 2729SOL    HW2 8214   1.075   2.591  11.965
 2730SOL     OW 8215   1.755   2.469  11.403
 2730SOL    HW1 8216   1.743   2.456  11.304
 2730SOL    HW2 8217   1.725   2.388  11.452
 2731SOL     OW 8218   0.768   3.006  12.195
 2731SOL    HW1 8219   0.690   3.023  12.255
 2731SOL    HW2 8220   0.802   3.093  12.159
 2732SOL     OW 8221   0.685   2.874  11.837
 2732SOL    HW1 8222   0.754   2.858  11.907
 2732SOL    HW2 8223   0.612   2.931  11.875
 2733SOL     OW 8224   0.335   3.297  12.233
 2733SOL    HW1 8225   0.257   3.266  12.180
 2733SOL    HW2 8226   0.393   3.355  12.176
 2734SOL     OW 8227   1.460   3.367  12.511
 2734SOL    HW1 8228   1.484   3.461  12.537
 2734SOL    HW2 8229   1.444   3.313  12.593
 2735SOL     OW 8230   0.438   2.254  12.671
 2735SOL    HW1 8231   0.520   2.198  12.680
 2735SOL    HW2 8232   0.357   2.196  12.675
 2736SOL     OW 8233   1.603   2.309  11.909
 2736SOL    HW1 8234   1.529   2.355  11.859
 2736SOL    HW2 8235   1.654   2.377  11.962
 2737SOL     OW 8236   0.231   3.575  11.655
 2737SOL    HW1 8237   0.265   3.652  11.709
 2737SOL    HW2 8238   0.275   3.575  11.565
 2738SOL     OW 8239   0.230   3.296  11.710
 2738SOL    HW1 8240   0.204   3.392  11.710
 2738SOL    HW2 8241   0.159   3.242  11.755
 2739SOL     OW 8242   0.240   2.953  12.058
 2739SOL    HW1 8243   0.254   2.869  12.110
 2739SOL    HW2 8244   0.185   3.017  12.113
 2740SOL     OW 8245   0.620   3.648  12.611
 2740SOL    HW1 8246   0.528   3.631  12.646
 2740SOL    HW2 8247   0.648   3.740  12.637
 2741SOL     OW 8248   0.606   2.826  11.295
 2741SOL    HW1 8249   0.613   2.910  11.241
 2741SOL    HW2 8250   0.652   2.839  11.383
 2742SOL     OW 8251   1.594   1.976  12.652
 2742SOL    HW1 8252   1.576   2.043  12.580
 2742SOL    HW2 8253   1.591   2.022  12.741
 2743SOL     OW 8254   0.122   2.505  11.735
 2743SOL    HW1 8255   0.077   2.417  11.752
 2743SOL    HW2 8256   0.121   2.559  11.819
 2744SOL     OW 8257   1.842   3.629  11.531
 2744SOL    HW1 8258   1.896   3.600  11.611
 2744SOL    HW2 8259   1.872   3.719  11.502
 2745SOL     OW 8260   0.027   3.458  11.289
 2745SOL    HW1 8261   0.008   3.362  11.310
 2745SOL    HW2 8262  -0.006   3.516  11.364
 2746SOL     OW 8263   1.689   2.784  11.784
 2746SOL    HW1 8264   1.784   2.755  11.792
 2746SOL    HW2 8265   1.681   2.849  11.709
 2747SOL     OW 8266   1.641   2.970  11.604
 2747SOL    HW1 8267   1.727   2.972  11.552
 2747SOL    HW2 8268   1.655   3.017  11.692
 2748SOL     OW 8269   0.613   3.227  11.898
 2748SOL    HW1 8270   0.564   3.140  11.907
 2748SOL    HW2 8271   0.590   3.270  11.811
 2749SOL     OW 8272   0.809   1.866  11.674
 2749SOL    HW1 8273   0.849   1.957  11.665
 2749SOL    HW2 8274   0.709   1.874  11.680
 2750SOL     OW 8275   0.197   2.838  12.436
 2750SOL    HW1 8276   0.286   2.793  12.422
 2750SOL    HW2 8277   0.124   2.773  12.417
 2751SOL     OW 8278   1.525   2.861  11.362
 2751SOL    HW1 8279   1.462   2.785  11.375
 2751SOL    HW2 8280   1.573   2.879  11.448
 2752SOL     OW 8281   0.317   2.113  12.973
 2752SOL    HW1 8282   0.388   2.184  12.979
 2752SOL    HW2 8283   0.229   2.152  13.001
 2753SOL     OW 8284   1.466   3.279  12.125
 2753SOL    HW1 8285   1.407   3.285  12.205
 2753SOL    HW2 8286   1.451   3.191  12.079
 2754SOL     OW 8287   1.667   3.576  11.744
 2754SOL    HW1 8288   1.626   3.553  11.656
 2754SOL    HW2 8289   1.649   3.502  11.809
 2755SOL     OW 8290   0.598   2.591  11.442
 2755SOL    HW1 8291   0.622   2.660  11.374
 2755SOL    HW2 8292   0.520   2.624  11.496
 2756SOL     OW 8293   1.281   2.207  12.116
 2756SOL    HW1 8294   1.195   2.157  12.103
 2756SOL    HW2 8295   1.343   2.153  12.172
 2757SOL     OW 8296   1.576   3.524  11.479
 2757SOL    HW1 8297   1.665   3.570  11.482
 2757SOL    HW2 8298   1.555   3.500  11.384
 2758SOL     OW 8299   0.807   2.467  12.637
 2758SOL    HW1 8300   0.760   2.464  12.726
 2758SOL    HW2 8301   0.756   2.412  12.571
 2759SOL     OW 8302   0.991   2.272  12.414
 2759SOL    HW1 8303   0.914   2.306  12.468
 2759SOL    HW2 8304   0.957   2.221  12.335
 2760SOL     OW 8305   1.041   2.563  11.601
 2760SOL    HW1 8306   1.067   2.559  11.697
 2760SOL    HW2 8307   0.956   2.512  11.587
 2761SOL     OW 8308   0.076   2.673  11.961
 2761SOL    HW1 8309   0.175   2.661  11.970
 2761SOL    HW2 8310   0.052   2.768  11.982
 2762SOL     OW 8311   0.130   3.683  12.743
 2762SOL    HW1 8312   0.120   3.668  12.842
 2762SOL    HW2 8313   0.044   3.719  12.707
 2763SOL     OW 8314   0.865   2.210  11.367
 2763SOL    HW1 8315   0.924   2.273  11.318
 2763SOL    HW2 8316   0.884   2.116  11.338
 2764SOL     OW 8317   1.362   3.006  11.717
 2764SOL    HW1 8318   1.445   2.977  11.669
 2764SOL    HW2 8319   1.313   3.073  11.661
 2765SOL     OW 8320   0.550   2.058  12.057
 2765SOL    HW1 8321   0.545   2.053  12.157
 2765SOL    HW2 8322   0.552   2.154  12.028
 2766SOL     OW 8323   1.008   3.318  11.649
 2766SOL    HW1 8324   0.962   3.390  11.597
 2766SOL    HW2 8325   1.004   3.338  11.747
 2767SOL     OW 8326   0.351   3.663  12.025
 2767SOL    HW1 8327   0.401   3.577  12.031
 2767SOL    HW2 8328   0.416   3.740  12.022
 2768SOL     OW 8329   1.795   2.928  12.045
 2768SOL    HW1 8330   1.733   2.913  11.969
 2768SOL    HW2 8331   1.743   2.939  12.130
 2769SOL     OW 8332   0.321   2.805  11.414
 2769SOL    HW1 8333   0.403   2.844  11.372
 2769SOL    HW2 8334   0.294   2.723  11.365
 2770SOL     OW 8335   1.458   2.597  11.900
 2770SOL    HW1 8336   1.453   2.532  11.975
 2770SOL    HW2 8337   1.538   2.656  11.913
 2771SOL     OW 8338   1.111   3.638  11.409
 2771SOL    HW1 8339   1.051   3.576  11.459
 2771SOL    HW2 8340   1.142   3.594  11.324
 2772SOL     OW 8341   1.632   3.239  11.253
 2772SOL    HW1 8342   1.600   3.333  11.243
 2772SOL    HW2 8343   1.556   3.176  11.241
 2773SOL     OW 8344   0.464   3.605  11.495
 2773SOL    HW1 8345   0.497   3.644  11.581
 2773SOL    HW2 8346   0.540   3.598  11.430
 2774SOL     OW 8347   1.400   1.969  11.598
 2774SOL    HW1 8348   1.376   1.932  11.508
 2774SOL    HW2 8349   1.499   1.985  11.602
 2775SOL     OW 8350   0.249   3.647  12.413
 2775SOL    HW1 8351   0.306   3.582  12.463
 2775SOL    HW2 8352   0.233   3.614  12.320
 2776SOL     OW 8353   0.940   3.560  12.076
 2776SOL    HW1 8354   1.020   3.503  12.097
 2776SOL    HW2 8355   0.891   3.520  11.999
 2777SOL     OW 8356   0.382   2.562  11.652
 2777SOL    HW1 8357   0.427   2.472  11.649
 2777SOL    HW2 8358   0.288   2.551  11.685
 2778SOL     OW 8359   0.614   1.984  11.289
 2778SOL    HW1 8360   0.712   1.962  11.296
 2778SOL    HW2 8361   0.583   1.967  11.196
 2779SOL     OW 8362   0.888   3.376  12.367
 2779SOL    HW1 8363   0.865   3.351  12.273
 2779SOL    HW2 8364   0.949   3.307  12.406
 2780SOL     OW 8365   0.803   3.264  12.096
 2780SOL    HW1 8366   0.893   3.278  12.054
 2780SOL    HW2 8367   0.732   3.266  12.025
 2781SOL     OW 8368   0.922   2.365  12.071
 2781SOL    HW1 8369   0.897   2.356  11.975
 2781SOL    HW2 8370   0.970   2.283  12.102
 2782SOL     OW 8371   0.539   1.926  11.684
 2782SOL    HW1 8372   0.458   1.927  11.742
 2782SOL    HW2 8373   0.542   2.009  11.629
 2783SOL     OW 8374   1.434   3.050  11.213
 2783SOL    HW1 8375   1.466   2.974  11.270
 2783SOL    HW2 8376   1.342   3.077  11.243
 2784SOL     OW 8377   0.297   1.897  11.343
 2784SOL    HW1 8378   0.346   1.981  11.322
 2784SOL    HW2 8379   0.359   1.832  11.388
 2785SOL     OW 8380   0.935   2.098  11.652
 2785SOL    HW1 8381   0.887   2.139  11.574
 2785SOL    HW2 8382   1.034   2.096  11.633
 2786SOL     OW 8383   1.227   3.432  11.965
 2786SOL    HW1 8384   1.248   3.506  11.900
 2786SOL    HW2 8385   1.295   3.432  12.038
 2787SOL     OW 8386   0.459   3.014  11.913
 2787SOL    HW1 8387   0.388   2.987  11.978
 2787SOL    HW2 8388   0.433   2.986  11.820
 2788SOL     OW 8389   1.271   3.659  11.763
 2788SOL    HW1 8390   1.315   3.723  11.699
 2788SOL    HW2 8391   1.221   3.711  11.833
 2789SOL     OW 8392   1.032   2.411  11.188
 2789SOL    HW1 8393   0.991   2.493  11.149
 2789SOL    HW2 8394   1.096   2.437  11.261
 2790SOL     OW 8395   0.078   2.418  12.558
 2790SOL    HW1 8396   0.170   2.417  12.517
 2790SOL    HW2 8397   0.072   2.492  12.625
 2791SOL     OW 8398   0.561   2.084  12.319
 2791SOL    HW1 8399   0.599   2.000  12.356
 2791SOL    HW2 8400   0.473   2.103  12.363
 2792SOL     OW 8401   0.866   2.316  11.814
 2792SOL    HW1 8402   0.834   2.388  11.752
 2792SOL    HW2 8403   0.890   2.235  11.761
 2793SOL     OW 8404   1.017   1.901  11.925
 2793SOL    HW1 8405   0.945   1.906  11.856
 2793SOL    HW2 8406   0.993   1.832  11.994
 2794SOL     OW 8407   1.429   3.035  12.039
 2794SOL    HW1 8408   1.374   2.951  12.032
 2794SOL    HW2 8409   1.455   3.064  11.947
 2795SOL     OW 8410   1.466   2.452  12.164
 2795SOL    HW1 8411   1.436   2.357  12.171
 2795SOL    HW2 8412   1.539   2.468  12.230
 2796SOL     OW 8413   1.857   2.695  11.549
 2796SOL    HW1 8414   1.899   2.631  11.613
 2796SOL    HW2 8415   1.819   2.644  11.471
 2797SOL     OW 8416   0.488   3.247  11.346
 2797SOL    HW1 8417   0.401   3.232  11.393
 2797SOL    HW2 8418   0.471   3.273  11.251
 2798SOL     OW 8419   1.664   3.142  11.829
 2798SOL    HW1 8420   1.763   3.150  11.843
 2798SOL    HW2 8421   1.619   3.226  11.860
 2799SOL     OW 8422   1.390   2.437  11.250
 2799SOL    HW1 8423   1.336   2.416  11.331
 2799SOL    HW2 8424   1.481   2.396  11.259
 2800SOL     OW 8425   0.527   2.118  11.500
 2800SOL    HW1 8426   0.554   2.059  11.425
 2800SOL    HW2 8427   0.527   2.213  11.469
 2801SOL     OW 8428   1.064   3.209  12.512
 2801SOL    HW1 8429   0.984   3.186  12.567
 2801SOL    HW2 8430   1.147   3.183  12.561
 2802SOL     OW 8431   1.111   3.057  12.272
 2802SOL    HW1 8432   1.071   3.101  12.353
 2802SOL    HW2 8433   1.070   3.094  12.189
 2803SOL     OW 8434   1.638   2.961  12.251
 2803SOL    HW1 8435   1.643   3.042  12.310
 2803SOL    HW2 8436   1.552   2.963  12.200
 2804SOL     OW 8437   0.915   1.951  12.574
 2804SOL    HW1 8438   0.940   1.931  12.479
 2804SOL    HW2 8439   0.987   2.007  12.616
 2805SOL     OW 8440   0.705   2.912  11.540
 2805SOL    HW1 8441   0.691   2.919  11.639
 2805SOL    HW2 8442   0.789   2.861  11.522
 2806SOL     OW 8443   0.410   2.675  12.423
 2806SOL    HW1 8444   0.496   2.687  12.473
 2806SOL    HW2 8445   0.368   2.588  12.450
 2807SOL     OW 8446   1.274   2.248  12.434
 2807SOL    HW1 8447   1.295   2.322  12.498
 2807SOL    HW2 8448   1.185   2.265  12.391
 2808SOL     OW 8449   0.064   3.426  12.503
 2808SOL    HW1 8450   0.018   3.508  12.469
 2808SOL    HW2 8451   0.162   3.445  12.512
 2809SOL     OW 8452   0.367   2.962  11.673
 2809SOL    HW1 8453   0.360   3.045  11.617
 2809SOL    HW2 8454   0.371   2.882  11.613
 2810SOL     OW 8455   0.566   2.399  12.037
 2810SOL    HW1 8456   0.578   2.465  11.963
 2810SOL    HW2 8457   0.612   2.433  12.120
 2811SOL     OW 8458   1.252   3.210  11.560
 2811SOL    HW1 8459   1.302   3.287  11.600
 2811SOL    HW2 8460   1.157   3.212  11.592
 2812SOL     OW 8461   1.272   3.307  12.314
 2812SOL    HW1 8462   1.319   3.320  12.401
 2812SOL    HW2 8463   1.206   3.233  12.323
 2813SOL     OW 8464   1.582   2.501  11.644
 2813SOL    HW1 8465   1.551   2.562  11.717
 2813SOL    HW2 8466   1.632   2.553  11.575
 2814SOL     OW 8467   0.354   3.372  12.501
 2814SOL    HW1 8468   0.333   3.328  12.414
 2814SOL    HW2 8469   0.451   3.398  12.504
 2815SOL     OW 8470   0.402   2.613  12.770
 2815SOL    HW1 8471   0.470   2.668  12.723
 2815SOL    HW2 8472   0.442   2.525  12.797
 2816SOL     OW 8473   1.587   2.641  12.842
 2816SOL    HW1 8474   1.495   2.679  12.837
 2816SOL    HW2 8475   1.647   2.688  12.777
 2817SOL     OW 8476   0.573   2.732  12.201
 2817SOL    HW1 8477   0.617   2.821  12.192
 2817SOL    HW2 8478   0.510   2.732  12.278
 2818SOL     OW 8479   1.360   2.724  12.217
 2818SOL    HW1 8480   1.285   2.724  12.151
 2818SOL    HW2 8481   1.397   2.632  12.226
 2819SOL     OW 8482   1.209   2.387  11.447
 2819SOL    HW1 8483   1.222   2.303  11.501
 2819SOL    HW2 8484   1.180   2.461  11.507
 2820SOL     OW 8485   0.307   2.075  12.403
 2820SOL    HW1 8486   0.284   2.112  12.493
 2820SOL    HW2 8487   0.277   1.980  12.397
 2821SOL     OW 8488   0.037   3.172  12.454
 2821SOL    HW1 8489   0.090   3.123  12.522
 2821SOL    HW2 8490   0.059   3.270  12.459
 2822SOL     OW 8491   0.732   2.496  12.236
 2822SOL    HW1 8492   0.791   2.470  12.160
 2822SOL    HW2 8493   0.704   2.592  12.225
 2823SOL     OW 8494   0.307   1.925  11.790
 2823SOL    HW1 8495   0.296   2.019  11.823
 2823SOL    HW2 8496   0.302   1.862  11.867
 2824SOL     OW 8497   1.622   2.229  11.546
 2824SOL    HW1 8498   1.624   2.153  11.610
 2824SOL    HW2 8499   1.574   2.306  11.586
 2825SOL     OW 8500   1.023   2.628  12.138
 2825SOL    HW1 8501   1.038   2.649  12.234
 2825SOL    HW2 8502   0.993   2.533  12.129
 2826SOL     OW 8503   0.980   3.435  12.872
 2826SOL    HW1 8504   0.960   3.479  12.784
 2826SOL    HW2 8505   1.019   3.344  12.856
 2827SOL     OW 8506   1.540   2.136  11.297
 2827SOL    HW1 8507   1.479   2.061  11.320
 2827SOL    HW2 8508   1.562   2.188  11.380
 2828SOL     OW 8509   1.303   2.700  11.214
 2828SOL    HW1 8510   1.337   2.607  11.229
 2828SOL    HW2 8511   1.321   2.727  11.119
 2829SOL     OW 8512   1.068   3.195  12.021
 2829SOL    HW1 8513   1.075   3.111  11.966
 2829SOL    HW2 8514   1.130   3.264  11.985
 2830SOL     OW 8515   0.319   2.672  12.121
 2830SOL    HW1 8516   0.412   2.708  12.126
 2830SOL    HW2 8517   0.313   2.587  12.173
 2831SOL     OW 8518   0.339   2.371  12.178
 2831SOL    HW1 8519   0.287   2.288  12.161
 2831SOL    HW2 8520   0.416   2.376  12.114
 2832SOL     OW 8521   1.138   2.242  12.850
 2832SOL    HW1 8522   1.093   2.305  12.914
 2832SOL    HW2 8523   1.231   2.273  12.833
 2833SOL     OW 8524   1.160   2.069  12.649
 2833SOL    HW1 8525   1.160   2.133  12.726
 2833SOL    HW2 8526   1.188   2.117  12.566
 2834SOL     OW 8527   0.008   3.188  11.372
 2834SOL    HW1 8528  -0.085   3.209  11.341
 2834SOL    HW2 8529   0.018   3.089  11.385
 2835SOL     OW 8530   0.088   3.663  12.099
 2835SOL    HW1 8531   0.046   3.577  12.072
 2835SOL    HW2 8532   0.182   3.666  12.065
 2836SOL     OW 8533   0.504   3.430  12.082
 2836SOL    HW1 8534   0.570   3.504  12.091
 2836SOL    HW2 8535   0.548   3.351  12.040
 2837SOL     OW 8536   1.002   2.658  12.410
 2837SOL    HW1 8537   1.043   2.626  12.496
 2837SOL    HW2 8538   0.906   2.631  12.407
 2838SOL     OW 8539   0.040   2.406  12.286
 2838SOL    HW1 8540   0.125   2.373  12.245
 2838SOL    HW2 8541   0.053   2.421  12.384
 2839SOL     OW 8542   0.815   2.434  11.497
 2839SOL    HW1 8543   0.822   2.345  11.451
 2839SOL    HW2 8544   0.721   2.468  11.489
 2840SOL     OW 8545   1.657   2.466  12.378
 2840SOL    HW1 8546   1.619   2.397  12.440
 2840SOL    HW2 8547   1.739   2.430  12.334
 2841SOL     OW 8548   0.671   2.326  12.441
 2841SOL    HW1 8549   0.637   2.237  12.411
 2841SOL    HW2 8550   0.697   2.380  12.361
 2842SOL     OW 8551   0.930   3.540  12.637
 2842SOL    HW1 8552   0.906   3.522  12.542
 2842SOL    HW2 8553   0.960   3.634  12.647
 2843SOL     OW 8554   0.473   2.362  11.363
 2843SOL    HW1 8555   0.534   2.442  11.367
 2843SOL    HW2 8556   0.378   2.393  11.370
 2844SOL     OW 8557   0.159   2.999  12.638
 2844SOL    HW1 8558   0.181   2.938  12.714
 2844SOL    HW2 8559   0.169   2.950  12.552
 2845SOL     OW 8560   1.347   2.921  12.406
 2845SOL    HW1 8561   1.371   2.858  12.332
 2845SOL    HW2 8562   1.257   2.961  12.388
 2846SOL     OW 8563   1.302   2.717  11.481
 2846SOL    HW1 8564   1.216   2.686  11.523
 2846SOL    HW2 8565   1.298   2.703  11.382
 2847SOL     OW 8566   1.759   3.609  12.326
 2847SOL    HW1 8567   1.820   3.639  12.253
 2847SOL    HW2 8568   1.721   3.520  12.304
 2848SOL     OW 8569   1.252   3.593  12.300
 2848SOL    HW1 8570   1.336   3.598  12.246
 2848SOL    HW2 8571   1.229   3.497  12.318
 2849SOL     OW 8572   0.083   3.120  12.194
 2849SOL    HW1 8573   0.078   3.119  12.294
 2849SOL    HW2 8574   0.000   3.079  12.156
 2850SOL     OW 8575   1.726   1.997  11.695
 2850SOL    HW1 8576   1.799   1.980  11.628
 2850SOL    HW2 8577   1.695   1.910  11.733
 2851SOL     OW 8578   1.388   3.435  11.649
 2851SOL    HW1 8579   1.455   3.447  11.575
 2851SOL    HW2 8580   1.348   3.524  11.672
 2852SOL     OW 8581   1.280   2.789  11.844
 2852SOL    HW1 8582   1.340   2.708  11.846
 2852SOL    HW2 8583   1.320   2.858  11.784
 2853SOL     OW 8584   0.672   3.478  11.326
 2853SOL    HW1 8585   0.681   3.488  11.227
 2853SOL    HW2 8586   0.632   3.389  11.347
 2854SOL     OW 8587   1.650   3.582  12.566
 2854SOL    HW1 8588   1.703   3.592  12.482
 2854SOL    HW2 8589   1.623   3.672  12.600
 2855SOL     OW 8590   1.841   2.037  12.135
 2855SOL    HW1 8591   1.880   1.952  12.099
 2855SOL    HW2 8592   1.743   2.039  12.116
 2856SOL     OW 8593   0.263   2.188  11.892
 2856SOL    HW1 8594   0.184   2.239  11.858
 2856SOL    HW2 8595   0.254   2.173  11.990
 2857SOL     OW 8596   1.194   3.474  11.203
 2857SOL    HW1 8597   1.200   3.381  11.240
 2857SOL    HW2 8598   1.135   3.474  11.123
 2858SOL     OW 8599   0.822   2.864  12.544
 2858SOL    HW1 8600   0.862   2.863  12.452
 2858SOL    HW2 8601   0.832   2.956  12.584
 2859SOL     OW 8602   0.916   2.772  11.463
 2859SOL    HW1 8603   0.979   2.810  11.395
 2859SOL    HW2 8604   0.956   2.689  11.502
 2860SOL     OW 8605   1.504   3.469  11.216
 2860SOL    HW1 8606   1.412   3.506  11.223
 2860SOL    HW2 8607   1.542   3.489  11.126
 2861SOL     OW 8608   0.372   3.150  12.662
 2861SOL    HW1 8609   0.359   3.243  12.628
 2861SOL    HW2 8610   0.288   3.098  12.649
 2862SOL     OW 8611   1.614   3.154  12.461
 2862SOL    HW1 8612   1.674   3.157  12.541
 2862SOL    HW2 8613   1.539   3.218  12.474
 2863SOL     OW 8614   1.039   2.960  11.868
 2863SOL    HW1 8615   0.969   2.913  11.922
 2863SOL    HW2 8616   1.098   2.892  11.825
 2864SOL     OW 8617   1.014   2.098  12.143
 2864SOL    HW1 8618   1.006   2.062  12.050
 2864SOL    HW2 8619   1.012   2.022  12.208
 2865SOL     OW 8620   0.590   3.349  11.663
 2865SOL    HW1 8621   0.632   3.291  11.593
 2865SOL    HW2 8622   0.546   3.428  11.619
 2866SOL     OW 8623   1.709   2.247  12.553
 2866SOL    HW1 8624   1.782   2.316  12.557
 2866SOL    HW2 8625   1.737   2.172  12.494
 2867SOL     OW 8626   0.255   3.210  11.462
 2867SOL    HW1 8627   0.159   3.211  11.435
 2867SOL    HW2 8628   0.267   3.263  11.546
 2868SOL     OW 8629   0.075   2.207  11.205
 2868SOL    HW1 8630  -0.017   2.179  11.176
 2868SOL    HW2 8631   0.106   2.284  11.149
 2869SOL     OW 8632   1.440   2.718  12.570
 2869SOL    HW1 8633   1.383   2.770  12.507
 2869SOL    HW2 8634   1.536   2.730  12.546
 2870SOL     OW 8635   0.072   2.028  11.490
 2870SOL    HW1 8636   0.055   2.111  11.436
 2870SOL    HW2 8637   0.162   1.991  11.468
 2871SOL     OW 8638   1.183   3.197  11.291
 2871SOL    HW1 8639   1.084   3.186  11.293
 2871SOL    HW2 8640   1.217   3.212  11.384
 2872SOL     OW 8641   0.613   2.704  12.603
 2872SOL    HW1 8642   0.669   2.785  12.586
 2872SOL    HW2 8643   0.672   2.624  12.606
 2873SOL     OW 8644   1.493   3.629  12.131
 2873SOL    HW1 8645   1.526   3.693  12.062
 2873SOL    HW2 8646   1.559   3.623  12.206
 2874SOL     OW 8647   0.390   3.603  12.732
 2874SOL    HW1 8648   0.299   3.644  12.730
 2874SOL    HW2 8649   0.383   3.509  12.764
 2875SOL     OW 8650   1.674   2.745  12.426
 2875SOL    HW1 8651   1.647   2.656  12.389
 2875SOL    HW2 8652   1.675   2.813  12.353
 2876SOL     OW 8653   1.225   2.187  11.621
 2876SOL    HW1 8654   1.290   2.113  11.610
 2876SOL    HW2 8655   1.245   2.237  11.705
 2877SOL     OW 8656   0.594   2.607  11.824
 2877SOL    HW1 8657   0.644   2.692  11.805
 2877SOL    HW2 8658   0.506   2.609  11.776
 2878SOL     OW 8659   1.777   2.204  12.814
 2878SOL    HW1 8660   1.760   2.235  12.720
 2878SOL    HW2 8661   1.693   2.167  12.852
 2879SOL     OW 8662   1.730   2.796  12.689
 2879SOL    HW1 8663   1.768   2.887  12.704
 2879SOL    HW2 8664   1.722   2.779  12.590
 2880SOL     OW 8665   0.859   3.236  11.188
 2880SOL    HW1 8666   0.813   3.251  11.276
 2880SOL    HW2 8667   0.903   3.321  11.158
 2881SOL     OW 8668   0.661   3.652  12.125
 2881SOL    HW1 8669   0.615   3.740  12.112
 2881SOL    HW2 8670   0.760   3.664  12.118
 2882SOL     OW 8671   0.859   2.818  12.033
 2882SOL    HW1 8672   0.913   2.749  12.081
 2882SOL    HW2 8673   0.827   2.887  12.099
 2883SOL     OW 8674   1.083   2.846  11.259
 2883SOL    HW1 8675   1.060   2.899  11.177
 2883SOL    HW2 8676   1.164   2.790  11.240
 2884SOL     OW 8677   1.861   3.431  12.023
 2884SOL    HW1 8678   1.790   3.419  11.953
 2884SOL    HW2 8679   1.862   3.352  12.083
 2885SOL     OW 8680   0.079   3.102  11.825
 2885SOL    HW1 8681   0.078   3.055  11.913
 2885SOL    HW2 8682   0.161   3.074  11.774
 2886SOL     OW 8683   1.824   2.054  12.399
 2886SOL    HW1 8684   1.820   1.964  12.443
 2886SOL    HW2 8685   1.827   2.043  12.300
 2887SOL     OW 8686   0.428   2.286  11.692
 2887SOL    HW1 8687   0.458   2.214  11.630
 2887SOL    HW2 8688   0.389   2.246  11.775
 2888SOL     OW 8689   1.705   3.349  12.276
 2888SOL    HW1 8690   1.612   3.324  12.249
 2888SOL    HW2 8691   1.731   3.299  12.358
 2889SOL     OW 8692   0.317   2.409  12.452
 2889SOL    HW1 8693   0.355   2.350  12.524
 2889SOL    HW2 8694   0.357   2.383  12.364
 2890SOL     OW 8695   0.812   3.448  11.859
 2890SOL    HW1 8696   0.844   3.458  11.765
 2890SOL    HW2 8697   0.733   3.386  11.861
 2891SOL     OW 8698   1.424   2.076  12.284
 2891SOL    HW1 8699   1.476   2.011  12.339
 2891SOL    HW2 8700   1.375   2.139  12.345
 2892SOL     OW 8701   1.001   1.896  12.326
 2892SOL    HW1 8702   0.938   1.824  12.295
 2892SOL    HW2 8703   1.094   1.860  12.326
 2893SOL     OW 8704   0.770   3.192  11.473
 2893SOL    HW1 8705   0.724   3.105  11.490
 2893SOL    HW2 8706   0.861   3.189  11.514
 2894SOL     OW 8707   0.618   3.429  12.456
 2894SOL    HW1 8708   0.613   3.511  12.513
 2894SOL    HW2 8709   0.707   3.426  12.411
 2895SOL     OW 8710   1.352   1.914  11.340
 2895SOL    HW1 8711   1.387   1.873  11.256
 2895SOL    HW2 8712   1.262   1.876  11.360
 2896SOL     OW 8713   1.300   2.315  11.863
 2896SOL    HW1 8714   1.241   2.395  11.867
 2896SOL    HW2 8715   1.315   2.280  11.956
 2897SOL     OW 8716   1.593   2.083  12.054
 2897SOL    HW1 8717   1.509   2.082  12.108
 2897SOL    HW2 8718   1.595   2.166  11.998
 2898SOL     OW 8719   0.039   2.939  11.472
 2898SOL    HW1 8720   0.138   2.928  11.463
 2898SOL    HW2 8721  -0.001   2.853  11.504
 2899SOL     OW 8722   0.875   3.508  11.509
 2899SOL    HW1 8723   0.798   3.473  11.455
 2899SOL    HW2 8724   0.843   3.579  11.571
 2900SOL     OW 8725   0.230   4.352   0.113
 2900SOL    HW1 8726   0.137   4.350   0.150
 2900SOL    HW2 8727   0.231   4.313   0.021
 2901SOL     OW 8728   0.225   3.999   0.996
 2901SOL    HW1 8729   0.260   3.982   1.088
 2901SOL    HW2 8730   0.137   3.954   0.984
 2902SOL     OW 8731   0.019   4.092   0.647
 2902SOL    HW1 8732  -0.063   4.135   0.686
 2902SOL    HW2 8733  -0.009   4.019   0.584
 2903SOL     OW 8734   0.569   4.999   1.165
 2903SOL    HW1 8735   0.476   4.992   1.128
 2903SOL    HW2 8736   0.580   5.088   1.209
 2904SOL     OW 8737   1.555   5.235   0.703
 2904SOL    HW1 8738   1.498   5.219   0.784
 2904SOL    HW2 8739   1.496   5.245   0.623
 2905SOL     OW 8740   1.135   4.427   0.717
 2905SOL    HW1 8741   1.192   4.505   0.692
 2905SOL    HW2 8742   1.075   4.453   0.793
 2906SOL     OW 8743   1.755   4.331   0.231
 2906SOL    HW1 8744   1.743   4.318   0.132
 2906SOL    HW2 8745   1.725   4.250   0.280
 2907SOL     OW 8746   0.768   4.868   1.023
 2907SOL    HW1 8747   0.690   4.885   1.083
 2907SOL    HW2 8748   0.802   4.955   0.987
 2908SOL     OW 8749   0.850   4.522   1.823
 2908SOL    HW1 8750   0.846   4.598   1.888
 2908SOL    HW2 8751   0.872   4.558   1.732
 2909SOL     OW 8752   0.685   4.736   0.665
 2909SOL    HW1 8753   0.754   4.720   0.735
 2909SOL    HW2 8754   0.612   4.793   0.703
 2910SOL     OW 8755   0.686   4.885   1.803
 2910SOL    HW1 8756   0.746   4.964   1.817
 2910SOL    HW2 8757   0.600   4.916   1.762
 2911SOL     OW 8758   0.335   5.159   1.061
 2911SOL    HW1 8759   0.257   5.128   1.008
 2911SOL    HW2 8760   0.393   5.217   1.004
 2912SOL     OW 8761   1.460   5.229   1.339
 2912SOL    HW1 8762   1.484   5.323   1.365
 2912SOL    HW2 8763   1.444   5.175   1.421
 2913SOL     OW 8764   0.438   4.116   1.499
 2913SOL    HW1 8765   0.520   4.060   1.508
 2913SOL    HW2 8766   0.357   4.058   1.503
 2914SOL     OW 8767   1.603   4.171   0.737
 2914SOL    HW1 8768   1.529   4.217   0.687
 2914SOL    HW2 8769   1.654   4.239   0.790
 2915SOL     OW 8770   0.231   5.437   0.483
 2915SOL    HW1 8771   0.265   5.514   0.537
 2915SOL    HW2 8772   0.275   5.437   0.393
 2916SOL     OW 8773   1.127   5.065   1.690
 2916SOL    HW1 8774   1.174   5.065   1.778
 2916SOL    HW2 8775   1.079   4.978   1.679
 2917SOL     OW 8776   0.230   5.158   0.538
 2917SOL    HW1 8777   0.204   5.254   0.538
 2917SOL    HW2 8778   0.159   5.104   0.583
 2918SOL     OW 8779   0.240   4.815   0.886
 2918SOL    HW1 8780   0.254   4.731   0.938
 2918SOL    HW2 8781   0.185   4.879   0.941
 2919SOL     OW 8782   0.620   5.510   1.439
 2919SOL    HW1 8783   0.528   5.493   1.474
 2919SOL    HW2 8784   0.648   5.602   1.465
 2920SOL     OW 8785   0.606   4.688   0.123
 2920SOL    HW1 8786   0.613   4.772   0.069
 2920SOL    HW2 8787   0.652   4.701   0.211
 2921SOL     OW 8788   1.594   3.838   1.480
 2921SOL    HW1 8789   1.576   3.905   1.408
 2921SOL    HW2 8790   1.591   3.884   1.569
 2922SOL     OW 8791   0.122   4.367   0.563
 2922SOL    HW1 8792   0.077   4.279   0.580
 2922SOL    HW2 8793   0.121   4.421   0.647
 2923SOL     OW 8794   1.842   5.491   0.359
 2923SOL    HW1 8795   1.896   5.462   0.439
 2923SOL    HW2 8796   1.872   5.581   0.330
 2924SOL     OW 8797   0.027   5.320   0.117
 2924SOL    HW1 8798   0.008   5.224   0.138
 2924SOL    HW2 8799  -0.006   5.378   0.192
 2925SOL     OW 8800   1.689   4.646   0.612
 2925SOL    HW1 8801   1.784   4.617   0.620
 2925SOL    HW2 8802   1.681   4.711   0.537
 2926SOL     OW 8803   1.641   4.832   0.432
 2926SOL    HW1 8804   1.727   4.834   0.380
 2926SOL    HW2 8805   1.655   4.879   0.520
 2927SOL     OW 8806   0.113   4.461   1.597
 2927SOL    HW1 8807   0.201   4.448   1.642
 2927SOL    HW2 8808   0.100   4.558   1.575
 2928SOL     OW 8809   0.613   5.089   0.726
 2928SOL    HW1 8810   0.564   5.002   0.735
 2928SOL    HW2 8811   0.590   5.132   0.639
 2929SOL     OW 8812   1.293   4.952   1.423
 2929SOL    HW1 8813   1.330   4.879   1.365
 2929SOL    HW2 8814   1.345   4.957   1.508
 2930SOL     OW 8815   0.809   3.728   0.502
 2930SOL    HW1 8816   0.849   3.819   0.493
 2930SOL    HW2 8817   0.709   3.736   0.508
 2931SOL     OW 8818   0.197   4.700   1.264
 2931SOL    HW1 8819   0.286   4.655   1.250
 2931SOL    HW2 8820   0.124   4.635   1.245
 2932SOL     OW 8821   1.525   4.723   0.190
 2932SOL    HW1 8822   1.462   4.647   0.203
 2932SOL    HW2 8823   1.573   4.741   0.276
 2933SOL     OW 8824   1.187   5.516   1.616
 2933SOL    HW1 8825   1.211   5.576   1.540
 2933SOL    HW2 8826   1.194   5.421   1.586
 2934SOL     OW 8827   0.317   3.975   1.801
 2934SOL    HW1 8828   0.388   4.046   1.807
 2934SOL    HW2 8829   0.229   4.014   1.829
 2935SOL     OW 8830   1.466   5.141   0.953
 2935SOL    HW1 8831   1.407   5.147   1.033
 2935SOL    HW2 8832   1.451   5.053   0.907
 2936SOL     OW 8833   1.667   5.438   0.572
 2936SOL    HW1 8834   1.626   5.415   0.484
 2936SOL    HW2 8835   1.649   5.364   0.637
 2937SOL     OW 8836   0.598   4.453   0.270
 2937SOL    HW1 8837   0.622   4.522   0.202
 2937SOL    HW2 8838   0.520   4.486   0.324
 2938SOL     OW 8839   1.281   4.069   0.944
 2938SOL    HW1 8840   1.195   4.019   0.931
 2938SOL    HW2 8841   1.343   4.015   1.000
 2939SOL     OW 8842   1.576   5.386   0.307
 2939SOL    HW1 8843   1.665   5.432   0.310
 2939SOL    HW2 8844   1.555   5.362   0.212
 2940SOL     OW 8845   0.807   4.329   1.465
 2940SOL    HW1 8846   0.760   4.326   1.554
 2940SOL    HW2 8847   0.756   4.274   1.399
 2941SOL     OW 8848   1.394   4.193   1.674
 2941SOL    HW1 8849   1.374   4.236   1.762
 2941SOL    HW2 8850   1.472   4.131   1.683
 2942SOL     OW 8851   0.973   4.614   1.572
 2942SOL    HW1 8852   1.019   4.530   1.543
 2942SOL    HW2 8853   0.917   4.648   1.497
 2943SOL     OW 8854   0.991   4.134   1.242
 2943SOL    HW1 8855   0.914   4.168   1.296
 2943SOL    HW2 8856   0.957   4.083   1.163
 2944SOL     OW 8857   1.041   4.425   0.429
 2944SOL    HW1 8858   1.067   4.421   0.525
 2944SOL    HW2 8859   0.956   4.374   0.415
 2945SOL     OW 8860   0.076   4.535   0.789
 2945SOL    HW1 8861   0.175   4.523   0.798
 2945SOL    HW2 8862   0.052   4.630   0.810
 2946SOL     OW 8863   0.130   5.545   1.571
 2946SOL    HW1 8864   0.120   5.530   1.670
 2946SOL    HW2 8865   0.044   5.581   1.535
 2947SOL     OW 8866   0.865   4.072   0.195
 2947SOL    HW1 8867   0.924   4.135   0.146
 2947SOL    HW2 8868   0.884   3.978   0.166
 2948SOL     OW 8869   1.719   4.309   1.831
 2948SOL    HW1 8870   1.693   4.398   1.795
 2948SOL    HW2 8871   1.717   4.241   1.758
 2949SOL     OW 8872   1.362   4.868   0.545
 2949SOL    HW1 8873   1.445   4.839   0.497
 2949SOL    HW2 8874   1.313   4.935   0.489
 2950SOL     OW 8875   0.550   3.920   0.885
 2950SOL    HW1 8876   0.545   3.915   0.985
 2950SOL    HW2 8877   0.552   4.016   0.856
 2951SOL     OW 8878   1.008   5.180   0.477
 2951SOL    HW1 8879   0.962   5.252   0.425
 2951SOL    HW2 8880   1.004   5.200   0.575
 2952SOL     OW 8881   0.351   5.525   0.853
 2952SOL    HW1 8882   0.401   5.439   0.859
 2952SOL    HW2 8883   0.416   5.602   0.850
 2953SOL     OW 8884   1.795   4.790   0.873
 2953SOL    HW1 8885   1.733   4.775   0.797
 2953SOL    HW2 8886   1.743   4.801   0.958
 2954SOL     OW 8887   1.227   5.274   1.506
 2954SOL    HW1 8888   1.233   5.197   1.570
 2954SOL    HW2 8889   1.175   5.248   1.426
 2955SOL     OW 8890   0.321   4.667   0.242
 2955SOL    HW1 8891   0.403   4.706   0.200
 2955SOL    HW2 8892   0.294   4.585   0.193
 2956SOL     OW 8893   1.458   4.459   0.728
 2956SOL    HW1 8894   1.453   4.394   0.803
 2956SOL    HW2 8895   1.538   4.518   0.741
 2957SOL     OW 8896   0.461   4.990   1.727
 2957SOL    HW1 8897   0.411   4.991   1.641
 2957SOL    HW2 8898   0.398   4.972   1.803
 2958SOL     OW 8899   1.111   5.500   0.237
 2958SOL    HW1 8900   1.051   5.438   0.287
 2958SOL    HW2 8901   1.142   5.456   0.152
 2959SOL     OW 8902   0.202   4.009   1.498
 2959SOL    HW1 8903   0.122   4.069   1.485
 2959SOL    HW2 8904   0.192   3.960   1.584
 2960SOL     OW 8905   1.632   5.101   0.081
 2960SOL    HW1 8906   1.600   5.195   0.071
 2960SOL    HW2 8907   1.556   5.038   0.069
 2961SOL     OW 8908   0.464   5.467   0.323
 2961SOL    HW1 8909   0.497   5.506   0.409
 2961SOL    HW2 8910   0.540   5.460   0.258
 2962SOL     OW 8911   1.400   3.831   0.426
 2962SOL    HW1 8912   1.376   3.794   0.336
 2962SOL    HW2 8913   1.499   3.847   0.430
 2963SOL     OW 8914   0.249   5.509   1.241
 2963SOL    HW1 8915   0.306   5.444   1.291
 2963SOL    HW2 8916   0.233   5.476   1.148
 2964SOL     OW 8917   0.940   5.422   0.904
 2964SOL    HW1 8918   1.020   5.365   0.925
 2964SOL    HW2 8919   0.891   5.382   0.827
 2965SOL     OW 8920   0.382   4.424   0.480
 2965SOL    HW1 8921   0.427   4.334   0.477
 2965SOL    HW2 8922   0.288   4.413   0.513
 2966SOL     OW 8923   1.547   3.946   1.729
 2966SOL    HW1 8924   1.542   3.983   1.821
 2966SOL    HW2 8925   1.475   3.877   1.717
 2967SOL     OW 8926   0.614   3.846   0.117
 2967SOL    HW1 8927   0.712   3.824   0.124
 2967SOL    HW2 8928   0.583   3.829   0.024
 2968SOL     OW 8929   0.781   3.988   1.749
 2968SOL    HW1 8930   0.848   3.927   1.792
 2968SOL    HW2 8931   0.708   4.007   1.814
 2969SOL     OW 8932   0.888   5.238   1.195
 2969SOL    HW1 8933   0.865   5.213   1.101
 2969SOL    HW2 8934   0.949   5.169   1.234
 2970SOL     OW 8935   1.351   4.314   1.433
 2970SOL    HW1 8936   1.379   4.271   1.518
 2970SOL    HW2 8937   1.376   4.410   1.434
 2971SOL     OW 8938   0.803   5.126   0.924
 2971SOL    HW1 8939   0.893   5.140   0.882
 2971SOL    HW2 8940   0.732   5.128   0.853
 2972SOL     OW 8941   0.922   4.227   0.899
 2972SOL    HW1 8942   0.897   4.218   0.803
 2972SOL    HW2 8943   0.970   4.145   0.930
 2973SOL     OW 8944   0.539   3.788   0.512
 2973SOL    HW1 8945   0.458   3.789   0.570
 2973SOL    HW2 8946   0.542   3.871   0.457
 2974SOL     OW 8947   1.434   4.912   0.041
 2974SOL    HW1 8948   1.466   4.836   0.098
 2974SOL    HW2 8949   1.342   4.939   0.071
 2975SOL     OW 8950   0.297   3.759   0.171
 2975SOL    HW1 8951   0.346   3.843   0.150
 2975SOL    HW2 8952   0.359   3.694   0.216
 2976SOL     OW 8953   0.935   3.960   0.480
 2976SOL    HW1 8954   0.887   4.001   0.402
 2976SOL    HW2 8955   1.034   3.958   0.461
 2977SOL     OW 8956   1.076   4.407   1.464
 2977SOL    HW1 8957   0.996   4.346   1.467
 2977SOL    HW2 8958   1.157   4.354   1.440
 2978SOL     OW 8959   1.227   5.294   0.793
 2978SOL    HW1 8960   1.248   5.368   0.728
 2978SOL    HW2 8961   1.295   5.294   0.866
 2979SOL     OW 8962   0.459   4.876   0.741
 2979SOL    HW1 8963   0.388   4.849   0.806
 2979SOL    HW2 8964   0.433   4.848   0.648
 2980SOL     OW 8965   1.271   5.521   0.591
 2980SOL    HW1 8966   1.315   5.585   0.527
 2980SOL    HW2 8967   1.221   5.573   0.661
 2981SOL     OW 8968   1.032   4.273   0.016
 2981SOL    HW1 8969   0.991   4.355  -0.023
 2981SOL    HW2 8970   1.096   4.299   0.089
 2982SOL     OW 8971   0.078   4.280   1.386
 2982SOL    HW1 8972   0.170   4.279   1.345
 2982SOL    HW2 8973   0.072   4.354   1.453
 2983SOL     OW 8974   0.561   3.946   1.147
 2983SOL    HW1 8975   0.599   3.862   1.184
 2983SOL    HW2 8976   0.473   3.965   1.191
 2984SOL     OW 8977   0.866   4.178   0.642
 2984SOL    HW1 8978   0.834   4.250   0.580
 2984SOL    HW2 8979   0.890   4.097   0.589
 2985SOL     OW 8980   1.017   3.763   0.753
 2985SOL    HW1 8981   0.945   3.768   0.684
 2985SOL    HW2 8982   0.993   3.694   0.822
 2986SOL     OW 8983   1.429   4.897   0.867
 2986SOL    HW1 8984   1.374   4.813   0.860
 2986SOL    HW2 8985   1.455   4.926   0.775
 2987SOL     OW 8986   1.466   4.314   0.992
 2987SOL    HW1 8987   1.436   4.219   0.999
 2987SOL    HW2 8988   1.539   4.330   1.058
 2988SOL     OW 8989   1.857   4.557   0.377
 2988SOL    HW1 8990   1.899   4.493   0.441
 2988SOL    HW2 8991   1.819   4.506   0.299
 2989SOL     OW 8992   0.488   5.109   0.174
 2989SOL    HW1 8993   0.401   5.094   0.221
 2989SOL    HW2 8994   0.471   5.135   0.079
 2990SOL     OW 8995   1.664   5.004   0.657
 2990SOL    HW1 8996   1.763   5.012   0.671
 2990SOL    HW2 8997   1.619   5.088   0.688
 2991SOL     OW 8998   1.390   4.299   0.078
 2991SOL    HW1 8999   1.336   4.278   0.159
 2991SOL    HW2 9000   1.481   4.258   0.087
 2992SOL     OW 9001   0.527   3.980   0.328
 2992SOL    HW1 9002   0.554   3.921   0.253
 2992SOL    HW2 9003   0.527   4.075   0.297
 2993SOL     OW 9004   1.754   4.947   1.588
 2993SOL    HW1 9005   1.845   4.908   1.575
 2993SOL    HW2 9006   1.762   5.043   1.612
 2994SOL     OW 9007   1.064   5.071   1.340
 2994SOL    HW1 9008   0.984   5.048   1.395
 2994SOL    HW2 9009   1.147   5.045   1.389
 2995SOL     OW 9010   1.592   5.353   1.625
 2995SOL    HW1 9011   1.619   5.387   1.535
 2995SOL    HW2 9012   1.671   5.315   1.671
 2996SOL     OW 9013   1.111   4.919   1.100
 2996SOL    HW1 9014   1.071   4.963   1.181
 2996SOL    HW2 9015   1.070   4.956   1.017
 2997SOL     OW 9016   1.638   4.823   1.079
 2997SOL    HW1 9017   1.643   4.904   1.138
 2997SOL    HW2 9018   1.552   4.825   1.028
 2998SOL     OW 9019   0.915   3.813   1.402
 2998SOL    HW1 9020   0.940   3.793   1.307
 2998SOL    HW2 9021   0.987   3.869   1.444
 2999SOL     OW 9022   0.980   4.840   1.719
 2999SOL    HW1 9023   0.881   4.846   1.729
 2999SOL    HW2 9024   1.003   4.760   1.663
 3000SOL     OW 9025   0.705   4.774   0.368
 3000SOL    HW1 9026   0.691   4.781   0.467
 3000SOL    HW2 9027   0.789   4.723   0.350
 3001SOL     OW 9028   0.410   4.537   1.251
 3001SOL    HW1 9029   0.496   4.549   1.301
 3001SOL    HW2 9030   0.368   4.450   1.278
 3002SOL     OW 9031   1.274   4.110   1.262
 3002SOL    HW1 9032   1.295   4.184   1.326
 3002SOL    HW2 9033   1.185   4.127   1.219
 3003SOL     OW 9034   0.064   5.288   1.331
 3003SOL    HW1 9035   0.018   5.370   1.297
 3003SOL    HW2 9036   0.162   5.307   1.340
 3004SOL     OW 9037   0.367   4.824   0.501
 3004SOL    HW1 9038   0.360   4.907   0.445
 3004SOL    HW2 9039   0.371   4.744   0.441
 3005SOL     OW 9040   0.566   4.261   0.865
 3005SOL    HW1 9041   0.578   4.327   0.791
 3005SOL    HW2 9042   0.612   4.295   0.948
 3006SOL     OW 9043   1.252   5.072   0.388
 3006SOL    HW1 9044   1.302   5.149   0.428
 3006SOL    HW2 9045   1.157   5.074   0.420
 3007SOL     OW 9046   1.272   5.169   1.142
 3007SOL    HW1 9047   1.319   5.182   1.229
 3007SOL    HW2 9048   1.206   5.095   1.151
 3008SOL     OW 9049   1.582   4.363   0.472
 3008SOL    HW1 9050   1.551   4.424   0.545
 3008SOL    HW2 9051   1.632   4.415   0.403
 3009SOL     OW 9052   0.354   5.234   1.329
 3009SOL    HW1 9053   0.333   5.190   1.242
 3009SOL    HW2 9054   0.451   5.260   1.332
 3010SOL     OW 9055   0.402   4.475   1.598
 3010SOL    HW1 9056   0.470   4.530   1.551
 3010SOL    HW2 9057   0.442   4.387   1.625
 3011SOL     OW 9058   1.587   4.503   1.670
 3011SOL    HW1 9059   1.495   4.541   1.665
 3011SOL    HW2 9060   1.647   4.550   1.605
 3012SOL     OW 9061   1.013   3.829   1.770
 3012SOL    HW1 9062   1.019   3.914   1.718
 3012SOL    HW2 9063   1.045   3.753   1.713
 3013SOL     OW 9064   0.504   3.774   1.740
 3013SOL    HW1 9065   0.462   3.717   1.670
 3013SOL    HW2 9066   0.438   3.843   1.772
 3014SOL     OW 9067   0.573   4.594   1.029
 3014SOL    HW1 9068   0.617   4.683   1.020
 3014SOL    HW2 9069   0.510   4.594   1.106
 3015SOL     OW 9070   1.360   4.586   1.045
 3015SOL    HW1 9071   1.285   4.586   0.979
 3015SOL    HW2 9072   1.397   4.494   1.054
 3016SOL     OW 9073   1.209   4.249   0.275
 3016SOL    HW1 9074   1.222   4.165   0.329
 3016SOL    HW2 9075   1.180   4.323   0.335
 3017SOL     OW 9076   0.307   3.937   1.231
 3017SOL    HW1 9077   0.284   3.974   1.321
 3017SOL    HW2 9078   0.277   3.842   1.225
 3018SOL     OW 9079   0.037   5.034   1.282
 3018SOL    HW1 9080   0.090   4.985   1.350
 3018SOL    HW2 9081   0.059   5.132   1.287
 3019SOL     OW 9082   0.732   4.358   1.064
 3019SOL    HW1 9083   0.791   4.332   0.988
 3019SOL    HW2 9084   0.704   4.454   1.053
 3020SOL     OW 9085   1.728   4.659   1.854
 3020SOL    HW1 9086   1.682   4.652   1.765
 3020SOL    HW2 9087   1.666   4.703   1.920
 3021SOL     OW 9088   0.307   3.787   0.618
 3021SOL    HW1 9089   0.296   3.881   0.651
 3021SOL    HW2 9090   0.302   3.724   0.695
 3022SOL     OW 9091   1.622   4.091   0.374
 3022SOL    HW1 9092   1.624   4.015   0.438
 3022SOL    HW2 9093   1.574   4.168   0.414
 3023SOL     OW 9094   1.023   4.490   0.966
 3023SOL    HW1 9095   1.038   4.511   1.062
 3023SOL    HW2 9096   0.993   4.395   0.957
 3024SOL     OW 9097   0.980   5.297   1.700
 3024SOL    HW1 9098   0.960   5.341   1.612
 3024SOL    HW2 9099   1.019   5.206   1.684
 3025SOL     OW 9100   1.859   5.242   1.605
 3025SOL    HW1 9101   1.873   5.269   1.510
 3025SOL    HW2 9102   1.942   5.264   1.658
 3026SOL     OW 9103   0.350   4.622   1.804
 3026SOL    HW1 9104   0.426   4.666   1.852
 3026SOL    HW2 9105   0.385   4.575   1.722
 3027SOL     OW 9106   1.540   3.998   0.125
 3027SOL    HW1 9107   1.479   3.923   0.148
 3027SOL    HW2 9108   1.562   4.050   0.208
 3028SOL     OW 9109   1.303   4.562   0.042
 3028SOL    HW1 9110   1.337   4.469   0.057
 3028SOL    HW2 9111   1.321   4.589  -0.053
 3029SOL     OW 9112   1.068   5.057   0.849
 3029SOL    HW1 9113   1.075   4.973   0.794
 3029SOL    HW2 9114   1.130   5.126   0.813
 3030SOL     OW 9115   0.319   4.534   0.949
 3030SOL    HW1 9116   0.412   4.570   0.954
 3030SOL    HW2 9117   0.313   4.449   1.001
 3031SOL     OW 9118   0.339   4.233   1.006
 3031SOL    HW1 9119   0.287   4.150   0.989
 3031SOL    HW2 9120   0.416   4.238   0.942
 3032SOL     OW 9121   1.138   4.104   1.678
 3032SOL    HW1 9122   1.093   4.167   1.742
 3032SOL    HW2 9123   1.231   4.135   1.661
 3033SOL     OW 9124   1.160   3.931   1.477
 3033SOL    HW1 9125   1.160   3.995   1.554
 3033SOL    HW2 9126   1.188   3.979   1.394
 3034SOL     OW 9127   0.008   5.050   0.200
 3034SOL    HW1 9128  -0.085   5.071   0.169
 3034SOL    HW2 9129   0.018   4.951   0.213
 3035SOL     OW 9130   0.088   5.525   0.927
 3035SOL    HW1 9131   0.046   5.439   0.900
 3035SOL    HW2 9132   0.182   5.528   0.893
 3036SOL     OW 9133   0.504   5.292   0.910
 3036SOL    HW1 9134   0.570   5.366   0.919
 3036SOL    HW2 9135   0.548   5.213   0.868
 3037SOL     OW 9136   1.002   4.520   1.238
 3037SOL    HW1 9137   1.043   4.488   1.324
 3037SOL    HW2 9138   0.906   4.493   1.235
 3038SOL     OW 9139   0.040   4.268   1.114
 3038SOL    HW1 9140   0.125   4.235   1.073
 3038SOL    HW2 9141   0.053   4.283   1.212
 3039SOL     OW 9142   0.189   4.244   1.722
 3039SOL    HW1 9143   0.248   4.204   1.652
 3039SOL    HW2 9144   0.131   4.315   1.681
 3040SOL     OW 9145   1.369   4.674   1.660
 3040SOL    HW1 9146   1.408   4.763   1.680
 3040SOL    HW2 9147   1.379   4.654   1.563
 3041SOL     OW 9148   0.815   4.296   0.325
 3041SOL    HW1 9149   0.822   4.207   0.279
 3041SOL    HW2 9150   0.721   4.330   0.317
 3042SOL     OW 9151   1.657   4.328   1.206
 3042SOL    HW1 9152   1.619   4.259   1.268
 3042SOL    HW2 9153   1.739   4.292   1.162
 3043SOL     OW 9154   0.252   5.288   1.744
 3043SOL    HW1 9155   0.222   5.345   1.820
 3043SOL    HW2 9156   0.245   5.191   1.770
 3044SOL     OW 9157   0.671   4.188   1.269
 3044SOL    HW1 9158   0.637   4.099   1.239
 3044SOL    HW2 9159   0.697   4.242   1.189
 3045SOL     OW 9160   0.930   5.402   1.465
 3045SOL    HW1 9161   0.906   5.384   1.370
 3045SOL    HW2 9162   0.960   5.496   1.475
 3046SOL     OW 9163   0.473   4.224   0.191
 3046SOL    HW1 9164   0.534   4.304   0.195
 3046SOL    HW2 9165   0.378   4.255   0.198
 3047SOL     OW 9166   0.159   4.861   1.466
 3047SOL    HW1 9167   0.181   4.800   1.542
 3047SOL    HW2 9168   0.169   4.812   1.380
 3048SOL     OW 9169   1.347   4.783   1.234
 3048SOL    HW1 9170   1.371   4.720   1.160
 3048SOL    HW2 9171   1.257   4.823   1.216
 3049SOL     OW 9172   1.302   4.579   0.309
 3049SOL    HW1 9173   1.216   4.548   0.351
 3049SOL    HW2 9174   1.298   4.565   0.210
 3050SOL     OW 9175   1.759   5.471   1.154
 3050SOL    HW1 9176   1.820   5.501   1.081
 3050SOL    HW2 9177   1.721   5.382   1.132
 3051SOL     OW 9178   1.252   5.455   1.128
 3051SOL    HW1 9179   1.336   5.460   1.074
 3051SOL    HW2 9180   1.229   5.359   1.146
 3052SOL     OW 9181   0.083   4.982   1.022
 3052SOL    HW1 9182   0.078   4.981   1.122
 3052SOL    HW2 9183   0.000   4.941   0.984
 3053SOL     OW 9184   0.688   5.386   1.716
 3053SOL    HW1 9185   0.632   5.467   1.725
 3053SOL    HW2 9186   0.740   5.390   1.630
 3054SOL     OW 9187   0.903   3.810   0.133
 3054SOL    HW1 9188   0.954   3.811   0.047
 3054SOL    HW2 9189   0.959   3.768   0.204
 3055SOL     OW 9190   1.726   3.859   0.523
 3055SOL    HW1 9191   1.799   3.842   0.456
 3055SOL    HW2 9192   1.695   3.772   0.561
 3056SOL     OW 9193   1.388   5.297   0.477
 3056SOL    HW1 9194   1.455   5.309   0.403
 3056SOL    HW2 9195   1.348   5.386   0.500
 3057SOL     OW 9196   0.130   5.518   1.851
 3057SOL    HW1 9197   0.089   5.444   1.904
 3057SOL    HW2 9198   0.194   5.569   1.909
 3058SOL     OW 9199   1.280   4.651   0.672
 3058SOL    HW1 9200   1.340   4.570   0.674
 3058SOL    HW2 9201   1.320   4.720   0.612
 3059SOL     OW 9202   0.830   4.997   1.422
 3059SOL    HW1 9203   0.825   5.030   1.517
 3059SOL    HW2 9204   0.744   5.016   1.376
 3060SOL     OW 9205   0.672   5.340   0.154
 3060SOL    HW1 9206   0.681   5.350   0.055
 3060SOL    HW2 9207   0.632   5.251   0.175
 3061SOL     OW 9208   1.650   5.444   1.394
 3061SOL    HW1 9209   1.703   5.454   1.310
 3061SOL    HW2 9210   1.623   5.534   1.428
 3062SOL     OW 9211   1.841   3.899   0.963
 3062SOL    HW1 9212   1.880   3.814   0.927
 3062SOL    HW2 9213   1.743   3.901   0.944
 3063SOL     OW 9214   0.263   4.050   0.720
 3063SOL    HW1 9215   0.184   4.101   0.686
 3063SOL    HW2 9216   0.254   4.035   0.818
 3064SOL     OW 9217   1.194   5.336   0.031
 3064SOL    HW1 9218   1.200   5.243   0.068
 3064SOL    HW2 9219   1.135   5.336  -0.049
 3065SOL     OW 9220   0.822   4.726   1.372
 3065SOL    HW1 9221   0.862   4.725   1.280
 3065SOL    HW2 9222   0.832   4.818   1.412
 3066SOL     OW 9223   0.916   4.634   0.291
 3066SOL    HW1 9224   0.979   4.672   0.223
 3066SOL    HW2 9225   0.956   4.551   0.330
 3067SOL     OW 9226   1.504   5.331   0.044
 3067SOL    HW1 9227   1.412   5.368   0.051
 3067SOL    HW2 9228   1.542   5.351  -0.046
 3068SOL     OW 9229   0.372   5.012   1.490
 3068SOL    HW1 9230   0.359   5.105   1.456
 3068SOL    HW2 9231   0.288   4.960   1.477
 3069SOL     OW 9232   1.614   5.016   1.289
 3069SOL    HW1 9233   1.674   5.019   1.369
 3069SOL    HW2 9234   1.539   5.080   1.302
 3070SOL     OW 9235   1.039   4.822   0.696
 3070SOL    HW1 9236   0.969   4.775   0.750
 3070SOL    HW2 9237   1.098   4.754   0.653
 3071SOL     OW 9238   1.014   3.960   0.971
 3071SOL    HW1 9239   1.006   3.924   0.878
 3071SOL    HW2 9240   1.012   3.884   1.036
 3072SOL     OW 9241   0.590   5.211   0.491
 3072SOL    HW1 9242   0.632   5.153   0.421
 3072SOL    HW2 9243   0.546   5.290   0.447
 3073SOL     OW 9244   1.709   4.109   1.381
 3073SOL    HW1 9245   1.782   4.178   1.385
 3073SOL    HW2 9246   1.737   4.034   1.322
 3074SOL     OW 9247   0.255   5.072   0.290
 3074SOL    HW1 9248   0.159   5.073   0.263
 3074SOL    HW2 9249   0.267   5.125   0.374
 3075SOL     OW 9250   0.105   4.737   1.726
 3075SOL    HW1 9251   0.028   4.704   1.780
 3075SOL    HW2 9252   0.190   4.707   1.768
 3076SOL     OW 9253   0.672   3.927   1.489
 3076SOL    HW1 9254   0.762   3.911   1.449
 3076SOL    HW2 9255   0.680   3.932   1.588
 3077SOL     OW 9256   0.075   4.069   0.033
 3077SOL    HW1 9257  -0.017   4.041   0.004
 3077SOL    HW2 9258   0.106   4.146  -0.023
 3078SOL     OW 9259   1.440   4.580   1.398
 3078SOL    HW1 9260   1.383   4.632   1.335
 3078SOL    HW2 9261   1.536   4.592   1.374
 3079SOL     OW 9262   0.072   3.890   0.318
 3079SOL    HW1 9263   0.055   3.973   0.264
 3079SOL    HW2 9264   0.162   3.853   0.296
 3080SOL     OW 9265   1.183   5.059   0.119
 3080SOL    HW1 9266   1.084   5.048   0.121
 3080SOL    HW2 9267   1.217   5.074   0.212
 3081SOL     OW 9268   0.613   4.566   1.431
 3081SOL    HW1 9269   0.669   4.647   1.414
 3081SOL    HW2 9270   0.672   4.486   1.434
 3082SOL     OW 9271   1.493   5.491   0.959
 3082SOL    HW1 9272   1.526   5.555   0.890
 3082SOL    HW2 9273   1.559   5.485   1.034
 3083SOL     OW 9274   0.716   4.289   1.708
 3083SOL    HW1 9275   0.735   4.354   1.782
 3083SOL    HW2 9276   0.776   4.209   1.717
 3084SOL     OW 9277   1.450   4.944   1.633
 3084SOL    HW1 9278   1.441   4.934   1.732
 3084SOL    HW2 9279   1.546   4.937   1.607
 3085SOL     OW 9280   0.390   5.465   1.560
 3085SOL    HW1 9281   0.299   5.506   1.558
 3085SOL    HW2 9282   0.383   5.371   1.592
 3086SOL     OW 9283   1.674   4.607   1.254
 3086SOL    HW1 9284   1.647   4.518   1.217
 3086SOL    HW2 9285   1.675   4.675   1.181
 3087SOL     OW 9286   1.225   4.049   0.449
 3087SOL    HW1 9287   1.290   3.975   0.438
 3087SOL    HW2 9288   1.245   4.099   0.533
 3088SOL     OW 9289   0.594   4.469   0.652
 3088SOL    HW1 9290   0.644   4.554   0.633
 3088SOL    HW2 9291   0.506   4.471   0.604
 3089SOL     OW 9292   1.777   4.066   1.642
 3089SOL    HW1 9293   1.760   4.097   1.548
 3089SOL    HW2 9294   1.693   4.029   1.680
 3090SOL     OW 9295   1.730   4.658   1.517
 3090SOL    HW1 9296   1.768   4.749   1.532
 3090SOL    HW2 9297   1.722   4.641   1.418
 3091SOL     OW 9298   0.859   5.098   0.016
 3091SOL    HW1 9299   0.813   5.113   0.104
 3091SOL    HW2 9300   0.903   5.183  -0.014
 3092SOL     OW 9301   0.661   5.514   0.953
 3092SOL    HW1 9302   0.615   5.602   0.940
 3092SOL    HW2 9303   0.760   5.526   0.946
 3093SOL     OW 9304   0.859   4.680   0.861
 3093SOL    HW1 9305   0.913   4.611   0.909
 3093SOL    HW2 9306   0.827   4.749   0.927
 3094SOL     OW 9307   1.083   4.708   0.087
 3094SOL    HW1 9308   1.060   4.761   0.005
 3094SOL    HW2 9309   1.164   4.652   0.068
 3095SOL     OW 9310   1.861   5.293   0.851
 3095SOL    HW1 9311   1.790   5.281   0.781
 3095SOL    HW2 9312   1.862   5.214   0.911
 3096SOL     OW 9313   0.221   5.038   1.844
 3096SOL    HW1 9314   0.156   4.965   1.823
 3096SOL    HW2 9315   0.225   5.052   1.942
 3097SOL     OW 9316   0.079   4.964   0.653
 3097SOL    HW1 9317   0.078   4.917   0.741
 3097SOL    HW2 9318   0.161   4.936   0.602
 3098SOL     OW 9319   0.672   5.115   1.624
 3098SOL    HW1 9320   0.594   5.065   1.662
 3098SOL    HW2 9321   0.669   5.210   1.655
 3099SOL     OW 9322   1.824   3.916   1.227
 3099SOL    HW1 9323   1.820   3.826   1.271
 3099SOL    HW2 9324   1.827   3.905   1.128
 3100SOL     OW 9325   0.428   4.148   0.520
 3100SOL    HW1 9326   0.458   4.076   0.458
 3100SOL    HW2 9327   0.389   4.108   0.603
 3101SOL     OW 9328   1.705   5.211   1.104
 3101SOL    HW1 9329   1.612   5.186   1.077
 3101SOL    HW2 9330   1.731   5.161   1.186
 3102SOL     OW 9331   0.317   4.271   1.280
 3102SOL    HW1 9332   0.355   4.212   1.352
 3102SOL    HW2 9333   0.357   4.245   1.192
 3103SOL     OW 9334   0.812   5.310   0.687
 3103SOL    HW1 9335   0.844   5.320   0.593
 3103SOL    HW2 9336   0.733   5.248   0.689
 3104SOL     OW 9337   1.424   3.938   1.112
 3104SOL    HW1 9338   1.476   3.873   1.167
 3104SOL    HW2 9339   1.375   4.001   1.173
 3105SOL     OW 9340   1.001   3.758   1.154
 3105SOL    HW1 9341   0.938   3.686   1.123
 3105SOL    HW2 9342   1.094   3.722   1.154
 3106SOL     OW 9343   0.770   5.054   0.301
 3106SOL    HW1 9344   0.724   4.967   0.318
 3106SOL    HW2 9345   0.861   5.051   0.342
 3107SOL     OW 9346   0.618   5.291   1.284
 3107SOL    HW1 9347   0.613   5.373   1.341
 3107SOL    HW2 9348   0.707   5.288   1.239
 3108SOL     OW 9349   1.352   3.776   0.168
 3108SOL    HW1 9350   1.387   3.735   0.084
 3108SOL    HW2 9351   1.262   3.738   0.188
 3109SOL     OW 9352   1.300   4.177   0.691
 3109SOL    HW1 9353   1.241   4.257   0.695
 3109SOL    HW2 9354   1.315   4.142   0.784
 3110SOL     OW 9355   1.593   3.945   0.882
 3110SOL    HW1 9356   1.509   3.944   0.936
 3110SOL    HW2 9357   1.595   4.028   0.826
 3111SOL     OW 9358   0.039   4.801   0.300
 3111SOL    HW1 9359   0.138   4.790   0.291
 3111SOL    HW2 9360  -0.001   4.715   0.332
 3112SOL     OW 9361   0.875   5.370   0.337
 3112SOL    HW1 9362   0.798   5.335   0.283
 3112SOL    HW2 9363   0.843   5.441   0.399
 3113SOL     OW 9364   0.230   4.352   1.975
 3113SOL    HW1 9365   0.137   4.350   2.012
 3113SOL    HW2 9366   0.231   4.313   1.883
 3114SOL     OW 9367   0.225   3.999   2.858
 3114SOL    HW1 9368   0.260   3.982   2.950
 3114SOL    HW2 9369   0.137   3.954   2.846
 3115SOL     OW 9370   0.019   4.092   2.509
 3115SOL    HW1 9371  -0.063   4.135   2.548
 3115SOL    HW2 9372  -0.009   4.019   2.446
 3116SOL     OW 9373   0.569   4.999   3.027
 3116SOL    HW1 9374   0.476   4.992   2.990
 3116SOL    HW2 9375   0.580   5.088   3.071
 3117SOL     OW 9376   1.555   5.235   2.565
 3117SOL    HW1 9377   1.498   5.219   2.646
 3117SOL    HW2 9378   1.496   5.245   2.485
 3118SOL     OW 9379   1.135   4.427   2.579
 3118SOL    HW1 9380   1.192   4.505   2.554
 3118SOL    HW2 9381   1.075   4.453   2.655
 3119SOL     OW 9382   1.755   4.331   2.093
 3119SOL    HW1 9383   1.743   4.318   1.994
 3119SOL    HW2 9384   1.725   4.250   2.142
 3120SOL     OW 9385   0.768   4.868   2.885
 3120SOL    HW1 9386   0.690   4.885   2.945
 3120SOL    HW2 9387   0.802   4.955   2.849
 3121SOL     OW 9388   0.850   4.522   3.685
 3121SOL    HW1 9389   0.846   4.598   3.750
 3121SOL    HW2 9390   0.872   4.558   3.594
 3122SOL     OW 9391   0.685   4.736   2.527
 3122SOL    HW1 9392   0.754   4.720   2.597
 3122SOL    HW2 9393   0.612   4.793   2.565
 3123SOL     OW 9394   0.686   4.885   3.665
 3123SOL    HW1 9395   0.746   4.964   3.679
 3123SOL    HW2 9396   0.600   4.916   3.624
 3124SOL     OW 9397   0.335   5.159   2.923
 3124SOL    HW1 9398   0.257   5.128   2.870
 3124SOL    HW2 9399   0.393   5.217   2.866
 3125SOL     OW 9400   1.460   5.229   3.201
 3125SOL    HW1 9401   1.484   5.323   3.227
 3125SOL    HW2 9402   1.444   5.175   3.283
 3126SOL     OW 9403   0.438   4.116   3.361
 3126SOL    HW1 9404   0.520   4.060   3.370
 3126SOL    HW2 9405   0.357   4.058   3.365
 3127SOL     OW 9406   1.603   4.171   2.599
 3127SOL    HW1 9407   1.529   4.217   2.549
 3127SOL    HW2 9408   1.654   4.239   2.652
 3128SOL     OW 9409   0.231   5.437   2.345
 3128SOL    HW1 9410   0.265   5.514   2.399
 3128SOL    HW2 9411   0.275   5.437   2.255
 3129SOL     OW 9412   1.127   5.065   3.552
 3129SOL    HW1 9413   1.174   5.065   3.640
 3129SOL    HW2 9414   1.079   4.978   3.541
 3130SOL     OW 9415   0.230   5.158   2.400
 3130SOL    HW1 9416   0.204   5.254   2.400
 3130SOL    HW2 9417   0.159   5.104   2.445
 3131SOL     OW 9418   0.240   4.815   2.748
 3131SOL    HW1 9419   0.254   4.731   2.800
 3131SOL    HW2 9420   0.185   4.879   2.803
 3132SOL     OW 9421   0.620   5.510   3.301
 3132SOL    HW1 9422   0.528   5.493   3.336
 3132SOL    HW2 9423   0.648   5.602   3.327
 3133SOL     OW 9424   0.606   4.688   1.985
 3133SOL    HW1 9425   0.613   4.772   1.931
 3133SOL    HW2 9426   0.652   4.701   2.073
 3134SOL     OW 9427   1.594   3.838   3.342
 3134SOL    HW1 9428   1.576   3.905   3.270
 3134SOL    HW2 9429   1.591   3.884   3.431
 3135SOL     OW 9430   0.122   4.367   2.425
 3135SOL    HW1 9431   0.077   4.279   2.442
 3135SOL    HW2 9432   0.121   4.421   2.509
 3136SOL     OW 9433   1.842   5.491   2.221
 3136SOL    HW1 9434   1.896   5.462   2.301
 3136SOL    HW2 9435   1.872   5.581   2.192
 3137SOL     OW 9436   0.027   5.320   1.979
 3137SOL    HW1 9437   0.008   5.224   2.000
 3137SOL    HW2 9438  -0.006   5.378   2.054
 3138SOL     OW 9439   1.689   4.646   2.474
 3138SOL    HW1 9440   1.784   4.617   2.482
 3138SOL    HW2 9441   1.681   4.711   2.399
 3139SOL     OW 9442   1.641   4.832   2.294
 3139SOL    HW1 9443   1.727   4.834   2.242
 3139SOL    HW2 9444   1.655   4.879   2.382
 3140SOL     OW 9445   0.113   4.461   3.459
 3140SOL    HW1 9446   0.201   4.448   3.504
 3140SOL    HW2 9447   0.100   4.558   3.437
 3141SOL     OW 9448   0.613   5.089   2.588
 3141SOL    HW1 9449   0.564   5.002   2.597
 3141SOL    HW2 9450   0.590   5.132   2.501
 3142SOL     OW 9451   1.293   4.952   3.285
 3142SOL    HW1 9452   1.330   4.879   3.227
 3142SOL    HW2 9453   1.345   4.957   3.370
 3143SOL     OW 9454   0.809   3.728   2.364
 3143SOL    HW1 9455   0.849   3.819   2.355
 3143SOL    HW2 9456   0.709   3.736   2.370
 3144SOL     OW 9457   0.197   4.700   3.126
 3144SOL    HW1 9458   0.286   4.655   3.112
 3144SOL    HW2 9459   0.124   4.635   3.107
 3145SOL     OW 9460   1.525   4.723   2.052
 3145SOL    HW1 9461   1.462   4.647   2.065
 3145SOL    HW2 9462   1.573   4.741   2.138
 3146SOL     OW 9463   1.187   5.516   3.478
 3146SOL    HW1 9464   1.211   5.576   3.402
 3146SOL    HW2 9465   1.194   5.421   3.448
 3147SOL     OW 9466   0.317   3.975   3.663
 3147SOL    HW1 9467   0.388   4.046   3.669
 3147SOL    HW2 9468   0.229   4.014   3.691
 3148SOL     OW 9469   1.466   5.141   2.815
 3148SOL    HW1 9470   1.407   5.147   2.895
 3148SOL    HW2 9471   1.451   5.053   2.769
 3149SOL     OW 9472   1.667   5.438   2.434
 3149SOL    HW1 9473   1.626   5.415   2.346
 3149SOL    HW2 9474   1.649   5.364   2.499
 3150SOL     OW 9475   0.598   4.453   2.132
 3150SOL    HW1 9476   0.622   4.522   2.064
 3150SOL    HW2 9477   0.520   4.486   2.186
 3151SOL     OW 9478   1.281   4.069   2.806
 3151SOL    HW1 9479   1.195   4.019   2.793
 3151SOL    HW2 9480   1.343   4.015   2.862
 3152SOL     OW 9481   1.576   5.386   2.169
 3152SOL    HW1 9482   1.665   5.432   2.172
 3152SOL    HW2 9483   1.555   5.362   2.074
 3153SOL     OW 9484   0.807   4.329   3.327
 3153SOL    HW1 9485   0.760   4.326   3.416
 3153SOL    HW2 9486   0.756   4.274   3.261
 3154SOL     OW 9487   1.394   4.193   3.536
 3154SOL    HW1 9488   1.374   4.236   3.624
 3154SOL    HW2 9489   1.472   4.131   3.545
 3155SOL     OW 9490   0.973   4.614   3.434
 3155SOL    HW1 9491   1.019   4.530   3.405
 3155SOL    HW2 9492   0.917   4.648   3.359
 3156SOL     OW 9493   0.991   4.134   3.104
 3156SOL    HW1 9494   0.914   4.168   3.158
 3156SOL    HW2 9495   0.957   4.083   3.025
 3157SOL     OW 9496   1.041   4.425   2.291
 3157SOL    HW1 9497   1.067   4.421   2.387
 3157SOL    HW2 9498   0.956   4.374   2.277
 3158SOL     OW 9499   0.076   4.535   2.651
 3158SOL    HW1 9500   0.175   4.523   2.660
 3158SOL    HW2 9501   0.052   4.630   2.672
 3159SOL     OW 9502   0.130   5.545   3.433
 3159SOL    HW1 9503   0.120   5.530   3.532
 3159SOL    HW2 9504   0.044   5.581   3.397
 3160SOL     OW 9505   0.865   4.072   2.057
 3160SOL    HW1 9506   0.924   4.135   2.008
 3160SOL    HW2 9507   0.884   3.978   2.028
 3161SOL     OW 9508   1.719   4.309   3.693
 3161SOL    HW1 9509   1.693   4.398   3.657
 3161SOL    HW2 9510   1.717   4.241   3.620
 3162SOL     OW 9511   1.362   4.868   2.407
 3162SOL    HW1 9512   1.445   4.839   2.359
 3162SOL    HW2 9513   1.313   4.935   2.351
 3163SOL     OW 9514   0.550   3.920   2.747
 3163SOL    HW1 9515   0.545   3.915   2.847
 3163SOL    HW2 9516   0.552   4.016   2.718
 3164SOL     OW 9517   1.008   5.180   2.339
 3164SOL    HW1 9518   0.962   5.252   2.287
 3164SOL    HW2 9519   1.004   5.200   2.437
 3165SOL     OW 9520   0.351   5.525   2.715
 3165SOL    HW1 9521   0.401   5.439   2.721
 3165SOL    HW2 9522   0.416   5.602   2.712
 3166SOL     OW 9523   1.795   4.790   2.735
 3166SOL    HW1 9524   1.733   4.775   2.659
 3166SOL    HW2 9525   1.743   4.801   2.820
 3167SOL     OW 9526   1.227   5.274   3.368
 3167SOL    HW1 9527   1.233   5.197   3.432
 3167SOL    HW2 9528   1.175   5.248   3.288
 3168SOL     OW 9529   0.321   4.667   2.104
 3168SOL    HW1 9530   0.403   4.706   2.062
 3168SOL    HW2 9531   0.294   4.585   2.055
 3169SOL     OW 9532   1.458   4.459   2.590
 3169SOL    HW1 9533   1.453   4.394   2.665
 3169SOL    HW2 9534   1.538   4.518   2.603
 3170SOL     OW 9535   0.461   4.990   3.589
 3170SOL    HW1 9536   0.411   4.991   3.503
 3170SOL    HW2 9537   0.398   4.972   3.665
 3171SOL     OW 9538   1.111   5.500   2.099
 3171SOL    HW1 9539   1.051   5.438   2.149
 3171SOL    HW2 9540   1.142   5.456   2.014
 3172SOL     OW 9541   0.202   4.009   3.360
 3172SOL    HW1 9542   0.122   4.069   3.347
 3172SOL    HW2 9543   0.192   3.960   3.446
 3173SOL     OW 9544   1.632   5.101   1.943
 3173SOL    HW1 9545   1.600   5.195   1.933
 3173SOL    HW2 9546   1.556   5.038   1.931
 3174SOL     OW 9547   0.464   5.467   2.185
 3174SOL    HW1 9548   0.497   5.506   2.271
 3174SOL    HW2 9549   0.540   5.460   2.120
 3175SOL     OW 9550   1.400   3.831   2.288
 3175SOL    HW1 9551   1.376   3.794   2.198
 3175SOL    HW2 9552   1.499   3.847   2.292
 3176SOL     OW 9553   0.249   5.509   3.103
 3176SOL    HW1 9554   0.306   5.444   3.153
 3176SOL    HW2 9555   0.233   5.476   3.010
 3177SOL     OW 9556   0.940   5.422   2.766
 3177SOL    HW1 9557   1.020   5.365   2.787
 3177SOL    HW2 9558   0.891   5.382   2.689
 3178SOL     OW 9559   0.382   4.424   2.342
 3178SOL    HW1 9560   0.427   4.334   2.339
 3178SOL    HW2 9561   0.288   4.413   2.375
 3179SOL     OW 9562   1.547   3.946   3.591
 3179SOL    HW1 9563   1.542   3.983   3.683
 3179SOL    HW2 9564   1.475   3.877   3.579
 3180SOL     OW 9565   0.614   3.846   1.979
 3180SOL    HW1 9566   0.712   3.824   1.986
 3180SOL    HW2 9567   0.583   3.829   1.886
 3181SOL     OW 9568   0.781   3.988   3.611
 3181SOL    HW1 9569   0.848   3.927   3.654
 3181SOL    HW2 9570   0.708   4.007   3.676
 3182SOL     OW 9571   0.888   5.238   3.057
 3182SOL    HW1 9572   0.865   5.213   2.963
 3182SOL    HW2 9573   0.949   5.169   3.096
 3183SOL     OW 9574   1.351   4.314   3.295
 3183SOL    HW1 9575   1.379   4.271   3.380
 3183SOL    HW2 9576   1.376   4.410   3.296
 3184SOL     OW 9577   0.803   5.126   2.786
 3184SOL    HW1 9578   0.893   5.140   2.744
 3184SOL    HW2 9579   0.732   5.128   2.715
 3185SOL     OW 9580   0.922   4.227   2.761
 3185SOL    HW1 9581   0.897   4.218   2.665
 3185SOL    HW2 9582   0.970   4.145   2.792
 3186SOL     OW 9583   0.539   3.788   2.374
 3186SOL    HW1 9584   0.458   3.789   2.432
 3186SOL    HW2 9585   0.542   3.871   2.319
 3187SOL     OW 9586   1.434   4.912   1.903
 3187SOL    HW1 9587   1.466   4.836   1.960
 3187SOL    HW2 9588   1.342   4.939   1.933
 3188SOL     OW 9589   0.297   3.759   2.033
 3188SOL    HW1 9590   0.346   3.843   2.012
 3188SOL    HW2 9591   0.359   3.694   2.078
 3189SOL     OW 9592   0.935   3.960   2.342
 3189SOL    HW1 9593   0.887   4.001   2.264
 3189SOL    HW2 9594   1.034   3.958   2.323
 3190SOL     OW 9595   1.076   4.407   3.326
 3190SOL    HW1 9596   0.996   4.346   3.329
 3190SOL    HW2 9597   1.157   4.354   3.302
 3191SOL     OW 9598   1.227   5.294   2.655
 3191SOL    HW1 9599   1.248   5.368   2.590
 3191SOL    HW2 9600   1.295   5.294   2.728
 3192SOL     OW 9601   0.459   4.876   2.603
 3192SOL    HW1 9602   0.388   4.849   2.668
 3192SOL    HW2 9603   0.433   4.848   2.510
 3193SOL     OW 9604   1.271   5.521   2.453
 3193SOL    HW1 9605   1.315   5.585   2.389
 3193SOL    HW2 9606   1.221   5.573   2.523
 3194SOL     OW 9607   1.032   4.273   1.878
 3194SOL    HW1 9608   0.991   4.355   1.839
 3194SOL    HW2 9609   1.096   4.299   1.951
 3195SOL     OW 9610   0.078   4.280   3.248
 3195SOL    HW1 9611   0.170   4.279   3.207
 3195SOL    HW2 9612   0.072   4.354   3.315
 3196SOL     OW 9613   0.561   3.946   3.009
 3196SOL    HW1 9614   0.599   3.862   3.046
 3196SOL    HW2 9615   0.473   3.965   3.053
 3197SOL     OW 9616   0.866   4.178   2.504
 3197SOL    HW1 9617   0.834   4.250   2.442
 3197SOL    HW2 9618   0.890   4.097   2.451
 3198SOL     OW 9619   1.017   3.763   2.615
 3198SOL    HW1 9620   0.945   3.768   2.546
 3198SOL    HW2 9621   0.993   3.694   2.684
 3199SOL     OW 9622   1.429   4.897   2.729
 3199SOL    HW1 9623   1.374   4.813   2.722
 3199SOL    HW2 9624   1.455   4.926   2.637
 3200SOL     OW 9625   1.466   4.314   2.854
 3200SOL    HW1 9626   1.436   4.219   2.861
 3200SOL    HW2 9627   1.539   4.330   2.920
 3201SOL     OW 9628   1.857   4.557   2.239
 3201SOL    HW1 9629   1.899   4.493   2.303
 3201SOL    HW2 9630   1.819   4.506   2.161
 3202SOL     OW 9631   0.488   5.109   2.036
 3202SOL    HW1 9632   0.401   5.094   2.083
 3202SOL    HW2 9633   0.471   5.135   1.941
 3203SOL     OW 9634   1.664   5.004   2.519
 3203SOL    HW1 9635   1.763   5.012   2.533
 3203SOL    HW2 9636   1.619   5.088   2.550
 3204SOL     OW 9637   1.390   4.299   1.940
 3204SOL    HW1 9638   1.336   4.278   2.021
 3204SOL    HW2 9639   1.481   4.258   1.949
 3205SOL     OW 9640   0.527   3.980   2.190
 3205SOL    HW1 9641   0.554   3.921   2.115
 3205SOL    HW2 9642   0.527   4.075   2.159
 3206SOL     OW 9643   1.754   4.947   3.450
 3206SOL    HW1 9644   1.845   4.908   3.437
 3206SOL    HW2 9645   1.762   5.043   3.474
 3207SOL     OW 9646   1.064   5.071   3.202
 3207SOL    HW1 9647   0.984   5.048   3.257
 3207SOL    HW2 9648   1.147   5.045   3.251
 3208SOL     OW 9649   1.592   5.353   3.487
 3208SOL    HW1 9650   1.619   5.387   3.397
 3208SOL    HW2 9651   1.671   5.315   3.533
 3209SOL     OW 9652   1.111   4.919   2.962
 3209SOL    HW1 9653   1.071   4.963   3.043
 3209SOL    HW2 9654   1.070   4.956   2.879
 3210SOL     OW 9655   1.638   4.823   2.941
 3210SOL    HW1 9656   1.643   4.904   3.000
 3210SOL    HW2 9657   1.552   4.825   2.890
 3211SOL     OW 9658   0.915   3.813   3.264
 3211SOL    HW1 9659   0.940   3.793   3.169
 3211SOL    HW2 9660   0.987   3.869   3.306
 3212SOL     OW 9661   0.980   4.840   3.581
 3212SOL    HW1 9662   0.881   4.846   3.591
 3212SOL    HW2 9663   1.003   4.760   3.525
 3213SOL     OW 9664   0.705   4.774   2.230
 3213SOL    HW1 9665   0.691   4.781   2.329
 3213SOL    HW2 9666   0.789   4.723   2.212
 3214SOL     OW 9667   0.410   4.537   3.113
 3214SOL    HW1 9668   0.496   4.549   3.163
 3214SOL    HW2 9669   0.368   4.450   3.140
 3215SOL     OW 9670   1.274   4.110   3.124
 3215SOL    HW1 9671   1.295   4.184   3.188
 3215SOL    HW2 9672   1.185   4.127   3.081
 3216SOL     OW 9673   0.064   5.288   3.193
 3216SOL    HW1 9674   0.018   5.370   3.159
 3216SOL    HW2 9675   0.162   5.307   3.202
 3217SOL     OW 9676   0.367   4.824   2.363
 3217SOL    HW1 9677   0.360   4.907   2.307
 3217SOL    HW2 9678   0.371   4.744   2.303
 3218SOL     OW 9679   0.566   4.261   2.727
 3218SOL    HW1 9680   0.578   4.327   2.653
 3218SOL    HW2 9681   0.612   4.295   2.810
 3219SOL     OW 9682   1.252   5.072   2.250
 3219SOL    HW1 9683   1.302   5.149   2.290
 3219SOL    HW2 9684   1.157   5.074   2.282
 3220SOL     OW 9685   1.272   5.169   3.004
 3220SOL    HW1 9686   1.319   5.182   3.091
 3220SOL    HW2 9687   1.206   5.095   3.013
 3221SOL     OW 9688   1.582   4.363   2.334
 3221SOL    HW1 9689   1.551   4.424   2.407
 3221SOL    HW2 9690   1.632   4.415   2.265
 3222SOL     OW 9691   0.354   5.234   3.191
 3222SOL    HW1 9692   0.333   5.190   3.104
 3222SOL    HW2 9693   0.451   5.260   3.194
 3223SOL     OW 9694   0.402   4.475   3.460
 3223SOL    HW1 9695   0.470   4.530   3.413
 3223SOL    HW2 9696   0.442   4.387   3.487
 3224SOL     OW 9697   1.587   4.503   3.532
 3224SOL    HW1 9698   1.495   4.541   3.527
 3224SOL    HW2 9699   1.647   4.550   3.467
 3225SOL     OW 9700   1.013   3.829   3.632
 3225SOL    HW1 9701   1.019   3.914   3.580
 3225SOL    HW2 9702   1.045   3.753   3.575
 3226SOL     OW 9703   0.504   3.774   3.602
 3226SOL    HW1 9704   0.462   3.717   3.532
 3226SOL    HW2 9705   0.438   3.843   3.634
 3227SOL     OW 9706   0.573   4.594   2.891
 3227SOL    HW1 9707   0.617   4.683   2.882
 3227SOL    HW2 9708   0.510   4.594   2.968
 3228SOL     OW 9709   1.360   4.586   2.907
 3228SOL    HW1 9710   1.285   4.586   2.841
 3228SOL    HW2 9711   1.397   4.494   2.916
 3229SOL     OW 9712   1.209   4.249   2.137
 3229SOL    HW1 9713   1.222   4.165   2.191
 3229SOL    HW2 9714   1.180   4.323   2.197
 3230SOL     OW 9715   0.307   3.937   3.093
 3230SOL    HW1 9716   0.284   3.974   3.183
 3230SOL    HW2 9717   0.277   3.842   3.087
 3231SOL     OW 9718   0.037   5.034   3.144
 3231SOL    HW1 9719   0.090   4.985   3.212
 3231SOL    HW2 9720   0.059   5.132   3.149
 3232SOL     OW 9721   0.732   4.358   2.926
 3232SOL    HW1 9722   0.791   4.332   2.850
 3232SOL    HW2 9723   0.704   4.454   2.915
 3233SOL     OW 9724   1.728   4.659   3.716
 3233SOL    HW1 9725   1.682   4.652   3.627
 3233SOL    HW2 9726   1.666   4.703   3.782
 3234SOL     OW 9727   0.307   3.787   2.480
 3234SOL    HW1 9728   0.296   3.881   2.513
 3234SOL    HW2 9729   0.302   3.724   2.557
 3235SOL     OW 9730   1.622   4.091   2.236
 3235SOL    HW1 9731   1.624   4.015   2.300
 3235SOL    HW2 9732   1.574   4.168   2.276
 3236SOL     OW 9733   1.023   4.490   2.828
 3236SOL    HW1 9734   1.038   4.511   2.924
 3236SOL    HW2 9735   0.993   4.395   2.819
 3237SOL     OW 9736   0.980   5.297   3.562
 3237SOL    HW1 9737   0.960   5.341   3.474
 3237SOL    HW2 9738   1.019   5.206   3.546
 3238SOL     OW 9739   1.859   5.242   3.467
 3238SOL    HW1 9740   1.873   5.269   3.372
 3238SOL    HW2 9741   1.942   5.264   3.520
 3239SOL     OW 9742   0.350   4.622   3.666
 3239SOL    HW1 9743   0.426   4.666   3.714
 3239SOL    HW2 9744   0.385   4.575   3.584
 3240SOL     OW 9745   1.540   3.998   1.987
 3240SOL    HW1 9746   1.479   3.923   2.010
 3240SOL    HW2 9747   1.562   4.050   2.070
 3241SOL     OW 9748   1.303   4.562   1.904
 3241SOL    HW1 9749   1.337   4.469   1.919
 3241SOL    HW2 9750   1.321   4.589   1.809
 3242SOL     OW 9751   1.068   5.057   2.711
 3242SOL    HW1 9752   1.075   4.973   2.656
 3242SOL    HW2 9753   1.130   5.126   2.675
 3243SOL     OW 9754   0.319   4.534   2.811
 3243SOL    HW1 9755   0.412   4.570   2.816
 3243SOL    HW2 9756   0.313   4.449   2.863
 3244SOL     OW 9757   0.339   4.233   2.868
 3244SOL    HW1 9758   0.287   4.150   2.851
 3244SOL    HW2 9759   0.416   4.238   2.804
 3245SOL     OW 9760   1.138   4.104   3.540
 3245SOL    HW1 9761   1.093   4.167   3.604
 3245SOL    HW2 9762   1.231   4.135   3.523
 3246SOL     OW 9763   1.160   3.931   3.339
 3246SOL    HW1 9764   1.160   3.995   3.416
 3246SOL    HW2 9765   1.188   3.979   3.256
 3247SOL     OW 9766   0.008   5.050   2.062
 3247SOL    HW1 9767  -0.085   5.071   2.031
 3247SOL    HW2 9768   0.018   4.951   2.075
 3248SOL     OW 9769   0.088   5.525   2.789
 3248SOL    HW1 9770   0.046   5.439   2.762
 3248SOL    HW2 9771   0.182   5.528   2.755
 3249SOL     OW 9772   0.504   5.292   2.772
 3249SOL    HW1 9773   0.570   5.366   2.781
 3249SOL    HW2 9774   0.548   5.213   2.730
 3250SOL     OW 9775   1.002   4.520   3.100
 3250SOL    HW1 9776   1.043   4.488   3.186
 3250SOL    HW2 9777   0.906   4.493   3.097
 3251SOL     OW 9778   0.040   4.268   2.976
 3251SOL    HW1 9779   0.125   4.235   2.935
 3251SOL    HW2 9780   0.053   4.283   3.074
 3252SOL     OW 9781   0.189   4.244   3.584
 3252SOL    HW1 9782   0.248   4.204   3.514
 3252SOL    HW2 9783   0.131   4.315   3.543
 3253SOL     OW 9784   1.369   4.674   3.522
 3253SOL    HW1 9785   1.408   4.763   3.542
 3253SOL    HW2 9786   1.379   4.654   3.425
 3254SOL     OW 9787   0.815   4.296   2.187
 3254SOL    HW1 9788   0.822   4.207   2.141
 3254SOL    HW2 9789   0.721   4.330   2.179
 3255SOL     OW 9790   1.657   4.328   3.068
 3255SOL    HW1 9791   1.619   4.259   3.130
 3255SOL    HW2 9792   1.739   4.292   3.024
 3256SOL     OW 9793   0.252   5.288   3.606
 3256SOL    HW1 9794   0.222   5.345   3.682
 3256SOL    HW2 9795   0.245   5.191   3.632
 3257SOL     OW 9796   0.671   4.188   3.131
 3257SOL    HW1 9797   0.637   4.099   3.101
 3257SOL    HW2 9798   0.697   4.242   3.051
 3258SOL     OW 9799   0.930   5.402   3.327
 3258SOL    HW1 9800   0.906   5.384   3.232
 3258SOL    HW2 9801   0.960   5.496   3.337
 3259SOL     OW 9802   0.473   4.224   2.053
 3259SOL    HW1 9803   0.534   4.304   2.057
 3259SOL    HW2 9804   0.378   4.255   2.060
 3260SOL     OW 9805   0.159   4.861   3.328
 3260SOL    HW1 9806   0.181   4.800   3.404
 3260SOL    HW2 9807   0.169   4.812   3.242
 3261SOL     OW 9808   1.347   4.783   3.096
 3261SOL    HW1 9809   1.371   4.720   3.022
 3261SOL    HW2 9810   1.257   4.823   3.078
 3262SOL     OW 9811   1.302   4.579   2.171
 3262SOL    HW1 9812   1.216   4.548   2.213
 3262SOL    HW2 9813   1.298   4.565   2.072
 3263SOL     OW 9814   1.759   5.471   3.016
 3263SOL    HW1 9815   1.820   5.501   2.943
 3263SOL    HW2 9816   1.721   5.382   2.994
 3264SOL     OW 9817   1.252   5.455   2.990
 3264SOL    HW1 9818   1.336   5.460   2.936
 3264SOL    HW2 9819   1.229   5.359   3.008
 3265SOL     OW 9820   0.083   4.982   2.884
 3265SOL    HW1 9821   0.078   4.981   2.984
 3265SOL    HW2 9822   0.000   4.941   2.846
 3266SOL     OW 9823   0.688   5.386   3.578
 3266SOL    HW1 9824   0.632   5.467   3.587
 3266SOL    HW2 9825   0.740   5.390   3.492
 3267SOL     OW 9826   1.726   3.859   2.385
 3267SOL    HW1 9827   1.799   3.842   2.318
 3267SOL    HW2 9828   1.695   3.772   2.423
 3268SOL     OW 9829   1.388   5.297   2.339
 3268SOL    HW1 9830   1.455   5.309   2.265
 3268SOL    HW2 9831   1.348   5.386   2.362
 3269SOL     OW 9832   0.130   5.518   3.713
 3269SOL    HW1 9833   0.089   5.444   3.766
 3269SOL    HW2 9834   0.194   5.569   3.771
 3270SOL     OW 9835   1.280   4.651   2.534
 3270SOL    HW1 9836   1.340   4.570   2.536
 3270SOL    HW2 9837   1.320   4.720   2.474
 3271SOL     OW 9838   0.830   4.997   3.284
 3271SOL    HW1 9839   0.825   5.030   3.379
 3271SOL    HW2 9840   0.744   5.016   3.238
 3272SOL     OW 9841   0.672   5.340   2.016
 3272SOL    HW1 9842   0.681   5.350   1.917
 3272SOL    HW2 9843   0.632   5.251   2.037
 3273SOL     OW 9844   1.650   5.444   3.256
 3273SOL    HW1 9845   1.703   5.454   3.172
 3273SOL    HW2 9846   1.623   5.534   3.290
 3274SOL     OW 9847   1.841   3.899   2.825
 3274SOL    HW1 9848   1.880   3.814   2.789
 3274SOL    HW2 9849   1.743   3.901   2.806
 3275SOL     OW 9850   0.263   4.050   2.582
 3275SOL    HW1 9851   0.184   4.101   2.548
 3275SOL    HW2 9852   0.254   4.035   2.680
 3276SOL     OW 9853   1.194   5.336   1.893
 3276SOL    HW1 9854   1.200   5.243   1.930
 3276SOL    HW2 9855   1.135   5.336   1.813
 3277SOL     OW 9856   0.822   4.726   3.234
 3277SOL    HW1 9857   0.862   4.725   3.142
 3277SOL    HW2 9858   0.832   4.818   3.274
 3278SOL     OW 9859   0.916   4.634   2.153
 3278SOL    HW1 9860   0.979   4.672   2.085
 3278SOL    HW2 9861   0.956   4.551   2.192
 3279SOL     OW 9862   1.504   5.331   1.906
 3279SOL    HW1 9863   1.412   5.368   1.913
 3279SOL    HW2 9864   1.542   5.351   1.816
 3280SOL     OW 9865   0.372   5.012   3.352
 3280SOL    HW1 9866   0.359   5.105   3.318
 3280SOL    HW2 9867   0.288   4.960   3.339
 3281SOL     OW 9868   1.614   5.016   3.151
 3281SOL    HW1 9869   1.674   5.019   3.231
 3281SOL    HW2 9870   1.539   5.080   3.164
 3282SOL     OW 9871   1.039   4.822   2.558
 3282SOL    HW1 9872   0.969   4.775   2.612
 3282SOL    HW2 9873   1.098   4.754   2.515
 3283SOL     OW 9874   1.014   3.960   2.833
 3283SOL    HW1 9875   1.006   3.924   2.740
 3283SOL    HW2 9876   1.012   3.884   2.898
 3284SOL     OW 9877   0.590   5.211   2.353
 3284SOL    HW1 9878   0.632   5.153   2.283
 3284SOL    HW2 9879   0.546   5.290   2.309
 3285SOL     OW 9880   1.709   4.109   3.243
 3285SOL    HW1 9881   1.782   4.178   3.247
 3285SOL    HW2 9882   1.737   4.034   3.184
 3286SOL     OW 9883   0.255   5.072   2.152
 3286SOL    HW1 9884   0.159   5.073   2.125
 3286SOL    HW2 9885   0.267   5.125   2.236
 3287SOL     OW 9886   0.105   4.737   3.588
 3287SOL    HW1 9887   0.028   4.704   3.642
 3287SOL    HW2 9888   0.190   4.707   3.630
 3288SOL     OW 9889   0.672   3.927   3.351
 3288SOL    HW1 9890   0.762   3.911   3.311
 3288SOL    HW2 9891   0.680   3.932   3.450
 3289SOL     OW 9892   0.075   4.069   1.895
 3289SOL    HW1 9893  -0.017   4.041   1.866
 3289SOL    HW2 9894   0.106   4.146   1.839
 3290SOL     OW 9895   1.440   4.580   3.260
 3290SOL    HW1 9896   1.383   4.632   3.197
 3290SOL    HW2 9897   1.536   4.592   3.236
 3291SOL     OW 9898   0.072   3.890   2.180
 3291SOL    HW1 9899   0.055   3.973   2.126
 3291SOL    HW2 9900   0.162   3.853   2.158
 3292SOL     OW 9901   1.183   5.059   1.981
 3292SOL    HW1 9902   1.084   5.048   1.983
 3292SOL    HW2 9903   1.217   5.074   2.074
 3293SOL     OW 9904   0.613   4.566   3.293
 3293SOL    HW1 9905   0.669   4.647   3.276
 3293SOL    HW2 9906   0.672   4.486   3.296
 3294SOL     OW 9907   1.493   5.491   2.821
 3294SOL    HW1 9908   1.526   5.555   2.752
 3294SOL    HW2 9909   1.559   5.485   2.896
 3295SOL     OW 9910   0.716   4.289   3.570
 3295SOL    HW1 9911   0.735   4.354   3.644
 3295SOL    HW2 9912   0.776   4.209   3.579
 3296SOL     OW 9913   1.450   4.944   3.495
 3296SOL    HW1 9914   1.441   4.934   3.594
 3296SOL    HW2 9915   1.546   4.937   3.469
 3297SOL     OW 9916   0.390   5.465   3.422
 3297SOL    HW1 9917   0.299   5.506   3.420
 3297SOL    HW2 9918   0.383   5.371   3.454
 3298SOL     OW 9919   1.674   4.607   3.116
 3298SOL    HW1 9920   1.647   4.518   3.079
 3298SOL    HW2 9921   1.675   4.675   3.043
 3299SOL     OW 9922   1.225   4.049   2.311
 3299SOL    HW1 9923   1.290   3.975   2.300
 3299SOL    HW2 9924   1.245   4.099   2.395
 3300SOL     OW 9925   0.594   4.469   2.514
 3300SOL    HW1 9926   0.644   4.554   2.495
 3300SOL    HW2 9927   0.506   4.471   2.466
 3301SOL     OW 9928   1.777   4.066   3.504
 3301SOL    HW1 9929   1.760   4.097   3.410
 3301SOL    HW2 9930   1.693   4.029   3.542
 3302SOL     OW 9931   1.730   4.658   3.379
 3302SOL    HW1 9932   1.768   4.749   3.394
 3302SOL    HW2 9933   1.722   4.641   3.280
 3303SOL     OW 9934   0.859   5.098   1.878
 3303SOL    HW1 9935   0.813   5.113   1.966
 3303SOL    HW2 9936   0.903   5.183   1.848
 3304SOL     OW 9937   0.661   5.514   2.815
 3304SOL    HW1 9938   0.615   5.602   2.802
 3304SOL    HW2 9939   0.760   5.526   2.808
 3305SOL     OW 9940   0.859   4.680   2.723
 3305SOL    HW1 9941   0.913   4.611   2.771
 3305SOL    HW2 9942   0.827   4.749   2.789
 3306SOL     OW 9943   1.083   4.708   1.949
 3306SOL    HW1 9944   1.060   4.761   1.867
 3306SOL    HW2 9945   1.164   4.652   1.930
 3307SOL     OW 9946   1.861   5.293   2.713
 3307SOL    HW1 9947   1.790   5.281   2.643
 3307SOL    HW2 9948   1.862   5.214   2.773
 3308SOL     OW 9949   0.221   5.038   3.706
 3308SOL    HW1 9950   0.156   4.965   3.685
 3308SOL    HW2 9951   0.225   5.052   3.804
 3309SOL     OW 9952   0.079   4.964   2.515
 3309SOL    HW1 9953   0.078   4.917   2.603
 3309SOL    HW2 9954   0.161   4.936   2.464
 3310SOL     OW 9955   0.672   5.115   3.486
 3310SOL    HW1 9956   0.594   5.065   3.524
 3310SOL    HW2 9957   0.669   5.210   3.517
 3311SOL     OW 9958   1.824   3.916   3.089
 3311SOL    HW1 9959   1.820   3.826   3.133
 3311SOL    HW2 9960   1.827   3.905   2.990
 3312SOL     OW 9961   0.428   4.148   2.382
 3312SOL    HW1 9962   0.458   4.076   2.320
 3312SOL    HW2 9963   0.389   4.108   2.465
 3313SOL     OW 9964   1.705   5.211   2.966
 3313SOL    HW1 9965   1.612   5.186   2.939
 3313SOL    HW2 9966   1.731   5.161   3.048
 3314SOL     OW 9967   0.317   4.271   3.142
 3314SOL    HW1 9968   0.355   4.212   3.214
 3314SOL    HW2 9969   0.357   4.245   3.054
 3315SOL     OW 9970   0.812   5.310   2.549
 3315SOL    HW1 9971   0.844   5.320   2.455
 3315SOL    HW2 9972   0.733   5.248   2.551
 3316SOL     OW 9973   1.424   3.938   2.974
 3316SOL    HW1 9974   1.476   3.873   3.029
 3316SOL    HW2 9975   1.375   4.001   3.035
 3317SOL     OW 9976   1.001   3.758   3.016
 3317SOL    HW1 9977   0.938   3.686   2.985
 3317SOL    HW2 9978   1.094   3.722   3.016
 3318SOL     OW 9979   0.770   5.054   2.163
 3318SOL    HW1 9980   0.724   4.967   2.180
 3318SOL    HW2 9981   0.861   5.051   2.204
 3319SOL     OW 9982   0.618   5.291   3.146
 3319SOL    HW1 9983   0.613   5.373   3.203
 3319SOL    HW2 9984   0.707   5.288   3.101
 3320SOL     OW 9985   1.352   3.776   2.030
 3320SOL    HW1 9986   1.387   3.735   1.946
 3320SOL    HW2 9987   1.262   3.738   2.050
 3321SOL     OW 9988   1.300   4.177   2.553
 3321SOL    HW1 9989   1.241   4.257   2.557
 3321SOL    HW2 9990   1.315   4.142   2.646
 3322SOL     OW 9991   1.593   3.945   2.744
 3322SOL    HW1 9992   1.509   3.944   2.798
 3322SOL    HW2 9993   1.595   4.028   2.688
 3323SOL     OW 9994   0.039   4.801   2.162
 3323SOL    HW1 9995   0.138   4.790   2.153
 3323SOL    HW2 9996  -0.001   4.715   2.194
 3324SOL     OW 9997   0.875   5.370   2.199
 3324SOL    HW1 9998   0.798   5.335   2.145
 3324SOL    HW2 9999   0.843   5.441   2.261
 3325SOL     OW10000   0.230   4.352   3.837
 3325SOL    HW110001   0.137   4.350   3.874
 3325SOL    HW210002   0.231   4.313   3.745
 3326SOL     OW10003   0.225   3.999   4.720
 3326SOL    HW110004   0.260   3.982   4.812
 3326SOL    HW210005   0.137   3.954   4.708
 3327SOL     OW10006   0.019   4.092   4.371
 3327SOL    HW110007  -0.063   4.135   4.410
 3327SOL    HW210008  -0.009   4.019   4.308
 3328SOL     OW10009   0.569   4.999   4.889
 3328SOL    HW110010   0.476   4.992   4.852
 3328SOL    HW210011   0.580   5.088   4.933
 3329SOL     OW10012   1.555   5.235   4.427
 3329SOL    HW110013   1.498   5.219   4.508
 3329SOL    HW210014   1.496   5.245   4.347
 3330SOL     OW10015   1.135   4.427   4.441
 3330SOL    HW110016   1.192   4.505   4.416
 3330SOL    HW210017   1.075   4.453   4.517
 3331SOL     OW10018   1.755   4.331   3.955
 3331SOL    HW110019   1.743   4.318   3.856
 3331SOL    HW210020   1.725   4.250   4.004
 3332SOL     OW10021   0.768   4.868   4.747
 3332SOL    HW110022   0.690   4.885   4.807
 3332SOL    HW210023   0.802   4.955   4.711
 3333SOL     OW10024   0.850   4.522   5.547
 3333SOL    HW110025   0.846   4.598   5.612
 3333SOL    HW210026   0.872   4.558   5.456
 3334SOL     OW10027   0.685   4.736   4.389
 3334SOL    HW110028   0.754   4.720   4.459
 3334SOL    HW210029   0.612   4.793   4.427
 3335SOL     OW10030   0.686   4.885   5.527
 3335SOL    HW110031   0.746   4.964   5.541
 3335SOL    HW210032   0.600   4.916   5.486
 3336SOL     OW10033   0.335   5.159   4.785
 3336SOL    HW110034   0.257   5.128   4.732
 3336SOL    HW210035   0.393   5.217   4.728
 3337SOL     OW10036   1.460   5.229   5.063
 3337SOL    HW110037   1.484   5.323   5.089
 3337SOL    HW210038   1.444   5.175   5.145
 3338SOL     OW10039   0.438   4.116   5.223
 3338SOL    HW110040   0.520   4.060   5.232
 3338SOL    HW210041   0.357   4.058   5.227
 3339SOL     OW10042   1.603   4.171   4.461
 3339SOL    HW110043   1.529   4.217   4.411
 3339SOL    HW210044   1.654   4.239   4.514
 3340SOL     OW10045   0.231   5.437   4.207
 3340SOL    HW110046   0.265   5.514   4.261
 3340SOL    HW210047   0.275   5.437   4.117
 3341SOL     OW10048   1.127   5.065   5.414
 3341SOL    HW110049   1.174   5.065   5.502
 3341SOL    HW210050   1.079   4.978   5.403
 3342SOL     OW10051   0.230   5.158   4.262
 3342SOL    HW110052   0.204   5.254   4.262
 3342SOL    HW210053   0.159   5.104   4.307
 3343SOL     OW10054   0.240   4.815   4.610
 3343SOL    HW110055   0.254   4.731   4.662
 3343SOL    HW210056   0.185   4.879   4.665
 3344SOL     OW10057   0.620   5.510   5.163
 3344SOL    HW110058   0.528   5.493   5.198
 3344SOL    HW210059   0.648   5.602   5.189
 3345SOL     OW10060   0.606   4.688   3.847
 3345SOL    HW110061   0.613   4.772   3.793
 3345SOL    HW210062   0.652   4.701   3.935
 3346SOL     OW10063   1.594   3.838   5.204
 3346SOL    HW110064   1.576   3.905   5.132
 3346SOL    HW210065   1.591   3.884   5.293
 3347SOL     OW10066   0.122   4.367   4.287
 3347SOL    HW110067   0.077   4.279   4.304
 3347SOL    HW210068   0.121   4.421   4.371
 3348SOL     OW10069   1.842   5.491   4.083
 3348SOL    HW110070   1.896   5.462   4.163
 3348SOL    HW210071   1.872   5.581   4.054
 3349SOL     OW10072   0.027   5.320   3.841
 3349SOL    HW110073   0.008   5.224   3.862
 3349SOL    HW210074  -0.006   5.378   3.916
 3350SOL     OW10075   1.689   4.646   4.336
 3350SOL    HW110076   1.784   4.617   4.344
 3350SOL    HW210077   1.681   4.711   4.261
 3351SOL     OW10078   1.641   4.832   4.156
 3351SOL    HW110079   1.727   4.834   4.104
 3351SOL    HW210080   1.655   4.879   4.244
 3352SOL     OW10081   0.113   4.461   5.321
 3352SOL    HW110082   0.201   4.448   5.366
 3352SOL    HW210083   0.100   4.558   5.299
 3353SOL     OW10084   0.613   5.089   4.450
 3353SOL    HW110085   0.564   5.002   4.459
 3353SOL    HW210086   0.590   5.132   4.363
 3354SOL     OW10087   1.293   4.952   5.147
 3354SOL    HW110088   1.330   4.879   5.089
 3354SOL    HW210089   1.345   4.957   5.232
 3355SOL     OW10090   0.809   3.728   4.226
 3355SOL    HW110091   0.849   3.819   4.217
 3355SOL    HW210092   0.709   3.736   4.232
 3356SOL     OW10093   0.197   4.700   4.988
 3356SOL    HW110094   0.286   4.655   4.974
 3356SOL    HW210095   0.124   4.635   4.969
 3357SOL     OW10096   1.525   4.723   3.914
 3357SOL    HW110097   1.462   4.647   3.927
 3357SOL    HW210098   1.573   4.741   4.000
 3358SOL     OW10099   1.187   5.516   5.340
 3358SOL    HW110100   1.211   5.576   5.264
 3358SOL    HW210101   1.194   5.421   5.310
 3359SOL     OW10102   0.317   3.975   5.525
 3359SOL    HW110103   0.388   4.046   5.531
 3359SOL    HW210104   0.229   4.014   5.553
 3360SOL     OW10105   1.466   5.141   4.677
 3360SOL    HW110106   1.407   5.147   4.757
 3360SOL    HW210107   1.451   5.053   4.631
 3361SOL     OW10108   1.667   5.438   4.296
 3361SOL    HW110109   1.626   5.415   4.208
 3361SOL    HW210110   1.649   5.364   4.361
 3362SOL     OW10111   0.598   4.453   3.994
 3362SOL    HW110112   0.622   4.522   3.926
 3362SOL    HW210113   0.520   4.486   4.048
 3363SOL     OW10114   1.281   4.069   4.668
 3363SOL    HW110115   1.195   4.019   4.655
 3363SOL    HW210116   1.343   4.015   4.724
 3364SOL     OW10117   1.576   5.386   4.031
 3364SOL    HW110118   1.665   5.432   4.034
 3364SOL    HW210119   1.555   5.362   3.936
 3365SOL     OW10120   0.807   4.329   5.189
 3365SOL    HW110121   0.760   4.326   5.278
 3365SOL    HW210122   0.756   4.274   5.123
 3366SOL     OW10123   1.394   4.193   5.398
 3366SOL    HW110124   1.374   4.236   5.486
 3366SOL    HW210125   1.472   4.131   5.407
 3367SOL     OW10126   0.973   4.614   5.296
 3367SOL    HW110127   1.019   4.530   5.267
 3367SOL    HW210128   0.917   4.648   5.221
 3368SOL     OW10129   0.991   4.134   4.966
 3368SOL    HW110130   0.914   4.168   5.020
 3368SOL    HW210131   0.957   4.083   4.887
 3369SOL     OW10132   1.041   4.425   4.153
 3369SOL    HW110133   1.067   4.421   4.249
 3369SOL    HW210134   0.956   4.374   4.139
 3370SOL     OW10135   0.076   4.535   4.513
 3370SOL    HW110136   0.175   4.523   4.522
 3370SOL    HW210137   0.052   4.630   4.534
 3371SOL     OW10138   0.130   5.545   5.295
 3371SOL    HW110139   0.120   5.530   5.394
 3371SOL    HW210140   0.044   5.581   5.259
 3372SOL     OW10141   0.865   4.072   3.919
 3372SOL    HW110142   0.924   4.135   3.870
 3372SOL    HW210143   0.884   3.978   3.890
 3373SOL     OW10144   1.719   4.309   5.555
 3373SOL    HW110145   1.693   4.398   5.519
 3373SOL    HW210146   1.717   4.241   5.482
 3374SOL     OW10147   1.362   4.868   4.269
 3374SOL    HW110148   1.445   4.839   4.221
 3374SOL    HW210149   1.313   4.935   4.213
 3375SOL     OW10150   0.550   3.920   4.609
 3375SOL    HW110151   0.545   3.915   4.709
 3375SOL    HW210152   0.552   4.016   4.580
 3376SOL     OW10153   1.008   5.180   4.201
 3376SOL    HW110154   0.962   5.252   4.149
 3376SOL    HW210155   1.004   5.200   4.299
 3377SOL     OW10156   0.351   5.525   4.577
 3377SOL    HW110157   0.401   5.439   4.583
 3377SOL    HW210158   0.416   5.602   4.574
 3378SOL     OW10159   1.795   4.790   4.597
 3378SOL    HW110160   1.733   4.775   4.521
 3378SOL    HW210161   1.743   4.801   4.682
 3379SOL     OW10162   1.227   5.274   5.230
 3379SOL    HW110163   1.233   5.197   5.294
 3379SOL    HW210164   1.175   5.248   5.150
 3380SOL     OW10165   0.321   4.667   3.966
 3380SOL    HW110166   0.403   4.706   3.924
 3380SOL    HW210167   0.294   4.585   3.917
 3381SOL     OW10168   1.458   4.459   4.452
 3381SOL    HW110169   1.453   4.394   4.527
 3381SOL    HW210170   1.538   4.518   4.465
 3382SOL     OW10171   0.461   4.990   5.451
 3382SOL    HW110172   0.411   4.991   5.365
 3382SOL    HW210173   0.398   4.972   5.527
 3383SOL     OW10174   1.111   5.500   3.961
 3383SOL    HW110175   1.051   5.438   4.011
 3383SOL    HW210176   1.142   5.456   3.876
 3384SOL     OW10177   0.202   4.009   5.222
 3384SOL    HW110178   0.122   4.069   5.209
 3384SOL    HW210179   0.192   3.960   5.308
 3385SOL     OW10180   1.632   5.101   3.805
 3385SOL    HW110181   1.600   5.195   3.795
 3385SOL    HW210182   1.556   5.038   3.793
 3386SOL     OW10183   0.464   5.467   4.047
 3386SOL    HW110184   0.497   5.506   4.133
 3386SOL    HW210185   0.540   5.460   3.982
 3387SOL     OW10186   1.400   3.831   4.150
 3387SOL    HW110187   1.376   3.794   4.060
 3387SOL    HW210188   1.499   3.847   4.154
 3388SOL     OW10189   0.249   5.509   4.965
 3388SOL    HW110190   0.306   5.444   5.015
 3388SOL    HW210191   0.233   5.476   4.872
 3389SOL     OW10192   0.940   5.422   4.628
 3389SOL    HW110193   1.020   5.365   4.649
 3389SOL    HW210194   0.891   5.382   4.551
 3390SOL     OW10195   0.382   4.424   4.204
 3390SOL    HW110196   0.427   4.334   4.201
 3390SOL    HW210197   0.288   4.413   4.237
 3391SOL     OW10198   1.547   3.946   5.453
 3391SOL    HW110199   1.542   3.983   5.545
 3391SOL    HW210200   1.475   3.877   5.441
 3392SOL     OW10201   0.614   3.846   3.841
 3392SOL    HW110202   0.712   3.824   3.848
 3392SOL    HW210203   0.583   3.829   3.748
 3393SOL     OW10204   0.781   3.988   5.473
 3393SOL    HW110205   0.848   3.927   5.516
 3393SOL    HW210206   0.708   4.007   5.538
 3394SOL     OW10207   0.888   5.238   4.919
 3394SOL    HW110208   0.865   5.213   4.825
 3394SOL    HW210209   0.949   5.169   4.958
 3395SOL     OW10210   1.351   4.314   5.157
 3395SOL    HW110211   1.379   4.271   5.242
 3395SOL    HW210212   1.376   4.410   5.158
 3396SOL     OW10213   0.803   5.126   4.648
 3396SOL    HW110214   0.893   5.140   4.606
 3396SOL    HW210215   0.732   5.128   4.577
 3397SOL     OW10216   0.922   4.227   4.623
 3397SOL    HW110217   0.897   4.218   4.527
 3397SOL    HW210218   0.970   4.145   4.654
 3398SOL     OW10219   0.539   3.788   4.236
 3398SOL    HW110220   0.458   3.789   4.294
 3398SOL    HW210221   0.542   3.871   4.181
 3399SOL     OW10222   1.434   4.912   3.765
 3399SOL    HW110223   1.466   4.836   3.822
 3399SOL    HW210224   1.342   4.939   3.795
 3400SOL     OW10225   0.297   3.759   3.895
 3400SOL    HW110226   0.346   3.843   3.874
 3400SOL    HW210227   0.359   3.694   3.940
 3401SOL     OW10228   0.935   3.960   4.204
 3401SOL    HW110229   0.887   4.001   4.126
 3401SOL    HW210230   1.034   3.958   4.185
 3402SOL     OW10231   1.076   4.407   5.188
 3402SOL    HW110232   0.996   4.346   5.191
 3402SOL    HW210233   1.157   4.354   5.164
 3403SOL     OW10234   1.227   5.294   4.517
 3403SOL    HW110235   1.248   5.368   4.452
 3403SOL    HW210236   1.295   5.294   4.590
 3404SOL     OW10237   0.459   4.876   4.465
 3404SOL    HW110238   0.388   4.849   4.530
 3404SOL    HW210239   0.433   4.848   4.372
 3405SOL     OW10240   1.271   5.521   4.315
 3405SOL    HW110241   1.315   5.585   4.251
 3405SOL    HW210242   1.221   5.573   4.385
 3406SOL     OW10243   1.032   4.273   3.740
 3406SOL    HW110244   0.991   4.355   3.701
 3406SOL    HW210245   1.096   4.299   3.813
 3407SOL     OW10246   0.078   4.280   5.110
 3407SOL    HW110247   0.170   4.279   5.069
 3407SOL    HW210248   0.072   4.354   5.177
 3408SOL     OW10249   0.561   3.946   4.871
 3408SOL    HW110250   0.599   3.862   4.908
 3408SOL    HW210251   0.473   3.965   4.915
 3409SOL     OW10252   0.866   4.178   4.366
 3409SOL    HW110253   0.834   4.250   4.304
 3409SOL    HW210254   0.890   4.097   4.313
 3410SOL     OW10255   1.017   3.763   4.477
 3410SOL    HW110256   0.945   3.768   4.408
 3410SOL    HW210257   0.993   3.694   4.546
 3411SOL     OW10258   1.429   4.897   4.591
 3411SOL    HW110259   1.374   4.813   4.584
 3411SOL    HW210260   1.455   4.926   4.499
 3412SOL     OW10261   1.466   4.314   4.716
 3412SOL    HW110262   1.436   4.219   4.723
 3412SOL    HW210263   1.539   4.330   4.782
 3413SOL     OW10264   1.857   4.557   4.101
 3413SOL    HW110265   1.899   4.493   4.165
 3413SOL    HW210266   1.819   4.506   4.023
 3414SOL     OW10267   0.488   5.109   3.898
 3414SOL    HW110268   0.401   5.094   3.945
 3414SOL    HW210269   0.471   5.135   3.803
 3415SOL     OW10270   1.664   5.004   4.381
 3415SOL    HW110271   1.763   5.012   4.395
 3415SOL    HW210272   1.619   5.088   4.412
 3416SOL     OW10273   1.390   4.299   3.802
 3416SOL    HW110274   1.336   4.278   3.883
 3416SOL    HW210275   1.481   4.258   3.811
 3417SOL     OW10276   0.527   3.980   4.052
 3417SOL    HW110277   0.554   3.921   3.977
 3417SOL    HW210278   0.527   4.075   4.021
 3418SOL     OW10279   1.754   4.947   5.312
 3418SOL    HW110280   1.845   4.908   5.299
 3418SOL    HW210281   1.762   5.043   5.336
 3419SOL     OW10282   1.064   5.071   5.064
 3419SOL    HW110283   0.984   5.048   5.119
 3419SOL    HW210284   1.147   5.045   5.113
 3420SOL     OW10285   1.592   5.353   5.349
 3420SOL    HW110286   1.619   5.387   5.259
 3420SOL    HW210287   1.671   5.315   5.395
 3421SOL     OW10288   1.111   4.919   4.824
 3421SOL    HW110289   1.071   4.963   4.905
 3421SOL    HW210290   1.070   4.956   4.741
 3422SOL     OW10291   1.638   4.823   4.803
 3422SOL    HW110292   1.643   4.904   4.862
 3422SOL    HW210293   1.552   4.825   4.752
 3423SOL     OW10294   0.915   3.813   5.126
 3423SOL    HW110295   0.940   3.793   5.031
 3423SOL    HW210296   0.987   3.869   5.168
 3424SOL     OW10297   0.980   4.840   5.443
 3424SOL    HW110298   0.881   4.846   5.453
 3424SOL    HW210299   1.003   4.760   5.387
 3425SOL     OW10300   0.705   4.774   4.092
 3425SOL    HW110301   0.691   4.781   4.191
 3425SOL    HW210302   0.789   4.723   4.074
 3426SOL     OW10303   0.410   4.537   4.975
 3426SOL    HW110304   0.496   4.549   5.025
 3426SOL    HW210305   0.368   4.450   5.002
 3427SOL     OW10306   1.274   4.110   4.986
 3427SOL    HW110307   1.295   4.184   5.050
 3427SOL    HW210308   1.185   4.127   4.943
 3428SOL     OW10309   0.064   5.288   5.055
 3428SOL    HW110310   0.018   5.370   5.021
 3428SOL    HW210311   0.162   5.307   5.064
 3429SOL     OW10312   0.367   4.824   4.225
 3429SOL    HW110313   0.360   4.907   4.169
 3429SOL    HW210314   0.371   4.744   4.165
 3430SOL     OW10315   0.566   4.261   4.589
 3430SOL    HW110316   0.578   4.327   4.515
 3430SOL    HW210317   0.612   4.295   4.672
 3431SOL     OW10318   1.252   5.072   4.112
 3431SOL    HW110319   1.302   5.149   4.152
 3431SOL    HW210320   1.157   5.074   4.144
 3432SOL     OW10321   1.272   5.169   4.866
 3432SOL    HW110322   1.319   5.182   4.953
 3432SOL    HW210323   1.206   5.095   4.875
 3433SOL     OW10324   1.582   4.363   4.196
 3433SOL    HW110325   1.551   4.424   4.269
 3433SOL    HW210326   1.632   4.415   4.127
 3434SOL     OW10327   0.354   5.234   5.053
 3434SOL    HW110328   0.333   5.190   4.966
 3434SOL    HW210329   0.451   5.260   5.056
 3435SOL     OW10330   0.402   4.475   5.322
 3435SOL    HW110331   0.470   4.530   5.275
 3435SOL    HW210332   0.442   4.387   5.349
 3436SOL     OW10333   1.587   4.503   5.394
 3436SOL    HW110334   1.495   4.541   5.389
 3436SOL    HW210335   1.647   4.550   5.329
 3437SOL     OW10336   1.013   3.829   5.494
 3437SOL    HW110337   1.019   3.914   5.442
 3437SOL    HW210338   1.045   3.753   5.437
 3438SOL     OW10339   0.504   3.774   5.464
 3438SOL    HW110340   0.462   3.717   5.394
 3438SOL    HW210341   0.438   3.843   5.496
 3439SOL     OW10342   0.573   4.594   4.753
 3439SOL    HW110343   0.617   4.683   4.744
 3439SOL    HW210344   0.510   4.594   4.830
 3440SOL     OW10345   1.360   4.586   4.769
 3440SOL    HW110346   1.285   4.586   4.703
 3440SOL    HW210347   1.397   4.494   4.778
 3441SOL     OW10348   1.209   4.249   3.999
 3441SOL    HW110349   1.222   4.165   4.053
 3441SOL    HW210350   1.180   4.323   4.059
 3442SOL     OW10351   0.307   3.937   4.955
 3442SOL    HW110352   0.284   3.974   5.045
 3442SOL    HW210353   0.277   3.842   4.949
 3443SOL     OW10354   0.037   5.034   5.006
 3443SOL    HW110355   0.090   4.985   5.074
 3443SOL    HW210356   0.059   5.132   5.011
 3444SOL     OW10357   0.732   4.358   4.788
 3444SOL    HW110358   0.791   4.332   4.712
 3444SOL    HW210359   0.704   4.454   4.777
 3445SOL     OW10360   1.728   4.659   5.578
 3445SOL    HW110361   1.682   4.652   5.489
 3445SOL    HW210362   1.666   4.703   5.644
 3446SOL     OW10363   0.307   3.787   4.342
 3446SOL    HW110364   0.296   3.881   4.375
 3446SOL    HW210365   0.302   3.724   4.419
 3447SOL     OW10366   1.622   4.091   4.098
 3447SOL    HW110367   1.624   4.015   4.162
 3447SOL    HW210368   1.574   4.168   4.138
 3448SOL     OW10369   1.023   4.490   4.690
 3448SOL    HW110370   1.038   4.511   4.786
 3448SOL    HW210371   0.993   4.395   4.681
 3449SOL     OW10372   0.980   5.297   5.424
 3449SOL    HW110373   0.960   5.341   5.336
 3449SOL    HW210374   1.019   5.206   5.408
 3450SOL     OW10375   1.859   5.242   5.329
 3450SOL    HW110376   1.873   5.269   5.234
 3450SOL    HW210377   1.942   5.264   5.382
 3451SOL     OW10378   0.350   4.622   5.528
 3451SOL    HW110379   0.426   4.666   5.576
 3451SOL    HW210380   0.385   4.575   5.446
 3452SOL     OW10381   1.540   3.998   3.849
 3452SOL    HW110382   1.479   3.923   3.872
 3452SOL    HW210383   1.562   4.050   3.932
 3453SOL     OW10384   1.303   4.562   3.766
 3453SOL    HW110385   1.337   4.469   3.781
 3453SOL    HW210386   1.321   4.589   3.671
 3454SOL     OW10387   1.068   5.057   4.573
 3454SOL    HW110388   1.075   4.973   4.518
 3454SOL    HW210389   1.130   5.126   4.537
 3455SOL     OW10390   0.319   4.534   4.673
 3455SOL    HW110391   0.412   4.570   4.678
 3455SOL    HW210392   0.313   4.449   4.725
 3456SOL     OW10393   0.339   4.233   4.730
 3456SOL    HW110394   0.287   4.150   4.713
 3456SOL    HW210395   0.416   4.238   4.666
 3457SOL     OW10396   1.138   4.104   5.402
 3457SOL    HW110397   1.093   4.167   5.466
 3457SOL    HW210398   1.231   4.135   5.385
 3458SOL     OW10399   1.160   3.931   5.201
 3458SOL    HW110400   1.160   3.995   5.278
 3458SOL    HW210401   1.188   3.979   5.118
 3459SOL     OW10402   0.008   5.050   3.924
 3459SOL    HW110403  -0.085   5.071   3.893
 3459SOL    HW210404   0.018   4.951   3.937
 3460SOL     OW10405   0.088   5.525   4.651
 3460SOL    HW110406   0.046   5.439   4.624
 3460SOL    HW210407   0.182   5.528   4.617
 3461SOL     OW10408   0.504   5.292   4.634
 3461SOL    HW110409   0.570   5.366   4.643
 3461SOL    HW210410   0.548   5.213   4.592
 3462SOL     OW10411   1.002   4.520   4.962
 3462SOL    HW110412   1.043   4.488   5.048
 3462SOL    HW210413   0.906   4.493   4.959
 3463SOL     OW10414   0.040   4.268   4.838
 3463SOL    HW110415   0.125   4.235   4.797
 3463SOL    HW210416   0.053   4.283   4.936
 3464SOL     OW10417   0.189   4.244   5.446
 3464SOL    HW110418   0.248   4.204   5.376
 3464SOL    HW210419   0.131   4.315   5.405
 3465SOL     OW10420   1.369   4.674   5.384
 3465SOL    HW110421   1.408   4.763   5.404
 3465SOL    HW210422   1.379   4.654   5.287
 3466SOL     OW10423   0.815   4.296   4.049
 3466SOL    HW110424   0.822   4.207   4.003
 3466SOL    HW210425   0.721   4.330   4.041
 3467SOL     OW10426   1.657   4.328   4.930
 3467SOL    HW110427   1.619   4.259   4.992
 3467SOL    HW210428   1.739   4.292   4.886
 3468SOL     OW10429   0.252   5.288   5.468
 3468SOL    HW110430   0.222   5.345   5.544
 3468SOL    HW210431   0.245   5.191   5.494
 3469SOL     OW10432   0.671   4.188   4.993
 3469SOL    HW110433   0.637   4.099   4.963
 3469SOL    HW210434   0.697   4.242   4.913
 3470SOL     OW10435   0.930   5.402   5.189
 3470SOL    HW110436   0.906   5.384   5.094
 3470SOL    HW210437   0.960   5.496   5.199
 3471SOL     OW10438   0.473   4.224   3.915
 3471SOL    HW110439   0.534   4.304   3.919
 3471SOL    HW210440   0.378   4.255   3.922
 3472SOL     OW10441   0.159   4.861   5.190
 3472SOL    HW110442   0.181   4.800   5.266
 3472SOL    HW210443   0.169   4.812   5.104
 3473SOL     OW10444   1.347   4.783   4.958
 3473SOL    HW110445   1.371   4.720   4.884
 3473SOL    HW210446   1.257   4.823   4.940
 3474SOL     OW10447   1.302   4.579   4.033
 3474SOL    HW110448   1.216   4.548   4.075
 3474SOL    HW210449   1.298   4.565   3.934
 3475SOL     OW10450   1.759   5.471   4.878
 3475SOL    HW110451   1.820   5.501   4.805
 3475SOL    HW210452   1.721   5.382   4.856
 3476SOL     OW10453   1.252   5.455   4.852
 3476SOL    HW110454   1.336   5.460   4.798
 3476SOL    HW210455   1.229   5.359   4.870
 3477SOL     OW10456   0.083   4.982   4.746
 3477SOL    HW110457   0.078   4.981   4.846
 3477SOL    HW210458   0.000   4.941   4.708
 3478SOL     OW10459   0.688   5.386   5.440
 3478SOL    HW110460   0.632   5.467   5.449
 3478SOL    HW210461   0.740   5.390   5.354
 3479SOL     OW10462   1.726   3.859   4.247
 3479SOL    HW110463   1.799   3.842   4.180
 3479SOL    HW210464   1.695   3.772   4.285
 3480SOL     OW10465   1.388   5.297   4.201
 3480SOL    HW110466   1.455   5.309   4.127
 3480SOL    HW210467   1.348   5.386   4.224
 3481SOL     OW10468   0.130   5.518   5.575
 3481SOL    HW110469   0.089   5.444   5.628
 3481SOL    HW210470   0.194   5.569   5.633
 3482SOL     OW10471   1.280   4.651   4.396
 3482SOL    HW110472   1.340   4.570   4.398
 3482SOL    HW210473   1.320   4.720   4.336
 3483SOL     OW10474   0.830   4.997   5.146
 3483SOL    HW110475   0.825   5.030   5.241
 3483SOL    HW210476   0.744   5.016   5.100
 3484SOL     OW10477   0.672   5.340   3.878
 3484SOL    HW110478   0.681   5.350   3.779
 3484SOL    HW210479   0.632   5.251   3.899
 3485SOL     OW10480   1.650   5.444   5.118
 3485SOL    HW110481   1.703   5.454   5.034
 3485SOL    HW210482   1.623   5.534   5.152
 3486SOL     OW10483   1.841   3.899   4.687
 3486SOL    HW110484   1.880   3.814   4.651
 3486SOL    HW210485   1.743   3.901   4.668
 3487SOL     OW10486   0.263   4.050   4.444
 3487SOL    HW110487   0.184   4.101   4.410
 3487SOL    HW210488   0.254   4.035   4.542
 3488SOL     OW10489   1.194   5.336   3.755
 3488SOL    HW110490   1.200   5.243   3.792
 3488SOL    HW210491   1.135   5.336   3.675
 3489SOL     OW10492   0.822   4.726   5.096
 3489SOL    HW110493   0.862   4.725   5.004
 3489SOL    HW210494   0.832   4.818   5.136
 3490SOL     OW10495   0.916   4.634   4.015
 3490SOL    HW110496   0.979   4.672   3.947
 3490SOL    HW210497   0.956   4.551   4.054
 3491SOL     OW10498   1.504   5.331   3.768
 3491SOL    HW110499   1.412   5.368   3.775
 3491SOL    HW210500   1.542   5.351   3.678
 3492SOL     OW10501   0.372   5.012   5.214
 3492SOL    HW110502   0.359   5.105   5.180
 3492SOL    HW210503   0.288   4.960   5.201
 3493SOL     OW10504   1.614   5.016   5.013
 3493SOL    HW110505   1.674   5.019   5.093
 3493SOL    HW210506   1.539   5.080   5.026
 3494SOL     OW10507   1.039   4.822   4.420
 3494SOL    HW110508   0.969   4.775   4.474
 3494SOL    HW210509   1.098   4.754   4.377
 3495SOL     OW10510   1.014   3.960   4.695
 3495SOL    HW110511   1.006   3.924   4.602
 3495SOL    HW210512   1.012   3.884   4.760
 3496SOL     OW10513   0.590   5.211   4.215
 3496SOL    HW110514   0.632   5.153   4.145
 3496SOL    HW210515   0.546   5.290   4.171
 3497SOL     OW10516   1.709   4.109   5.105
 3497SOL    HW110517   1.782   4.178   5.109
 3497SOL    HW210518   1.737   4.034   5.046
 3498SOL     OW10519   0.255   5.072   4.014
 3498SOL    HW110520   0.159   5.073   3.987
 3498SOL    HW210521   0.267   5.125   4.098
 3499SOL     OW10522   0.105   4.737   5.450
 3499SOL    HW110523   0.028   4.704   5.504
 3499SOL    HW210524   0.190   4.707   5.492
 3500SOL     OW10525   0.672   3.927   5.213
 3500SOL    HW110526   0.762   3.911   5.173
 3500SOL    HW210527   0.680   3.932   5.312
 3501SOL     OW10528   0.075   4.069   3.757
 3501SOL    HW110529  -0.017   4.041   3.728
 3501SOL    HW210530   0.106   4.146   3.701
 3502SOL     OW10531   1.440   4.580   5.122
 3502SOL    HW110532   1.383   4.632   5.059
 3502SOL    HW210533   1.536   4.592   5.098
 3503SOL     OW10534   0.072   3.890   4.042
 3503SOL    HW110535   0.055   3.973   3.988
 3503SOL    HW210536   0.162   3.853   4.020
 3504SOL     OW10537   1.183   5.059   3.843
 3504SOL    HW110538   1.084   5.048   3.845
 3504SOL    HW210539   1.217   5.074   3.936
 3505SOL     OW10540   0.613   4.566   5.155
 3505SOL    HW110541   0.669   4.647   5.138
 3505SOL    HW210542   0.672   4.486   5.158
 3506SOL     OW10543   1.493   5.491   4.683
 3506SOL    HW110544   1.526   5.555   4.614
 3506SOL    HW210545   1.559   5.485   4.758
 3507SOL     OW10546   0.716   4.289   5.432
 3507SOL    HW110547   0.735   4.354   5.506
 3507SOL    HW210548   0.776   4.209   5.441
 3508SOL     OW10549   1.450   4.944   5.357
 3508SOL    HW110550   1.441   4.934   5.456
 3508SOL    HW210551   1.546   4.937   5.331
 3509SOL     OW10552   0.390   5.465   5.284
 3509SOL    HW110553   0.299   5.506   5.282
 3509SOL    HW210554   0.383   5.371   5.316
 3510SOL     OW10555   1.674   4.607   4.978
 3510SOL    HW110556   1.647   4.518   4.941
 3510SOL    HW210557   1.675   4.675   4.905
 3511SOL     OW10558   1.225   4.049   4.173
 3511SOL    HW110559   1.290   3.975   4.162
 3511SOL    HW210560   1.245   4.099   4.257
 3512SOL     OW10561   0.594   4.469   4.376
 3512SOL    HW110562   0.644   4.554   4.357
 3512SOL    HW210563   0.506   4.471   4.328
 3513SOL     OW10564   1.777   4.066   5.366
 3513SOL    HW110565   1.760   4.097   5.272
 3513SOL    HW210566   1.693   4.029   5.404
 3514SOL     OW10567   1.730   4.658   5.241
 3514SOL    HW110568   1.768   4.749   5.256
 3514SOL    HW210569   1.722   4.641   5.142
 3515SOL     OW10570   0.859   5.098   3.740
 3515SOL    HW110571   0.813   5.113   3.828
 3515SOL    HW210572   0.903   5.183   3.710
 3516SOL     OW10573   0.661   5.514   4.677
 3516SOL    HW110574   0.615   5.602   4.664
 3516SOL    HW210575   0.760   5.526   4.670
 3517SOL     OW10576   0.859   4.680   4.585
 3517SOL    HW110577   0.913   4.611   4.633
 3517SOL    HW210578   0.827   4.749   4.651
 3518SOL     OW10579   1.083   4.708   3.811
 3518SOL    HW110580   1.060   4.761   3.729
 3518SOL    HW210581   1.164   4.652   3.792
 3519SOL     OW10582   1.861   5.293   4.575
 3519SOL    HW110583   1.790   5.281   4.505
 3519SOL    HW210584   1.862   5.214   4.635
 3520SOL     OW10585   0.221   5.038   5.568
 3520SOL    HW110586   0.156   4.965   5.547
 3520SOL    HW210587   0.225   5.052   5.666
 3521SOL     OW10588   0.079   4.964   4.377
 3521SOL    HW110589   0.078   4.917   4.465
 3521SOL    HW210590   0.161   4.936   4.326
 3522SOL     OW10591   0.672   5.115   5.348
 3522SOL    HW110592   0.594   5.065   5.386
 3522SOL    HW210593   0.669   5.210   5.379
 3523SOL     OW10594   1.824   3.916   4.951
 3523SOL    HW110595   1.820   3.826   4.995
 3523SOL    HW210596   1.827   3.905   4.852
 3524SOL     OW10597   0.428   4.148   4.244
 3524SOL    HW110598   0.458   4.076   4.182
 3524SOL    HW210599   0.389   4.108   4.327
 3525SOL     OW10600   1.705   5.211   4.828
 3525SOL    HW110601   1.612   5.186   4.801
 3525SOL    HW210602   1.731   5.161   4.910
 3526SOL     OW10603   0.317   4.271   5.004
 3526SOL    HW110604   0.355   4.212   5.076
 3526SOL    HW210605   0.357   4.245   4.916
 3527SOL     OW10606   0.812   5.310   4.411
 3527SOL    HW110607   0.844   5.320   4.317
 3527SOL    HW210608   0.733   5.248   4.413
 3528SOL     OW10609   1.424   3.938   4.836
 3528SOL    HW110610   1.476   3.873   4.891
 3528SOL    HW210611   1.375   4.001   4.897
 3529SOL     OW10612   1.001   3.758   4.878
 3529SOL    HW110613   0.938   3.686   4.847
 3529SOL    HW210614   1.094   3.722   4.878
 3530SOL     OW10615   0.770   5.054   4.025
 3530SOL    HW110616   0.724   4.967   4.042
 3530SOL    HW210617   0.861   5.051   4.066
 3531SOL     OW10618   0.618   5.291   5.008
 3531SOL    HW110619   0.613   5.373   5.065
 3531SOL    HW210620   0.707   5.288   4.963
 3532SOL     OW10621   1.352   3.776   3.892
 3532SOL    HW110622   1.387   3.735   3.808
 3532SOL    HW210623   1.262   3.738   3.912
 3533SOL     OW10624   1.300   4.177   4.415
 3533SOL    HW110625   1.241   4.257   4.419
 3533SOL    HW210626   1.315   4.142   4.508
 3534SOL     OW10627   1.593   3.945   4.606
 3534SOL    HW110628   1.509   3.944   4.660
 3534SOL    HW210629   1.595   4.028   4.550
 3535SOL     OW10630   0.039   4.801   4.024
 3535SOL    HW110631   0.138   4.790   4.015
 3535SOL    HW210632  -0.001   4.715   4.056
 3536SOL     OW10633   0.875   5.370   4.061
 3536SOL    HW110634   0.798   5.335   4.007
 3536SOL    HW210635   0.843   5.441   4.123
 3537SOL     OW10636   0.230   4.352   5.699
 3537SOL    HW110637   0.137   4.350   5.736
 3537SOL    HW210638   0.231   4.313   5.607
 3538SOL     OW10639   0.225   3.999   6.582
 3538SOL    HW110640   0.260   3.982   6.674
 3538SOL    HW210641   0.137   3.954   6.570
 3539SOL     OW10642   0.019   4.092   6.233
 3539SOL    HW110643  -0.063   4.135   6.272
 3539SOL    HW210644  -0.009   4.019   6.170
 3540SOL     OW10645   0.569   4.999   6.751
 3540SOL    HW110646   0.476   4.992   6.714
 3540SOL    HW210647   0.580   5.088   6.795
 3541SOL     OW10648   1.555   5.235   6.289
 3541SOL    HW110649   1.498   5.219   6.370
 3541SOL    HW210650   1.496   5.245   6.209
 3542SOL     OW10651   1.135   4.427   6.303
 3542SOL    HW110652   1.192   4.505   6.278
 3542SOL    HW210653   1.075   4.453   6.379
 3543SOL     OW10654   1.755   4.331   5.817
 3543SOL    HW110655   1.743   4.318   5.718
 3543SOL    HW210656   1.725   4.250   5.866
 3544SOL     OW10657   0.768   4.868   6.609
 3544SOL    HW110658   0.690   4.885   6.669
 3544SOL    HW210659   0.802   4.955   6.573
 3545SOL     OW10660   0.850   4.522   7.409
 3545SOL    HW110661   0.846   4.598   7.474
 3545SOL    HW210662   0.872   4.558   7.318
 3546SOL     OW10663   0.685   4.736   6.251
 3546SOL    HW110664   0.754   4.720   6.321
 3546SOL    HW210665   0.612   4.793   6.289
 3547SOL     OW10666   0.686   4.885   7.389
 3547SOL    HW110667   0.746   4.964   7.403
 3547SOL    HW210668   0.600   4.916   7.348
 3548SOL     OW10669   0.335   5.159   6.647
 3548SOL    HW110670   0.257   5.128   6.594
 3548SOL    HW210671   0.393   5.217   6.590
 3549SOL     OW10672   1.460   5.229   6.925
 3549SOL    HW110673   1.484   5.323   6.951
 3549SOL    HW210674   1.444   5.175   7.007
 3550SOL     OW10675   0.438   4.116   7.085
 3550SOL    HW110676   0.520   4.060   7.094
 3550SOL    HW210677   0.357   4.058   7.089
 3551SOL     OW10678   1.603   4.171   6.323
 3551SOL    HW110679   1.529   4.217   6.273
 3551SOL    HW210680   1.654   4.239   6.376
 3552SOL     OW10681   0.231   5.437   6.069
 3552SOL    HW110682   0.265   5.514   6.123
 3552SOL    HW210683   0.275   5.437   5.979
 3553SOL     OW10684   1.127   5.065   7.276
 3553SOL    HW110685   1.174   5.065   7.364
 3553SOL    HW210686   1.079   4.978   7.265
 3554SOL     OW10687   0.230   5.158   6.124
 3554SOL    HW110688   0.204   5.254   6.124
 3554SOL    HW210689   0.159   5.104   6.169
 3555SOL     OW10690   0.240   4.815   6.472
 3555SOL    HW110691   0.254   4.731   6.524
 3555SOL    HW210692   0.185   4.879   6.527
 3556SOL     OW10693   0.620   5.510   7.025
 3556SOL    HW110694   0.528   5.493   7.060
 3556SOL    HW210695   0.648   5.602   7.051
 3557SOL     OW10696   0.606   4.688   5.709
 3557SOL    HW110697   0.613   4.772   5.655
 3557SOL    HW210698   0.652   4.701   5.797
 3558SOL     OW10699   1.594   3.838   7.066
 3558SOL    HW110700   1.576   3.905   6.994
 3558SOL    HW210701   1.591   3.884   7.155
 3559SOL     OW10702   0.122   4.367   6.149
 3559SOL    HW110703   0.077   4.279   6.166
 3559SOL    HW210704   0.121   4.421   6.233
 3560SOL     OW10705   1.842   5.491   5.945
 3560SOL    HW110706   1.896   5.462   6.025
 3560SOL    HW210707   1.872   5.581   5.916
 3561SOL     OW10708   0.027   5.320   5.703
 3561SOL    HW110709   0.008   5.224   5.724
 3561SOL    HW210710  -0.006   5.378   5.778
 3562SOL     OW10711   1.689   4.646   6.198
 3562SOL    HW110712   1.784   4.617   6.206
 3562SOL    HW210713   1.681   4.711   6.123
 3563SOL     OW10714   1.641   4.832   6.018
 3563SOL    HW110715   1.727   4.834   5.966
 3563SOL    HW210716   1.655   4.879   6.106
 3564SOL     OW10717   0.113   4.461   7.183
 3564SOL    HW110718   0.201   4.448   7.228
 3564SOL    HW210719   0.100   4.558   7.161
 3565SOL     OW10720   0.613   5.089   6.312
 3565SOL    HW110721   0.564   5.002   6.321
 3565SOL    HW210722   0.590   5.132   6.225
 3566SOL     OW10723   1.293   4.952   7.009
 3566SOL    HW110724   1.330   4.879   6.951
 3566SOL    HW210725   1.345   4.957   7.094
 3567SOL     OW10726   0.809   3.728   6.088
 3567SOL    HW110727   0.849   3.819   6.079
 3567SOL    HW210728   0.709   3.736   6.094
 3568SOL     OW10729   0.197   4.700   6.850
 3568SOL    HW110730   0.286   4.655   6.836
 3568SOL    HW210731   0.124   4.635   6.831
 3569SOL     OW10732   1.525   4.723   5.776
 3569SOL    HW110733   1.462   4.647   5.789
 3569SOL    HW210734   1.573   4.741   5.862
 3570SOL     OW10735   1.187   5.516   7.202
 3570SOL    HW110736   1.211   5.576   7.126
 3570SOL    HW210737   1.194   5.421   7.172
 3571SOL     OW10738   0.317   3.975   7.387
 3571SOL    HW110739   0.388   4.046   7.393
 3571SOL    HW210740   0.229   4.014   7.415
 3572SOL     OW10741   1.466   5.141   6.539
 3572SOL    HW110742   1.407   5.147   6.619
 3572SOL    HW210743   1.451   5.053   6.493
 3573SOL     OW10744   1.667   5.438   6.158
 3573SOL    HW110745   1.626   5.415   6.070
 3573SOL    HW210746   1.649   5.364   6.223
 3574SOL     OW10747   0.598   4.453   5.856
 3574SOL    HW110748   0.622   4.522   5.788
 3574SOL    HW210749   0.520   4.486   5.910
 3575SOL     OW10750   1.281   4.069   6.530
 3575SOL    HW110751   1.195   4.019   6.517
 3575SOL    HW210752   1.343   4.015   6.586
 3576SOL     OW10753   1.576   5.386   5.893
 3576SOL    HW110754   1.665   5.432   5.896
 3576SOL    HW210755   1.555   5.362   5.798
 3577SOL     OW10756   0.807   4.329   7.051
 3577SOL    HW110757   0.760   4.326   7.140
 3577SOL    HW210758   0.756   4.274   6.985
 3578SOL     OW10759   1.394   4.193   7.260
 3578SOL    HW110760   1.374   4.236   7.348
 3578SOL    HW210761   1.472   4.131   7.269
 3579SOL     OW10762   0.973   4.614   7.158
 3579SOL    HW110763   1.019   4.530   7.129
 3579SOL    HW210764   0.917   4.648   7.083
 3580SOL     OW10765   0.991   4.134   6.828
 3580SOL    HW110766   0.914   4.168   6.882
 3580SOL    HW210767   0.957   4.083   6.749
 3581SOL     OW10768   1.041   4.425   6.015
 3581SOL    HW110769   1.067   4.421   6.111
 3581SOL    HW210770   0.956   4.374   6.001
 3582SOL     OW10771   0.076   4.535   6.375
 3582SOL    HW110772   0.175   4.523   6.384
 3582SOL    HW210773   0.052   4.630   6.396
 3583SOL     OW10774   0.130   5.545   7.157
 3583SOL    HW110775   0.120   5.530   7.256
 3583SOL    HW210776   0.044   5.581   7.121
 3584SOL     OW10777   0.865   4.072   5.781
 3584SOL    HW110778   0.924   4.135   5.732
 3584SOL    HW210779   0.884   3.978   5.752
 3585SOL     OW10780   1.719   4.309   7.417
 3585SOL    HW110781   1.693   4.398   7.381
 3585SOL    HW210782   1.717   4.241   7.344
 3586SOL     OW10783   1.362   4.868   6.131
 3586SOL    HW110784   1.445   4.839   6.083
 3586SOL    HW210785   1.313   4.935   6.075
 3587SOL     OW10786   0.550   3.920   6.471
 3587SOL    HW110787   0.545   3.915   6.571
 3587SOL    HW210788   0.552   4.016   6.442
 3588SOL     OW10789   1.008   5.180   6.063
 3588SOL    HW110790   0.962   5.252   6.011
 3588SOL    HW210791   1.004   5.200   6.161
 3589SOL     OW10792   0.351   5.525   6.439
 3589SOL    HW110793   0.401   5.439   6.445
 3589SOL    HW210794   0.416   5.602   6.436
 3590SOL     OW10795   1.795   4.790   6.459
 3590SOL    HW110796   1.733   4.775   6.383
 3590SOL    HW210797   1.743   4.801   6.544
 3591SOL     OW10798   1.227   5.274   7.092
 3591SOL    HW110799   1.233   5.197   7.156
 3591SOL    HW210800   1.175   5.248   7.012
 3592SOL     OW10801   0.321   4.667   5.828
 3592SOL    HW110802   0.403   4.706   5.786
 3592SOL    HW210803   0.294   4.585   5.779
 3593SOL     OW10804   1.458   4.459   6.314
 3593SOL    HW110805   1.453   4.394   6.389
 3593SOL    HW210806   1.538   4.518   6.327
 3594SOL     OW10807   0.461   4.990   7.313
 3594SOL    HW110808   0.411   4.991   7.227
 3594SOL    HW210809   0.398   4.972   7.389
 3595SOL     OW10810   1.111   5.500   5.823
 3595SOL    HW110811   1.051   5.438   5.873
 3595SOL    HW210812   1.142   5.456   5.738
 3596SOL     OW10813   0.202   4.009   7.084
 3596SOL    HW110814   0.122   4.069   7.071
 3596SOL    HW210815   0.192   3.960   7.170
 3597SOL     OW10816   1.632   5.101   5.667
 3597SOL    HW110817   1.600   5.195   5.657
 3597SOL    HW210818   1.556   5.038   5.655
 3598SOL     OW10819   0.464   5.467   5.909
 3598SOL    HW110820   0.497   5.506   5.995
 3598SOL    HW210821   0.540   5.460   5.844
 3599SOL     OW10822   1.400   3.831   6.012
 3599SOL    HW110823   1.376   3.794   5.922
 3599SOL    HW210824   1.499   3.847   6.016
 3600SOL     OW10825   0.249   5.509   6.827
 3600SOL    HW110826   0.306   5.444   6.877
 3600SOL    HW210827   0.233   5.476   6.734
 3601SOL     OW10828   0.940   5.422   6.490
 3601SOL    HW110829   1.020   5.365   6.511
 3601SOL    HW210830   0.891   5.382   6.413
 3602SOL     OW10831   0.382   4.424   6.066
 3602SOL    HW110832   0.427   4.334   6.063
 3602SOL    HW210833   0.288   4.413   6.099
 3603SOL     OW10834   1.547   3.946   7.315
 3603SOL    HW110835   1.542   3.983   7.407
 3603SOL    HW210836   1.475   3.877   7.303
 3604SOL     OW10837   0.614   3.846   5.703
 3604SOL    HW110838   0.712   3.824   5.710
 3604SOL    HW210839   0.583   3.829   5.610
 3605SOL     OW10840   0.781   3.988   7.335
 3605SOL    HW110841   0.848   3.927   7.378
 3605SOL    HW210842   0.708   4.007   7.400
 3606SOL     OW10843   0.888   5.238   6.781
 3606SOL    HW110844   0.865   5.213   6.687
 3606SOL    HW210845   0.949   5.169   6.820
 3607SOL     OW10846   1.351   4.314   7.019
 3607SOL    HW110847   1.379   4.271   7.104
 3607SOL    HW210848   1.376   4.410   7.020
 3608SOL     OW10849   0.803   5.126   6.510
 3608SOL    HW110850   0.893   5.140   6.468
 3608SOL    HW210851   0.732   5.128   6.439
 3609SOL     OW10852   0.922   4.227   6.485
 3609SOL    HW110853   0.897   4.218   6.389
 3609SOL    HW210854   0.970   4.145   6.516
 3610SOL     OW10855   0.539   3.788   6.098
 3610SOL    HW110856   0.458   3.789   6.156
 3610SOL    HW210857   0.542   3.871   6.043
 3611SOL     OW10858   1.434   4.912   5.627
 3611SOL    HW110859   1.466   4.836   5.684
 3611SOL    HW210860   1.342   4.939   5.657
 3612SOL     OW10861   0.297   3.759   5.757
 3612SOL    HW110862   0.346   3.843   5.736
 3612SOL    HW210863   0.359   3.694   5.802
 3613SOL     OW10864   0.935   3.960   6.066
 3613SOL    HW110865   0.887   4.001   5.988
 3613SOL    HW210866   1.034   3.958   6.047
 3614SOL     OW10867   1.076   4.407   7.050
 3614SOL    HW110868   0.996   4.346   7.053
 3614SOL    HW210869   1.157   4.354   7.026
 3615SOL     OW10870   1.227   5.294   6.379
 3615SOL    HW110871   1.248   5.368   6.314
 3615SOL    HW210872   1.295   5.294   6.452
 3616SOL     OW10873   0.459   4.876   6.327
 3616SOL    HW110874   0.388   4.849   6.392
 3616SOL    HW210875   0.433   4.848   6.234
 3617SOL     OW10876   1.271   5.521   6.177
 3617SOL    HW110877   1.315   5.585   6.113
 3617SOL    HW210878   1.221   5.573   6.247
 3618SOL     OW10879   1.032   4.273   5.602
 3618SOL    HW110880   0.991   4.355   5.563
 3618SOL    HW210881   1.096   4.299   5.675
 3619SOL     OW10882   0.078   4.280   6.972
 3619SOL    HW110883   0.170   4.279   6.931
 3619SOL    HW210884   0.072   4.354   7.039
 3620SOL     OW10885   0.561   3.946   6.733
 3620SOL    HW110886   0.599   3.862   6.770
 3620SOL    HW210887   0.473   3.965   6.777
 3621SOL     OW10888   0.866   4.178   6.228
 3621SOL    HW110889   0.834   4.250   6.166
 3621SOL    HW210890   0.890   4.097   6.175
 3622SOL     OW10891   1.017   3.763   6.339
 3622SOL    HW110892   0.945   3.768   6.270
 3622SOL    HW210893   0.993   3.694   6.408
 3623SOL     OW10894   1.429   4.897   6.453
 3623SOL    HW110895   1.374   4.813   6.446
 3623SOL    HW210896   1.455   4.926   6.361
 3624SOL     OW10897   1.466   4.314   6.578
 3624SOL    HW110898   1.436   4.219   6.585
 3624SOL    HW210899   1.539   4.330   6.644
 3625SOL     OW10900   1.857   4.557   5.963
 3625SOL    HW110901   1.899   4.493   6.027
 3625SOL    HW210902   1.819   4.506   5.885
 3626SOL     OW10903   0.488   5.109   5.760
 3626SOL    HW110904   0.401   5.094   5.807
 3626SOL    HW210905   0.471   5.135   5.665
 3627SOL     OW10906   1.664   5.004   6.243
 3627SOL    HW110907   1.763   5.012   6.257
 3627SOL    HW210908   1.619   5.088   6.274
 3628SOL     OW10909   1.390   4.299   5.664
 3628SOL    HW110910   1.336   4.278   5.745
 3628SOL    HW210911   1.481   4.258   5.673
 3629SOL     OW10912   0.527   3.980   5.914
 3629SOL    HW110913   0.554   3.921   5.839
 3629SOL    HW210914   0.527   4.075   5.883
 3630SOL     OW10915   1.754   4.947   7.174
 3630SOL    HW110916   1.845   4.908   7.161
 3630SOL    HW210917   1.762   5.043   7.198
 3631SOL     OW10918   1.064   5.071   6.926
 3631SOL    HW110919   0.984   5.048   6.981
 3631SOL    HW210920   1.147   5.045   6.975
 3632SOL     OW10921   1.592   5.353   7.211
 3632SOL    HW110922   1.619   5.387   7.121
 3632SOL    HW210923   1.671   5.315   7.257
 3633SOL     OW10924   1.111   4.919   6.686
 3633SOL    HW110925   1.071   4.963   6.767
 3633SOL    HW210926   1.070   4.956   6.603
 3634SOL     OW10927   1.638   4.823   6.665
 3634SOL    HW110928   1.643   4.904   6.724
 3634SOL    HW210929   1.552   4.825   6.614
 3635SOL     OW10930   0.915   3.813   6.988
 3635SOL    HW110931   0.940   3.793   6.893
 3635SOL    HW210932   0.987   3.869   7.030
 3636SOL     OW10933   0.980   4.840   7.305
 3636SOL    HW110934   0.881   4.846   7.315
 3636SOL    HW210935   1.003   4.760   7.249
 3637SOL     OW10936   0.705   4.774   5.954
 3637SOL    HW110937   0.691   4.781   6.053
 3637SOL    HW210938   0.789   4.723   5.936
 3638SOL     OW10939   0.410   4.537   6.837
 3638SOL    HW110940   0.496   4.549   6.887
 3638SOL    HW210941   0.368   4.450   6.864
 3639SOL     OW10942   1.274   4.110   6.848
 3639SOL    HW110943   1.295   4.184   6.912
 3639SOL    HW210944   1.185   4.127   6.805
 3640SOL     OW10945   0.064   5.288   6.917
 3640SOL    HW110946   0.018   5.370   6.883
 3640SOL    HW210947   0.162   5.307   6.926
 3641SOL     OW10948   0.367   4.824   6.087
 3641SOL    HW110949   0.360   4.907   6.031
 3641SOL    HW210950   0.371   4.744   6.027
 3642SOL     OW10951   0.566   4.261   6.451
 3642SOL    HW110952   0.578   4.327   6.377
 3642SOL    HW210953   0.612   4.295   6.534
 3643SOL     OW10954   1.252   5.072   5.974
 3643SOL    HW110955   1.302   5.149   6.014
 3643SOL    HW210956   1.157   5.074   6.006
 3644SOL     OW10957   1.272   5.169   6.728
 3644SOL    HW110958   1.319   5.182   6.815
 3644SOL    HW210959   1.206   5.095   6.737
 3645SOL     OW10960   1.582   4.363   6.058
 3645SOL    HW110961   1.551   4.424   6.131
 3645SOL    HW210962   1.632   4.415   5.989
 3646SOL     OW10963   0.354   5.234   6.915
 3646SOL    HW110964   0.333   5.190   6.828
 3646SOL    HW210965   0.451   5.260   6.918
 3647SOL     OW10966   0.402   4.475   7.184
 3647SOL    HW110967   0.470   4.530   7.137
 3647SOL    HW210968   0.442   4.387   7.211
 3648SOL     OW10969   1.587   4.503   7.256
 3648SOL    HW110970   1.495   4.541   7.251
 3648SOL    HW210971   1.647   4.550   7.191
 3649SOL     OW10972   1.013   3.829   7.356
 3649SOL    HW110973   1.019   3.914   7.304
 3649SOL    HW210974   1.045   3.753   7.299
 3650SOL     OW10975   0.504   3.774   7.326
 3650SOL    HW110976   0.462   3.717   7.256
 3650SOL    HW210977   0.438   3.843   7.358
 3651SOL     OW10978   0.573   4.594   6.615
 3651SOL    HW110979   0.617   4.683   6.606
 3651SOL    HW210980   0.510   4.594   6.692
 3652SOL     OW10981   1.360   4.586   6.631
 3652SOL    HW110982   1.285   4.586   6.565
 3652SOL    HW210983   1.397   4.494   6.640
 3653SOL     OW10984   1.209   4.249   5.861
 3653SOL    HW110985   1.222   4.165   5.915
 3653SOL    HW210986   1.180   4.323   5.921
 3654SOL     OW10987   0.307   3.937   6.817
 3654SOL    HW110988   0.284   3.974   6.907
 3654SOL    HW210989   0.277   3.842   6.811
 3655SOL     OW10990   0.037   5.034   6.868
 3655SOL    HW110991   0.090   4.985   6.936
 3655SOL    HW210992   0.059   5.132   6.873
 3656SOL     OW10993   0.732   4.358   6.650
 3656SOL    HW110994   0.791   4.332   6.574
 3656SOL    HW210995   0.704   4.454   6.639
 3657SOL     OW10996   1.728   4.659   7.440
 3657SOL    HW110997   1.682   4.652   7.351
 3657SOL    HW210998   1.666   4.703   7.506
 3658SOL     OW10999   0.307   3.787   6.204
 3658SOL    HW111000   0.296   3.881   6.237
 3658SOL    HW211001   0.302   3.724   6.281
 3659SOL     OW11002   1.622   4.091   5.960
 3659SOL    HW111003   1.624   4.015   6.024
 3659SOL    HW211004   1.574   4.168   6.000
 3660SOL     OW11005   1.023   4.490   6.552
 3660SOL    HW111006   1.038   4.511   6.648
 3660SOL    HW211007   0.993   4.395   6.543
 3661SOL     OW11008   0.980   5.297   7.286
 3661SOL    HW111009   0.960   5.341   7.198
 3661SOL    HW211010   1.019   5.206   7.270
 3662SOL     OW11011   1.859   5.242   7.191
 3662SOL    HW111012   1.873   5.269   7.096
 3662SOL    HW211013   1.942   5.264   7.244
 3663SOL     OW11014   0.350   4.622   7.390
 3663SOL    HW111015   0.426   4.666   7.438
 3663SOL    HW211016   0.385   4.575   7.308
 3664SOL     OW11017   1.540   3.998   5.711
 3664SOL    HW111018   1.479   3.923   5.734
 3664SOL    HW211019   1.562   4.050   5.794
 3665SOL     OW11020   1.303   4.562   5.628
 3665SOL    HW111021   1.337   4.469   5.643
 3665SOL    HW211022   1.321   4.589   5.533
 3666SOL     OW11023   1.068   5.057   6.435
 3666SOL    HW111024   1.075   4.973   6.380
 3666SOL    HW211025   1.130   5.126   6.399
 3667SOL     OW11026   0.319   4.534   6.535
 3667SOL    HW111027   0.412   4.570   6.540
 3667SOL    HW211028   0.313   4.449   6.587
 3668SOL     OW11029   0.339   4.233   6.592
 3668SOL    HW111030   0.287   4.150   6.575
 3668SOL    HW211031   0.416   4.238   6.528
 3669SOL     OW11032   1.138   4.104   7.264
 3669SOL    HW111033   1.093   4.167   7.328
 3669SOL    HW211034   1.231   4.135   7.247
 3670SOL     OW11035   1.160   3.931   7.063
 3670SOL    HW111036   1.160   3.995   7.140
 3670SOL    HW211037   1.188   3.979   6.980
 3671SOL     OW11038   0.008   5.050   5.786
 3671SOL    HW111039  -0.085   5.071   5.755
 3671SOL    HW211040   0.018   4.951   5.799
 3672SOL     OW11041   0.088   5.525   6.513
 3672SOL    HW111042   0.046   5.439   6.486
 3672SOL    HW211043   0.182   5.528   6.479
 3673SOL     OW11044   0.504   5.292   6.496
 3673SOL    HW111045   0.570   5.366   6.505
 3673SOL    HW211046   0.548   5.213   6.454
 3674SOL     OW11047   1.002   4.520   6.824
 3674SOL    HW111048   1.043   4.488   6.910
 3674SOL    HW211049   0.906   4.493   6.821
 3675SOL     OW11050   0.040   4.268   6.700
 3675SOL    HW111051   0.125   4.235   6.659
 3675SOL    HW211052   0.053   4.283   6.798
 3676SOL     OW11053   0.189   4.244   7.308
 3676SOL    HW111054   0.248   4.204   7.238
 3676SOL    HW211055   0.131   4.315   7.267
 3677SOL     OW11056   1.369   4.674   7.246
 3677SOL    HW111057   1.408   4.763   7.266
 3677SOL    HW211058   1.379   4.654   7.149
 3678SOL     OW11059   0.815   4.296   5.911
 3678SOL    HW111060   0.822   4.207   5.865
 3678SOL    HW211061   0.721   4.330   5.903
 3679SOL     OW11062   1.657   4.328   6.792
 3679SOL    HW111063   1.619   4.259   6.854
 3679SOL    HW211064   1.739   4.292   6.748
 3680SOL     OW11065   0.252   5.288   7.330
 3680SOL    HW111066   0.222   5.345   7.406
 3680SOL    HW211067   0.245   5.191   7.356
 3681SOL     OW11068   0.671   4.188   6.855
 3681SOL    HW111069   0.637   4.099   6.825
 3681SOL    HW211070   0.697   4.242   6.775
 3682SOL     OW11071   0.930   5.402   7.051
 3682SOL    HW111072   0.906   5.384   6.956
 3682SOL    HW211073   0.960   5.496   7.061
 3683SOL     OW11074   0.473   4.224   5.777
 3683SOL    HW111075   0.534   4.304   5.781
 3683SOL    HW211076   0.378   4.255   5.784
 3684SOL     OW11077   0.159   4.861   7.052
 3684SOL    HW111078   0.181   4.800   7.128
 3684SOL    HW211079   0.169   4.812   6.966
 3685SOL     OW11080   1.347   4.783   6.820
 3685SOL    HW111081   1.371   4.720   6.746
 3685SOL    HW211082   1.257   4.823   6.802
 3686SOL     OW11083   1.302   4.579   5.895
 3686SOL    HW111084   1.216   4.548   5.937
 3686SOL    HW211085   1.298   4.565   5.796
 3687SOL     OW11086   1.759   5.471   6.740
 3687SOL    HW111087   1.820   5.501   6.667
 3687SOL    HW211088   1.721   5.382   6.718
 3688SOL     OW11089   1.252   5.455   6.714
 3688SOL    HW111090   1.336   5.460   6.660
 3688SOL    HW211091   1.229   5.359   6.732
 3689SOL     OW11092   0.083   4.982   6.608
 3689SOL    HW111093   0.078   4.981   6.708
 3689SOL    HW211094   0.000   4.941   6.570
 3690SOL     OW11095   0.688   5.386   7.302
 3690SOL    HW111096   0.632   5.467   7.311
 3690SOL    HW211097   0.740   5.390   7.216
 3691SOL     OW11098   1.726   3.859   6.109
 3691SOL    HW111099   1.799   3.842   6.042
 3691SOL    HW211100   1.695   3.772   6.147
 3692SOL     OW11101   1.388   5.297   6.063
 3692SOL    HW111102   1.455   5.309   5.989
 3692SOL    HW211103   1.348   5.386   6.086
 3693SOL     OW11104   0.130   5.518   7.437
 3693SOL    HW111105   0.089   5.444   7.490
 3693SOL    HW211106   0.194   5.569   7.495
 3694SOL     OW11107   1.280   4.651   6.258
 3694SOL    HW111108   1.340   4.570   6.260
 3694SOL    HW211109   1.320   4.720   6.198
 3695SOL     OW11110   0.830   4.997   7.008
 3695SOL    HW111111   0.825   5.030   7.103
 3695SOL    HW211112   0.744   5.016   6.962
 3696SOL     OW11113   0.672   5.340   5.740
 3696SOL    HW111114   0.681   5.350   5.641
 3696SOL    HW211115   0.632   5.251   5.761
 3697SOL     OW11116   1.650   5.444   6.980
 3697SOL    HW111117   1.703   5.454   6.896
 3697SOL    HW211118   1.623   5.534   7.014
 3698SOL     OW11119   1.841   3.899   6.549
 3698SOL    HW111120   1.880   3.814   6.513
 3698SOL    HW211121   1.743   3.901   6.530
 3699SOL     OW11122   0.263   4.050   6.306
 3699SOL    HW111123   0.184   4.101   6.272
 3699SOL    HW211124   0.254   4.035   6.404
 3700SOL     OW11125   1.194   5.336   5.617
 3700SOL    HW111126   1.200   5.243   5.654
 3700SOL    HW211127   1.135   5.336   5.537
 3701SOL     OW11128   0.822   4.726   6.958
 3701SOL    HW111129   0.862   4.725   6.866
 3701SOL    HW211130   0.832   4.818   6.998
 3702SOL     OW11131   0.916   4.634   5.877
 3702SOL    HW111132   0.979   4.672   5.809
 3702SOL    HW211133   0.956   4.551   5.916
 3703SOL     OW11134   1.504   5.331   5.630
 3703SOL    HW111135   1.412   5.368   5.637
 3703SOL    HW211136   1.542   5.351   5.540
 3704SOL     OW11137   0.372   5.012   7.076
 3704SOL    HW111138   0.359   5.105   7.042
 3704SOL    HW211139   0.288   4.960   7.063
 3705SOL     OW11140   1.614   5.016   6.875
 3705SOL    HW111141   1.674   5.019   6.955
 3705SOL    HW211142   1.539   5.080   6.888
 3706SOL     OW11143   1.039   4.822   6.282
 3706SOL    HW111144   0.969   4.775   6.336
 3706SOL    HW211145   1.098   4.754   6.239
 3707SOL     OW11146   1.014   3.960   6.557
 3707SOL    HW111147   1.006   3.924   6.464
 3707SOL    HW211148   1.012   3.884   6.622
 3708SOL     OW11149   0.590   5.211   6.077
 3708SOL    HW111150   0.632   5.153   6.007
 3708SOL    HW211151   0.546   5.290   6.033
 3709SOL     OW11152   1.709   4.109   6.967
 3709SOL    HW111153   1.782   4.178   6.971
 3709SOL    HW211154   1.737   4.034   6.908
 3710SOL     OW11155   0.255   5.072   5.876
 3710SOL    HW111156   0.159   5.073   5.849
 3710SOL    HW211157   0.267   5.125   5.960
 3711SOL     OW11158   0.105   4.737   7.312
 3711SOL    HW111159   0.028   4.704   7.366
 3711SOL    HW211160   0.190   4.707   7.354
 3712SOL     OW11161   0.672   3.927   7.075
 3712SOL    HW111162   0.762   3.911   7.035
 3712SOL    HW211163   0.680   3.932   7.174
 3713SOL     OW11164   0.075   4.069   5.619
 3713SOL    HW111165  -0.017   4.041   5.590
 3713SOL    HW211166   0.106   4.146   5.563
 3714SOL     OW11167   1.440   4.580   6.984
 3714SOL    HW111168   1.383   4.632   6.921
 3714SOL    HW211169   1.536   4.592   6.960
 3715SOL     OW11170   0.072   3.890   5.904
 3715SOL    HW111171   0.055   3.973   5.850
 3715SOL    HW211172   0.162   3.853   5.882
 3716SOL     OW11173   1.183   5.059   5.705
 3716SOL    HW111174   1.084   5.048   5.707
 3716SOL    HW211175   1.217   5.074   5.798
 3717SOL     OW11176   0.613   4.566   7.017
 3717SOL    HW111177   0.669   4.647   7.000
 3717SOL    HW211178   0.672   4.486   7.020
 3718SOL     OW11179   1.493   5.491   6.545
 3718SOL    HW111180   1.526   5.555   6.476
 3718SOL    HW211181   1.559   5.485   6.620
 3719SOL     OW11182   0.716   4.289   7.294
 3719SOL    HW111183   0.735   4.354   7.368
 3719SOL    HW211184   0.776   4.209   7.303
 3720SOL     OW11185   1.450   4.944   7.219
 3720SOL    HW111186   1.441   4.934   7.318
 3720SOL    HW211187   1.546   4.937   7.193
 3721SOL     OW11188   0.390   5.465   7.146
 3721SOL    HW111189   0.299   5.506   7.144
 3721SOL    HW211190   0.383   5.371   7.178
 3722SOL     OW11191   1.674   4.607   6.840
 3722SOL    HW111192   1.647   4.518   6.803
 3722SOL    HW211193   1.675   4.675   6.767
 3723SOL     OW11194   1.225   4.049   6.035
 3723SOL    HW111195   1.290   3.975   6.024
 3723SOL    HW211196   1.245   4.099   6.119
 3724SOL     OW11197   0.594   4.469   6.238
 3724SOL    HW111198   0.644   4.554   6.219
 3724SOL    HW211199   0.506   4.471   6.190
 3725SOL     OW11200   1.777   4.066   7.228
 3725SOL    HW111201   1.760   4.097   7.134
 3725SOL    HW211202   1.693   4.029   7.266
 3726SOL     OW11203   1.730   4.658   7.103
 3726SOL    HW111204   1.768   4.749   7.118
 3726SOL    HW211205   1.722   4.641   7.004
 3727SOL     OW11206   0.859   5.098   5.602
 3727SOL    HW111207   0.813   5.113   5.690
 3727SOL    HW211208   0.903   5.183   5.572
 3728SOL     OW11209   0.661   5.514   6.539
 3728SOL    HW111210   0.615   5.602   6.526
 3728SOL    HW211211   0.760   5.526   6.532
 3729SOL     OW11212   0.859   4.680   6.447
 3729SOL    HW111213   0.913   4.611   6.495
 3729SOL    HW211214   0.827   4.749   6.513
 3730SOL     OW11215   1.083   4.708   5.673
 3730SOL    HW111216   1.060   4.761   5.591
 3730SOL    HW211217   1.164   4.652   5.654
 3731SOL     OW11218   1.861   5.293   6.437
 3731SOL    HW111219   1.790   5.281   6.367
 3731SOL    HW211220   1.862   5.214   6.497
 3732SOL     OW11221   0.221   5.038   7.430
 3732SOL    HW111222   0.156   4.965   7.409
 3732SOL    HW211223   0.225   5.052   7.528
 3733SOL     OW11224   0.079   4.964   6.239
 3733SOL    HW111225   0.078   4.917   6.327
 3733SOL    HW211226   0.161   4.936   6.188
 3734SOL     OW11227   0.672   5.115   7.210
 3734SOL    HW111228   0.594   5.065   7.248
 3734SOL    HW211229   0.669   5.210   7.241
 3735SOL     OW11230   1.824   3.916   6.813
 3735SOL    HW111231   1.820   3.826   6.857
 3735SOL    HW211232   1.827   3.905   6.714
 3736SOL     OW11233   0.428   4.148   6.106
 3736SOL    HW111234   0.458   4.076   6.044
 3736SOL    HW211235   0.389   4.108   6.189
 3737SOL     OW11236   1.705   5.211   6.690
 3737SOL    HW111237   1.612   5.186   6.663
 3737SOL    HW211238   1.731   5.161   6.772
 3738SOL     OW11239   0.317   4.271   6.866
 3738SOL    HW111240   0.355   4.212   6.938
 3738SOL    HW211241   0.357   4.245   6.778
 3739SOL     OW11242   0.812   5.310   6.273
 3739SOL    HW111243   0.844   5.320   6.179
 3739SOL    HW211244   0.733   5.248   6.275
 3740SOL     OW11245   1.424   3.938   6.698
 3740SOL    HW111246   1.476   3.873   6.753
 3740SOL    HW211247   1.375   4.001   6.759
 3741SOL     OW11248   1.001   3.758   6.740
 3741SOL    HW111249   0.938   3.686   6.709
 3741SOL    HW211250   1.094   3.722   6.740
 3742SOL     OW11251   0.770   5.054   5.887
 3742SOL    HW111252   0.724   4.967   5.904
 3742SOL    HW211253   0.861   5.051   5.928
 3743SOL     OW11254   0.618   5.291   6.870
 3743SOL    HW111255   0.613   5.373   6.927
 3743SOL    HW211256   0.707   5.288   6.825
 3744SOL     OW11257   1.352   3.776   5.754
 3744SOL    HW111258   1.387   3.735   5.670
 3744SOL    HW211259   1.262   3.738   5.774
 3745SOL     OW11260   1.300   4.177   6.277
 3745SOL    HW111261   1.241   4.257   6.281
 3745SOL    HW211262   1.315   4.142   6.370
 3746SOL     OW11263   1.593   3.945   6.468
 3746SOL    HW111264   1.509   3.944   6.522
 3746SOL    HW211265   1.595   4.028   6.412
 3747SOL     OW11266   0.039   4.801   5.886
 3747SOL    HW111267   0.138   4.790   5.877
 3747SOL    HW211268  -0.001   4.715   5.918
 3748SOL     OW11269   0.875   5.370   5.923
 3748SOL    HW111270   0.798   5.335   5.869
 3748SOL    HW211271   0.843   5.441   5.985
 3749SOL     OW11272   0.230   4.352   7.561
 3749SOL    HW111273   0.137   4.350   7.598
 3749SOL    HW211274   0.231   4.313   7.469
 3750SOL     OW11275   0.225   3.999   8.444
 3750SOL    HW111276   0.260   3.982   8.536
 3750SOL    HW211277   0.137   3.954   8.432
 3751SOL     OW11278   0.019   4.092   8.095
 3751SOL    HW111279  -0.063   4.135   8.134
 3751SOL    HW211280  -0.009   4.019   8.032
 3752SOL     OW11281   0.569   4.999   8.613
 3752SOL    HW111282   0.476   4.992   8.576
 3752SOL    HW211283   0.580   5.088   8.657
 3753SOL     OW11284   1.555   5.235   8.151
 3753SOL    HW111285   1.498   5.219   8.232
 3753SOL    HW211286   1.496   5.245   8.071
 3754SOL     OW11287   1.135   4.427   8.165
 3754SOL    HW111288   1.192   4.505   8.140
 3754SOL    HW211289   1.075   4.453   8.241
 3755SOL     OW11290   1.755   4.331   7.679
 3755SOL    HW111291   1.743   4.318   7.580
 3755SOL    HW211292   1.725   4.250   7.728
 3756SOL     OW11293   0.768   4.868   8.471
 3756SOL    HW111294   0.690   4.885   8.531
 3756SOL    HW211295   0.802   4.955   8.435
 3757SOL     OW11296   0.850   4.522   9.271
 3757SOL    HW111297   0.846   4.598   9.336
 3757SOL    HW211298   0.872   4.558   9.180
 3758SOL     OW11299   0.685   4.736   8.113
 3758SOL    HW111300   0.754   4.720   8.183
 3758SOL    HW211301   0.612   4.793   8.151
 3759SOL     OW11302   0.686   4.885   9.251
 3759SOL    HW111303   0.746   4.964   9.265
 3759SOL    HW211304   0.600   4.916   9.210
 3760SOL     OW11305   0.335   5.159   8.509
 3760SOL    HW111306   0.257   5.128   8.456
 3760SOL    HW211307   0.393   5.217   8.452
 3761SOL     OW11308   1.460   5.229   8.787
 3761SOL    HW111309   1.484   5.323   8.813
 3761SOL    HW211310   1.444   5.175   8.869
 3762SOL     OW11311   0.438   4.116   8.947
 3762SOL    HW111312   0.520   4.060   8.956
 3762SOL    HW211313   0.357   4.058   8.951
 3763SOL     OW11314   1.603   4.171   8.185
 3763SOL    HW111315   1.529   4.217   8.135
 3763SOL    HW211316   1.654   4.239   8.238
 3764SOL     OW11317   0.231   5.437   7.931
 3764SOL    HW111318   0.265   5.514   7.985
 3764SOL    HW211319   0.275   5.437   7.841
 3765SOL     OW11320   1.127   5.065   9.138
 3765SOL    HW111321   1.174   5.065   9.226
 3765SOL    HW211322   1.079   4.978   9.127
 3766SOL     OW11323   0.230   5.158   7.986
 3766SOL    HW111324   0.204   5.254   7.986
 3766SOL    HW211325   0.159   5.104   8.031
 3767SOL     OW11326   0.240   4.815   8.334
 3767SOL    HW111327   0.254   4.731   8.386
 3767SOL    HW211328   0.185   4.879   8.389
 3768SOL     OW11329   0.620   5.510   8.887
 3768SOL    HW111330   0.528   5.493   8.922
 3768SOL    HW211331   0.648   5.602   8.913
 3769SOL     OW11332   0.606   4.688   7.571
 3769SOL    HW111333   0.613   4.772   7.517
 3769SOL    HW211334   0.652   4.701   7.659
 3770SOL     OW11335   1.594   3.838   8.928
 3770SOL    HW111336   1.576   3.905   8.856
 3770SOL    HW211337   1.591   3.884   9.017
 3771SOL     OW11338   0.122   4.367   8.011
 3771SOL    HW111339   0.077   4.279   8.028
 3771SOL    HW211340   0.121   4.421   8.095
 3772SOL     OW11341   1.842   5.491   7.807
 3772SOL    HW111342   1.896   5.462   7.887
 3772SOL    HW211343   1.872   5.581   7.778
 3773SOL     OW11344   0.027   5.320   7.565
 3773SOL    HW111345   0.008   5.224   7.586
 3773SOL    HW211346  -0.006   5.378   7.640
 3774SOL     OW11347   1.689   4.646   8.060
 3774SOL    HW111348   1.784   4.617   8.068
 3774SOL    HW211349   1.681   4.711   7.985
 3775SOL     OW11350   1.641   4.832   7.880
 3775SOL    HW111351   1.727   4.834   7.828
 3775SOL    HW211352   1.655   4.879   7.968
 3776SOL     OW11353   0.113   4.461   9.045
 3776SOL    HW111354   0.201   4.448   9.090
 3776SOL    HW211355   0.100   4.558   9.023
 3777SOL     OW11356   0.613   5.089   8.174
 3777SOL    HW111357   0.564   5.002   8.183
 3777SOL    HW211358   0.590   5.132   8.087
 3778SOL     OW11359   1.293   4.952   8.871
 3778SOL    HW111360   1.330   4.879   8.813
 3778SOL    HW211361   1.345   4.957   8.956
 3779SOL     OW11362   0.809   3.728   7.950
 3779SOL    HW111363   0.849   3.819   7.941
 3779SOL    HW211364   0.709   3.736   7.956
 3780SOL     OW11365   0.197   4.700   8.712
 3780SOL    HW111366   0.286   4.655   8.698
 3780SOL    HW211367   0.124   4.635   8.693
 3781SOL     OW11368   1.525   4.723   7.638
 3781SOL    HW111369   1.462   4.647   7.651
 3781SOL    HW211370   1.573   4.741   7.724
 3782SOL     OW11371   1.187   5.516   9.064
 3782SOL    HW111372   1.211   5.576   8.988
 3782SOL    HW211373   1.194   5.421   9.034
 3783SOL     OW11374   0.317   3.975   9.249
 3783SOL    HW111375   0.388   4.046   9.255
 3783SOL    HW211376   0.229   4.014   9.277
 3784SOL     OW11377   1.466   5.141   8.401
 3784SOL    HW111378   1.407   5.147   8.481
 3784SOL    HW211379   1.451   5.053   8.355
 3785SOL     OW11380   1.667   5.438   8.020
 3785SOL    HW111381   1.626   5.415   7.932
 3785SOL    HW211382   1.649   5.364   8.085
 3786SOL     OW11383   0.598   4.453   7.718
 3786SOL    HW111384   0.622   4.522   7.650
 3786SOL    HW211385   0.520   4.486   7.772
 3787SOL     OW11386   1.281   4.069   8.392
 3787SOL    HW111387   1.195   4.019   8.379
 3787SOL    HW211388   1.343   4.015   8.448
 3788SOL     OW11389   1.576   5.386   7.755
 3788SOL    HW111390   1.665   5.432   7.758
 3788SOL    HW211391   1.555   5.362   7.660
 3789SOL     OW11392   0.807   4.329   8.913
 3789SOL    HW111393   0.760   4.326   9.002
 3789SOL    HW211394   0.756   4.274   8.847
 3790SOL     OW11395   1.394   4.193   9.122
 3790SOL    HW111396   1.374   4.236   9.210
 3790SOL    HW211397   1.472   4.131   9.131
 3791SOL     OW11398   0.973   4.614   9.020
 3791SOL    HW111399   1.019   4.530   8.991
 3791SOL    HW211400   0.917   4.648   8.945
 3792SOL     OW11401   0.991   4.134   8.690
 3792SOL    HW111402   0.914   4.168   8.744
 3792SOL    HW211403   0.957   4.083   8.611
 3793SOL     OW11404   1.041   4.425   7.877
 3793SOL    HW111405   1.067   4.421   7.973
 3793SOL    HW211406   0.956   4.374   7.863
 3794SOL     OW11407   0.076   4.535   8.237
 3794SOL    HW111408   0.175   4.523   8.246
 3794SOL    HW211409   0.052   4.630   8.258
 3795SOL     OW11410   0.130   5.545   9.019
 3795SOL    HW111411   0.120   5.530   9.118
 3795SOL    HW211412   0.044   5.581   8.983
 3796SOL     OW11413   0.865   4.072   7.643
 3796SOL    HW111414   0.924   4.135   7.594
 3796SOL    HW211415   0.884   3.978   7.614
 3797SOL     OW11416   1.719   4.309   9.279
 3797SOL    HW111417   1.693   4.398   9.243
 3797SOL    HW211418   1.717   4.241   9.206
 3798SOL     OW11419   1.362   4.868   7.993
 3798SOL    HW111420   1.445   4.839   7.945
 3798SOL    HW211421   1.313   4.935   7.937
 3799SOL     OW11422   0.550   3.920   8.333
 3799SOL    HW111423   0.545   3.915   8.433
 3799SOL    HW211424   0.552   4.016   8.304
 3800SOL     OW11425   1.008   5.180   7.925
 3800SOL    HW111426   0.962   5.252   7.873
 3800SOL    HW211427   1.004   5.200   8.023
 3801SOL     OW11428   0.351   5.525   8.301
 3801SOL    HW111429   0.401   5.439   8.307
 3801SOL    HW211430   0.416   5.602   8.298
 3802SOL     OW11431   1.795   4.790   8.321
 3802SOL    HW111432   1.733   4.775   8.245
 3802SOL    HW211433   1.743   4.801   8.406
 3803SOL     OW11434   1.227   5.274   8.954
 3803SOL    HW111435   1.233   5.197   9.018
 3803SOL    HW211436   1.175   5.248   8.874
 3804SOL     OW11437   0.321   4.667   7.690
 3804SOL    HW111438   0.403   4.706   7.648
 3804SOL    HW211439   0.294   4.585   7.641
 3805SOL     OW11440   1.458   4.459   8.176
 3805SOL    HW111441   1.453   4.394   8.251
 3805SOL    HW211442   1.538   4.518   8.189
 3806SOL     OW11443   0.461   4.990   9.175
 3806SOL    HW111444   0.411   4.991   9.089
 3806SOL    HW211445   0.398   4.972   9.251
 3807SOL     OW11446   1.111   5.500   7.685
 3807SOL    HW111447   1.051   5.438   7.735
 3807SOL    HW211448   1.142   5.456   7.600
 3808SOL     OW11449   0.202   4.009   8.946
 3808SOL    HW111450   0.122   4.069   8.933
 3808SOL    HW211451   0.192   3.960   9.032
 3809SOL     OW11452   1.632   5.101   7.529
 3809SOL    HW111453   1.600   5.195   7.519
 3809SOL    HW211454   1.556   5.038   7.517
 3810SOL     OW11455   0.464   5.467   7.771
 3810SOL    HW111456   0.497   5.506   7.857
 3810SOL    HW211457   0.540   5.460   7.706
 3811SOL     OW11458   1.400   3.831   7.874
 3811SOL    HW111459   1.376   3.794   7.784
 3811SOL    HW211460   1.499   3.847   7.878
 3812SOL     OW11461   0.249   5.509   8.689
 3812SOL    HW111462   0.306   5.444   8.739
 3812SOL    HW211463   0.233   5.476   8.596
 3813SOL     OW11464   0.940   5.422   8.352
 3813SOL    HW111465   1.020   5.365   8.373
 3813SOL    HW211466   0.891   5.382   8.275
 3814SOL     OW11467   0.382   4.424   7.928
 3814SOL    HW111468   0.427   4.334   7.925
 3814SOL    HW211469   0.288   4.413   7.961
 3815SOL     OW11470   1.547   3.946   9.177
 3815SOL    HW111471   1.542   3.983   9.269
 3815SOL    HW211472   1.475   3.877   9.165
 3816SOL     OW11473   0.614   3.846   7.565
 3816SOL    HW111474   0.712   3.824   7.572
 3816SOL    HW211475   0.583   3.829   7.472
 3817SOL     OW11476   0.781   3.988   9.197
 3817SOL    HW111477   0.848   3.927   9.240
 3817SOL    HW211478   0.708   4.007   9.262
 3818SOL     OW11479   0.888   5.238   8.643
 3818SOL    HW111480   0.865   5.213   8.549
 3818SOL    HW211481   0.949   5.169   8.682
 3819SOL     OW11482   1.351   4.314   8.881
 3819SOL    HW111483   1.379   4.271   8.966
 3819SOL    HW211484   1.376   4.410   8.882
 3820SOL     OW11485   0.803   5.126   8.372
 3820SOL    HW111486   0.893   5.140   8.330
 3820SOL    HW211487   0.732   5.128   8.301
 3821SOL     OW11488   0.922   4.227   8.347
 3821SOL    HW111489   0.897   4.218   8.251
 3821SOL    HW211490   0.970   4.145   8.378
 3822SOL     OW11491   0.539   3.788   7.960
 3822SOL    HW111492   0.458   3.789   8.018
 3822SOL    HW211493   0.542   3.871   7.905
 3823SOL     OW11494   1.434   4.912   7.489
 3823SOL    HW111495   1.466   4.836   7.546
 3823SOL    HW211496   1.342   4.939   7.519
 3824SOL     OW11497   0.297   3.759   7.619
 3824SOL    HW111498   0.346   3.843   7.598
 3824SOL    HW211499   0.359   3.694   7.664
 3825SOL     OW11500   0.935   3.960   7.928
 3825SOL    HW111501   0.887   4.001   7.850
 3825SOL    HW211502   1.034   3.958   7.909
 3826SOL     OW11503   1.076   4.407   8.912
 3826SOL    HW111504   0.996   4.346   8.915
 3826SOL    HW211505   1.157   4.354   8.888
 3827SOL     OW11506   1.227   5.294   8.241
 3827SOL    HW111507   1.248   5.368   8.176
 3827SOL    HW211508   1.295   5.294   8.314
 3828SOL     OW11509   0.459   4.876   8.189
 3828SOL    HW111510   0.388   4.849   8.254
 3828SOL    HW211511   0.433   4.848   8.096
 3829SOL     OW11512   1.271   5.521   8.039
 3829SOL    HW111513   1.315   5.585   7.975
 3829SOL    HW211514   1.221   5.573   8.109
 3830SOL     OW11515   1.032   4.273   7.464
 3830SOL    HW111516   0.991   4.355   7.425
 3830SOL    HW211517   1.096   4.299   7.537
 3831SOL     OW11518   0.078   4.280   8.834
 3831SOL    HW111519   0.170   4.279   8.793
 3831SOL    HW211520   0.072   4.354   8.901
 3832SOL     OW11521   0.561   3.946   8.595
 3832SOL    HW111522   0.599   3.862   8.632
 3832SOL    HW211523   0.473   3.965   8.639
 3833SOL     OW11524   0.866   4.178   8.090
 3833SOL    HW111525   0.834   4.250   8.028
 3833SOL    HW211526   0.890   4.097   8.037
 3834SOL     OW11527   1.017   3.763   8.201
 3834SOL    HW111528   0.945   3.768   8.132
 3834SOL    HW211529   0.993   3.694   8.270
 3835SOL     OW11530   1.429   4.897   8.315
 3835SOL    HW111531   1.374   4.813   8.308
 3835SOL    HW211532   1.455   4.926   8.223
 3836SOL     OW11533   1.466   4.314   8.440
 3836SOL    HW111534   1.436   4.219   8.447
 3836SOL    HW211535   1.539   4.330   8.506
 3837SOL     OW11536   1.857   4.557   7.825
 3837SOL    HW111537   1.899   4.493   7.889
 3837SOL    HW211538   1.819   4.506   7.747
 3838SOL     OW11539   0.488   5.109   7.622
 3838SOL    HW111540   0.401   5.094   7.669
 3838SOL    HW211541   0.471   5.135   7.527
 3839SOL     OW11542   1.664   5.004   8.105
 3839SOL    HW111543   1.763   5.012   8.119
 3839SOL    HW211544   1.619   5.088   8.136
 3840SOL     OW11545   1.390   4.299   7.526
 3840SOL    HW111546   1.336   4.278   7.607
 3840SOL    HW211547   1.481   4.258   7.535
 3841SOL     OW11548   0.527   3.980   7.776
 3841SOL    HW111549   0.554   3.921   7.701
 3841SOL    HW211550   0.527   4.075   7.745
 3842SOL     OW11551   1.754   4.947   9.036
 3842SOL    HW111552   1.845   4.908   9.023
 3842SOL    HW211553   1.762   5.043   9.060
 3843SOL     OW11554   1.064   5.071   8.788
 3843SOL    HW111555   0.984   5.048   8.843
 3843SOL    HW211556   1.147   5.045   8.837
 3844SOL     OW11557   1.592   5.353   9.073
 3844SOL    HW111558   1.619   5.387   8.983
 3844SOL    HW211559   1.671   5.315   9.119
 3845SOL     OW11560   1.111   4.919   8.548
 3845SOL    HW111561   1.071   4.963   8.629
 3845SOL    HW211562   1.070   4.956   8.465
 3846SOL     OW11563   1.638   4.823   8.527
 3846SOL    HW111564   1.643   4.904   8.586
 3846SOL    HW211565   1.552   4.825   8.476
 3847SOL     OW11566   0.915   3.813   8.850
 3847SOL    HW111567   0.940   3.793   8.755
 3847SOL    HW211568   0.987   3.869   8.892
 3848SOL     OW11569   0.980   4.840   9.167
 3848SOL    HW111570   0.881   4.846   9.177
 3848SOL    HW211571   1.003   4.760   9.111
 3849SOL     OW11572   0.705   4.774   7.816
 3849SOL    HW111573   0.691   4.781   7.915
 3849SOL    HW211574   0.789   4.723   7.798
 3850SOL     OW11575   0.410   4.537   8.699
 3850SOL    HW111576   0.496   4.549   8.749
 3850SOL    HW211577   0.368   4.450   8.726
 3851SOL     OW11578   1.274   4.110   8.710
 3851SOL    HW111579   1.295   4.184   8.774
 3851SOL    HW211580   1.185   4.127   8.667
 3852SOL     OW11581   0.064   5.288   8.779
 3852SOL    HW111582   0.018   5.370   8.745
 3852SOL    HW211583   0.162   5.307   8.788
 3853SOL     OW11584   0.367   4.824   7.949
 3853SOL    HW111585   0.360   4.907   7.893
 3853SOL    HW211586   0.371   4.744   7.889
 3854SOL     OW11587   0.566   4.261   8.313
 3854SOL    HW111588   0.578   4.327   8.239
 3854SOL    HW211589   0.612   4.295   8.396
 3855SOL     OW11590   1.252   5.072   7.836
 3855SOL    HW111591   1.302   5.149   7.876
 3855SOL    HW211592   1.157   5.074   7.868
 3856SOL     OW11593   1.272   5.169   8.590
 3856SOL    HW111594   1.319   5.182   8.677
 3856SOL    HW211595   1.206   5.095   8.599
 3857SOL     OW11596   1.582   4.363   7.920
 3857SOL    HW111597   1.551   4.424   7.993
 3857SOL    HW211598   1.632   4.415   7.851
 3858SOL     OW11599   0.354   5.234   8.777
 3858SOL    HW111600   0.333   5.190   8.690
 3858SOL    HW211601   0.451   5.260   8.780
 3859SOL     OW11602   0.402   4.475   9.046
 3859SOL    HW111603   0.470   4.530   8.999
 3859SOL    HW211604   0.442   4.387   9.073
 3860SOL     OW11605   1.587   4.503   9.118
 3860SOL    HW111606   1.495   4.541   9.113
 3860SOL    HW211607   1.647   4.550   9.053
 3861SOL     OW11608   1.013   3.829   9.218
 3861SOL    HW111609   1.019   3.914   9.166
 3861SOL    HW211610   1.045   3.753   9.161
 3862SOL     OW11611   0.504   3.774   9.188
 3862SOL    HW111612   0.462   3.717   9.118
 3862SOL    HW211613   0.438   3.843   9.220
 3863SOL     OW11614   0.573   4.594   8.477
 3863SOL    HW111615   0.617   4.683   8.468
 3863SOL    HW211616   0.510   4.594   8.554
 3864SOL     OW11617   1.360   4.586   8.493
 3864SOL    HW111618   1.285   4.586   8.427
 3864SOL    HW211619   1.397   4.494   8.502
 3865SOL     OW11620   1.209   4.249   7.723
 3865SOL    HW111621   1.222   4.165   7.777
 3865SOL    HW211622   1.180   4.323   7.783
 3866SOL     OW11623   0.307   3.937   8.679
 3866SOL    HW111624   0.284   3.974   8.769
 3866SOL    HW211625   0.277   3.842   8.673
 3867SOL     OW11626   0.037   5.034   8.730
 3867SOL    HW111627   0.090   4.985   8.798
 3867SOL    HW211628   0.059   5.132   8.735
 3868SOL     OW11629   0.732   4.358   8.512
 3868SOL    HW111630   0.791   4.332   8.436
 3868SOL    HW211631   0.704   4.454   8.501
 3869SOL     OW11632   1.728   4.659   9.302
 3869SOL    HW111633   1.682   4.652   9.213
 3869SOL    HW211634   1.666   4.703   9.368
 3870SOL     OW11635   0.307   3.787   8.066
 3870SOL    HW111636   0.296   3.881   8.099
 3870SOL    HW211637   0.302   3.724   8.143
 3871SOL     OW11638   1.622   4.091   7.822
 3871SOL    HW111639   1.624   4.015   7.886
 3871SOL    HW211640   1.574   4.168   7.862
 3872SOL     OW11641   1.023   4.490   8.414
 3872SOL    HW111642   1.038   4.511   8.510
 3872SOL    HW211643   0.993   4.395   8.405
 3873SOL     OW11644   0.980   5.297   9.148
 3873SOL    HW111645   0.960   5.341   9.060
 3873SOL    HW211646   1.019   5.206   9.132
 3874SOL     OW11647   1.859   5.242   9.053
 3874SOL    HW111648   1.873   5.269   8.958
 3874SOL    HW211649   1.942   5.264   9.106
 3875SOL     OW11650   0.350   4.622   9.252
 3875SOL    HW111651   0.426   4.666   9.300
 3875SOL    HW211652   0.385   4.575   9.170
 3876SOL     OW11653   1.540   3.998   7.573
 3876SOL    HW111654   1.479   3.923   7.596
 3876SOL    HW211655   1.562   4.050   7.656
 3877SOL     OW11656   1.303   4.562   7.490
 3877SOL    HW111657   1.337   4.469   7.505
 3877SOL    HW211658   1.321   4.589   7.395
 3878SOL     OW11659   1.068   5.057   8.297
 3878SOL    HW111660   1.075   4.973   8.242
 3878SOL    HW211661   1.130   5.126   8.261
 3879SOL     OW11662   0.319   4.534   8.397
 3879SOL    HW111663   0.412   4.570   8.402
 3879SOL    HW211664   0.313   4.449   8.449
 3880SOL     OW11665   0.339   4.233   8.454
 3880SOL    HW111666   0.287   4.150   8.437
 3880SOL    HW211667   0.416   4.238   8.390
 3881SOL     OW11668   1.138   4.104   9.126
 3881SOL    HW111669   1.093   4.167   9.190
 3881SOL    HW211670   1.231   4.135   9.109
 3882SOL     OW11671   1.160   3.931   8.925
 3882SOL    HW111672   1.160   3.995   9.002
 3882SOL    HW211673   1.188   3.979   8.842
 3883SOL     OW11674   0.008   5.050   7.648
 3883SOL    HW111675  -0.085   5.071   7.617
 3883SOL    HW211676   0.018   4.951   7.661
 3884SOL     OW11677   0.088   5.525   8.375
 3884SOL    HW111678   0.046   5.439   8.348
 3884SOL    HW211679   0.182   5.528   8.341
 3885SOL     OW11680   0.504   5.292   8.358
 3885SOL    HW111681   0.570   5.366   8.367
 3885SOL    HW211682   0.548   5.213   8.316
 3886SOL     OW11683   1.002   4.520   8.686
 3886SOL    HW111684   1.043   4.488   8.772
 3886SOL    HW211685   0.906   4.493   8.683
 3887SOL     OW11686   0.040   4.268   8.562
 3887SOL    HW111687   0.125   4.235   8.521
 3887SOL    HW211688   0.053   4.283   8.660
 3888SOL     OW11689   0.189   4.244   9.170
 3888SOL    HW111690   0.248   4.204   9.100
 3888SOL    HW211691   0.131   4.315   9.129
 3889SOL     OW11692   1.369   4.674   9.108
 3889SOL    HW111693   1.408   4.763   9.128
 3889SOL    HW211694   1.379   4.654   9.011
 3890SOL     OW11695   0.815   4.296   7.773
 3890SOL    HW111696   0.822   4.207   7.727
 3890SOL    HW211697   0.721   4.330   7.765
 3891SOL     OW11698   1.657   4.328   8.654
 3891SOL    HW111699   1.619   4.259   8.716
 3891SOL    HW211700   1.739   4.292   8.610
 3892SOL     OW11701   0.252   5.288   9.192
 3892SOL    HW111702   0.222   5.345   9.268
 3892SOL    HW211703   0.245   5.191   9.218
 3893SOL     OW11704   0.671   4.188   8.717
 3893SOL    HW111705   0.637   4.099   8.687
 3893SOL    HW211706   0.697   4.242   8.637
 3894SOL     OW11707   0.930   5.402   8.913
 3894SOL    HW111708   0.906   5.384   8.818
 3894SOL    HW211709   0.960   5.496   8.923
 3895SOL     OW11710   0.473   4.224   7.639
 3895SOL    HW111711   0.534   4.304   7.643
 3895SOL    HW211712   0.378   4.255   7.646
 3896SOL     OW11713   0.159   4.861   8.914
 3896SOL    HW111714   0.181   4.800   8.990
 3896SOL    HW211715   0.169   4.812   8.828
 3897SOL     OW11716   1.347   4.783   8.682
 3897SOL    HW111717   1.371   4.720   8.608
 3897SOL    HW211718   1.257   4.823   8.664
 3898SOL     OW11719   1.302   4.579   7.757
 3898SOL    HW111720   1.216   4.548   7.799
 3898SOL    HW211721   1.298   4.565   7.658
 3899SOL     OW11722   1.759   5.471   8.602
 3899SOL    HW111723   1.820   5.501   8.529
 3899SOL    HW211724   1.721   5.382   8.580
 3900SOL     OW11725   1.252   5.455   8.576
 3900SOL    HW111726   1.336   5.460   8.522
 3900SOL    HW211727   1.229   5.359   8.594
 3901SOL     OW11728   0.083   4.982   8.470
 3901SOL    HW111729   0.078   4.981   8.570
 3901SOL    HW211730   0.000   4.941   8.432
 3902SOL     OW11731   0.688   5.386   9.164
 3902SOL    HW111732   0.632   5.467   9.173
 3902SOL    HW211733   0.740   5.390   9.078
 3903SOL     OW11734   1.726   3.859   7.971
 3903SOL    HW111735   1.799   3.842   7.904
 3903SOL    HW211736   1.695   3.772   8.009
 3904SOL     OW11737   1.388   5.297   7.925
 3904SOL    HW111738   1.455   5.309   7.851
 3904SOL    HW211739   1.348   5.386   7.948
 3905SOL     OW11740   0.130   5.518   9.299
 3905SOL    HW111741   0.089   5.444   9.352
 3905SOL    HW211742   0.194   5.569   9.357
 3906SOL     OW11743   1.280   4.651   8.120
 3906SOL    HW111744   1.340   4.570   8.122
 3906SOL    HW211745   1.320   4.720   8.060
 3907SOL     OW11746   0.830   4.997   8.870
 3907SOL    HW111747   0.825   5.030   8.965
 3907SOL    HW211748   0.744   5.016   8.824
 3908SOL     OW11749   0.672   5.340   7.602
 3908SOL    HW111750   0.681   5.350   7.503
 3908SOL    HW211751   0.632   5.251   7.623
 3909SOL     OW11752   1.650   5.444   8.842
 3909SOL    HW111753   1.703   5.454   8.758
 3909SOL    HW211754   1.623   5.534   8.876
 3910SOL     OW11755   1.841   3.899   8.411
 3910SOL    HW111756   1.880   3.814   8.375
 3910SOL    HW211757   1.743   3.901   8.392
 3911SOL     OW11758   0.263   4.050   8.168
 3911SOL    HW111759   0.184   4.101   8.134
 3911SOL    HW211760   0.254   4.035   8.266
 3912SOL     OW11761   1.194   5.336   7.479
 3912SOL    HW111762   1.200   5.243   7.516
 3912SOL    HW211763   1.135   5.336   7.399
 3913SOL     OW11764   0.822   4.726   8.820
 3913SOL    HW111765   0.862   4.725   8.728
 3913SOL    HW211766   0.832   4.818   8.860
 3914SOL     OW11767   0.916   4.634   7.739
 3914SOL    HW111768   0.979   4.672   7.671
 3914SOL    HW211769   0.956   4.551   7.778
 3915SOL     OW11770   1.504   5.331   7.492
 3915SOL    HW111771   1.412   5.368   7.499
 3915SOL    HW211772   1.542   5.351   7.402
 3916SOL     OW11773   0.372   5.012   8.938
 3916SOL    HW111774   0.359   5.105   8.904
 3916SOL    HW211775   0.288   4.960   8.925
 3917SOL     OW11776   1.614   5.016   8.737
 3917SOL    HW111777   1.674   5.019   8.817
 3917SOL    HW211778   1.539   5.080   8.750
 3918SOL     OW11779   1.039   4.822   8.144
 3918SOL    HW111780   0.969   4.775   8.198
 3918SOL    HW211781   1.098   4.754   8.101
 3919SOL     OW11782   1.014   3.960   8.419
 3919SOL    HW111783   1.006   3.924   8.326
 3919SOL    HW211784   1.012   3.884   8.484
 3920SOL     OW11785   0.590   5.211   7.939
 3920SOL    HW111786   0.632   5.153   7.869
 3920SOL    HW211787   0.546   5.290   7.895
 3921SOL     OW11788   1.709   4.109   8.829
 3921SOL    HW111789   1.782   4.178   8.833
 3921SOL    HW211790   1.737   4.034   8.770
 3922SOL     OW11791   0.255   5.072   7.738
 3922SOL    HW111792   0.159   5.073   7.711
 3922SOL    HW211793   0.267   5.125   7.822
 3923SOL     OW11794   0.105   4.737   9.174
 3923SOL    HW111795   0.028   4.704   9.228
 3923SOL    HW211796   0.190   4.707   9.216
 3924SOL     OW11797   0.672   3.927   8.937
 3924SOL    HW111798   0.762   3.911   8.897
 3924SOL    HW211799   0.680   3.932   9.036
 3925SOL     OW11800   0.075   4.069   7.481
 3925SOL    HW111801  -0.017   4.041   7.452
 3925SOL    HW211802   0.106   4.146   7.425
 3926SOL     OW11803   1.440   4.580   8.846
 3926SOL    HW111804   1.383   4.632   8.783
 3926SOL    HW211805   1.536   4.592   8.822
 3927SOL     OW11806   0.072   3.890   7.766
 3927SOL    HW111807   0.055   3.973   7.712
 3927SOL    HW211808   0.162   3.853   7.744
 3928SOL     OW11809   1.183   5.059   7.567
 3928SOL    HW111810   1.084   5.048   7.569
 3928SOL    HW211811   1.217   5.074   7.660
 3929SOL     OW11812   0.613   4.566   8.879
 3929SOL    HW111813   0.669   4.647   8.862
 3929SOL    HW211814   0.672   4.486   8.882
 3930SOL     OW11815   1.493   5.491   8.407
 3930SOL    HW111816   1.526   5.555   8.338
 3930SOL    HW211817   1.559   5.485   8.482
 3931SOL     OW11818   0.716   4.289   9.156
 3931SOL    HW111819   0.735   4.354   9.230
 3931SOL    HW211820   0.776   4.209   9.165
 3932SOL     OW11821   1.450   4.944   9.081
 3932SOL    HW111822   1.441   4.934   9.180
 3932SOL    HW211823   1.546   4.937   9.055
 3933SOL     OW11824   0.390   5.465   9.008
 3933SOL    HW111825   0.299   5.506   9.006
 3933SOL    HW211826   0.383   5.371   9.040
 3934SOL     OW11827   1.674   4.607   8.702
 3934SOL    HW111828   1.647   4.518   8.665
 3934SOL    HW211829   1.675   4.675   8.629
 3935SOL     OW11830   1.225   4.049   7.897
 3935SOL    HW111831   1.290   3.975   7.886
 3935SOL    HW211832   1.245   4.099   7.981
 3936SOL     OW11833   0.594   4.469   8.100
 3936SOL    HW111834   0.644   4.554   8.081
 3936SOL    HW211835   0.506   4.471   8.052
 3937SOL     OW11836   1.777   4.066   9.090
 3937SOL    HW111837   1.760   4.097   8.996
 3937SOL    HW211838   1.693   4.029   9.128
 3938SOL     OW11839   1.730   4.658   8.965
 3938SOL    HW111840   1.768   4.749   8.980
 3938SOL    HW211841   1.722   4.641   8.866
 3939SOL     OW11842   0.859   5.098   7.464
 3939SOL    HW111843   0.813   5.113   7.552
 3939SOL    HW211844   0.903   5.183   7.434
 3940SOL     OW11845   0.661   5.514   8.401
 3940SOL    HW111846   0.615   5.602   8.388
 3940SOL    HW211847   0.760   5.526   8.394
 3941SOL     OW11848   0.859   4.680   8.309
 3941SOL    HW111849   0.913   4.611   8.357
 3941SOL    HW211850   0.827   4.749   8.375
 3942SOL     OW11851   1.083   4.708   7.535
 3942SOL    HW111852   1.060   4.761   7.453
 3942SOL    HW211853   1.164   4.652   7.516
 3943SOL     OW11854   1.861   5.293   8.299
 3943SOL    HW111855   1.790   5.281   8.229
 3943SOL    HW211856   1.862   5.214   8.359
 3944SOL     OW11857   0.221   5.038   9.292
 3944SOL    HW111858   0.156   4.965   9.271
 3944SOL    HW211859   0.225   5.052   9.390
 3945SOL     OW11860   0.079   4.964   8.101
 3945SOL    HW111861   0.078   4.917   8.189
 3945SOL    HW211862   0.161   4.936   8.050
 3946SOL     OW11863   0.672   5.115   9.072
 3946SOL    HW111864   0.594   5.065   9.110
 3946SOL    HW211865   0.669   5.210   9.103
 3947SOL     OW11866   1.824   3.916   8.675
 3947SOL    HW111867   1.820   3.826   8.719
 3947SOL    HW211868   1.827   3.905   8.576
 3948SOL     OW11869   0.428   4.148   7.968
 3948SOL    HW111870   0.458   4.076   7.906
 3948SOL    HW211871   0.389   4.108   8.051
 3949SOL     OW11872   1.705   5.211   8.552
 3949SOL    HW111873   1.612   5.186   8.525
 3949SOL    HW211874   1.731   5.161   8.634
 3950SOL     OW11875   0.317   4.271   8.728
 3950SOL    HW111876   0.355   4.212   8.800
 3950SOL    HW211877   0.357   4.245   8.640
 3951SOL     OW11878   0.812   5.310   8.135
 3951SOL    HW111879   0.844   5.320   8.041
 3951SOL    HW211880   0.733   5.248   8.137
 3952SOL     OW11881   1.424   3.938   8.560
 3952SOL    HW111882   1.476   3.873   8.615
 3952SOL    HW211883   1.375   4.001   8.621
 3953SOL     OW11884   1.001   3.758   8.602
 3953SOL    HW111885   0.938   3.686   8.571
 3953SOL    HW211886   1.094   3.722   8.602
 3954SOL     OW11887   0.770   5.054   7.749
 3954SOL    HW111888   0.724   4.967   7.766
 3954SOL    HW211889   0.861   5.051   7.790
 3955SOL     OW11890   0.618   5.291   8.732
 3955SOL    HW111891   0.613   5.373   8.789
 3955SOL    HW211892   0.707   5.288   8.687
 3956SOL     OW11893   1.352   3.776   7.616
 3956SOL    HW111894   1.387   3.735   7.532
 3956SOL    HW211895   1.262   3.738   7.636
 3957SOL     OW11896   1.300   4.177   8.139
 3957SOL    HW111897   1.241   4.257   8.143
 3957SOL    HW211898   1.315   4.142   8.232
 3958SOL     OW11899   1.593   3.945   8.330
 3958SOL    HW111900   1.509   3.944   8.384
 3958SOL    HW211901   1.595   4.028   8.274
 3959SOL     OW11902   0.039   4.801   7.748
 3959SOL    HW111903   0.138   4.790   7.739
 3959SOL    HW211904  -0.001   4.715   7.780
 3960SOL     OW11905   0.875   5.370   7.785
 3960SOL    HW111906   0.798   5.335   7.731
 3960SOL    HW211907   0.843   5.441   7.847
 3961SOL     OW11908   0.230   4.352   9.423
 3961SOL    HW111909   0.137   4.350   9.460
 3961SOL    HW211910   0.231   4.313   9.331
 3962SOL     OW11911   0.225   3.999  10.306
 3962SOL    HW111912   0.260   3.982  10.398
 3962SOL    HW211913   0.137   3.954  10.294
 3963SOL     OW11914   0.019   4.092   9.957
 3963SOL    HW111915  -0.063   4.135   9.996
 3963SOL    HW211916  -0.009   4.019   9.894
 3964SOL     OW11917   0.569   4.999  10.475
 3964SOL    HW111918   0.476   4.992  10.438
 3964SOL    HW211919   0.580   5.088  10.519
 3965SOL     OW11920   1.555   5.235  10.013
 3965SOL    HW111921   1.498   5.219  10.094
 3965SOL    HW211922   1.496   5.245   9.933
 3966SOL     OW11923   1.135   4.427  10.027
 3966SOL    HW111924   1.192   4.505  10.002
 3966SOL    HW211925   1.075   4.453  10.103
 3967SOL     OW11926   1.755   4.331   9.541
 3967SOL    HW111927   1.743   4.318   9.442
 3967SOL    HW211928   1.725   4.250   9.590
 3968SOL     OW11929   0.768   4.868  10.333
 3968SOL    HW111930   0.690   4.885  10.393
 3968SOL    HW211931   0.802   4.955  10.297
 3969SOL     OW11932   0.850   4.522  11.133
 3969SOL    HW111933   0.846   4.598  11.198
 3969SOL    HW211934   0.872   4.558  11.042
 3970SOL     OW11935   0.685   4.736   9.975
 3970SOL    HW111936   0.754   4.720  10.045
 3970SOL    HW211937   0.612   4.793  10.013
 3971SOL     OW11938   0.686   4.885  11.113
 3971SOL    HW111939   0.746   4.964  11.127
 3971SOL    HW211940   0.600   4.916  11.072
 3972SOL     OW11941   0.335   5.159  10.371
 3972SOL    HW111942   0.257   5.128  10.318
 3972SOL    HW211943   0.393   5.217  10.314
 3973SOL     OW11944   1.460   5.229  10.649
 3973SOL    HW111945   1.484   5.323  10.675
 3973SOL    HW211946   1.444   5.175  10.731
 3974SOL     OW11947   0.438   4.116  10.809
 3974SOL    HW111948   0.520   4.060  10.818
 3974SOL    HW211949   0.357   4.058  10.813
 3975SOL     OW11950   1.603   4.171  10.047
 3975SOL    HW111951   1.529   4.217   9.997
 3975SOL    HW211952   1.654   4.239  10.100
 3976SOL     OW11953   0.231   5.437   9.793
 3976SOL    HW111954   0.265   5.514   9.847
 3976SOL    HW211955   0.275   5.437   9.703
 3977SOL     OW11956   1.127   5.065  11.000
 3977SOL    HW111957   1.174   5.065  11.088
 3977SOL    HW211958   1.079   4.978  10.989
 3978SOL     OW11959   0.230   5.158   9.848
 3978SOL    HW111960   0.204   5.254   9.848
 3978SOL    HW211961   0.159   5.104   9.893
 3979SOL     OW11962   0.240   4.815  10.196
 3979SOL    HW111963   0.254   4.731  10.248
 3979SOL    HW211964   0.185   4.879  10.251
 3980SOL     OW11965   0.620   5.510  10.749
 3980SOL    HW111966   0.528   5.493  10.784
 3980SOL    HW211967   0.648   5.602  10.775
 3981SOL     OW11968   0.606   4.688   9.433
 3981SOL    HW111969   0.613   4.772   9.379
 3981SOL    HW211970   0.652   4.701   9.521
 3982SOL     OW11971   1.594   3.838  10.790
 3982SOL    HW111972   1.576   3.905  10.718
 3982SOL    HW211973   1.591   3.884  10.879
 3983SOL     OW11974   0.122   4.367   9.873
 3983SOL    HW111975   0.077   4.279   9.890
 3983SOL    HW211976   0.121   4.421   9.957
 3984SOL     OW11977   1.842   5.491   9.669
 3984SOL    HW111978   1.896   5.462   9.749
 3984SOL    HW211979   1.872   5.581   9.640
 3985SOL     OW11980   0.027   5.320   9.427
 3985SOL    HW111981   0.008   5.224   9.448
 3985SOL    HW211982  -0.006   5.378   9.502
 3986SOL     OW11983   1.689   4.646   9.922
 3986SOL    HW111984   1.784   4.617   9.930
 3986SOL    HW211985   1.681   4.711   9.847
 3987SOL     OW11986   1.641   4.832   9.742
 3987SOL    HW111987   1.727   4.834   9.690
 3987SOL    HW211988   1.655   4.879   9.830
 3988SOL     OW11989   0.113   4.461  10.907
 3988SOL    HW111990   0.201   4.448  10.952
 3988SOL    HW211991   0.100   4.558  10.885
 3989SOL     OW11992   0.613   5.089  10.036
 3989SOL    HW111993   0.564   5.002  10.045
 3989SOL    HW211994   0.590   5.132   9.949
 3990SOL     OW11995   1.293   4.952  10.733
 3990SOL    HW111996   1.330   4.879  10.675
 3990SOL    HW211997   1.345   4.957  10.818
 3991SOL     OW11998   0.809   3.728   9.812
 3991SOL    HW111999   0.849   3.819   9.803
 3991SOL    HW212000   0.709   3.736   9.818
 3992SOL     OW12001   0.197   4.700  10.574
 3992SOL    HW112002   0.286   4.655  10.560
 3992SOL    HW212003   0.124   4.635  10.555
 3993SOL     OW12004   1.525   4.723   9.500
 3993SOL    HW112005   1.462   4.647   9.513
 3993SOL    HW212006   1.573   4.741   9.586
 3994SOL     OW12007   1.187   5.516  10.926
 3994SOL    HW112008   1.211   5.576  10.850
 3994SOL    HW212009   1.194   5.421  10.896
 3995SOL     OW12010   0.317   3.975  11.111
 3995SOL    HW112011   0.388   4.046  11.117
 3995SOL    HW212012   0.229   4.014  11.139
 3996SOL     OW12013   1.466   5.141  10.263
 3996SOL    HW112014   1.407   5.147  10.343
 3996SOL    HW212015   1.451   5.053  10.217
 3997SOL     OW12016   1.667   5.438   9.882
 3997SOL    HW112017   1.626   5.415   9.794
 3997SOL    HW212018   1.649   5.364   9.947
 3998SOL     OW12019   0.598   4.453   9.580
 3998SOL    HW112020   0.622   4.522   9.512
 3998SOL    HW212021   0.520   4.486   9.634
 3999SOL     OW12022   1.281   4.069  10.254
 3999SOL    HW112023   1.195   4.019  10.241
 3999SOL    HW212024   1.343   4.015  10.310
 4000SOL     OW12025   1.576   5.386   9.617
 4000SOL    HW112026   1.665   5.432   9.620
 4000SOL    HW212027   1.555   5.362   9.522
 4001SOL     OW12028   0.807   4.329  10.775
 4001SOL    HW112029   0.760   4.326  10.864
 4001SOL    HW212030   0.756   4.274  10.709
 4002SOL     OW12031   1.394   4.193  10.984
 4002SOL    HW112032   1.374   4.236  11.072
 4002SOL    HW212033   1.472   4.131  10.993
 4003SOL     OW12034   0.973   4.614  10.882
 4003SOL    HW112035   1.019   4.530  10.853
 4003SOL    HW212036   0.917   4.648  10.807
 4004SOL     OW12037   0.991   4.134  10.552
 4004SOL    HW112038   0.914   4.168  10.606
 4004SOL    HW212039   0.957   4.083  10.473
 4005SOL     OW12040   1.041   4.425   9.739
 4005SOL    HW112041   1.067   4.421   9.835
 4005SOL    HW212042   0.956   4.374   9.725
 4006SOL     OW12043   0.076   4.535  10.099
 4006SOL    HW112044   0.175   4.523  10.108
 4006SOL    HW212045   0.052   4.630  10.120
 4007SOL     OW12046   0.130   5.545  10.881
 4007SOL    HW112047   0.120   5.530  10.980
 4007SOL    HW212048   0.044   5.581  10.845
 4008SOL     OW12049   0.865   4.072   9.505
 4008SOL    HW112050   0.924   4.135   9.456
 4008SOL    HW212051   0.884   3.978   9.476
 4009SOL     OW12052   1.719   4.309  11.141
 4009SOL    HW112053   1.693   4.398  11.105
 4009SOL    HW212054   1.717   4.241  11.068
 4010SOL     OW12055   1.362   4.868   9.855
 4010SOL    HW112056   1.445   4.839   9.807
 4010SOL    HW212057   1.313   4.935   9.799
 4011SOL     OW12058   0.550   3.920  10.195
 4011SOL    HW112059   0.545   3.915  10.295
 4011SOL    HW212060   0.552   4.016  10.166
 4012SOL     OW12061   1.008   5.180   9.787
 4012SOL    HW112062   0.962   5.252   9.735
 4012SOL    HW212063   1.004   5.200   9.885
 4013SOL     OW12064   0.351   5.525  10.163
 4013SOL    HW112065   0.401   5.439  10.169
 4013SOL    HW212066   0.416   5.602  10.160
 4014SOL     OW12067   1.795   4.790  10.183
 4014SOL    HW112068   1.733   4.775  10.107
 4014SOL    HW212069   1.743   4.801  10.268
 4015SOL     OW12070   1.227   5.274  10.816
 4015SOL    HW112071   1.233   5.197  10.880
 4015SOL    HW212072   1.175   5.248  10.736
 4016SOL     OW12073   0.321   4.667   9.552
 4016SOL    HW112074   0.403   4.706   9.510
 4016SOL    HW212075   0.294   4.585   9.503
 4017SOL     OW12076   1.458   4.459  10.038
 4017SOL    HW112077   1.453   4.394  10.113
 4017SOL    HW212078   1.538   4.518  10.051
 4018SOL     OW12079   0.461   4.990  11.037
 4018SOL    HW112080   0.411   4.991  10.951
 4018SOL    HW212081   0.398   4.972  11.113
 4019SOL     OW12082   1.111   5.500   9.547
 4019SOL    HW112083   1.051   5.438   9.597
 4019SOL    HW212084   1.142   5.456   9.462
 4020SOL     OW12085   0.202   4.009  10.808
 4020SOL    HW112086   0.122   4.069  10.795
 4020SOL    HW212087   0.192   3.960  10.894
 4021SOL     OW12088   1.632   5.101   9.391
 4021SOL    HW112089   1.600   5.195   9.381
 4021SOL    HW212090   1.556   5.038   9.379
 4022SOL     OW12091   0.464   5.467   9.633
 4022SOL    HW112092   0.497   5.506   9.719
 4022SOL    HW212093   0.540   5.460   9.568
 4023SOL     OW12094   1.400   3.831   9.736
 4023SOL    HW112095   1.376   3.794   9.646
 4023SOL    HW212096   1.499   3.847   9.740
 4024SOL     OW12097   0.249   5.509  10.551
 4024SOL    HW112098   0.306   5.444  10.601
 4024SOL    HW212099   0.233   5.476  10.458
 4025SOL     OW12100   0.940   5.422  10.214
 4025SOL    HW112101   1.020   5.365  10.235
 4025SOL    HW212102   0.891   5.382  10.137
 4026SOL     OW12103   0.382   4.424   9.790
 4026SOL    HW112104   0.427   4.334   9.787
 4026SOL    HW212105   0.288   4.413   9.823
 4027SOL     OW12106   1.547   3.946  11.039
 4027SOL    HW112107   1.542   3.983  11.131
 4027SOL    HW212108   1.475   3.877  11.027
 4028SOL     OW12109   0.614   3.846   9.427
 4028SOL    HW112110   0.712   3.824   9.434
 4028SOL    HW212111   0.583   3.829   9.334
 4029SOL     OW12112   0.781   3.988  11.059
 4029SOL    HW112113   0.848   3.927  11.102
 4029SOL    HW212114   0.708   4.007  11.124
 4030SOL     OW12115   0.888   5.238  10.505
 4030SOL    HW112116   0.865   5.213  10.411
 4030SOL    HW212117   0.949   5.169  10.544
 4031SOL     OW12118   1.351   4.314  10.743
 4031SOL    HW112119   1.379   4.271  10.828
 4031SOL    HW212120   1.376   4.410  10.744
 4032SOL     OW12121   0.803   5.126  10.234
 4032SOL    HW112122   0.893   5.140  10.192
 4032SOL    HW212123   0.732   5.128  10.163
 4033SOL     OW12124   0.922   4.227  10.209
 4033SOL    HW112125   0.897   4.218  10.113
 4033SOL    HW212126   0.970   4.145  10.240
 4034SOL     OW12127   0.539   3.788   9.822
 4034SOL    HW112128   0.458   3.789   9.880
 4034SOL    HW212129   0.542   3.871   9.767
 4035SOL     OW12130   1.434   4.912   9.351
 4035SOL    HW112131   1.466   4.836   9.408
 4035SOL    HW212132   1.342   4.939   9.381
 4036SOL     OW12133   0.297   3.759   9.481
 4036SOL    HW112134   0.346   3.843   9.460
 4036SOL    HW212135   0.359   3.694   9.526
 4037SOL     OW12136   0.935   3.960   9.790
 4037SOL    HW112137   0.887   4.001   9.712
 4037SOL    HW212138   1.034   3.958   9.771
 4038SOL     OW12139   1.076   4.407  10.774
 4038SOL    HW112140   0.996   4.346  10.777
 4038SOL    HW212141   1.157   4.354  10.750
 4039SOL     OW12142   1.227   5.294  10.103
 4039SOL    HW112143   1.248   5.368  10.038
 4039SOL    HW212144   1.295   5.294  10.176
 4040SOL     OW12145   0.459   4.876  10.051
 4040SOL    HW112146   0.388   4.849  10.116
 4040SOL    HW212147   0.433   4.848   9.958
 4041SOL     OW12148   1.271   5.521   9.901
 4041SOL    HW112149   1.315   5.585   9.837
 4041SOL    HW212150   1.221   5.573   9.971
 4042SOL     OW12151   1.032   4.273   9.326
 4042SOL    HW112152   0.991   4.355   9.287
 4042SOL    HW212153   1.096   4.299   9.399
 4043SOL     OW12154   0.078   4.280  10.696
 4043SOL    HW112155   0.170   4.279  10.655
 4043SOL    HW212156   0.072   4.354  10.763
 4044SOL     OW12157   0.561   3.946  10.457
 4044SOL    HW112158   0.599   3.862  10.494
 4044SOL    HW212159   0.473   3.965  10.501
 4045SOL     OW12160   0.866   4.178   9.952
 4045SOL    HW112161   0.834   4.250   9.890
 4045SOL    HW212162   0.890   4.097   9.899
 4046SOL     OW12163   1.017   3.763  10.063
 4046SOL    HW112164   0.945   3.768   9.994
 4046SOL    HW212165   0.993   3.694  10.132
 4047SOL     OW12166   1.429   4.897  10.177
 4047SOL    HW112167   1.374   4.813  10.170
 4047SOL    HW212168   1.455   4.926  10.085
 4048SOL     OW12169   1.466   4.314  10.302
 4048SOL    HW112170   1.436   4.219  10.309
 4048SOL    HW212171   1.539   4.330  10.368
 4049SOL     OW12172   1.857   4.557   9.687
 4049SOL    HW112173   1.899   4.493   9.751
 4049SOL    HW212174   1.819   4.506   9.609
 4050SOL     OW12175   0.488   5.109   9.484
 4050SOL    HW112176   0.401   5.094   9.531
 4050SOL    HW212177   0.471   5.135   9.389
 4051SOL     OW12178   1.664   5.004   9.967
 4051SOL    HW112179   1.763   5.012   9.981
 4051SOL    HW212180   1.619   5.088   9.998
 4052SOL     OW12181   1.390   4.299   9.388
 4052SOL    HW112182   1.336   4.278   9.469
 4052SOL    HW212183   1.481   4.258   9.397
 4053SOL     OW12184   0.527   3.980   9.638
 4053SOL    HW112185   0.554   3.921   9.563
 4053SOL    HW212186   0.527   4.075   9.607
 4054SOL     OW12187   1.754   4.947  10.898
 4054SOL    HW112188   1.845   4.908  10.885
 4054SOL    HW212189   1.762   5.043  10.922
 4055SOL     OW12190   1.064   5.071  10.650
 4055SOL    HW112191   0.984   5.048  10.705
 4055SOL    HW212192   1.147   5.045  10.699
 4056SOL     OW12193   1.592   5.353  10.935
 4056SOL    HW112194   1.619   5.387  10.845
 4056SOL    HW212195   1.671   5.315  10.981
 4057SOL     OW12196   1.111   4.919  10.410
 4057SOL    HW112197   1.071   4.963  10.491
 4057SOL    HW212198   1.070   4.956  10.327
 4058SOL     OW12199   1.638   4.823  10.389
 4058SOL    HW112200   1.643   4.904  10.448
 4058SOL    HW212201   1.552   4.825  10.338
 4059SOL     OW12202   0.915   3.813  10.712
 4059SOL    HW112203   0.940   3.793  10.617
 4059SOL    HW212204   0.987   3.869  10.754
 4060SOL     OW12205   0.980   4.840  11.029
 4060SOL    HW112206   0.881   4.846  11.039
 4060SOL    HW212207   1.003   4.760  10.973
 4061SOL     OW12208   0.705   4.774   9.678
 4061SOL    HW112209   0.691   4.781   9.777
 4061SOL    HW212210   0.789   4.723   9.660
 4062SOL     OW12211   0.410   4.537  10.561
 4062SOL    HW112212   0.496   4.549  10.611
 4062SOL    HW212213   0.368   4.450  10.588
 4063SOL     OW12214   1.274   4.110  10.572
 4063SOL    HW112215   1.295   4.184  10.636
 4063SOL    HW212216   1.185   4.127  10.529
 4064SOL     OW12217   0.064   5.288  10.641
 4064SOL    HW112218   0.018   5.370  10.607
 4064SOL    HW212219   0.162   5.307  10.650
 4065SOL     OW12220   0.367   4.824   9.811
 4065SOL    HW112221   0.360   4.907   9.755
 4065SOL    HW212222   0.371   4.744   9.751
 4066SOL     OW12223   0.566   4.261  10.175
 4066SOL    HW112224   0.578   4.327  10.101
 4066SOL    HW212225   0.612   4.295  10.258
 4067SOL     OW12226   1.252   5.072   9.698
 4067SOL    HW112227   1.302   5.149   9.738
 4067SOL    HW212228   1.157   5.074   9.730
 4068SOL     OW12229   1.272   5.169  10.452
 4068SOL    HW112230   1.319   5.182  10.539
 4068SOL    HW212231   1.206   5.095  10.461
 4069SOL     OW12232   1.582   4.363   9.782
 4069SOL    HW112233   1.551   4.424   9.855
 4069SOL    HW212234   1.632   4.415   9.713
 4070SOL     OW12235   0.354   5.234  10.639
 4070SOL    HW112236   0.333   5.190  10.552
 4070SOL    HW212237   0.451   5.260  10.642
 4071SOL     OW12238   0.402   4.475  10.908
 4071SOL    HW112239   0.470   4.530  10.861
 4071SOL    HW212240   0.442   4.387  10.935
 4072SOL     OW12241   1.587   4.503  10.980
 4072SOL    HW112242   1.495   4.541  10.975
 4072SOL    HW212243   1.647   4.550  10.915
 4073SOL     OW12244   1.013   3.829  11.080
 4073SOL    HW112245   1.019   3.914  11.028
 4073SOL    HW212246   1.045   3.753  11.023
 4074SOL     OW12247   0.504   3.774  11.050
 4074SOL    HW112248   0.462   3.717  10.980
 4074SOL    HW212249   0.438   3.843  11.082
 4075SOL     OW12250   0.573   4.594  10.339
 4075SOL    HW112251   0.617   4.683  10.330
 4075SOL    HW212252   0.510   4.594  10.416
 4076SOL     OW12253   1.360   4.586  10.355
 4076SOL    HW112254   1.285   4.586  10.289
 4076SOL    HW212255   1.397   4.494  10.364
 4077SOL     OW12256   1.209   4.249   9.585
 4077SOL    HW112257   1.222   4.165   9.639
 4077SOL    HW212258   1.180   4.323   9.645
 4078SOL     OW12259   0.307   3.937  10.541
 4078SOL    HW112260   0.284   3.974  10.631
 4078SOL    HW212261   0.277   3.842  10.535
 4079SOL     OW12262   0.037   5.034  10.592
 4079SOL    HW112263   0.090   4.985  10.660
 4079SOL    HW212264   0.059   5.132  10.597
 4080SOL     OW12265   0.732   4.358  10.374
 4080SOL    HW112266   0.791   4.332  10.298
 4080SOL    HW212267   0.704   4.454  10.363
 4081SOL     OW12268   1.728   4.659  11.164
 4081SOL    HW112269   1.682   4.652  11.075
 4081SOL    HW212270   1.666   4.703  11.230
 4082SOL     OW12271   0.307   3.787   9.928
 4082SOL    HW112272   0.296   3.881   9.961
 4082SOL    HW212273   0.302   3.724  10.005
 4083SOL     OW12274   1.622   4.091   9.684
 4083SOL    HW112275   1.624   4.015   9.748
 4083SOL    HW212276   1.574   4.168   9.724
 4084SOL     OW12277   1.023   4.490  10.276
 4084SOL    HW112278   1.038   4.511  10.372
 4084SOL    HW212279   0.993   4.395  10.267
 4085SOL     OW12280   0.980   5.297  11.010
 4085SOL    HW112281   0.960   5.341  10.922
 4085SOL    HW212282   1.019   5.206  10.994
 4086SOL     OW12283   1.859   5.242  10.915
 4086SOL    HW112284   1.873   5.269  10.820
 4086SOL    HW212285   1.942   5.264  10.968
 4087SOL     OW12286   0.350   4.622  11.114
 4087SOL    HW112287   0.426   4.666  11.162
 4087SOL    HW212288   0.385   4.575  11.032
 4088SOL     OW12289   1.540   3.998   9.435
 4088SOL    HW112290   1.479   3.923   9.458
 4088SOL    HW212291   1.562   4.050   9.518
 4089SOL     OW12292   1.303   4.562   9.352
 4089SOL    HW112293   1.337   4.469   9.367
 4089SOL    HW212294   1.321   4.589   9.257
 4090SOL     OW12295   1.068   5.057  10.159
 4090SOL    HW112296   1.075   4.973  10.104
 4090SOL    HW212297   1.130   5.126  10.123
 4091SOL     OW12298   0.319   4.534  10.259
 4091SOL    HW112299   0.412   4.570  10.264
 4091SOL    HW212300   0.313   4.449  10.311
 4092SOL     OW12301   0.339   4.233  10.316
 4092SOL    HW112302   0.287   4.150  10.299
 4092SOL    HW212303   0.416   4.238  10.252
 4093SOL     OW12304   1.138   4.104  10.988
 4093SOL    HW112305   1.093   4.167  11.052
 4093SOL    HW212306   1.231   4.135  10.971
 4094SOL     OW12307   1.160   3.931  10.787
 4094SOL    HW112308   1.160   3.995  10.864
 4094SOL    HW212309   1.188   3.979  10.704
 4095SOL     OW12310   0.008   5.050   9.510
 4095SOL    HW112311  -0.085   5.071   9.479
 4095SOL    HW212312   0.018   4.951   9.523
 4096SOL     OW12313   0.088   5.525  10.237
 4096SOL    HW112314   0.046   5.439  10.210
 4096SOL    HW212315   0.182   5.528  10.203
 4097SOL     OW12316   0.504   5.292  10.220
 4097SOL    HW112317   0.570   5.366  10.229
 4097SOL    HW212318   0.548   5.213  10.178
 4098SOL     OW12319   1.002   4.520  10.548
 4098SOL    HW112320   1.043   4.488  10.634
 4098SOL    HW212321   0.906   4.493  10.545
 4099SOL     OW12322   0.040   4.268  10.424
 4099SOL    HW112323   0.125   4.235  10.383
 4099SOL    HW212324   0.053   4.283  10.522
 4100SOL     OW12325   0.189   4.244  11.032
 4100SOL    HW112326   0.248   4.204  10.962
 4100SOL    HW212327   0.131   4.315  10.991
 4101SOL     OW12328   1.369   4.674  10.970
 4101SOL    HW112329   1.408   4.763  10.990
 4101SOL    HW212330   1.379   4.654  10.873
 4102SOL     OW12331   0.815   4.296   9.635
 4102SOL    HW112332   0.822   4.207   9.589
 4102SOL    HW212333   0.721   4.330   9.627
 4103SOL     OW12334   1.657   4.328  10.516
 4103SOL    HW112335   1.619   4.259  10.578
 4103SOL    HW212336   1.739   4.292  10.472
 4104SOL     OW12337   0.252   5.288  11.054
 4104SOL    HW112338   0.222   5.345  11.130
 4104SOL    HW212339   0.245   5.191  11.080
 4105SOL     OW12340   0.671   4.188  10.579
 4105SOL    HW112341   0.637   4.099  10.549
 4105SOL    HW212342   0.697   4.242  10.499
 4106SOL     OW12343   0.930   5.402  10.775
 4106SOL    HW112344   0.906   5.384  10.680
 4106SOL    HW212345   0.960   5.496  10.785
 4107SOL     OW12346   0.473   4.224   9.501
 4107SOL    HW112347   0.534   4.304   9.505
 4107SOL    HW212348   0.378   4.255   9.508
 4108SOL     OW12349   0.159   4.861  10.776
 4108SOL    HW112350   0.181   4.800  10.852
 4108SOL    HW212351   0.169   4.812  10.690
 4109SOL     OW12352   1.347   4.783  10.544
 4109SOL    HW112353   1.371   4.720  10.470
 4109SOL    HW212354   1.257   4.823  10.526
 4110SOL     OW12355   1.302   4.579   9.619
 4110SOL    HW112356   1.216   4.548   9.661
 4110SOL    HW212357   1.298   4.565   9.520
 4111SOL     OW12358   1.759   5.471  10.464
 4111SOL    HW112359   1.820   5.501  10.391
 4111SOL    HW212360   1.721   5.382  10.442
 4112SOL     OW12361   1.252   5.455  10.438
 4112SOL    HW112362   1.336   5.460  10.384
 4112SOL    HW212363   1.229   5.359  10.456
 4113SOL     OW12364   0.083   4.982  10.332
 4113SOL    HW112365   0.078   4.981  10.432
 4113SOL    HW212366   0.000   4.941  10.294
 4114SOL     OW12367   0.688   5.386  11.026
 4114SOL    HW112368   0.632   5.467  11.035
 4114SOL    HW212369   0.740   5.390  10.940
 4115SOL     OW12370   1.726   3.859   9.833
 4115SOL    HW112371   1.799   3.842   9.766
 4115SOL    HW212372   1.695   3.772   9.871
 4116SOL     OW12373   1.388   5.297   9.787
 4116SOL    HW112374   1.455   5.309   9.713
 4116SOL    HW212375   1.348   5.386   9.810
 4117SOL     OW12376   0.130   5.518  11.161
 4117SOL    HW112377   0.089   5.444  11.214
 4117SOL    HW212378   0.194   5.569  11.219
 4118SOL     OW12379   1.280   4.651   9.982
 4118SOL    HW112380   1.340   4.570   9.984
 4118SOL    HW212381   1.320   4.720   9.922
 4119SOL     OW12382   0.830   4.997  10.732
 4119SOL    HW112383   0.825   5.030  10.827
 4119SOL    HW212384   0.744   5.016  10.686
 4120SOL     OW12385   0.672   5.340   9.464
 4120SOL    HW112386   0.681   5.350   9.365
 4120SOL    HW212387   0.632   5.251   9.485
 4121SOL     OW12388   1.650   5.444  10.704
 4121SOL    HW112389   1.703   5.454  10.620
 4121SOL    HW212390   1.623   5.534  10.738
 4122SOL     OW12391   1.841   3.899  10.273
 4122SOL    HW112392   1.880   3.814  10.237
 4122SOL    HW212393   1.743   3.901  10.254
 4123SOL     OW12394   0.263   4.050  10.030
 4123SOL    HW112395   0.184   4.101   9.996
 4123SOL    HW212396   0.254   4.035  10.128
 4124SOL     OW12397   1.194   5.336   9.341
 4124SOL    HW112398   1.200   5.243   9.378
 4124SOL    HW212399   1.135   5.336   9.261
 4125SOL     OW12400   0.822   4.726  10.682
 4125SOL    HW112401   0.862   4.725  10.590
 4125SOL    HW212402   0.832   4.818  10.722
 4126SOL     OW12403   0.916   4.634   9.601
 4126SOL    HW112404   0.979   4.672   9.533
 4126SOL    HW212405   0.956   4.551   9.640
 4127SOL     OW12406   1.504   5.331   9.354
 4127SOL    HW112407   1.412   5.368   9.361
 4127SOL    HW212408   1.542   5.351   9.264
 4128SOL     OW12409   0.372   5.012  10.800
 4128SOL    HW112410   0.359   5.105  10.766
 4128SOL    HW212411   0.288   4.960  10.787
 4129SOL     OW12412   1.614   5.016  10.599
 4129SOL    HW112413   1.674   5.019  10.679
 4129SOL    HW212414   1.539   5.080  10.612
 4130SOL     OW12415   1.039   4.822  10.006
 4130SOL    HW112416   0.969   4.775  10.060
 4130SOL    HW212417   1.098   4.754   9.963
 4131SOL     OW12418   1.014   3.960  10.281
 4131SOL    HW112419   1.006   3.924  10.188
 4131SOL    HW212420   1.012   3.884  10.346
 4132SOL     OW12421   0.590   5.211   9.801
 4132SOL    HW112422   0.632   5.153   9.731
 4132SOL    HW212423   0.546   5.290   9.757
 4133SOL     OW12424   1.709   4.109  10.691
 4133SOL    HW112425   1.782   4.178  10.695
 4133SOL    HW212426   1.737   4.034  10.632
 4134SOL     OW12427   0.255   5.072   9.600
 4134SOL    HW112428   0.159   5.073   9.573
 4134SOL    HW212429   0.267   5.125   9.684
 4135SOL     OW12430   0.105   4.737  11.036
 4135SOL    HW112431   0.028   4.704  11.090
 4135SOL    HW212432   0.190   4.707  11.078
 4136SOL     OW12433   0.672   3.927  10.799
 4136SOL    HW112434   0.762   3.911  10.759
 4136SOL    HW212435   0.680   3.932  10.898
 4137SOL     OW12436   0.075   4.069   9.343
 4137SOL    HW112437  -0.017   4.041   9.314
 4137SOL    HW212438   0.106   4.146   9.287
 4138SOL     OW12439   1.440   4.580  10.708
 4138SOL    HW112440   1.383   4.632  10.645
 4138SOL    HW212441   1.536   4.592  10.684
 4139SOL     OW12442   0.072   3.890   9.628
 4139SOL    HW112443   0.055   3.973   9.574
 4139SOL    HW212444   0.162   3.853   9.606
 4140SOL     OW12445   1.183   5.059   9.429
 4140SOL    HW112446   1.084   5.048   9.431
 4140SOL    HW212447   1.217   5.074   9.522
 4141SOL     OW12448   0.613   4.566  10.741
 4141SOL    HW112449   0.669   4.647  10.724
 4141SOL    HW212450   0.672   4.486  10.744
 4142SOL     OW12451   1.493   5.491  10.269
 4142SOL    HW112452   1.526   5.555  10.200
 4142SOL    HW212453   1.559   5.485  10.344
 4143SOL     OW12454   0.716   4.289  11.018
 4143SOL    HW112455   0.735   4.354  11.092
 4143SOL    HW212456   0.776   4.209  11.027
 4144SOL     OW12457   1.450   4.944  10.943
 4144SOL    HW112458   1.441   4.934  11.042
 4144SOL    HW212459   1.546   4.937  10.917
 4145SOL     OW12460   0.390   5.465  10.870
 4145SOL    HW112461   0.299   5.506  10.868
 4145SOL    HW212462   0.383   5.371  10.902
 4146SOL     OW12463   1.674   4.607  10.564
 4146SOL    HW112464   1.647   4.518  10.527
 4146SOL    HW212465   1.675   4.675  10.491
 4147SOL     OW12466   1.225   4.049   9.759
 4147SOL    HW112467   1.290   3.975   9.748
 4147SOL    HW212468   1.245   4.099   9.843
 4148SOL     OW12469   0.594   4.469   9.962
 4148SOL    HW112470   0.644   4.554   9.943
 4148SOL    HW212471   0.506   4.471   9.914
 4149SOL     OW12472   1.777   4.066  10.952
 4149SOL    HW112473   1.760   4.097  10.858
 4149SOL    HW212474   1.693   4.029  10.990
 4150SOL     OW12475   1.730   4.658  10.827
 4150SOL    HW112476   1.768   4.749  10.842
 4150SOL    HW212477   1.722   4.641  10.728
 4151SOL     OW12478   0.859   5.098   9.326
 4151SOL    HW112479   0.813   5.113   9.414
 4151SOL    HW212480   0.903   5.183   9.296
 4152SOL     OW12481   0.661   5.514  10.263
 4152SOL    HW112482   0.615   5.602  10.250
 4152SOL    HW212483   0.760   5.526  10.256
 4153SOL     OW12484   0.859   4.680  10.171
 4153SOL    HW112485   0.913   4.611  10.219
 4153SOL    HW212486   0.827   4.749  10.237
 4154SOL     OW12487   1.083   4.708   9.397
 4154SOL    HW112488   1.060   4.761   9.315
 4154SOL    HW212489   1.164   4.652   9.378
 4155SOL     OW12490   1.861   5.293  10.161
 4155SOL    HW112491   1.790   5.281  10.091
 4155SOL    HW212492   1.862   5.214  10.221
 4156SOL     OW12493   0.221   5.038  11.154
 4156SOL    HW112494   0.156   4.965  11.133
 4156SOL    HW212495   0.225   5.052  11.252
 4157SOL     OW12496   0.079   4.964   9.963
 4157SOL    HW112497   0.078   4.917  10.051
 4157SOL    HW212498   0.161   4.936   9.912
 4158SOL     OW12499   0.672   5.115  10.934
 4158SOL    HW112500   0.594   5.065  10.972
 4158SOL    HW212501   0.669   5.210  10.965
 4159SOL     OW12502   1.824   3.916  10.537
 4159SOL    HW112503   1.820   3.826  10.581
 4159SOL    HW212504   1.827   3.905  10.438
 4160SOL     OW12505   0.428   4.148   9.830
 4160SOL    HW112506   0.458   4.076   9.768
 4160SOL    HW212507   0.389   4.108   9.913
 4161SOL     OW12508   1.705   5.211  10.414
 4161SOL    HW112509   1.612   5.186  10.387
 4161SOL    HW212510   1.731   5.161  10.496
 4162SOL     OW12511   0.317   4.271  10.590
 4162SOL    HW112512   0.355   4.212  10.662
 4162SOL    HW212513   0.357   4.245  10.502
 4163SOL     OW12514   0.812   5.310   9.997
 4163SOL    HW112515   0.844   5.320   9.903
 4163SOL    HW212516   0.733   5.248   9.999
 4164SOL     OW12517   1.424   3.938  10.422
 4164SOL    HW112518   1.476   3.873  10.477
 4164SOL    HW212519   1.375   4.001  10.483
 4165SOL     OW12520   1.001   3.758  10.464
 4165SOL    HW112521   0.938   3.686  10.433
 4165SOL    HW212522   1.094   3.722  10.464
 4166SOL     OW12523   0.770   5.054   9.611
 4166SOL    HW112524   0.724   4.967   9.628
 4166SOL    HW212525   0.861   5.051   9.652
 4167SOL     OW12526   0.618   5.291  10.594
 4167SOL    HW112527   0.613   5.373  10.651
 4167SOL    HW212528   0.707   5.288  10.549
 4168SOL     OW12529   1.352   3.776   9.478
 4168SOL    HW112530   1.387   3.735   9.394
 4168SOL    HW212531   1.262   3.738   9.498
 4169SOL     OW12532   1.300   4.177  10.001
 4169SOL    HW112533   1.241   4.257  10.005
 4169SOL    HW212534   1.315   4.142  10.094
 4170SOL     OW12535   1.593   3.945  10.192
 4170SOL    HW112536   1.509   3.944  10.246
 4170SOL    HW212537   1.595   4.028  10.136
 4171SOL     OW12538   0.039   4.801   9.610
 4171SOL    HW112539   0.138   4.790   9.601
 4171SOL    HW212540  -0.001   4.715   9.642
 4172SOL     OW12541   0.875   5.370   9.647
 4172SOL    HW112542   0.798   5.335   9.593
 4172SOL    HW212543   0.843   5.441   9.709
 4173SOL     OW12544   0.230   4.352  11.285
 4173SOL    HW112545   0.137   4.350  11.322
 4173SOL    HW212546   0.231   4.313  11.193
 4174SOL     OW12547   0.225   3.999  12.168
 4174SOL    HW112548   0.260   3.982  12.260
 4174SOL    HW212549   0.137   3.954  12.156
 4175SOL     OW12550   0.019   4.092  11.819
 4175SOL    HW112551  -0.063   4.135  11.858
 4175SOL    HW212552  -0.009   4.019  11.756
 4176SOL     OW12553   0.569   4.999  12.337
 4176SOL    HW112554   0.476   4.992  12.300
 4176SOL    HW212555   0.580   5.088  12.381
 4177SOL     OW12556   1.555   5.235  11.875
 4177SOL    HW112557   1.498   5.219  11.956
 4177SOL    HW212558   1.496   5.245  11.795
 4178SOL     OW12559   1.135   4.427  11.889
 4178SOL    HW112560   1.192   4.505  11.864
 4178SOL    HW212561   1.075   4.453  11.965
 4179SOL     OW12562   1.755   4.331  11.403
 4179SOL    HW112563   1.743   4.318  11.304
 4179SOL    HW212564   1.725   4.250  11.452
 4180SOL     OW12565   0.768   4.868  12.195
 4180SOL    HW112566   0.690   4.885  12.255
 4180SOL    HW212567   0.802   4.955  12.159
 4181SOL     OW12568   0.685   4.736  11.837
 4181SOL    HW112569   0.754   4.720  11.907
 4181SOL    HW212570   0.612   4.793  11.875
 4182SOL     OW12571   0.335   5.159  12.233
 4182SOL    HW112572   0.257   5.128  12.180
 4182SOL    HW212573   0.393   5.217  12.176
 4183SOL     OW12574   1.460   5.229  12.511
 4183SOL    HW112575   1.484   5.323  12.537
 4183SOL    HW212576   1.444   5.175  12.593
 4184SOL     OW12577   0.438   4.116  12.671
 4184SOL    HW112578   0.520   4.060  12.680
 4184SOL    HW212579   0.357   4.058  12.675
 4185SOL     OW12580   1.603   4.171  11.909
 4185SOL    HW112581   1.529   4.217  11.859
 4185SOL    HW212582   1.654   4.239  11.962
 4186SOL     OW12583   0.231   5.437  11.655
 4186SOL    HW112584   0.265   5.514  11.709
 4186SOL    HW212585   0.275   5.437  11.565
 4187SOL     OW12586   0.230   5.158  11.710
 4187SOL    HW112587   0.204   5.254  11.710
 4187SOL    HW212588   0.159   5.104  11.755
 4188SOL     OW12589   0.240   4.815  12.058
 4188SOL    HW112590   0.254   4.731  12.110
 4188SOL    HW212591   0.185   4.879  12.113
 4189SOL     OW12592   0.620   5.510  12.611
 4189SOL    HW112593   0.528   5.493  12.646
 4189SOL    HW212594   0.648   5.602  12.637
 4190SOL     OW12595   0.606   4.688  11.295
 4190SOL    HW112596   0.613   4.772  11.241
 4190SOL    HW212597   0.652   4.701  11.383
 4191SOL     OW12598   1.594   3.838  12.652
 4191SOL    HW112599   1.576   3.905  12.580
 4191SOL    HW212600   1.591   3.884  12.741
 4192SOL     OW12601   0.122   4.367  11.735
 4192SOL    HW112602   0.077   4.279  11.752
 4192SOL    HW212603   0.121   4.421  11.819
 4193SOL     OW12604   1.842   5.491  11.531
 4193SOL    HW112605   1.896   5.462  11.611
 4193SOL    HW212606   1.872   5.581  11.502
 4194SOL     OW12607   0.027   5.320  11.289
 4194SOL    HW112608   0.008   5.224  11.310
 4194SOL    HW212609  -0.006   5.378  11.364
 4195SOL     OW12610   1.689   4.646  11.784
 4195SOL    HW112611   1.784   4.617  11.792
 4195SOL    HW212612   1.681   4.711  11.709
 4196SOL     OW12613   1.641   4.832  11.604
 4196SOL    HW112614   1.727   4.834  11.552
 4196SOL    HW212615   1.655   4.879  11.692
 4197SOL     OW12616   0.613   5.089  11.898
 4197SOL    HW112617   0.564   5.002  11.907
 4197SOL    HW212618   0.590   5.132  11.811
 4198SOL     OW12619   0.809   3.728  11.674
 4198SOL    HW112620   0.849   3.819  11.665
 4198SOL    HW212621   0.709   3.736  11.680
 4199SOL     OW12622   0.197   4.700  12.436
 4199SOL    HW112623   0.286   4.655  12.422
 4199SOL    HW212624   0.124   4.635  12.417
 4200SOL     OW12625   1.525   4.723  11.362
 4200SOL    HW112626   1.462   4.647  11.375
 4200SOL    HW212627   1.573   4.741  11.448
 4201SOL     OW12628   0.317   3.975  12.973
 4201SOL    HW112629   0.388   4.046  12.979
 4201SOL    HW212630   0.229   4.014  13.001
 4202SOL     OW12631   1.466   5.141  12.125
 4202SOL    HW112632   1.407   5.147  12.205
 4202SOL    HW212633   1.451   5.053  12.079
 4203SOL     OW12634   1.667   5.438  11.744
 4203SOL    HW112635   1.626   5.415  11.656
 4203SOL    HW212636   1.649   5.364  11.809
 4204SOL     OW12637   0.598   4.453  11.442
 4204SOL    HW112638   0.622   4.522  11.374
 4204SOL    HW212639   0.520   4.486  11.496
 4205SOL     OW12640   1.281   4.069  12.116
 4205SOL    HW112641   1.195   4.019  12.103
 4205SOL    HW212642   1.343   4.015  12.172
 4206SOL     OW12643   1.576   5.386  11.479
 4206SOL    HW112644   1.665   5.432  11.482
 4206SOL    HW212645   1.555   5.362  11.384
 4207SOL     OW12646   0.807   4.329  12.637
 4207SOL    HW112647   0.760   4.326  12.726
 4207SOL    HW212648   0.756   4.274  12.571
 4208SOL     OW12649   0.991   4.134  12.414
 4208SOL    HW112650   0.914   4.168  12.468
 4208SOL    HW212651   0.957   4.083  12.335
 4209SOL     OW12652   1.041   4.425  11.601
 4209SOL    HW112653   1.067   4.421  11.697
 4209SOL    HW212654   0.956   4.374  11.587
 4210SOL     OW12655   0.076   4.535  11.961
 4210SOL    HW112656   0.175   4.523  11.970
 4210SOL    HW212657   0.052   4.630  11.982
 4211SOL     OW12658   0.130   5.545  12.743
 4211SOL    HW112659   0.120   5.530  12.842
 4211SOL    HW212660   0.044   5.581  12.707
 4212SOL     OW12661   0.865   4.072  11.367
 4212SOL    HW112662   0.924   4.135  11.318
 4212SOL    HW212663   0.884   3.978  11.338
 4213SOL     OW12664   1.362   4.868  11.717
 4213SOL    HW112665   1.445   4.839  11.669
 4213SOL    HW212666   1.313   4.935  11.661
 4214SOL     OW12667   0.550   3.920  12.057
 4214SOL    HW112668   0.545   3.915  12.157
 4214SOL    HW212669   0.552   4.016  12.028
 4215SOL     OW12670   1.008   5.180  11.649
 4215SOL    HW112671   0.962   5.252  11.597
 4215SOL    HW212672   1.004   5.200  11.747
 4216SOL     OW12673   0.351   5.525  12.025
 4216SOL    HW112674   0.401   5.439  12.031
 4216SOL    HW212675   0.416   5.602  12.022
 4217SOL     OW12676   1.795   4.790  12.045
 4217SOL    HW112677   1.733   4.775  11.969
 4217SOL    HW212678   1.743   4.801  12.130
 4218SOL     OW12679   0.321   4.667  11.414
 4218SOL    HW112680   0.403   4.706  11.372
 4218SOL    HW212681   0.294   4.585  11.365
 4219SOL     OW12682   1.458   4.459  11.900
 4219SOL    HW112683   1.453   4.394  11.975
 4219SOL    HW212684   1.538   4.518  11.913
 4220SOL     OW12685   1.111   5.500  11.409
 4220SOL    HW112686   1.051   5.438  11.459
 4220SOL    HW212687   1.142   5.456  11.324
 4221SOL     OW12688   1.632   5.101  11.253
 4221SOL    HW112689   1.600   5.195  11.243
 4221SOL    HW212690   1.556   5.038  11.241
 4222SOL     OW12691   0.464   5.467  11.495
 4222SOL    HW112692   0.497   5.506  11.581
 4222SOL    HW212693   0.540   5.460  11.430
 4223SOL     OW12694   1.400   3.831  11.598
 4223SOL    HW112695   1.376   3.794  11.508
 4223SOL    HW212696   1.499   3.847  11.602
 4224SOL     OW12697   0.249   5.509  12.413
 4224SOL    HW112698   0.306   5.444  12.463
 4224SOL    HW212699   0.233   5.476  12.320
 4225SOL     OW12700   0.940   5.422  12.076
 4225SOL    HW112701   1.020   5.365  12.097
 4225SOL    HW212702   0.891   5.382  11.999
 4226SOL     OW12703   0.382   4.424  11.652
 4226SOL    HW112704   0.427   4.334  11.649
 4226SOL    HW212705   0.288   4.413  11.685
 4227SOL     OW12706   0.614   3.846  11.289
 4227SOL    HW112707   0.712   3.824  11.296
 4227SOL    HW212708   0.583   3.829  11.196
 4228SOL     OW12709   0.888   5.238  12.367
 4228SOL    HW112710   0.865   5.213  12.273
 4228SOL    HW212711   0.949   5.169  12.406
 4229SOL     OW12712   0.803   5.126  12.096
 4229SOL    HW112713   0.893   5.140  12.054
 4229SOL    HW212714   0.732   5.128  12.025
 4230SOL     OW12715   0.922   4.227  12.071
 4230SOL    HW112716   0.897   4.218  11.975
 4230SOL    HW212717   0.970   4.145  12.102
 4231SOL     OW12718   0.539   3.788  11.684
 4231SOL    HW112719   0.458   3.789  11.742
 4231SOL    HW212720   0.542   3.871  11.629
 4232SOL     OW12721   1.434   4.912  11.213
 4232SOL    HW112722   1.466   4.836  11.270
 4232SOL    HW212723   1.342   4.939  11.243
 4233SOL     OW12724   0.297   3.759  11.343
 4233SOL    HW112725   0.346   3.843  11.322
 4233SOL    HW212726   0.359   3.694  11.388
 4234SOL     OW12727   0.935   3.960  11.652
 4234SOL    HW112728   0.887   4.001  11.574
 4234SOL    HW212729   1.034   3.958  11.633
 4235SOL     OW12730   1.227   5.294  11.965
 4235SOL    HW112731   1.248   5.368  11.900
 4235SOL    HW212732   1.295   5.294  12.038
 4236SOL     OW12733   0.459   4.876  11.913
 4236SOL    HW112734   0.388   4.849  11.978
 4236SOL    HW212735   0.433   4.848  11.820
 4237SOL     OW12736   1.271   5.521  11.763
 4237SOL    HW112737   1.315   5.585  11.699
 4237SOL    HW212738   1.221   5.573  11.833
 4238SOL     OW12739   1.032   4.273  11.188
 4238SOL    HW112740   0.991   4.355  11.149
 4238SOL    HW212741   1.096   4.299  11.261
 4239SOL     OW12742   0.078   4.280  12.558
 4239SOL    HW112743   0.170   4.279  12.517
 4239SOL    HW212744   0.072   4.354  12.625
 4240SOL     OW12745   0.561   3.946  12.319
 4240SOL    HW112746   0.599   3.862  12.356
 4240SOL    HW212747   0.473   3.965  12.363
 4241SOL     OW12748   0.866   4.178  11.814
 4241SOL    HW112749   0.834   4.250  11.752
 4241SOL    HW212750   0.890   4.097  11.761
 4242SOL     OW12751   1.017   3.763  11.925
 4242SOL    HW112752   0.945   3.768  11.856
 4242SOL    HW212753   0.993   3.694  11.994
 4243SOL     OW12754   1.429   4.897  12.039
 4243SOL    HW112755   1.374   4.813  12.032
 4243SOL    HW212756   1.455   4.926  11.947
 4244SOL     OW12757   1.466   4.314  12.164
 4244SOL    HW112758   1.436   4.219  12.171
 4244SOL    HW212759   1.539   4.330  12.230
 4245SOL     OW12760   1.857   4.557  11.549
 4245SOL    HW112761   1.899   4.493  11.613
 4245SOL    HW212762   1.819   4.506  11.471
 4246SOL     OW12763   0.488   5.109  11.346
 4246SOL    HW112764   0.401   5.094  11.393
 4246SOL    HW212765   0.471   5.135  11.251
 4247SOL     OW12766   1.664   5.004  11.829
 4247SOL    HW112767   1.763   5.012  11.843
 4247SOL    HW212768   1.619   5.088  11.860
 4248SOL     OW12769   1.390   4.299  11.250
 4248SOL    HW112770   1.336   4.278  11.331
 4248SOL    HW212771   1.481   4.258  11.259
 4249SOL     OW12772   0.527   3.980  11.500
 4249SOL    HW112773   0.554   3.921  11.425
 4249SOL    HW212774   0.527   4.075  11.469
 4250SOL     OW12775   1.064   5.071  12.512
 4250SOL    HW112776   0.984   5.048  12.567
 4250SOL    HW212777   1.147   5.045  12.561
 4251SOL     OW12778   1.111   4.919  12.272
 4251SOL    HW112779   1.071   4.963  12.353
 4251SOL    HW212780   1.070   4.956  12.189
 4252SOL     OW12781   1.638   4.823  12.251
 4252SOL    HW112782   1.643   4.904  12.310
 4252SOL    HW212783   1.552   4.825  12.200
 4253SOL     OW12784   0.915   3.813  12.574
 4253SOL    HW112785   0.940   3.793  12.479
 4253SOL    HW212786   0.987   3.869  12.616
 4254SOL     OW12787   0.705   4.774  11.540
 4254SOL    HW112788   0.691   4.781  11.639
 4254SOL    HW212789   0.789   4.723  11.522
 4255SOL     OW12790   0.410   4.537  12.423
 4255SOL    HW112791   0.496   4.549  12.473
 4255SOL    HW212792   0.368   4.450  12.450
 4256SOL     OW12793   1.274   4.110  12.434
 4256SOL    HW112794   1.295   4.184  12.498
 4256SOL    HW212795   1.185   4.127  12.391
 4257SOL     OW12796   0.064   5.288  12.503
 4257SOL    HW112797   0.018   5.370  12.469
 4257SOL    HW212798   0.162   5.307  12.512
 4258SOL     OW12799   0.367   4.824  11.673
 4258SOL    HW112800   0.360   4.907  11.617
 4258SOL    HW212801   0.371   4.744  11.613
 4259SOL     OW12802   0.566   4.261  12.037
 4259SOL    HW112803   0.578   4.327  11.963
 4259SOL    HW212804   0.612   4.295  12.120
 4260SOL     OW12805   1.252   5.072  11.560
 4260SOL    HW112806   1.302   5.149  11.600
 4260SOL    HW212807   1.157   5.074  11.592
 4261SOL     OW12808   1.272   5.169  12.314
 4261SOL    HW112809   1.319   5.182  12.401
 4261SOL    HW212810   1.206   5.095  12.323
 4262SOL     OW12811   1.582   4.363  11.644
 4262SOL    HW112812   1.551   4.424  11.717
 4262SOL    HW212813   1.632   4.415  11.575
 4263SOL     OW12814   0.354   5.234  12.501
 4263SOL    HW112815   0.333   5.190  12.414
 4263SOL    HW212816   0.451   5.260  12.504
 4264SOL     OW12817   0.402   4.475  12.770
 4264SOL    HW112818   0.470   4.530  12.723
 4264SOL    HW212819   0.442   4.387  12.797
 4265SOL     OW12820   1.587   4.503  12.842
 4265SOL    HW112821   1.495   4.541  12.837
 4265SOL    HW212822   1.647   4.550  12.777
 4266SOL     OW12823   0.573   4.594  12.201
 4266SOL    HW112824   0.617   4.683  12.192
 4266SOL    HW212825   0.510   4.594  12.278
 4267SOL     OW12826   1.360   4.586  12.217
 4267SOL    HW112827   1.285   4.586  12.151
 4267SOL    HW212828   1.397   4.494  12.226
 4268SOL     OW12829   1.209   4.249  11.447
 4268SOL    HW112830   1.222   4.165  11.501
 4268SOL    HW212831   1.180   4.323  11.507
 4269SOL     OW12832   0.307   3.937  12.403
 4269SOL    HW112833   0.284   3.974  12.493
 4269SOL    HW212834   0.277   3.842  12.397
 4270SOL     OW12835   0.037   5.034  12.454
 4270SOL    HW112836   0.090   4.985  12.522
 4270SOL    HW212837   0.059   5.132  12.459
 4271SOL     OW12838   0.732   4.358  12.236
 4271SOL    HW112839   0.791   4.332  12.160
 4271SOL    HW212840   0.704   4.454  12.225
 4272SOL     OW12841   0.307   3.787  11.790
 4272SOL    HW112842   0.296   3.881  11.823
 4272SOL    HW212843   0.302   3.724  11.867
 4273SOL     OW12844   1.622   4.091  11.546
 4273SOL    HW112845   1.624   4.015  11.610
 4273SOL    HW212846   1.574   4.168  11.586
 4274SOL     OW12847   1.023   4.490  12.138
 4274SOL    HW112848   1.038   4.511  12.234
 4274SOL    HW212849   0.993   4.395  12.129
 4275SOL     OW12850   0.980   5.297  12.872
 4275SOL    HW112851   0.960   5.341  12.784
 4275SOL    HW212852   1.019   5.206  12.856
 4276SOL     OW12853   1.540   3.998  11.297
 4276SOL    HW112854   1.479   3.923  11.320
 4276SOL    HW212855   1.562   4.050  11.380
 4277SOL     OW12856   1.303   4.562  11.214
 4277SOL    HW112857   1.337   4.469  11.229
 4277SOL    HW212858   1.321   4.589  11.119
 4278SOL     OW12859   1.068   5.057  12.021
 4278SOL    HW112860   1.075   4.973  11.966
 4278SOL    HW212861   1.130   5.126  11.985
 4279SOL     OW12862   0.319   4.534  12.121
 4279SOL    HW112863   0.412   4.570  12.126
 4279SOL    HW212864   0.313   4.449  12.173
 4280SOL     OW12865   0.339   4.233  12.178
 4280SOL    HW112866   0.287   4.150  12.161
 4280SOL    HW212867   0.416   4.238  12.114
 4281SOL     OW12868   1.138   4.104  12.850
 4281SOL    HW112869   1.093   4.167  12.914
 4281SOL    HW212870   1.231   4.135  12.833
 4282SOL     OW12871   1.160   3.931  12.649
 4282SOL    HW112872   1.160   3.995  12.726
 4282SOL    HW212873   1.188   3.979  12.566
 4283SOL     OW12874   0.008   5.050  11.372
 4283SOL    HW112875  -0.085   5.071  11.341
 4283SOL    HW212876   0.018   4.951  11.385
 4284SOL     OW12877   0.088   5.525  12.099
 4284SOL    HW112878   0.046   5.439  12.072
 4284SOL    HW212879   0.182   5.528  12.065
 4285SOL     OW12880   0.504   5.292  12.082
 4285SOL    HW112881   0.570   5.366  12.091
 4285SOL    HW212882   0.548   5.213  12.040
 4286SOL     OW12883   1.002   4.520  12.410
 4286SOL    HW112884   1.043   4.488  12.496
 4286SOL    HW212885   0.906   4.493  12.407
 4287SOL     OW12886   0.040   4.268  12.286
 4287SOL    HW112887   0.125   4.235  12.245
 4287SOL    HW212888   0.053   4.283  12.384
 4288SOL     OW12889   0.815   4.296  11.497
 4288SOL    HW112890   0.822   4.207  11.451
 4288SOL    HW212891   0.721   4.330  11.489
 4289SOL     OW12892   1.657   4.328  12.378
 4289SOL    HW112893   1.619   4.259  12.440
 4289SOL    HW212894   1.739   4.292  12.334
 4290SOL     OW12895   0.671   4.188  12.441
 4290SOL    HW112896   0.637   4.099  12.411
 4290SOL    HW212897   0.697   4.242  12.361
 4291SOL     OW12898   0.930   5.402  12.637
 4291SOL    HW112899   0.906   5.384  12.542
 4291SOL    HW212900   0.960   5.496  12.647
 4292SOL     OW12901   0.473   4.224  11.363
 4292SOL    HW112902   0.534   4.304  11.367
 4292SOL    HW212903   0.378   4.255  11.370
 4293SOL     OW12904   0.159   4.861  12.638
 4293SOL    HW112905   0.181   4.800  12.714
 4293SOL    HW212906   0.169   4.812  12.552
 4294SOL     OW12907   1.347   4.783  12.406
 4294SOL    HW112908   1.371   4.720  12.332
 4294SOL    HW212909   1.257   4.823  12.388
 4295SOL     OW12910   1.302   4.579  11.481
 4295SOL    HW112911   1.216   4.548  11.523
 4295SOL    HW212912   1.298   4.565  11.382
 4296SOL     OW12913   1.759   5.471  12.326
 4296SOL    HW112914   1.820   5.501  12.253
 4296SOL    HW212915   1.721   5.382  12.304
 4297SOL     OW12916   1.252   5.455  12.300
 4297SOL    HW112917   1.336   5.460  12.246
 4297SOL    HW212918   1.229   5.359  12.318
 4298SOL     OW12919   0.083   4.982  12.194
 4298SOL    HW112920   0.078   4.981  12.294
 4298SOL    HW212921   0.000   4.941  12.156
 4299SOL     OW12922   1.726   3.859  11.695
 4299SOL    HW112923   1.799   3.842  11.628
 4299SOL    HW212924   1.695   3.772  11.733
 4300SOL     OW12925   1.388   5.297  11.649
 4300SOL    HW112926   1.455   5.309  11.575
 4300SOL    HW212927   1.348   5.386  11.672
 4301SOL     OW12928   1.280   4.651  11.844
 4301SOL    HW112929   1.340   4.570  11.846
 4301SOL    HW212930   1.320   4.720  11.784
 4302SOL     OW12931   0.672   5.340  11.326
 4302SOL    HW112932   0.681   5.350  11.227
 4302SOL    HW212933   0.632   5.251  11.347
 4303SOL     OW12934   1.650   5.444  12.566
 4303SOL    HW112935   1.703   5.454  12.482
 4303SOL    HW212936   1.623   5.534  12.600
 4304SOL     OW12937   1.841   3.899  12.135
 4304SOL    HW112938   1.880   3.814  12.099
 4304SOL    HW212939   1.743   3.901  12.116
 4305SOL     OW12940   0.263   4.050  11.892
 4305SOL    HW112941   0.184   4.101  11.858
 4305SOL    HW212942   0.254   4.035  11.990
 4306SOL     OW12943   1.194   5.336  11.203
 4306SOL    HW112944   1.200   5.243  11.240
 4306SOL    HW212945   1.135   5.336  11.123
 4307SOL     OW12946   0.822   4.726  12.544
 4307SOL    HW112947   0.862   4.725  12.452
 4307SOL    HW212948   0.832   4.818  12.584
 4308SOL     OW12949   0.916   4.634  11.463
 4308SOL    HW112950   0.979   4.672  11.395
 4308SOL    HW212951   0.956   4.551  11.502
 4309SOL     OW12952   1.504   5.331  11.216
 4309SOL    HW112953   1.412   5.368  11.223
 4309SOL    HW212954   1.542   5.351  11.126
 4310SOL     OW12955   0.372   5.012  12.662
 4310SOL    HW112956   0.359   5.105  12.628
 4310SOL    HW212957   0.288   4.960  12.649
 4311SOL     OW12958   1.614   5.016  12.461
 4311SOL    HW112959   1.674   5.019  12.541
 4311SOL    HW212960   1.539   5.080  12.474
 4312SOL     OW12961   1.039   4.822  11.868
 4312SOL    HW112962   0.969   4.775  11.922
 4312SOL    HW212963   1.098   4.754  11.825
 4313SOL     OW12964   1.014   3.960  12.143
 4313SOL    HW112965   1.006   3.924  12.050
 4313SOL    HW212966   1.012   3.884  12.208
 4314SOL     OW12967   0.590   5.211  11.663
 4314SOL    HW112968   0.632   5.153  11.593
 4314SOL    HW212969   0.546   5.290  11.619
 4315SOL     OW12970   1.709   4.109  12.553
 4315SOL    HW112971   1.782   4.178  12.557
 4315SOL    HW212972   1.737   4.034  12.494
 4316SOL     OW12973   0.255   5.072  11.462
 4316SOL    HW112974   0.159   5.073  11.435
 4316SOL    HW212975   0.267   5.125  11.546
 4317SOL     OW12976   0.075   4.069  11.205
 4317SOL    HW112977  -0.017   4.041  11.176
 4317SOL    HW212978   0.106   4.146  11.149
 4318SOL     OW12979   1.440   4.580  12.570
 4318SOL    HW112980   1.383   4.632  12.507
 4318SOL    HW212981   1.536   4.592  12.546
 4319SOL     OW12982   0.072   3.890  11.490
 4319SOL    HW112983   0.055   3.973  11.436
 4319SOL    HW212984   0.162   3.853  11.468
 4320SOL     OW12985   1.183   5.059  11.291
 4320SOL    HW112986   1.084   5.048  11.293
 4320SOL    HW212987   1.217   5.074  11.384
 4321SOL     OW12988   0.613   4.566  12.603
 4321SOL    HW112989   0.669   4.647  12.586
 4321SOL    HW212990   0.672   4.486  12.606
 4322SOL     OW12991   1.493   5.491  12.131
 4322SOL    HW112992   1.526   5.555  12.062
 4322SOL    HW212993   1.559   5.485  12.206
 4323SOL     OW12994   0.390   5.465  12.732
 4323SOL    HW112995   0.299   5.506  12.730
 4323SOL    HW212996   0.383   5.371  12.764
 4324SOL     OW12997   1.674   4.607  12.426
 4324SOL    HW112998   1.647   4.518  12.389
 4324SOL    HW212999   1.675   4.675  12.353
 4325SOL     OW13000   1.225   4.049  11.621
 4325SOL    HW113001   1.290   3.975  11.610
 4325SOL    HW213002   1.245   4.099  11.705
 4326SOL     OW13003   0.594   4.469  11.824
 4326SOL    HW113004   0.644   4.554  11.805
 4326SOL    HW213005   0.506   4.471  11.776
 4327SOL     OW13006   1.777   4.066  12.814
 4327SOL    HW113007   1.760   4.097  12.720
 4327SOL    HW213008   1.693   4.029  12.852
 4328SOL     OW13009   1.730   4.658  12.689
 4328SOL    HW113010   1.768   4.749  12.704
 4328SOL    HW213011   1.722   4.641  12.590
 4329SOL     OW13012   0.859   5.098  11.188
 4329SOL    HW113013   0.813   5.113  11.276
 4329SOL    HW213014   0.903   5.183  11.158
 4330SOL     OW13015   0.661   5.514  12.125
 4330SOL    HW113016   0.615   5.602  12.112
 4330SOL    HW213017   0.760   5.526  12.118
 4331SOL     OW13018   0.859   4.680  12.033
 4331SOL    HW113019   0.913   4.611  12.081
 4331SOL    HW213020   0.827   4.749  12.099
 4332SOL     OW13021   1.083   4.708  11.259
 4332SOL    HW113022   1.060   4.761  11.177
 4332SOL    HW213023   1.164   4.652  11.240
 4333SOL     OW13024   1.861   5.293  12.023
 4333SOL    HW113025   1.790   5.281  11.953
 4333SOL    HW213026   1.862   5.214  12.083
 4334SOL     OW13027   0.079   4.964  11.825
 4334SOL    HW113028   0.078   4.917  11.913
 4334SOL    HW213029   0.161   4.936  11.774
 4335SOL     OW13030   1.824   3.916  12.399
 4335SOL    HW113031   1.820   3.826  12.443
 4335SOL    HW213032   1.827   3.905  12.300
 4336SOL     OW13033   0.428   4.148  11.692
 4336SOL    HW113034   0.458   4.076  11.630
 4336SOL    HW213035   0.389   4.108  11.775
 4337SOL     OW13036   1.705   5.211  12.276
 4337SOL    HW113037   1.612   5.186  12.249
 4337SOL    HW213038   1.731   5.161  12.358
 4338SOL     OW13039   0.317   4.271  12.452
 4338SOL    HW113040   0.355   4.212  12.524
 4338SOL    HW213041   0.357   4.245  12.364
 4339SOL     OW13042   0.812   5.310  11.859
 4339SOL    HW113043   0.844   5.320  11.765
 4339SOL    HW213044   0.733   5.248  11.861
 4340SOL     OW13045   1.424   3.938  12.284
 4340SOL    HW113046   1.476   3.873  12.339
 4340SOL    HW213047   1.375   4.001  12.345
 4341SOL     OW13048   1.001   3.758  12.326
 4341SOL    HW113049   0.938   3.686  12.295
 4341SOL    HW213050   1.094   3.722  12.326
 4342SOL     OW13051   0.770   5.054  11.473
 4342SOL    HW113052   0.724   4.967  11.490
 4342SOL    HW213053   0.861   5.051  11.514
 4343SOL     OW13054   0.618   5.291  12.456
 4343SOL    HW113055   0.613   5.373  12.513
 4343SOL    HW213056   0.707   5.288  12.411
 4344SOL     OW13057   1.352   3.776  11.340
 4344SOL    HW113058   1.387   3.735  11.256
 4344SOL    HW213059   1.262   3.738  11.360
 4345SOL     OW13060   1.300   4.177  11.863
 4345SOL    HW113061   1.241   4.257  11.867
 4345SOL    HW213062   1.315   4.142  11.956
 4346SOL     OW13063   1.593   3.945  12.054
 4346SOL    HW113064   1.509   3.944  12.108
 4346SOL    HW213065   1.595   4.028  11.998
 4347SOL     OW13066   0.039   4.801  11.472
 4347SOL    HW113067   0.138   4.790  11.463
 4347SOL    HW213068  -0.001   4.715  11.504
 4348SOL     OW13069   0.875   5.370  11.509
 4348SOL    HW113070   0.798   5.335  11.455
 4348SOL    HW213071   0.843   5.441  11.571
 4349SOL     OW13072   0.230   6.214   0.113
 4349SOL    HW113073   0.137   6.212   0.150
 4349SOL    HW213074   0.231   6.175   0.021
 4350SOL     OW13075   0.225   5.861   0.996
 4350SOL    HW113076   0.260   5.844   1.088
 4350SOL    HW213077   0.137   5.816   0.984
 4351SOL     OW13078   0.019   5.954   0.647
 4351SOL    HW113079  -0.063   5.997   0.686
 4351SOL    HW213080  -0.009   5.881   0.584
 4352SOL     OW13081   0.569   6.861   1.165
 4352SOL    HW113082   0.476   6.854   1.128
 4352SOL    HW213083   0.580   6.950   1.209
 4353SOL     OW13084   1.555   7.097   0.703
 4353SOL    HW113085   1.498   7.081   0.784
 4353SOL    HW213086   1.496   7.107   0.623
 4354SOL     OW13087   1.135   6.289   0.717
 4354SOL    HW113088   1.192   6.367   0.692
 4354SOL    HW213089   1.075   6.315   0.793
 4355SOL     OW13090   1.755   6.193   0.231
 4355SOL    HW113091   1.743   6.180   0.132
 4355SOL    HW213092   1.725   6.112   0.280
 4356SOL     OW13093   0.768   6.730   1.023
 4356SOL    HW113094   0.690   6.747   1.083
 4356SOL    HW213095   0.802   6.817   0.987
 4357SOL     OW13096   0.850   6.384   1.823
 4357SOL    HW113097   0.846   6.460   1.888
 4357SOL    HW213098   0.872   6.420   1.732
 4358SOL     OW13099   0.685   6.598   0.665
 4358SOL    HW113100   0.754   6.582   0.735
 4358SOL    HW213101   0.612   6.655   0.703
 4359SOL     OW13102   0.686   6.747   1.803
 4359SOL    HW113103   0.746   6.826   1.817
 4359SOL    HW213104   0.600   6.778   1.762
 4360SOL     OW13105   0.335   7.021   1.061
 4360SOL    HW113106   0.257   6.990   1.008
 4360SOL    HW213107   0.393   7.079   1.004
 4361SOL     OW13108   1.460   7.091   1.339
 4361SOL    HW113109   1.484   7.185   1.365
 4361SOL    HW213110   1.444   7.037   1.421
 4362SOL     OW13111   0.438   5.978   1.499
 4362SOL    HW113112   0.520   5.922   1.508
 4362SOL    HW213113   0.357   5.920   1.503
 4363SOL     OW13114   1.603   6.033   0.737
 4363SOL    HW113115   1.529   6.079   0.687
 4363SOL    HW213116   1.654   6.101   0.790
 4364SOL     OW13117   0.231   7.299   0.483
 4364SOL    HW113118   0.265   7.376   0.537
 4364SOL    HW213119   0.275   7.299   0.393
 4365SOL     OW13120   1.127   6.927   1.690
 4365SOL    HW113121   1.174   6.927   1.778
 4365SOL    HW213122   1.079   6.840   1.679
 4366SOL     OW13123   0.230   7.020   0.538
 4366SOL    HW113124   0.204   7.116   0.538
 4366SOL    HW213125   0.159   6.966   0.583
 4367SOL     OW13126   0.240   6.677   0.886
 4367SOL    HW113127   0.254   6.593   0.938
 4367SOL    HW213128   0.185   6.741   0.941
 4368SOL     OW13129   0.620   7.372   1.439
 4368SOL    HW113130   0.528   7.355   1.474
 4368SOL    HW213131   0.648   7.464   1.465
 4369SOL     OW13132   0.606   6.550   0.123
 4369SOL    HW113133   0.613   6.634   0.069
 4369SOL    HW213134   0.652   6.563   0.211
 4370SOL     OW13135   1.594   5.700   1.480
 4370SOL    HW113136   1.576   5.767   1.408
 4370SOL    HW213137   1.591   5.746   1.569
 4371SOL     OW13138   0.122   6.229   0.563
 4371SOL    HW113139   0.077   6.141   0.580
 4371SOL    HW213140   0.121   6.283   0.647
 4372SOL     OW13141   1.842   7.353   0.359
 4372SOL    HW113142   1.896   7.324   0.439
 4372SOL    HW213143   1.872   7.443   0.330
 4373SOL     OW13144   0.027   7.182   0.117
 4373SOL    HW113145   0.008   7.086   0.138
 4373SOL    HW213146  -0.006   7.240   0.192
 4374SOL     OW13147   1.689   6.508   0.612
 4374SOL    HW113148   1.784   6.479   0.620
 4374SOL    HW213149   1.681   6.573   0.537
 4375SOL     OW13150   1.641   6.694   0.432
 4375SOL    HW113151   1.727   6.696   0.380
 4375SOL    HW213152   1.655   6.741   0.520
 4376SOL     OW13153   0.113   6.323   1.597
 4376SOL    HW113154   0.201   6.310   1.642
 4376SOL    HW213155   0.100   6.420   1.575
 4377SOL     OW13156   0.613   6.951   0.726
 4377SOL    HW113157   0.564   6.864   0.735
 4377SOL    HW213158   0.590   6.994   0.639
 4378SOL     OW13159   1.293   6.814   1.423
 4378SOL    HW113160   1.330   6.741   1.365
 4378SOL    HW213161   1.345   6.819   1.508
 4379SOL     OW13162   0.809   5.590   0.502
 4379SOL    HW113163   0.849   5.681   0.493
 4379SOL    HW213164   0.709   5.598   0.508
 4380SOL     OW13165   0.197   6.562   1.264
 4380SOL    HW113166   0.286   6.517   1.250
 4380SOL    HW213167   0.124   6.497   1.245
 4381SOL     OW13168   1.525   6.585   0.190
 4381SOL    HW113169   1.462   6.509   0.203
 4381SOL    HW213170   1.573   6.603   0.276
 4382SOL     OW13171   1.187   7.378   1.616
 4382SOL    HW113172   1.211   7.438   1.540
 4382SOL    HW213173   1.194   7.283   1.586
 4383SOL     OW13174   0.317   5.837   1.801
 4383SOL    HW113175   0.388   5.908   1.807
 4383SOL    HW213176   0.229   5.876   1.829
 4384SOL     OW13177   1.466   7.003   0.953
 4384SOL    HW113178   1.407   7.009   1.033
 4384SOL    HW213179   1.451   6.915   0.907
 4385SOL     OW13180   1.667   7.300   0.572
 4385SOL    HW113181   1.626   7.277   0.484
 4385SOL    HW213182   1.649   7.226   0.637
 4386SOL     OW13183   0.598   6.315   0.270
 4386SOL    HW113184   0.622   6.384   0.202
 4386SOL    HW213185   0.520   6.348   0.324
 4387SOL     OW13186   1.281   5.931   0.944
 4387SOL    HW113187   1.195   5.881   0.931
 4387SOL    HW213188   1.343   5.877   1.000
 4388SOL     OW13189   1.576   7.248   0.307
 4388SOL    HW113190   1.665   7.294   0.310
 4388SOL    HW213191   1.555   7.224   0.212
 4389SOL     OW13192   0.807   6.191   1.465
 4389SOL    HW113193   0.760   6.188   1.554
 4389SOL    HW213194   0.756   6.136   1.399
 4390SOL     OW13195   1.394   6.055   1.674
 4390SOL    HW113196   1.374   6.098   1.762
 4390SOL    HW213197   1.472   5.993   1.683
 4391SOL     OW13198   0.973   6.476   1.572
 4391SOL    HW113199   1.019   6.392   1.543
 4391SOL    HW213200   0.917   6.510   1.497
 4392SOL     OW13201   0.991   5.996   1.242
 4392SOL    HW113202   0.914   6.030   1.296
 4392SOL    HW213203   0.957   5.945   1.163
 4393SOL     OW13204   1.041   6.287   0.429
 4393SOL    HW113205   1.067   6.283   0.525
 4393SOL    HW213206   0.956   6.236   0.415
 4394SOL     OW13207   0.076   6.397   0.789
 4394SOL    HW113208   0.175   6.385   0.798
 4394SOL    HW213209   0.052   6.492   0.810
 4395SOL     OW13210   0.130   7.407   1.571
 4395SOL    HW113211   0.120   7.392   1.670
 4395SOL    HW213212   0.044   7.443   1.535
 4396SOL     OW13213   0.865   5.934   0.195
 4396SOL    HW113214   0.924   5.997   0.146
 4396SOL    HW213215   0.884   5.840   0.166
 4397SOL     OW13216   1.719   6.171   1.831
 4397SOL    HW113217   1.693   6.260   1.795
 4397SOL    HW213218   1.717   6.103   1.758
 4398SOL     OW13219   1.362   6.730   0.545
 4398SOL    HW113220   1.445   6.701   0.497
 4398SOL    HW213221   1.313   6.797   0.489
 4399SOL     OW13222   0.550   5.782   0.885
 4399SOL    HW113223   0.545   5.777   0.985
 4399SOL    HW213224   0.552   5.878   0.856
 4400SOL     OW13225   1.008   7.042   0.477
 4400SOL    HW113226   0.962   7.114   0.425
 4400SOL    HW213227   1.004   7.062   0.575
 4401SOL     OW13228   0.351   7.387   0.853
 4401SOL    HW113229   0.401   7.301   0.859
 4401SOL    HW213230   0.416   7.464   0.850
 4402SOL     OW13231   1.795   6.652   0.873
 4402SOL    HW113232   1.733   6.637   0.797
 4402SOL    HW213233   1.743   6.663   0.958
 4403SOL     OW13234   1.227   7.136   1.506
 4403SOL    HW113235   1.233   7.059   1.570
 4403SOL    HW213236   1.175   7.110   1.426
 4404SOL     OW13237   0.321   6.529   0.242
 4404SOL    HW113238   0.403   6.568   0.200
 4404SOL    HW213239   0.294   6.447   0.193
 4405SOL     OW13240   1.458   6.321   0.728
 4405SOL    HW113241   1.453   6.256   0.803
 4405SOL    HW213242   1.538   6.380   0.741
 4406SOL     OW13243   0.461   6.852   1.727
 4406SOL    HW113244   0.411   6.853   1.641
 4406SOL    HW213245   0.398   6.834   1.803
 4407SOL     OW13246   1.111   7.362   0.237
 4407SOL    HW113247   1.051   7.300   0.287
 4407SOL    HW213248   1.142   7.318   0.152
 4408SOL     OW13249   0.202   5.871   1.498
 4408SOL    HW113250   0.122   5.931   1.485
 4408SOL    HW213251   0.192   5.822   1.584
 4409SOL     OW13252   1.632   6.963   0.081
 4409SOL    HW113253   1.600   7.057   0.071
 4409SOL    HW213254   1.556   6.900   0.069
 4410SOL     OW13255   0.464   7.329   0.323
 4410SOL    HW113256   0.497   7.368   0.409
 4410SOL    HW213257   0.540   7.322   0.258
 4411SOL     OW13258   1.400   5.693   0.426
 4411SOL    HW113259   1.376   5.656   0.336
 4411SOL    HW213260   1.499   5.709   0.430
 4412SOL     OW13261   0.249   7.371   1.241
 4412SOL    HW113262   0.306   7.306   1.291
 4412SOL    HW213263   0.233   7.338   1.148
 4413SOL     OW13264   0.940   7.284   0.904
 4413SOL    HW113265   1.020   7.227   0.925
 4413SOL    HW213266   0.891   7.244   0.827
 4414SOL     OW13267   0.382   6.286   0.480
 4414SOL    HW113268   0.427   6.196   0.477
 4414SOL    HW213269   0.288   6.275   0.513
 4415SOL     OW13270   1.547   5.808   1.729
 4415SOL    HW113271   1.542   5.845   1.821
 4415SOL    HW213272   1.475   5.739   1.717
 4416SOL     OW13273   0.614   5.708   0.117
 4416SOL    HW113274   0.712   5.686   0.124
 4416SOL    HW213275   0.583   5.691   0.024
 4417SOL     OW13276   0.781   5.850   1.749
 4417SOL    HW113277   0.848   5.789   1.792
 4417SOL    HW213278   0.708   5.869   1.814
 4418SOL     OW13279   0.888   7.100   1.195
 4418SOL    HW113280   0.865   7.075   1.101
 4418SOL    HW213281   0.949   7.031   1.234
 4419SOL     OW13282   1.351   6.176   1.433
 4419SOL    HW113283   1.379   6.133   1.518
 4419SOL    HW213284   1.376   6.272   1.434
 4420SOL     OW13285   0.803   6.988   0.924
 4420SOL    HW113286   0.893   7.002   0.882
 4420SOL    HW213287   0.732   6.990   0.853
 4421SOL     OW13288   0.922   6.089   0.899
 4421SOL    HW113289   0.897   6.080   0.803
 4421SOL    HW213290   0.970   6.007   0.930
 4422SOL     OW13291   0.539   5.650   0.512
 4422SOL    HW113292   0.458   5.651   0.570
 4422SOL    HW213293   0.542   5.733   0.457
 4423SOL     OW13294   1.434   6.774   0.041
 4423SOL    HW113295   1.466   6.698   0.098
 4423SOL    HW213296   1.342   6.801   0.071
 4424SOL     OW13297   0.297   5.621   0.171
 4424SOL    HW113298   0.346   5.705   0.150
 4424SOL    HW213299   0.359   5.556   0.216
 4425SOL     OW13300   0.935   5.822   0.480
 4425SOL    HW113301   0.887   5.863   0.402
 4425SOL    HW213302   1.034   5.820   0.461
 4426SOL     OW13303   1.076   6.269   1.464
 4426SOL    HW113304   0.996   6.208   1.467
 4426SOL    HW213305   1.157   6.216   1.440
 4427SOL     OW13306   1.227   7.156   0.793
 4427SOL    HW113307   1.248   7.230   0.728
 4427SOL    HW213308   1.295   7.156   0.866
 4428SOL     OW13309   0.459   6.738   0.741
 4428SOL    HW113310   0.388   6.711   0.806
 4428SOL    HW213311   0.433   6.710   0.648
 4429SOL     OW13312   1.271   7.383   0.591
 4429SOL    HW113313   1.315   7.447   0.527
 4429SOL    HW213314   1.221   7.435   0.661
 4430SOL     OW13315   1.032   6.135   0.016
 4430SOL    HW113316   0.991   6.217  -0.023
 4430SOL    HW213317   1.096   6.161   0.089
 4431SOL     OW13318   0.078   6.142   1.386
 4431SOL    HW113319   0.170   6.141   1.345
 4431SOL    HW213320   0.072   6.216   1.453
 4432SOL     OW13321   0.561   5.808   1.147
 4432SOL    HW113322   0.599   5.724   1.184
 4432SOL    HW213323   0.473   5.827   1.191
 4433SOL     OW13324   0.866   6.040   0.642
 4433SOL    HW113325   0.834   6.112   0.580
 4433SOL    HW213326   0.890   5.959   0.589
 4434SOL     OW13327   1.017   5.625   0.753
 4434SOL    HW113328   0.945   5.630   0.684
 4434SOL    HW213329   0.993   5.556   0.822
 4435SOL     OW13330   1.429   6.759   0.867
 4435SOL    HW113331   1.374   6.675   0.860
 4435SOL    HW213332   1.455   6.788   0.775
 4436SOL     OW13333   1.466   6.176   0.992
 4436SOL    HW113334   1.436   6.081   0.999
 4436SOL    HW213335   1.539   6.192   1.058
 4437SOL     OW13336   1.857   6.419   0.377
 4437SOL    HW113337   1.899   6.355   0.441
 4437SOL    HW213338   1.819   6.368   0.299
 4438SOL     OW13339   0.488   6.971   0.174
 4438SOL    HW113340   0.401   6.956   0.221
 4438SOL    HW213341   0.471   6.997   0.079
 4439SOL     OW13342   1.664   6.866   0.657
 4439SOL    HW113343   1.763   6.874   0.671
 4439SOL    HW213344   1.619   6.950   0.688
 4440SOL     OW13345   1.390   6.161   0.078
 4440SOL    HW113346   1.336   6.140   0.159
 4440SOL    HW213347   1.481   6.120   0.087
 4441SOL     OW13348   0.527   5.842   0.328
 4441SOL    HW113349   0.554   5.783   0.253
 4441SOL    HW213350   0.527   5.937   0.297
 4442SOL     OW13351   1.754   6.809   1.588
 4442SOL    HW113352   1.845   6.770   1.575
 4442SOL    HW213353   1.762   6.905   1.612
 4443SOL     OW13354   1.064   6.933   1.340
 4443SOL    HW113355   0.984   6.910   1.395
 4443SOL    HW213356   1.147   6.907   1.389
 4444SOL     OW13357   1.592   7.215   1.625
 4444SOL    HW113358   1.619   7.249   1.535
 4444SOL    HW213359   1.671   7.177   1.671
 4445SOL     OW13360   1.111   6.781   1.100
 4445SOL    HW113361   1.071   6.825   1.181
 4445SOL    HW213362   1.070   6.818   1.017
 4446SOL     OW13363   1.638   6.685   1.079
 4446SOL    HW113364   1.643   6.766   1.138
 4446SOL    HW213365   1.552   6.687   1.028
 4447SOL     OW13366   0.915   5.675   1.402
 4447SOL    HW113367   0.940   5.655   1.307
 4447SOL    HW213368   0.987   5.731   1.444
 4448SOL     OW13369   0.980   6.702   1.719
 4448SOL    HW113370   0.881   6.708   1.729
 4448SOL    HW213371   1.003   6.622   1.663
 4449SOL     OW13372   0.705   6.636   0.368
 4449SOL    HW113373   0.691   6.643   0.467
 4449SOL    HW213374   0.789   6.585   0.350
 4450SOL     OW13375   0.410   6.399   1.251
 4450SOL    HW113376   0.496   6.411   1.301
 4450SOL    HW213377   0.368   6.312   1.278
 4451SOL     OW13378   1.274   5.972   1.262
 4451SOL    HW113379   1.295   6.046   1.326
 4451SOL    HW213380   1.185   5.989   1.219
 4452SOL     OW13381   0.064   7.150   1.331
 4452SOL    HW113382   0.018   7.232   1.297
 4452SOL    HW213383   0.162   7.169   1.340
 4453SOL     OW13384   0.367   6.686   0.501
 4453SOL    HW113385   0.360   6.769   0.445
 4453SOL    HW213386   0.371   6.606   0.441
 4454SOL     OW13387   0.566   6.123   0.865
 4454SOL    HW113388   0.578   6.189   0.791
 4454SOL    HW213389   0.612   6.157   0.948
 4455SOL     OW13390   1.252   6.934   0.388
 4455SOL    HW113391   1.302   7.011   0.428
 4455SOL    HW213392   1.157   6.936   0.420
 4456SOL     OW13393   1.272   7.031   1.142
 4456SOL    HW113394   1.319   7.044   1.229
 4456SOL    HW213395   1.206   6.957   1.151
 4457SOL     OW13396   1.582   6.225   0.472
 4457SOL    HW113397   1.551   6.286   0.545
 4457SOL    HW213398   1.632   6.277   0.403
 4458SOL     OW13399   0.354   7.096   1.329
 4458SOL    HW113400   0.333   7.052   1.242
 4458SOL    HW213401   0.451   7.122   1.332
 4459SOL     OW13402   0.402   6.337   1.598
 4459SOL    HW113403   0.470   6.392   1.551
 4459SOL    HW213404   0.442   6.249   1.625
 4460SOL     OW13405   1.587   6.365   1.670
 4460SOL    HW113406   1.495   6.403   1.665
 4460SOL    HW213407   1.647   6.412   1.605
 4461SOL     OW13408   1.013   5.691   1.770
 4461SOL    HW113409   1.019   5.776   1.718
 4461SOL    HW213410   1.045   5.615   1.713
 4462SOL     OW13411   0.504   5.636   1.740
 4462SOL    HW113412   0.462   5.579   1.670
 4462SOL    HW213413   0.438   5.705   1.772
 4463SOL     OW13414   0.573   6.456   1.029
 4463SOL    HW113415   0.617   6.545   1.020
 4463SOL    HW213416   0.510   6.456   1.106
 4464SOL     OW13417   1.360   6.448   1.045
 4464SOL    HW113418   1.285   6.448   0.979
 4464SOL    HW213419   1.397   6.356   1.054
 4465SOL     OW13420   1.209   6.111   0.275
 4465SOL    HW113421   1.222   6.027   0.329
 4465SOL    HW213422   1.180   6.185   0.335
 4466SOL     OW13423   0.307   5.799   1.231
 4466SOL    HW113424   0.284   5.836   1.321
 4466SOL    HW213425   0.277   5.704   1.225
 4467SOL     OW13426   0.037   6.896   1.282
 4467SOL    HW113427   0.090   6.847   1.350
 4467SOL    HW213428   0.059   6.994   1.287
 4468SOL     OW13429   0.732   6.220   1.064
 4468SOL    HW113430   0.791   6.194   0.988
 4468SOL    HW213431   0.704   6.316   1.053
 4469SOL     OW13432   1.728   6.521   1.854
 4469SOL    HW113433   1.682   6.514   1.765
 4469SOL    HW213434   1.666   6.565   1.920
 4470SOL     OW13435   0.307   5.649   0.618
 4470SOL    HW113436   0.296   5.743   0.651
 4470SOL    HW213437   0.302   5.586   0.695
 4471SOL     OW13438   1.622   5.953   0.374
 4471SOL    HW113439   1.624   5.877   0.438
 4471SOL    HW213440   1.574   6.030   0.414
 4472SOL     OW13441   1.023   6.352   0.966
 4472SOL    HW113442   1.038   6.373   1.062
 4472SOL    HW213443   0.993   6.257   0.957
 4473SOL     OW13444   0.980   7.159   1.700
 4473SOL    HW113445   0.960   7.203   1.612
 4473SOL    HW213446   1.019   7.068   1.684
 4474SOL     OW13447   1.859   7.104   1.605
 4474SOL    HW113448   1.873   7.131   1.510
 4474SOL    HW213449   1.942   7.126   1.658
 4475SOL     OW13450   0.350   6.484   1.804
 4475SOL    HW113451   0.426   6.528   1.852
 4475SOL    HW213452   0.385   6.437   1.722
 4476SOL     OW13453   1.540   5.860   0.125
 4476SOL    HW113454   1.479   5.785   0.148
 4476SOL    HW213455   1.562   5.912   0.208
 4477SOL     OW13456   1.303   6.424   0.042
 4477SOL    HW113457   1.337   6.331   0.057
 4477SOL    HW213458   1.321   6.451  -0.053
 4478SOL     OW13459   1.068   6.919   0.849
 4478SOL    HW113460   1.075   6.835   0.794
 4478SOL    HW213461   1.130   6.988   0.813
 4479SOL     OW13462   0.319   6.396   0.949
 4479SOL    HW113463   0.412   6.432   0.954
 4479SOL    HW213464   0.313   6.311   1.001
 4480SOL     OW13465   0.339   6.095   1.006
 4480SOL    HW113466   0.287   6.012   0.989
 4480SOL    HW213467   0.416   6.100   0.942
 4481SOL     OW13468   1.138   5.966   1.678
 4481SOL    HW113469   1.093   6.029   1.742
 4481SOL    HW213470   1.231   5.997   1.661
 4482SOL     OW13471   1.160   5.793   1.477
 4482SOL    HW113472   1.160   5.857   1.554
 4482SOL    HW213473   1.188   5.841   1.394
 4483SOL     OW13474   0.008   6.912   0.200
 4483SOL    HW113475  -0.085   6.933   0.169
 4483SOL    HW213476   0.018   6.813   0.213
 4484SOL     OW13477   0.088   7.387   0.927
 4484SOL    HW113478   0.046   7.301   0.900
 4484SOL    HW213479   0.182   7.390   0.893
 4485SOL     OW13480   0.504   7.154   0.910
 4485SOL    HW113481   0.570   7.228   0.919
 4485SOL    HW213482   0.548   7.075   0.868
 4486SOL     OW13483   1.002   6.382   1.238
 4486SOL    HW113484   1.043   6.350   1.324
 4486SOL    HW213485   0.906   6.355   1.235
 4487SOL     OW13486   0.040   6.130   1.114
 4487SOL    HW113487   0.125   6.097   1.073
 4487SOL    HW213488   0.053   6.145   1.212
 4488SOL     OW13489   0.189   6.106   1.722
 4488SOL    HW113490   0.248   6.066   1.652
 4488SOL    HW213491   0.131   6.177   1.681
 4489SOL     OW13492   1.369   6.536   1.660
 4489SOL    HW113493   1.408   6.625   1.680
 4489SOL    HW213494   1.379   6.516   1.563
 4490SOL     OW13495   0.815   6.158   0.325
 4490SOL    HW113496   0.822   6.069   0.279
 4490SOL    HW213497   0.721   6.192   0.317
 4491SOL     OW13498   1.657   6.190   1.206
 4491SOL    HW113499   1.619   6.121   1.268
 4491SOL    HW213500   1.739   6.154   1.162
 4492SOL     OW13501   0.252   7.150   1.744
 4492SOL    HW113502   0.222   7.207   1.820
 4492SOL    HW213503   0.245   7.053   1.770
 4493SOL     OW13504   0.671   6.050   1.269
 4493SOL    HW113505   0.637   5.961   1.239
 4493SOL    HW213506   0.697   6.104   1.189
 4494SOL     OW13507   0.930   7.264   1.465
 4494SOL    HW113508   0.906   7.246   1.370
 4494SOL    HW213509   0.960   7.358   1.475
 4495SOL     OW13510   0.473   6.086   0.191
 4495SOL    HW113511   0.534   6.166   0.195
 4495SOL    HW213512   0.378   6.117   0.198
 4496SOL     OW13513   0.159   6.723   1.466
 4496SOL    HW113514   0.181   6.662   1.542
 4496SOL    HW213515   0.169   6.674   1.380
 4497SOL     OW13516   1.347   6.645   1.234
 4497SOL    HW113517   1.371   6.582   1.160
 4497SOL    HW213518   1.257   6.685   1.216
 4498SOL     OW13519   1.302   6.441   0.309
 4498SOL    HW113520   1.216   6.410   0.351
 4498SOL    HW213521   1.298   6.427   0.210
 4499SOL     OW13522   1.759   7.333   1.154
 4499SOL    HW113523   1.820   7.363   1.081
 4499SOL    HW213524   1.721   7.244   1.132
 4500SOL     OW13525   1.252   7.317   1.128
 4500SOL    HW113526   1.336   7.322   1.074
 4500SOL    HW213527   1.229   7.221   1.146
 4501SOL     OW13528   0.083   6.844   1.022
 4501SOL    HW113529   0.078   6.843   1.122
 4501SOL    HW213530   0.000   6.803   0.984
 4502SOL     OW13531   0.688   7.248   1.716
 4502SOL    HW113532   0.632   7.329   1.725
 4502SOL    HW213533   0.740   7.252   1.630
 4503SOL     OW13534   0.903   5.672   0.133
 4503SOL    HW113535   0.954   5.673   0.047
 4503SOL    HW213536   0.959   5.630   0.204
 4504SOL     OW13537   1.726   5.721   0.523
 4504SOL    HW113538   1.799   5.704   0.456
 4504SOL    HW213539   1.695   5.634   0.561
 4505SOL     OW13540   1.388   7.159   0.477
 4505SOL    HW113541   1.455   7.171   0.403
 4505SOL    HW213542   1.348   7.248   0.500
 4506SOL     OW13543   0.130   7.380   1.851
 4506SOL    HW113544   0.089   7.306   1.904
 4506SOL    HW213545   0.194   7.431   1.909
 4507SOL     OW13546   1.280   6.513   0.672
 4507SOL    HW113547   1.340   6.432   0.674
 4507SOL    HW213548   1.320   6.582   0.612
 4508SOL     OW13549   0.830   6.859   1.422
 4508SOL    HW113550   0.825   6.892   1.517
 4508SOL    HW213551   0.744   6.878   1.376
 4509SOL     OW13552   0.672   7.202   0.154
 4509SOL    HW113553   0.681   7.212   0.055
 4509SOL    HW213554   0.632   7.113   0.175
 4510SOL     OW13555   1.650   7.306   1.394
 4510SOL    HW113556   1.703   7.316   1.310
 4510SOL    HW213557   1.623   7.396   1.428
 4511SOL     OW13558   1.841   5.761   0.963
 4511SOL    HW113559   1.880   5.676   0.927
 4511SOL    HW213560   1.743   5.763   0.944
 4512SOL     OW13561   0.263   5.912   0.720
 4512SOL    HW113562   0.184   5.963   0.686
 4512SOL    HW213563   0.254   5.897   0.818
 4513SOL     OW13564   1.194   7.198   0.031
 4513SOL    HW113565   1.200   7.105   0.068
 4513SOL    HW213566   1.135   7.198  -0.049
 4514SOL     OW13567   0.822   6.588   1.372
 4514SOL    HW113568   0.862   6.587   1.280
 4514SOL    HW213569   0.832   6.680   1.412
 4515SOL     OW13570   0.916   6.496   0.291
 4515SOL    HW113571   0.979   6.534   0.223
 4515SOL    HW213572   0.956   6.413   0.330
 4516SOL     OW13573   1.504   7.193   0.044
 4516SOL    HW113574   1.412   7.230   0.051
 4516SOL    HW213575   1.542   7.213  -0.046
 4517SOL     OW13576   0.372   6.874   1.490
 4517SOL    HW113577   0.359   6.967   1.456
 4517SOL    HW213578   0.288   6.822   1.477
 4518SOL     OW13579   1.614   6.878   1.289
 4518SOL    HW113580   1.674   6.881   1.369
 4518SOL    HW213581   1.539   6.942   1.302
 4519SOL     OW13582   1.039   6.684   0.696
 4519SOL    HW113583   0.969   6.637   0.750
 4519SOL    HW213584   1.098   6.616   0.653
 4520SOL     OW13585   1.014   5.822   0.971
 4520SOL    HW113586   1.006   5.786   0.878
 4520SOL    HW213587   1.012   5.746   1.036
 4521SOL     OW13588   0.590   7.073   0.491
 4521SOL    HW113589   0.632   7.015   0.421
 4521SOL    HW213590   0.546   7.152   0.447
 4522SOL     OW13591   1.709   5.971   1.381
 4522SOL    HW113592   1.782   6.040   1.385
 4522SOL    HW213593   1.737   5.896   1.322
 4523SOL     OW13594   0.255   6.934   0.290
 4523SOL    HW113595   0.159   6.935   0.263
 4523SOL    HW213596   0.267   6.987   0.374
 4524SOL     OW13597   0.105   6.599   1.726
 4524SOL    HW113598   0.028   6.566   1.780
 4524SOL    HW213599   0.190   6.569   1.768
 4525SOL     OW13600   0.672   5.789   1.489
 4525SOL    HW113601   0.762   5.773   1.449
 4525SOL    HW213602   0.680   5.794   1.588
 4526SOL     OW13603   0.075   5.931   0.033
 4526SOL    HW113604  -0.017   5.903   0.004
 4526SOL    HW213605   0.106   6.008  -0.023
 4527SOL     OW13606   1.440   6.442   1.398
 4527SOL    HW113607   1.383   6.494   1.335
 4527SOL    HW213608   1.536   6.454   1.374
 4528SOL     OW13609   0.072   5.752   0.318
 4528SOL    HW113610   0.055   5.835   0.264
 4528SOL    HW213611   0.162   5.715   0.296
 4529SOL     OW13612   1.183   6.921   0.119
 4529SOL    HW113613   1.084   6.910   0.121
 4529SOL    HW213614   1.217   6.936   0.212
 4530SOL     OW13615   0.613   6.428   1.431
 4530SOL    HW113616   0.669   6.509   1.414
 4530SOL    HW213617   0.672   6.348   1.434
 4531SOL     OW13618   1.493   7.353   0.959
 4531SOL    HW113619   1.526   7.417   0.890
 4531SOL    HW213620   1.559   7.347   1.034
 4532SOL     OW13621   0.716   6.151   1.708
 4532SOL    HW113622   0.735   6.216   1.782
 4532SOL    HW213623   0.776   6.071   1.717
 4533SOL     OW13624   1.450   6.806   1.633
 4533SOL    HW113625   1.441   6.796   1.732
 4533SOL    HW213626   1.546   6.799   1.607
 4534SOL     OW13627   0.390   7.327   1.560
 4534SOL    HW113628   0.299   7.368   1.558
 4534SOL    HW213629   0.383   7.233   1.592
 4535SOL     OW13630   1.674   6.469   1.254
 4535SOL    HW113631   1.647   6.380   1.217
 4535SOL    HW213632   1.675   6.537   1.181
 4536SOL     OW13633   1.225   5.911   0.449
 4536SOL    HW113634   1.290   5.837   0.438
 4536SOL    HW213635   1.245   5.961   0.533
 4537SOL     OW13636   0.594   6.331   0.652
 4537SOL    HW113637   0.644   6.416   0.633
 4537SOL    HW213638   0.506   6.333   0.604
 4538SOL     OW13639   1.777   5.928   1.642
 4538SOL    HW113640   1.760   5.959   1.548
 4538SOL    HW213641   1.693   5.891   1.680
 4539SOL     OW13642   1.730   6.520   1.517
 4539SOL    HW113643   1.768   6.611   1.532
 4539SOL    HW213644   1.722   6.503   1.418
 4540SOL     OW13645   0.859   6.960   0.016
 4540SOL    HW113646   0.813   6.975   0.104
 4540SOL    HW213647   0.903   7.045  -0.014
 4541SOL     OW13648   0.661   7.376   0.953
 4541SOL    HW113649   0.615   7.464   0.940
 4541SOL    HW213650   0.760   7.388   0.946
 4542SOL     OW13651   0.859   6.542   0.861
 4542SOL    HW113652   0.913   6.473   0.909
 4542SOL    HW213653   0.827   6.611   0.927
 4543SOL     OW13654   1.083   6.570   0.087
 4543SOL    HW113655   1.060   6.623   0.005
 4543SOL    HW213656   1.164   6.514   0.068
 4544SOL     OW13657   1.861   7.155   0.851
 4544SOL    HW113658   1.790   7.143   0.781
 4544SOL    HW213659   1.862   7.076   0.911
 4545SOL     OW13660   0.221   6.900   1.844
 4545SOL    HW113661   0.156   6.827   1.823
 4545SOL    HW213662   0.225   6.914   1.942
 4546SOL     OW13663   0.079   6.826   0.653
 4546SOL    HW113664   0.078   6.779   0.741
 4546SOL    HW213665   0.161   6.798   0.602
 4547SOL     OW13666   0.672   6.977   1.624
 4547SOL    HW113667   0.594   6.927   1.662
 4547SOL    HW213668   0.669   7.072   1.655
 4548SOL     OW13669   1.824   5.778   1.227
 4548SOL    HW113670   1.820   5.688   1.271
 4548SOL    HW213671   1.827   5.767   1.128
 4549SOL     OW13672   0.428   6.010   0.520
 4549SOL    HW113673   0.458   5.938   0.458
 4549SOL    HW213674   0.389   5.970   0.603
 4550SOL     OW13675   1.705   7.073   1.104
 4550SOL    HW113676   1.612   7.048   1.077
 4550SOL    HW213677   1.731   7.023   1.186
 4551SOL     OW13678   0.317   6.133   1.280
 4551SOL    HW113679   0.355   6.074   1.352
 4551SOL    HW213680   0.357   6.107   1.192
 4552SOL     OW13681   0.812   7.172   0.687
 4552SOL    HW113682   0.844   7.182   0.593
 4552SOL    HW213683   0.733   7.110   0.689
 4553SOL     OW13684   1.424   5.800   1.112
 4553SOL    HW113685   1.476   5.735   1.167
 4553SOL    HW213686   1.375   5.863   1.173
 4554SOL     OW13687   1.001   5.620   1.154
 4554SOL    HW113688   0.938   5.548   1.123
 4554SOL    HW213689   1.094   5.584   1.154
 4555SOL     OW13690   0.770   6.916   0.301
 4555SOL    HW113691   0.724   6.829   0.318
 4555SOL    HW213692   0.861   6.913   0.342
 4556SOL     OW13693   0.618   7.153   1.284
 4556SOL    HW113694   0.613   7.235   1.341
 4556SOL    HW213695   0.707   7.150   1.239
 4557SOL     OW13696   1.352   5.638   0.168
 4557SOL    HW113697   1.387   5.597   0.084
 4557SOL    HW213698   1.262   5.600   0.188
 4558SOL     OW13699   1.300   6.039   0.691
 4558SOL    HW113700   1.241   6.119   0.695
 4558SOL    HW213701   1.315   6.004   0.784
 4559SOL     OW13702   1.593   5.807   0.882
 4559SOL    HW113703   1.509   5.806   0.936
 4559SOL    HW213704   1.595   5.890   0.826
 4560SOL     OW13705   0.039   6.663   0.300
 4560SOL    HW113706   0.138   6.652   0.291
 4560SOL    HW213707  -0.001   6.577   0.332
 4561SOL     OW13708   0.875   7.232   0.337
 4561SOL    HW113709   0.798   7.197   0.283
 4561SOL    HW213710   0.843   7.303   0.399
 4562SOL     OW13711   0.230   6.214   1.975
 4562SOL    HW113712   0.137   6.212   2.012
 4562SOL    HW213713   0.231   6.175   1.883
 4563SOL     OW13714   0.225   5.861   2.858
 4563SOL    HW113715   0.260   5.844   2.950
 4563SOL    HW213716   0.137   5.816   2.846
 4564SOL     OW13717   0.019   5.954   2.509
 4564SOL    HW113718  -0.063   5.997   2.548
 4564SOL    HW213719  -0.009   5.881   2.446
 4565SOL     OW13720   0.569   6.861   3.027
 4565SOL    HW113721   0.476   6.854   2.990
 4565SOL    HW213722   0.580   6.950   3.071
 4566SOL     OW13723   1.555   7.097   2.565
 4566SOL    HW113724   1.498   7.081   2.646
 4566SOL    HW213725   1.496   7.107   2.485
 4567SOL     OW13726   1.135   6.289   2.579
 4567SOL    HW113727   1.192   6.367   2.554
 4567SOL    HW213728   1.075   6.315   2.655
 4568SOL     OW13729   1.755   6.193   2.093
 4568SOL    HW113730   1.743   6.180   1.994
 4568SOL    HW213731   1.725   6.112   2.142
 4569SOL     OW13732   0.768   6.730   2.885
 4569SOL    HW113733   0.690   6.747   2.945
 4569SOL    HW213734   0.802   6.817   2.849
 4570SOL     OW13735   0.850   6.384   3.685
 4570SOL    HW113736   0.846   6.460   3.750
 4570SOL    HW213737   0.872   6.420   3.594
 4571SOL     OW13738   0.685   6.598   2.527
 4571SOL    HW113739   0.754   6.582   2.597
 4571SOL    HW213740   0.612   6.655   2.565
 4572SOL     OW13741   0.686   6.747   3.665
 4572SOL    HW113742   0.746   6.826   3.679
 4572SOL    HW213743   0.600   6.778   3.624
 4573SOL     OW13744   0.335   7.021   2.923
 4573SOL    HW113745   0.257   6.990   2.870
 4573SOL    HW213746   0.393   7.079   2.866
 4574SOL     OW13747   1.460   7.091   3.201
 4574SOL    HW113748   1.484   7.185   3.227
 4574SOL    HW213749   1.444   7.037   3.283
 4575SOL     OW13750   0.438   5.978   3.361
 4575SOL    HW113751   0.520   5.922   3.370
 4575SOL    HW213752   0.357   5.920   3.365
 4576SOL     OW13753   1.603   6.033   2.599
 4576SOL    HW113754   1.529   6.079   2.549
 4576SOL    HW213755   1.654   6.101   2.652
 4577SOL     OW13756   0.231   7.299   2.345
 4577SOL    HW113757   0.265   7.376   2.399
 4577SOL    HW213758   0.275   7.299   2.255
 4578SOL     OW13759   1.127   6.927   3.552
 4578SOL    HW113760   1.174   6.927   3.640
 4578SOL    HW213761   1.079   6.840   3.541
 4579SOL     OW13762   0.230   7.020   2.400
 4579SOL    HW113763   0.204   7.116   2.400
 4579SOL    HW213764   0.159   6.966   2.445
 4580SOL     OW13765   0.240   6.677   2.748
 4580SOL    HW113766   0.254   6.593   2.800
 4580SOL    HW213767   0.185   6.741   2.803
 4581SOL     OW13768   0.620   7.372   3.301
 4581SOL    HW113769   0.528   7.355   3.336
 4581SOL    HW213770   0.648   7.464   3.327
 4582SOL     OW13771   0.606   6.550   1.985
 4582SOL    HW113772   0.613   6.634   1.931
 4582SOL    HW213773   0.652   6.563   2.073
 4583SOL     OW13774   1.594   5.700   3.342
 4583SOL    HW113775   1.576   5.767   3.270
 4583SOL    HW213776   1.591   5.746   3.431
 4584SOL     OW13777   0.122   6.229   2.425
 4584SOL    HW113778   0.077   6.141   2.442
 4584SOL    HW213779   0.121   6.283   2.509
 4585SOL     OW13780   1.842   7.353   2.221
 4585SOL    HW113781   1.896   7.324   2.301
 4585SOL    HW213782   1.872   7.443   2.192
 4586SOL     OW13783   0.027   7.182   1.979
 4586SOL    HW113784   0.008   7.086   2.000
 4586SOL    HW213785  -0.006   7.240   2.054
 4587SOL     OW13786   1.689   6.508   2.474
 4587SOL    HW113787   1.784   6.479   2.482
 4587SOL    HW213788   1.681   6.573   2.399
 4588SOL     OW13789   1.641   6.694   2.294
 4588SOL    HW113790   1.727   6.696   2.242
 4588SOL    HW213791   1.655   6.741   2.382
 4589SOL     OW13792   0.113   6.323   3.459
 4589SOL    HW113793   0.201   6.310   3.504
 4589SOL    HW213794   0.100   6.420   3.437
 4590SOL     OW13795   0.613   6.951   2.588
 4590SOL    HW113796   0.564   6.864   2.597
 4590SOL    HW213797   0.590   6.994   2.501
 4591SOL     OW13798   1.293   6.814   3.285
 4591SOL    HW113799   1.330   6.741   3.227
 4591SOL    HW213800   1.345   6.819   3.370
 4592SOL     OW13801   0.809   5.590   2.364
 4592SOL    HW113802   0.849   5.681   2.355
 4592SOL    HW213803   0.709   5.598   2.370
 4593SOL     OW13804   0.197   6.562   3.126
 4593SOL    HW113805   0.286   6.517   3.112
 4593SOL    HW213806   0.124   6.497   3.107
 4594SOL     OW13807   1.525   6.585   2.052
 4594SOL    HW113808   1.462   6.509   2.065
 4594SOL    HW213809   1.573   6.603   2.138
 4595SOL     OW13810   1.187   7.378   3.478
 4595SOL    HW113811   1.211   7.438   3.402
 4595SOL    HW213812   1.194   7.283   3.448
 4596SOL     OW13813   0.317   5.837   3.663
 4596SOL    HW113814   0.388   5.908   3.669
 4596SOL    HW213815   0.229   5.876   3.691
 4597SOL     OW13816   1.466   7.003   2.815
 4597SOL    HW113817   1.407   7.009   2.895
 4597SOL    HW213818   1.451   6.915   2.769
 4598SOL     OW13819   1.667   7.300   2.434
 4598SOL    HW113820   1.626   7.277   2.346
 4598SOL    HW213821   1.649   7.226   2.499
 4599SOL     OW13822   0.598   6.315   2.132
 4599SOL    HW113823   0.622   6.384   2.064
 4599SOL    HW213824   0.520   6.348   2.186
 4600SOL     OW13825   1.281   5.931   2.806
 4600SOL    HW113826   1.195   5.881   2.793
 4600SOL    HW213827   1.343   5.877   2.862
 4601SOL     OW13828   1.576   7.248   2.169
 4601SOL    HW113829   1.665   7.294   2.172
 4601SOL    HW213830   1.555   7.224   2.074
 4602SOL     OW13831   0.807   6.191   3.327
 4602SOL    HW113832   0.760   6.188   3.416
 4602SOL    HW213833   0.756   6.136   3.261
 4603SOL     OW13834   1.394   6.055   3.536
 4603SOL    HW113835   1.374   6.098   3.624
 4603SOL    HW213836   1.472   5.993   3.545
 4604SOL     OW13837   0.973   6.476   3.434
 4604SOL    HW113838   1.019   6.392   3.405
 4604SOL    HW213839   0.917   6.510   3.359
 4605SOL     OW13840   0.991   5.996   3.104
 4605SOL    HW113841   0.914   6.030   3.158
 4605SOL    HW213842   0.957   5.945   3.025
 4606SOL     OW13843   1.041   6.287   2.291
 4606SOL    HW113844   1.067   6.283   2.387
 4606SOL    HW213845   0.956   6.236   2.277
 4607SOL     OW13846   0.076   6.397   2.651
 4607SOL    HW113847   0.175   6.385   2.660
 4607SOL    HW213848   0.052   6.492   2.672
 4608SOL     OW13849   0.130   7.407   3.433
 4608SOL    HW113850   0.120   7.392   3.532
 4608SOL    HW213851   0.044   7.443   3.397
 4609SOL     OW13852   0.865   5.934   2.057
 4609SOL    HW113853   0.924   5.997   2.008
 4609SOL    HW213854   0.884   5.840   2.028
 4610SOL     OW13855   1.719   6.171   3.693
 4610SOL    HW113856   1.693   6.260   3.657
 4610SOL    HW213857   1.717   6.103   3.620
 4611SOL     OW13858   1.362   6.730   2.407
 4611SOL    HW113859   1.445   6.701   2.359
 4611SOL    HW213860   1.313   6.797   2.351
 4612SOL     OW13861   0.550   5.782   2.747
 4612SOL    HW113862   0.545   5.777   2.847
 4612SOL    HW213863   0.552   5.878   2.718
 4613SOL     OW13864   1.008   7.042   2.339
 4613SOL    HW113865   0.962   7.114   2.287
 4613SOL    HW213866   1.004   7.062   2.437
 4614SOL     OW13867   0.351   7.387   2.715
 4614SOL    HW113868   0.401   7.301   2.721
 4614SOL    HW213869   0.416   7.464   2.712
 4615SOL     OW13870   1.795   6.652   2.735
 4615SOL    HW113871   1.733   6.637   2.659
 4615SOL    HW213872   1.743   6.663   2.820
 4616SOL     OW13873   1.227   7.136   3.368
 4616SOL    HW113874   1.233   7.059   3.432
 4616SOL    HW213875   1.175   7.110   3.288
 4617SOL     OW13876   0.321   6.529   2.104
 4617SOL    HW113877   0.403   6.568   2.062
 4617SOL    HW213878   0.294   6.447   2.055
 4618SOL     OW13879   1.458   6.321   2.590
 4618SOL    HW113880   1.453   6.256   2.665
 4618SOL    HW213881   1.538   6.380   2.603
 4619SOL     OW13882   0.461   6.852   3.589
 4619SOL    HW113883   0.411   6.853   3.503
 4619SOL    HW213884   0.398   6.834   3.665
 4620SOL     OW13885   1.111   7.362   2.099
 4620SOL    HW113886   1.051   7.300   2.149
 4620SOL    HW213887   1.142   7.318   2.014
 4621SOL     OW13888   0.202   5.871   3.360
 4621SOL    HW113889   0.122   5.931   3.347
 4621SOL    HW213890   0.192   5.822   3.446
 4622SOL     OW13891   1.632   6.963   1.943
 4622SOL    HW113892   1.600   7.057   1.933
 4622SOL    HW213893   1.556   6.900   1.931
 4623SOL     OW13894   0.464   7.329   2.185
 4623SOL    HW113895   0.497   7.368   2.271
 4623SOL    HW213896   0.540   7.322   2.120
 4624SOL     OW13897   1.400   5.693   2.288
 4624SOL    HW113898   1.376   5.656   2.198
 4624SOL    HW213899   1.499   5.709   2.292
 4625SOL     OW13900   0.249   7.371   3.103
 4625SOL    HW113901   0.306   7.306   3.153
 4625SOL    HW213902   0.233   7.338   3.010
 4626SOL     OW13903   0.940   7.284   2.766
 4626SOL    HW113904   1.020   7.227   2.787
 4626SOL    HW213905   0.891   7.244   2.689
 4627SOL     OW13906   0.382   6.286   2.342
 4627SOL    HW113907   0.427   6.196   2.339
 4627SOL    HW213908   0.288   6.275   2.375
 4628SOL     OW13909   1.547   5.808   3.591
 4628SOL    HW113910   1.542   5.845   3.683
 4628SOL    HW213911   1.475   5.739   3.579
 4629SOL     OW13912   0.614   5.708   1.979
 4629SOL    HW113913   0.712   5.686   1.986
 4629SOL    HW213914   0.583   5.691   1.886
 4630SOL     OW13915   0.781   5.850   3.611
 4630SOL    HW113916   0.848   5.789   3.654
 4630SOL    HW213917   0.708   5.869   3.676
 4631SOL     OW13918   0.888   7.100   3.057
 4631SOL    HW113919   0.865   7.075   2.963
 4631SOL    HW213920   0.949   7.031   3.096
 4632SOL     OW13921   1.351   6.176   3.295
 4632SOL    HW113922   1.379   6.133   3.380
 4632SOL    HW213923   1.376   6.272   3.296
 4633SOL     OW13924   0.803   6.988   2.786
 4633SOL    HW113925   0.893   7.002   2.744
 4633SOL    HW213926   0.732   6.990   2.715
 4634SOL     OW13927   0.922   6.089   2.761
 4634SOL    HW113928   0.897   6.080   2.665
 4634SOL    HW213929   0.970   6.007   2.792
 4635SOL     OW13930   0.539   5.650   2.374
 4635SOL    HW113931   0.458   5.651   2.432
 4635SOL    HW213932   0.542   5.733   2.319
 4636SOL     OW13933   1.434   6.774   1.903
 4636SOL    HW113934   1.466   6.698   1.960
 4636SOL    HW213935   1.342   6.801   1.933
 4637SOL     OW13936   0.297   5.621   2.033
 4637SOL    HW113937   0.346   5.705   2.012
 4637SOL    HW213938   0.359   5.556   2.078
 4638SOL     OW13939   0.935   5.822   2.342
 4638SOL    HW113940   0.887   5.863   2.264
 4638SOL    HW213941   1.034   5.820   2.323
 4639SOL     OW13942   1.076   6.269   3.326
 4639SOL    HW113943   0.996   6.208   3.329
 4639SOL    HW213944   1.157   6.216   3.302
 4640SOL     OW13945   1.227   7.156   2.655
 4640SOL    HW113946   1.248   7.230   2.590
 4640SOL    HW213947   1.295   7.156   2.728
 4641SOL     OW13948   0.459   6.738   2.603
 4641SOL    HW113949   0.388   6.711   2.668
 4641SOL    HW213950   0.433   6.710   2.510
 4642SOL     OW13951   1.271   7.383   2.453
 4642SOL    HW113952   1.315   7.447   2.389
 4642SOL    HW213953   1.221   7.435   2.523
 4643SOL     OW13954   1.032   6.135   1.878
 4643SOL    HW113955   0.991   6.217   1.839
 4643SOL    HW213956   1.096   6.161   1.951
 4644SOL     OW13957   0.078   6.142   3.248
 4644SOL    HW113958   0.170   6.141   3.207
 4644SOL    HW213959   0.072   6.216   3.315
 4645SOL     OW13960   0.561   5.808   3.009
 4645SOL    HW113961   0.599   5.724   3.046
 4645SOL    HW213962   0.473   5.827   3.053
 4646SOL     OW13963   0.866   6.040   2.504
 4646SOL    HW113964   0.834   6.112   2.442
 4646SOL    HW213965   0.890   5.959   2.451
 4647SOL     OW13966   1.017   5.625   2.615
 4647SOL    HW113967   0.945   5.630   2.546
 4647SOL    HW213968   0.993   5.556   2.684
 4648SOL     OW13969   1.429   6.759   2.729
 4648SOL    HW113970   1.374   6.675   2.722
 4648SOL    HW213971   1.455   6.788   2.637
 4649SOL     OW13972   1.466   6.176   2.854
 4649SOL    HW113973   1.436   6.081   2.861
 4649SOL    HW213974   1.539   6.192   2.920
 4650SOL     OW13975   1.857   6.419   2.239
 4650SOL    HW113976   1.899   6.355   2.303
 4650SOL    HW213977   1.819   6.368   2.161
 4651SOL     OW13978   0.488   6.971   2.036
 4651SOL    HW113979   0.401   6.956   2.083
 4651SOL    HW213980   0.471   6.997   1.941
 4652SOL     OW13981   1.664   6.866   2.519
 4652SOL    HW113982   1.763   6.874   2.533
 4652SOL    HW213983   1.619   6.950   2.550
 4653SOL     OW13984   1.390   6.161   1.940
 4653SOL    HW113985   1.336   6.140   2.021
 4653SOL    HW213986   1.481   6.120   1.949
 4654SOL     OW13987   0.527   5.842   2.190
 4654SOL    HW113988   0.554   5.783   2.115
 4654SOL    HW213989   0.527   5.937   2.159
 4655SOL     OW13990   1.754   6.809   3.450
 4655SOL    HW113991   1.845   6.770   3.437
 4655SOL    HW213992   1.762   6.905   3.474
 4656SOL     OW13993   1.064   6.933   3.202
 4656SOL    HW113994   0.984   6.910   3.257
 4656SOL    HW213995   1.147   6.907   3.251
 4657SOL     OW13996   1.592   7.215   3.487
 4657SOL    HW113997   1.619   7.249   3.397
 4657SOL    HW213998   1.671   7.177   3.533
 4658SOL     OW13999   1.111   6.781   2.962
 4658SOL    HW114000   1.071   6.825   3.043
 4658SOL    HW214001   1.070   6.818   2.879
 4659SOL     OW14002   1.638   6.685   2.941
 4659SOL    HW114003   1.643   6.766   3.000
 4659SOL    HW214004   1.552   6.687   2.890
 4660SOL     OW14005   0.915   5.675   3.264
 4660SOL    HW114006   0.940   5.655   3.169
 4660SOL    HW214007   0.987   5.731   3.306
 4661SOL     OW14008   0.980   6.702   3.581
 4661SOL    HW114009   0.881   6.708   3.591
 4661SOL    HW214010   1.003   6.622   3.525
 4662SOL     OW14011   0.705   6.636   2.230
 4662SOL    HW114012   0.691   6.643   2.329
 4662SOL    HW214013   0.789   6.585   2.212
 4663SOL     OW14014   0.410   6.399   3.113
 4663SOL    HW114015   0.496   6.411   3.163
 4663SOL    HW214016   0.368   6.312   3.140
 4664SOL     OW14017   1.274   5.972   3.124
 4664SOL    HW114018   1.295   6.046   3.188
 4664SOL    HW214019   1.185   5.989   3.081
 4665SOL     OW14020   0.064   7.150   3.193
 4665SOL    HW114021   0.018   7.232   3.159
 4665SOL    HW214022   0.162   7.169   3.202
 4666SOL     OW14023   0.367   6.686   2.363
 4666SOL    HW114024   0.360   6.769   2.307
 4666SOL    HW214025   0.371   6.606   2.303
 4667SOL     OW14026   0.566   6.123   2.727
 4667SOL    HW114027   0.578   6.189   2.653
 4667SOL    HW214028   0.612   6.157   2.810
 4668SOL     OW14029   1.252   6.934   2.250
 4668SOL    HW114030   1.302   7.011   2.290
 4668SOL    HW214031   1.157   6.936   2.282
 4669SOL     OW14032   1.272   7.031   3.004
 4669SOL    HW114033   1.319   7.044   3.091
 4669SOL    HW214034   1.206   6.957   3.013
 4670SOL     OW14035   1.582   6.225   2.334
 4670SOL    HW114036   1.551   6.286   2.407
 4670SOL    HW214037   1.632   6.277   2.265
 4671SOL     OW14038   0.354   7.096   3.191
 4671SOL    HW114039   0.333   7.052   3.104
 4671SOL    HW214040   0.451   7.122   3.194
 4672SOL     OW14041   0.402   6.337   3.460
 4672SOL    HW114042   0.470   6.392   3.413
 4672SOL    HW214043   0.442   6.249   3.487
 4673SOL     OW14044   1.587   6.365   3.532
 4673SOL    HW114045   1.495   6.403   3.527
 4673SOL    HW214046   1.647   6.412   3.467
 4674SOL     OW14047   1.013   5.691   3.632
 4674SOL    HW114048   1.019   5.776   3.580
 4674SOL    HW214049   1.045   5.615   3.575
 4675SOL     OW14050   0.504   5.636   3.602
 4675SOL    HW114051   0.462   5.579   3.532
 4675SOL    HW214052   0.438   5.705   3.634
 4676SOL     OW14053   0.573   6.456   2.891
 4676SOL    HW114054   0.617   6.545   2.882
 4676SOL    HW214055   0.510   6.456   2.968
 4677SOL     OW14056   1.360   6.448   2.907
 4677SOL    HW114057   1.285   6.448   2.841
 4677SOL    HW214058   1.397   6.356   2.916
 4678SOL     OW14059   1.209   6.111   2.137
 4678SOL    HW114060   1.222   6.027   2.191
 4678SOL    HW214061   1.180   6.185   2.197
 4679SOL     OW14062   0.307   5.799   3.093
 4679SOL    HW114063   0.284   5.836   3.183
 4679SOL    HW214064   0.277   5.704   3.087
 4680SOL     OW14065   0.037   6.896   3.144
 4680SOL    HW114066   0.090   6.847   3.212
 4680SOL    HW214067   0.059   6.994   3.149
 4681SOL     OW14068   0.732   6.220   2.926
 4681SOL    HW114069   0.791   6.194   2.850
 4681SOL    HW214070   0.704   6.316   2.915
 4682SOL     OW14071   1.728   6.521   3.716
 4682SOL    HW114072   1.682   6.514   3.627
 4682SOL    HW214073   1.666   6.565   3.782
 4683SOL     OW14074   0.307   5.649   2.480
 4683SOL    HW114075   0.296   5.743   2.513
 4683SOL    HW214076   0.302   5.586   2.557
 4684SOL     OW14077   1.622   5.953   2.236
 4684SOL    HW114078   1.624   5.877   2.300
 4684SOL    HW214079   1.574   6.030   2.276
 4685SOL     OW14080   1.023   6.352   2.828
 4685SOL    HW114081   1.038   6.373   2.924
 4685SOL    HW214082   0.993   6.257   2.819
 4686SOL     OW14083   0.980   7.159   3.562
 4686SOL    HW114084   0.960   7.203   3.474
 4686SOL    HW214085   1.019   7.068   3.546
 4687SOL     OW14086   1.859   7.104   3.467
 4687SOL    HW114087   1.873   7.131   3.372
 4687SOL    HW214088   1.942   7.126   3.520
 4688SOL     OW14089   0.350   6.484   3.666
 4688SOL    HW114090   0.426   6.528   3.714
 4688SOL    HW214091   0.385   6.437   3.584
 4689SOL     OW14092   1.540   5.860   1.987
 4689SOL    HW114093   1.479   5.785   2.010
 4689SOL    HW214094   1.562   5.912   2.070
 4690SOL     OW14095   1.303   6.424   1.904
 4690SOL    HW114096   1.337   6.331   1.919
 4690SOL    HW214097   1.321   6.451   1.809
 4691SOL     OW14098   1.068   6.919   2.711
 4691SOL    HW114099   1.075   6.835   2.656
 4691SOL    HW214100   1.130   6.988   2.675
 4692SOL     OW14101   0.319   6.396   2.811
 4692SOL    HW114102   0.412   6.432   2.816
 4692SOL    HW214103   0.313   6.311   2.863
 4693SOL     OW14104   0.339   6.095   2.868
 4693SOL    HW114105   0.287   6.012   2.851
 4693SOL    HW214106   0.416   6.100   2.804
 4694SOL     OW14107   1.138   5.966   3.540
 4694SOL    HW114108   1.093   6.029   3.604
 4694SOL    HW214109   1.231   5.997   3.523
 4695SOL     OW14110   1.160   5.793   3.339
 4695SOL    HW114111   1.160   5.857   3.416
 4695SOL    HW214112   1.188   5.841   3.256
 4696SOL     OW14113   0.008   6.912   2.062
 4696SOL    HW114114  -0.085   6.933   2.031
 4696SOL    HW214115   0.018   6.813   2.075
 4697SOL     OW14116   0.088   7.387   2.789
 4697SOL    HW114117   0.046   7.301   2.762
 4697SOL    HW214118   0.182   7.390   2.755
 4698SOL     OW14119   0.504   7.154   2.772
 4698SOL    HW114120   0.570   7.228   2.781
 4698SOL    HW214121   0.548   7.075   2.730
 4699SOL     OW14122   1.002   6.382   3.100
 4699SOL    HW114123   1.043   6.350   3.186
 4699SOL    HW214124   0.906   6.355   3.097
 4700SOL     OW14125   0.040   6.130   2.976
 4700SOL    HW114126   0.125   6.097   2.935
 4700SOL    HW214127   0.053   6.145   3.074
 4701SOL     OW14128   0.189   6.106   3.584
 4701SOL    HW114129   0.248   6.066   3.514
 4701SOL    HW214130   0.131   6.177   3.543
 4702SOL     OW14131   1.369   6.536   3.522
 4702SOL    HW114132   1.408   6.625   3.542
 4702SOL    HW214133   1.379   6.516   3.425
 4703SOL     OW14134   0.815   6.158   2.187
 4703SOL    HW114135   0.822   6.069   2.141
 4703SOL    HW214136   0.721   6.192   2.179
 4704SOL     OW14137   1.657   6.190   3.068
 4704SOL    HW114138   1.619   6.121   3.130
 4704SOL    HW214139   1.739   6.154   3.024
 4705SOL     OW14140   0.252   7.150   3.606
 4705SOL    HW114141   0.222   7.207   3.682
 4705SOL    HW214142   0.245   7.053   3.632
 4706SOL     OW14143   0.671   6.050   3.131
 4706SOL    HW114144   0.637   5.961   3.101
 4706SOL    HW214145   0.697   6.104   3.051
 4707SOL     OW14146   0.930   7.264   3.327
 4707SOL    HW114147   0.906   7.246   3.232
 4707SOL    HW214148   0.960   7.358   3.337
 4708SOL     OW14149   0.473   6.086   2.053
 4708SOL    HW114150   0.534   6.166   2.057
 4708SOL    HW214151   0.378   6.117   2.060
 4709SOL     OW14152   0.159   6.723   3.328
 4709SOL    HW114153   0.181   6.662   3.404
 4709SOL    HW214154   0.169   6.674   3.242
 4710SOL     OW14155   1.347   6.645   3.096
 4710SOL    HW114156   1.371   6.582   3.022
 4710SOL    HW214157   1.257   6.685   3.078
 4711SOL     OW14158   1.302   6.441   2.171
 4711SOL    HW114159   1.216   6.410   2.213
 4711SOL    HW214160   1.298   6.427   2.072
 4712SOL     OW14161   1.759   7.333   3.016
 4712SOL    HW114162   1.820   7.363   2.943
 4712SOL    HW214163   1.721   7.244   2.994
 4713SOL     OW14164   1.252   7.317   2.990
 4713SOL    HW114165   1.336   7.322   2.936
 4713SOL    HW214166   1.229   7.221   3.008
 4714SOL     OW14167   0.083   6.844   2.884
 4714SOL    HW114168   0.078   6.843   2.984
 4714SOL    HW214169   0.000   6.803   2.846
 4715SOL     OW14170   0.688   7.248   3.578
 4715SOL    HW114171   0.632   7.329   3.587
 4715SOL    HW214172   0.740   7.252   3.492
 4716SOL     OW14173   1.726   5.721   2.385
 4716SOL    HW114174   1.799   5.704   2.318
 4716SOL    HW214175   1.695   5.634   2.423
 4717SOL     OW14176   1.388   7.159   2.339
 4717SOL    HW114177   1.455   7.171   2.265
 4717SOL    HW214178   1.348   7.248   2.362
 4718SOL     OW14179   0.130   7.380   3.713
 4718SOL    HW114180   0.089   7.306   3.766
 4718SOL    HW214181   0.194   7.431   3.771
 4719SOL     OW14182   1.280   6.513   2.534
 4719SOL    HW114183   1.340   6.432   2.536
 4719SOL    HW214184   1.320   6.582   2.474
 4720SOL     OW14185   0.830   6.859   3.284
 4720SOL    HW114186   0.825   6.892   3.379
 4720SOL    HW214187   0.744   6.878   3.238
 4721SOL     OW14188   0.672   7.202   2.016
 4721SOL    HW114189   0.681   7.212   1.917
 4721SOL    HW214190   0.632   7.113   2.037
 4722SOL     OW14191   1.650   7.306   3.256
 4722SOL    HW114192   1.703   7.316   3.172
 4722SOL    HW214193   1.623   7.396   3.290
 4723SOL     OW14194   1.841   5.761   2.825
 4723SOL    HW114195   1.880   5.676   2.789
 4723SOL    HW214196   1.743   5.763   2.806
 4724SOL     OW14197   0.263   5.912   2.582
 4724SOL    HW114198   0.184   5.963   2.548
 4724SOL    HW214199   0.254   5.897   2.680
 4725SOL     OW14200   1.194   7.198   1.893
 4725SOL    HW114201   1.200   7.105   1.930
 4725SOL    HW214202   1.135   7.198   1.813
 4726SOL     OW14203   0.822   6.588   3.234
 4726SOL    HW114204   0.862   6.587   3.142
 4726SOL    HW214205   0.832   6.680   3.274
 4727SOL     OW14206   0.916   6.496   2.153
 4727SOL    HW114207   0.979   6.534   2.085
 4727SOL    HW214208   0.956   6.413   2.192
 4728SOL     OW14209   1.504   7.193   1.906
 4728SOL    HW114210   1.412   7.230   1.913
 4728SOL    HW214211   1.542   7.213   1.816
 4729SOL     OW14212   0.372   6.874   3.352
 4729SOL    HW114213   0.359   6.967   3.318
 4729SOL    HW214214   0.288   6.822   3.339
 4730SOL     OW14215   1.614   6.878   3.151
 4730SOL    HW114216   1.674   6.881   3.231
 4730SOL    HW214217   1.539   6.942   3.164
 4731SOL     OW14218   1.039   6.684   2.558
 4731SOL    HW114219   0.969   6.637   2.612
 4731SOL    HW214220   1.098   6.616   2.515
 4732SOL     OW14221   1.014   5.822   2.833
 4732SOL    HW114222   1.006   5.786   2.740
 4732SOL    HW214223   1.012   5.746   2.898
 4733SOL     OW14224   0.590   7.073   2.353
 4733SOL    HW114225   0.632   7.015   2.283
 4733SOL    HW214226   0.546   7.152   2.309
 4734SOL     OW14227   1.709   5.971   3.243
 4734SOL    HW114228   1.782   6.040   3.247
 4734SOL    HW214229   1.737   5.896   3.184
 4735SOL     OW14230   0.255   6.934   2.152
 4735SOL    HW114231   0.159   6.935   2.125
 4735SOL    HW214232   0.267   6.987   2.236
 4736SOL     OW14233   0.105   6.599   3.588
 4736SOL    HW114234   0.028   6.566   3.642
 4736SOL    HW214235   0.190   6.569   3.630
 4737SOL     OW14236   0.672   5.789   3.351
 4737SOL    HW114237   0.762   5.773   3.311
 4737SOL    HW214238   0.680   5.794   3.450
 4738SOL     OW14239   0.075   5.931   1.895
 4738SOL    HW114240  -0.017   5.903   1.866
 4738SOL    HW214241   0.106   6.008   1.839
 4739SOL     OW14242   1.440   6.442   3.260
 4739SOL    HW114243   1.383   6.494   3.197
 4739SOL    HW214244   1.536   6.454   3.236
 4740SOL     OW14245   0.072   5.752   2.180
 4740SOL    HW114246   0.055   5.835   2.126
 4740SOL    HW214247   0.162   5.715   2.158
 4741SOL     OW14248   1.183   6.921   1.981
 4741SOL    HW114249   1.084   6.910   1.983
 4741SOL    HW214250   1.217   6.936   2.074
 4742SOL     OW14251   0.613   6.428   3.293
 4742SOL    HW114252   0.669   6.509   3.276
 4742SOL    HW214253   0.672   6.348   3.296
 4743SOL     OW14254   1.493   7.353   2.821
 4743SOL    HW114255   1.526   7.417   2.752
 4743SOL    HW214256   1.559   7.347   2.896
 4744SOL     OW14257   0.716   6.151   3.570
 4744SOL    HW114258   0.735   6.216   3.644
 4744SOL    HW214259   0.776   6.071   3.579
 4745SOL     OW14260   1.450   6.806   3.495
 4745SOL    HW114261   1.441   6.796   3.594
 4745SOL    HW214262   1.546   6.799   3.469
 4746SOL     OW14263   0.390   7.327   3.422
 4746SOL    HW114264   0.299   7.368   3.420
 4746SOL    HW214265   0.383   7.233   3.454
 4747SOL     OW14266   1.674   6.469   3.116
 4747SOL    HW114267   1.647   6.380   3.079
 4747SOL    HW214268   1.675   6.537   3.043
 4748SOL     OW14269   1.225   5.911   2.311
 4748SOL    HW114270   1.290   5.837   2.300
 4748SOL    HW214271   1.245   5.961   2.395
 4749SOL     OW14272   0.594   6.331   2.514
 4749SOL    HW114273   0.644   6.416   2.495
 4749SOL    HW214274   0.506   6.333   2.466
 4750SOL     OW14275   1.777   5.928   3.504
 4750SOL    HW114276   1.760   5.959   3.410
 4750SOL    HW214277   1.693   5.891   3.542
 4751SOL     OW14278   1.730   6.520   3.379
 4751SOL    HW114279   1.768   6.611   3.394
 4751SOL    HW214280   1.722   6.503   3.280
 4752SOL     OW14281   0.859   6.960   1.878
 4752SOL    HW114282   0.813   6.975   1.966
 4752SOL    HW214283   0.903   7.045   1.848
 4753SOL     OW14284   0.661   7.376   2.815
 4753SOL    HW114285   0.615   7.464   2.802
 4753SOL    HW214286   0.760   7.388   2.808
 4754SOL     OW14287   0.859   6.542   2.723
 4754SOL    HW114288   0.913   6.473   2.771
 4754SOL    HW214289   0.827   6.611   2.789
 4755SOL     OW14290   1.083   6.570   1.949
 4755SOL    HW114291   1.060   6.623   1.867
 4755SOL    HW214292   1.164   6.514   1.930
 4756SOL     OW14293   1.861   7.155   2.713
 4756SOL    HW114294   1.790   7.143   2.643
 4756SOL    HW214295   1.862   7.076   2.773
 4757SOL     OW14296   0.221   6.900   3.706
 4757SOL    HW114297   0.156   6.827   3.685
 4757SOL    HW214298   0.225   6.914   3.804
 4758SOL     OW14299   0.079   6.826   2.515
 4758SOL    HW114300   0.078   6.779   2.603
 4758SOL    HW214301   0.161   6.798   2.464
 4759SOL     OW14302   0.672   6.977   3.486
 4759SOL    HW114303   0.594   6.927   3.524
 4759SOL    HW214304   0.669   7.072   3.517
 4760SOL     OW14305   1.824   5.778   3.089
 4760SOL    HW114306   1.820   5.688   3.133
 4760SOL    HW214307   1.827   5.767   2.990
 4761SOL     OW14308   0.428   6.010   2.382
 4761SOL    HW114309   0.458   5.938   2.320
 4761SOL    HW214310   0.389   5.970   2.465
 4762SOL     OW14311   1.705   7.073   2.966
 4762SOL    HW114312   1.612   7.048   2.939
 4762SOL    HW214313   1.731   7.023   3.048
 4763SOL     OW14314   0.317   6.133   3.142
 4763SOL    HW114315   0.355   6.074   3.214
 4763SOL    HW214316   0.357   6.107   3.054
 4764SOL     OW14317   0.812   7.172   2.549
 4764SOL    HW114318   0.844   7.182   2.455
 4764SOL    HW214319   0.733   7.110   2.551
 4765SOL     OW14320   1.424   5.800   2.974
 4765SOL    HW114321   1.476   5.735   3.029
 4765SOL    HW214322   1.375   5.863   3.035
 4766SOL     OW14323   1.001   5.620   3.016
 4766SOL    HW114324   0.938   5.548   2.985
 4766SOL    HW214325   1.094   5.584   3.016
 4767SOL     OW14326   0.770   6.916   2.163
 4767SOL    HW114327   0.724   6.829   2.180
 4767SOL    HW214328   0.861   6.913   2.204
 4768SOL     OW14329   0.618   7.153   3.146
 4768SOL    HW114330   0.613   7.235   3.203
 4768SOL    HW214331   0.707   7.150   3.101
 4769SOL     OW14332   1.352   5.638   2.030
 4769SOL    HW114333   1.387   5.597   1.946
 4769SOL    HW214334   1.262   5.600   2.050
 4770SOL     OW14335   1.300   6.039   2.553
 4770SOL    HW114336   1.241   6.119   2.557
 4770SOL    HW214337   1.315   6.004   2.646
 4771SOL     OW14338   1.593   5.807   2.744
 4771SOL    HW114339   1.509   5.806   2.798
 4771SOL    HW214340   1.595   5.890   2.688
 4772SOL     OW14341   0.039   6.663   2.162
 4772SOL    HW114342   0.138   6.652   2.153
 4772SOL    HW214343  -0.001   6.577   2.194
 4773SOL     OW14344   0.875   7.232   2.199
 4773SOL    HW114345   0.798   7.197   2.145
 4773SOL    HW214346   0.843   7.303   2.261
 4774SOL     OW14347   0.230   6.214   3.837
 4774SOL    HW114348   0.137   6.212   3.874
 4774SOL    HW214349   0.231   6.175   3.745
 4775SOL     OW14350   0.225   5.861   4.720
 4775SOL    HW114351   0.260   5.844   4.812
 4775SOL    HW214352   0.137   5.816   4.708
 4776SOL     OW14353   0.019   5.954   4.371
 4776SOL    HW114354  -0.063   5.997   4.410
 4776SOL    HW214355  -0.009   5.881   4.308
 4777SOL     OW14356   0.569   6.861   4.889
 4777SOL    HW114357   0.476   6.854   4.852
 4777SOL    HW214358   0.580   6.950   4.933
 4778SOL     OW14359   1.555   7.097   4.427
 4778SOL    HW114360   1.498   7.081   4.508
 4778SOL    HW214361   1.496   7.107   4.347
 4779SOL     OW14362   1.135   6.289   4.441
 4779SOL    HW114363   1.192   6.367   4.416
 4779SOL    HW214364   1.075   6.315   4.517
 4780SOL     OW14365   1.755   6.193   3.955
 4780SOL    HW114366   1.743   6.180   3.856
 4780SOL    HW214367   1.725   6.112   4.004
 4781SOL     OW14368   0.768   6.730   4.747
 4781SOL    HW114369   0.690   6.747   4.807
 4781SOL    HW214370   0.802   6.817   4.711
 4782SOL     OW14371   0.850   6.384   5.547
 4782SOL    HW114372   0.846   6.460   5.612
 4782SOL    HW214373   0.872   6.420   5.456
 4783SOL     OW14374   0.685   6.598   4.389
 4783SOL    HW114375   0.754   6.582   4.459
 4783SOL    HW214376   0.612   6.655   4.427
 4784SOL     OW14377   0.686   6.747   5.527
 4784SOL    HW114378   0.746   6.826   5.541
 4784SOL    HW214379   0.600   6.778   5.486
 4785SOL     OW14380   0.335   7.021   4.785
 4785SOL    HW114381   0.257   6.990   4.732
 4785SOL    HW214382   0.393   7.079   4.728
 4786SOL     OW14383   1.460   7.091   5.063
 4786SOL    HW114384   1.484   7.185   5.089
 4786SOL    HW214385   1.444   7.037   5.145
 4787SOL     OW14386   0.438   5.978   5.223
 4787SOL    HW114387   0.520   5.922   5.232
 4787SOL    HW214388   0.357   5.920   5.227
 4788SOL     OW14389   1.603   6.033   4.461
 4788SOL    HW114390   1.529   6.079   4.411
 4788SOL    HW214391   1.654   6.101   4.514
 4789SOL     OW14392   0.231   7.299   4.207
 4789SOL    HW114393   0.265   7.376   4.261
 4789SOL    HW214394   0.275   7.299   4.117
 4790SOL     OW14395   1.127   6.927   5.414
 4790SOL    HW114396   1.174   6.927   5.502
 4790SOL    HW214397   1.079   6.840   5.403
 4791SOL     OW14398   0.230   7.020   4.262
 4791SOL    HW114399   0.204   7.116   4.262
 4791SOL    HW214400   0.159   6.966   4.307
 4792SOL     OW14401   0.240   6.677   4.610
 4792SOL    HW114402   0.254   6.593   4.662
 4792SOL    HW214403   0.185   6.741   4.665
 4793SOL     OW14404   0.620   7.372   5.163
 4793SOL    HW114405   0.528   7.355   5.198
 4793SOL    HW214406   0.648   7.464   5.189
 4794SOL     OW14407   0.606   6.550   3.847
 4794SOL    HW114408   0.613   6.634   3.793
 4794SOL    HW214409   0.652   6.563   3.935
 4795SOL     OW14410   1.594   5.700   5.204
 4795SOL    HW114411   1.576   5.767   5.132
 4795SOL    HW214412   1.591   5.746   5.293
 4796SOL     OW14413   0.122   6.229   4.287
 4796SOL    HW114414   0.077   6.141   4.304
 4796SOL    HW214415   0.121   6.283   4.371
 4797SOL     OW14416   1.842   7.353   4.083
 4797SOL    HW114417   1.896   7.324   4.163
 4797SOL    HW214418   1.872   7.443   4.054
 4798SOL     OW14419   0.027   7.182   3.841
 4798SOL    HW114420   0.008   7.086   3.862
 4798SOL    HW214421  -0.006   7.240   3.916
 4799SOL     OW14422   1.689   6.508   4.336
 4799SOL    HW114423   1.784   6.479   4.344
 4799SOL    HW214424   1.681   6.573   4.261
 4800SOL     OW14425   1.641   6.694   4.156
 4800SOL    HW114426   1.727   6.696   4.104
 4800SOL    HW214427   1.655   6.741   4.244
 4801SOL     OW14428   0.113   6.323   5.321
 4801SOL    HW114429   0.201   6.310   5.366
 4801SOL    HW214430   0.100   6.420   5.299
 4802SOL     OW14431   0.613   6.951   4.450
 4802SOL    HW114432   0.564   6.864   4.459
 4802SOL    HW214433   0.590   6.994   4.363
 4803SOL     OW14434   1.293   6.814   5.147
 4803SOL    HW114435   1.330   6.741   5.089
 4803SOL    HW214436   1.345   6.819   5.232
 4804SOL     OW14437   0.809   5.590   4.226
 4804SOL    HW114438   0.849   5.681   4.217
 4804SOL    HW214439   0.709   5.598   4.232
 4805SOL     OW14440   0.197   6.562   4.988
 4805SOL    HW114441   0.286   6.517   4.974
 4805SOL    HW214442   0.124   6.497   4.969
 4806SOL     OW14443   1.525   6.585   3.914
 4806SOL    HW114444   1.462   6.509   3.927
 4806SOL    HW214445   1.573   6.603   4.000
 4807SOL     OW14446   1.187   7.378   5.340
 4807SOL    HW114447   1.211   7.438   5.264
 4807SOL    HW214448   1.194   7.283   5.310
 4808SOL     OW14449   0.317   5.837   5.525
 4808SOL    HW114450   0.388   5.908   5.531
 4808SOL    HW214451   0.229   5.876   5.553
 4809SOL     OW14452   1.466   7.003   4.677
 4809SOL    HW114453   1.407   7.009   4.757
 4809SOL    HW214454   1.451   6.915   4.631
 4810SOL     OW14455   1.667   7.300   4.296
 4810SOL    HW114456   1.626   7.277   4.208
 4810SOL    HW214457   1.649   7.226   4.361
 4811SOL     OW14458   0.598   6.315   3.994
 4811SOL    HW114459   0.622   6.384   3.926
 4811SOL    HW214460   0.520   6.348   4.048
 4812SOL     OW14461   1.281   5.931   4.668
 4812SOL    HW114462   1.195   5.881   4.655
 4812SOL    HW214463   1.343   5.877   4.724
 4813SOL     OW14464   1.576   7.248   4.031
 4813SOL    HW114465   1.665   7.294   4.034
 4813SOL    HW214466   1.555   7.224   3.936
 4814SOL     OW14467   0.807   6.191   5.189
 4814SOL    HW114468   0.760   6.188   5.278
 4814SOL    HW214469   0.756   6.136   5.123
 4815SOL     OW14470   1.394   6.055   5.398
 4815SOL    HW114471   1.374   6.098   5.486
 4815SOL    HW214472   1.472   5.993   5.407
 4816SOL     OW14473   0.973   6.476   5.296
 4816SOL    HW114474   1.019   6.392   5.267
 4816SOL    HW214475   0.917   6.510   5.221
 4817SOL     OW14476   0.991   5.996   4.966
 4817SOL    HW114477   0.914   6.030   5.020
 4817SOL    HW214478   0.957   5.945   4.887
 4818SOL     OW14479   1.041   6.287   4.153
 4818SOL    HW114480   1.067   6.283   4.249
 4818SOL    HW214481   0.956   6.236   4.139
 4819SOL     OW14482   0.076   6.397   4.513
 4819SOL    HW114483   0.175   6.385   4.522
 4819SOL    HW214484   0.052   6.492   4.534
 4820SOL     OW14485   0.130   7.407   5.295
 4820SOL    HW114486   0.120   7.392   5.394
 4820SOL    HW214487   0.044   7.443   5.259
 4821SOL     OW14488   0.865   5.934   3.919
 4821SOL    HW114489   0.924   5.997   3.870
 4821SOL    HW214490   0.884   5.840   3.890
 4822SOL     OW14491   1.719   6.171   5.555
 4822SOL    HW114492   1.693   6.260   5.519
 4822SOL    HW214493   1.717   6.103   5.482
 4823SOL     OW14494   1.362   6.730   4.269
 4823SOL    HW114495   1.445   6.701   4.221
 4823SOL    HW214496   1.313   6.797   4.213
 4824SOL     OW14497   0.550   5.782   4.609
 4824SOL    HW114498   0.545   5.777   4.709
 4824SOL    HW214499   0.552   5.878   4.580
 4825SOL     OW14500   1.008   7.042   4.201
 4825SOL    HW114501   0.962   7.114   4.149
 4825SOL    HW214502   1.004   7.062   4.299
 4826SOL     OW14503   0.351   7.387   4.577
 4826SOL    HW114504   0.401   7.301   4.583
 4826SOL    HW214505   0.416   7.464   4.574
 4827SOL     OW14506   1.795   6.652   4.597
 4827SOL    HW114507   1.733   6.637   4.521
 4827SOL    HW214508   1.743   6.663   4.682
 4828SOL     OW14509   1.227   7.136   5.230
 4828SOL    HW114510   1.233   7.059   5.294
 4828SOL    HW214511   1.175   7.110   5.150
 4829SOL     OW14512   0.321   6.529   3.966
 4829SOL    HW114513   0.403   6.568   3.924
 4829SOL    HW214514   0.294   6.447   3.917
 4830SOL     OW14515   1.458   6.321   4.452
 4830SOL    HW114516   1.453   6.256   4.527
 4830SOL    HW214517   1.538   6.380   4.465
 4831SOL     OW14518   0.461   6.852   5.451
 4831SOL    HW114519   0.411   6.853   5.365
 4831SOL    HW214520   0.398   6.834   5.527
 4832SOL     OW14521   1.111   7.362   3.961
 4832SOL    HW114522   1.051   7.300   4.011
 4832SOL    HW214523   1.142   7.318   3.876
 4833SOL     OW14524   0.202   5.871   5.222
 4833SOL    HW114525   0.122   5.931   5.209
 4833SOL    HW214526   0.192   5.822   5.308
 4834SOL     OW14527   1.632   6.963   3.805
 4834SOL    HW114528   1.600   7.057   3.795
 4834SOL    HW214529   1.556   6.900   3.793
 4835SOL     OW14530   0.464   7.329   4.047
 4835SOL    HW114531   0.497   7.368   4.133
 4835SOL    HW214532   0.540   7.322   3.982
 4836SOL     OW14533   1.400   5.693   4.150
 4836SOL    HW114534   1.376   5.656   4.060
 4836SOL    HW214535   1.499   5.709   4.154
 4837SOL     OW14536   0.249   7.371   4.965
 4837SOL    HW114537   0.306   7.306   5.015
 4837SOL    HW214538   0.233   7.338   4.872
 4838SOL     OW14539   0.940   7.284   4.628
 4838SOL    HW114540   1.020   7.227   4.649
 4838SOL    HW214541   0.891   7.244   4.551
 4839SOL     OW14542   0.382   6.286   4.204
 4839SOL    HW114543   0.427   6.196   4.201
 4839SOL    HW214544   0.288   6.275   4.237
 4840SOL     OW14545   1.547   5.808   5.453
 4840SOL    HW114546   1.542   5.845   5.545
 4840SOL    HW214547   1.475   5.739   5.441
 4841SOL     OW14548   0.614   5.708   3.841
 4841SOL    HW114549   0.712   5.686   3.848
 4841SOL    HW214550   0.583   5.691   3.748
 4842SOL     OW14551   0.781   5.850   5.473
 4842SOL    HW114552   0.848   5.789   5.516
 4842SOL    HW214553   0.708   5.869   5.538
 4843SOL     OW14554   0.888   7.100   4.919
 4843SOL    HW114555   0.865   7.075   4.825
 4843SOL    HW214556   0.949   7.031   4.958
 4844SOL     OW14557   1.351   6.176   5.157
 4844SOL    HW114558   1.379   6.133   5.242
 4844SOL    HW214559   1.376   6.272   5.158
 4845SOL     OW14560   0.803   6.988   4.648
 4845SOL    HW114561   0.893   7.002   4.606
 4845SOL    HW214562   0.732   6.990   4.577
 4846SOL     OW14563   0.922   6.089   4.623
 4846SOL    HW114564   0.897   6.080   4.527
 4846SOL    HW214565   0.970   6.007   4.654
 4847SOL     OW14566   0.539   5.650   4.236
 4847SOL    HW114567   0.458   5.651   4.294
 4847SOL    HW214568   0.542   5.733   4.181
 4848SOL     OW14569   1.434   6.774   3.765
 4848SOL    HW114570   1.466   6.698   3.822
 4848SOL    HW214571   1.342   6.801   3.795
 4849SOL     OW14572   0.297   5.621   3.895
 4849SOL    HW114573   0.346   5.705   3.874
 4849SOL    HW214574   0.359   5.556   3.940
 4850SOL     OW14575   0.935   5.822   4.204
 4850SOL    HW114576   0.887   5.863   4.126
 4850SOL    HW214577   1.034   5.820   4.185
 4851SOL     OW14578   1.076   6.269   5.188
 4851SOL    HW114579   0.996   6.208   5.191
 4851SOL    HW214580   1.157   6.216   5.164
 4852SOL     OW14581   1.227   7.156   4.517
 4852SOL    HW114582   1.248   7.230   4.452
 4852SOL    HW214583   1.295   7.156   4.590
 4853SOL     OW14584   0.459   6.738   4.465
 4853SOL    HW114585   0.388   6.711   4.530
 4853SOL    HW214586   0.433   6.710   4.372
 4854SOL     OW14587   1.271   7.383   4.315
 4854SOL    HW114588   1.315   7.447   4.251
 4854SOL    HW214589   1.221   7.435   4.385
 4855SOL     OW14590   1.032   6.135   3.740
 4855SOL    HW114591   0.991   6.217   3.701
 4855SOL    HW214592   1.096   6.161   3.813
 4856SOL     OW14593   0.078   6.142   5.110
 4856SOL    HW114594   0.170   6.141   5.069
 4856SOL    HW214595   0.072   6.216   5.177
 4857SOL     OW14596   0.561   5.808   4.871
 4857SOL    HW114597   0.599   5.724   4.908
 4857SOL    HW214598   0.473   5.827   4.915
 4858SOL     OW14599   0.866   6.040   4.366
 4858SOL    HW114600   0.834   6.112   4.304
 4858SOL    HW214601   0.890   5.959   4.313
 4859SOL     OW14602   1.017   5.625   4.477
 4859SOL    HW114603   0.945   5.630   4.408
 4859SOL    HW214604   0.993   5.556   4.546
 4860SOL     OW14605   1.429   6.759   4.591
 4860SOL    HW114606   1.374   6.675   4.584
 4860SOL    HW214607   1.455   6.788   4.499
 4861SOL     OW14608   1.466   6.176   4.716
 4861SOL    HW114609   1.436   6.081   4.723
 4861SOL    HW214610   1.539   6.192   4.782
 4862SOL     OW14611   1.857   6.419   4.101
 4862SOL    HW114612   1.899   6.355   4.165
 4862SOL    HW214613   1.819   6.368   4.023
 4863SOL     OW14614   0.488   6.971   3.898
 4863SOL    HW114615   0.401   6.956   3.945
 4863SOL    HW214616   0.471   6.997   3.803
 4864SOL     OW14617   1.664   6.866   4.381
 4864SOL    HW114618   1.763   6.874   4.395
 4864SOL    HW214619   1.619   6.950   4.412
 4865SOL     OW14620   1.390   6.161   3.802
 4865SOL    HW114621   1.336   6.140   3.883
 4865SOL    HW214622   1.481   6.120   3.811
 4866SOL     OW14623   0.527   5.842   4.052
 4866SOL    HW114624   0.554   5.783   3.977
 4866SOL    HW214625   0.527   5.937   4.021
 4867SOL     OW14626   1.754   6.809   5.312
 4867SOL    HW114627   1.845   6.770   5.299
 4867SOL    HW214628   1.762   6.905   5.336
 4868SOL     OW14629   1.064   6.933   5.064
 4868SOL    HW114630   0.984   6.910   5.119
 4868SOL    HW214631   1.147   6.907   5.113
 4869SOL     OW14632   1.592   7.215   5.349
 4869SOL    HW114633   1.619   7.249   5.259
 4869SOL    HW214634   1.671   7.177   5.395
 4870SOL     OW14635   1.111   6.781   4.824
 4870SOL    HW114636   1.071   6.825   4.905
 4870SOL    HW214637   1.070   6.818   4.741
 4871SOL     OW14638   1.638   6.685   4.803
 4871SOL    HW114639   1.643   6.766   4.862
 4871SOL    HW214640   1.552   6.687   4.752
 4872SOL     OW14641   0.915   5.675   5.126
 4872SOL    HW114642   0.940   5.655   5.031
 4872SOL    HW214643   0.987   5.731   5.168
 4873SOL     OW14644   0.980   6.702   5.443
 4873SOL    HW114645   0.881   6.708   5.453
 4873SOL    HW214646   1.003   6.622   5.387
 4874SOL     OW14647   0.705   6.636   4.092
 4874SOL    HW114648   0.691   6.643   4.191
 4874SOL    HW214649   0.789   6.585   4.074
 4875SOL     OW14650   0.410   6.399   4.975
 4875SOL    HW114651   0.496   6.411   5.025
 4875SOL    HW214652   0.368   6.312   5.002
 4876SOL     OW14653   1.274   5.972   4.986
 4876SOL    HW114654   1.295   6.046   5.050
 4876SOL    HW214655   1.185   5.989   4.943
 4877SOL     OW14656   0.064   7.150   5.055
 4877SOL    HW114657   0.018   7.232   5.021
 4877SOL    HW214658   0.162   7.169   5.064
 4878SOL     OW14659   0.367   6.686   4.225
 4878SOL    HW114660   0.360   6.769   4.169
 4878SOL    HW214661   0.371   6.606   4.165
 4879SOL     OW14662   0.566   6.123   4.589
 4879SOL    HW114663   0.578   6.189   4.515
 4879SOL    HW214664   0.612   6.157   4.672
 4880SOL     OW14665   1.252   6.934   4.112
 4880SOL    HW114666   1.302   7.011   4.152
 4880SOL    HW214667   1.157   6.936   4.144
 4881SOL     OW14668   1.272   7.031   4.866
 4881SOL    HW114669   1.319   7.044   4.953
 4881SOL    HW214670   1.206   6.957   4.875
 4882SOL     OW14671   1.582   6.225   4.196
 4882SOL    HW114672   1.551   6.286   4.269
 4882SOL    HW214673   1.632   6.277   4.127
 4883SOL     OW14674   0.354   7.096   5.053
 4883SOL    HW114675   0.333   7.052   4.966
 4883SOL    HW214676   0.451   7.122   5.056
 4884SOL     OW14677   0.402   6.337   5.322
 4884SOL    HW114678   0.470   6.392   5.275
 4884SOL    HW214679   0.442   6.249   5.349
 4885SOL     OW14680   1.587   6.365   5.394
 4885SOL    HW114681   1.495   6.403   5.389
 4885SOL    HW214682   1.647   6.412   5.329
 4886SOL     OW14683   1.013   5.691   5.494
 4886SOL    HW114684   1.019   5.776   5.442
 4886SOL    HW214685   1.045   5.615   5.437
 4887SOL     OW14686   0.504   5.636   5.464
 4887SOL    HW114687   0.462   5.579   5.394
 4887SOL    HW214688   0.438   5.705   5.496
 4888SOL     OW14689   0.573   6.456   4.753
 4888SOL    HW114690   0.617   6.545   4.744
 4888SOL    HW214691   0.510   6.456   4.830
 4889SOL     OW14692   1.360   6.448   4.769
 4889SOL    HW114693   1.285   6.448   4.703
 4889SOL    HW214694   1.397   6.356   4.778
 4890SOL     OW14695   1.209   6.111   3.999
 4890SOL    HW114696   1.222   6.027   4.053
 4890SOL    HW214697   1.180   6.185   4.059
 4891SOL     OW14698   0.307   5.799   4.955
 4891SOL    HW114699   0.284   5.836   5.045
 4891SOL    HW214700   0.277   5.704   4.949
 4892SOL     OW14701   0.037   6.896   5.006
 4892SOL    HW114702   0.090   6.847   5.074
 4892SOL    HW214703   0.059   6.994   5.011
 4893SOL     OW14704   0.732   6.220   4.788
 4893SOL    HW114705   0.791   6.194   4.712
 4893SOL    HW214706   0.704   6.316   4.777
 4894SOL     OW14707   1.728   6.521   5.578
 4894SOL    HW114708   1.682   6.514   5.489
 4894SOL    HW214709   1.666   6.565   5.644
 4895SOL     OW14710   0.307   5.649   4.342
 4895SOL    HW114711   0.296   5.743   4.375
 4895SOL    HW214712   0.302   5.586   4.419
 4896SOL     OW14713   1.622   5.953   4.098
 4896SOL    HW114714   1.624   5.877   4.162
 4896SOL    HW214715   1.574   6.030   4.138
 4897SOL     OW14716   1.023   6.352   4.690
 4897SOL    HW114717   1.038   6.373   4.786
 4897SOL    HW214718   0.993   6.257   4.681
 4898SOL     OW14719   0.980   7.159   5.424
 4898SOL    HW114720   0.960   7.203   5.336
 4898SOL    HW214721   1.019   7.068   5.408
 4899SOL     OW14722   1.859   7.104   5.329
 4899SOL    HW114723   1.873   7.131   5.234
 4899SOL    HW214724   1.942   7.126   5.382
 4900SOL     OW14725   0.350   6.484   5.528
 4900SOL    HW114726   0.426   6.528   5.576
 4900SOL    HW214727   0.385   6.437   5.446
 4901SOL     OW14728   1.540   5.860   3.849
 4901SOL    HW114729   1.479   5.785   3.872
 4901SOL    HW214730   1.562   5.912   3.932
 4902SOL     OW14731   1.303   6.424   3.766
 4902SOL    HW114732   1.337   6.331   3.781
 4902SOL    HW214733   1.321   6.451   3.671
 4903SOL     OW14734   1.068   6.919   4.573
 4903SOL    HW114735   1.075   6.835   4.518
 4903SOL    HW214736   1.130   6.988   4.537
 4904SOL     OW14737   0.319   6.396   4.673
 4904SOL    HW114738   0.412   6.432   4.678
 4904SOL    HW214739   0.313   6.311   4.725
 4905SOL     OW14740   0.339   6.095   4.730
 4905SOL    HW114741   0.287   6.012   4.713
 4905SOL    HW214742   0.416   6.100   4.666
 4906SOL     OW14743   1.138   5.966   5.402
 4906SOL    HW114744   1.093   6.029   5.466
 4906SOL    HW214745   1.231   5.997   5.385
 4907SOL     OW14746   1.160   5.793   5.201
 4907SOL    HW114747   1.160   5.857   5.278
 4907SOL    HW214748   1.188   5.841   5.118
 4908SOL     OW14749   0.008   6.912   3.924
 4908SOL    HW114750  -0.085   6.933   3.893
 4908SOL    HW214751   0.018   6.813   3.937
 4909SOL     OW14752   0.088   7.387   4.651
 4909SOL    HW114753   0.046   7.301   4.624
 4909SOL    HW214754   0.182   7.390   4.617
 4910SOL     OW14755   0.504   7.154   4.634
 4910SOL    HW114756   0.570   7.228   4.643
 4910SOL    HW214757   0.548   7.075   4.592
 4911SOL     OW14758   1.002   6.382   4.962
 4911SOL    HW114759   1.043   6.350   5.048
 4911SOL    HW214760   0.906   6.355   4.959
 4912SOL     OW14761   0.040   6.130   4.838
 4912SOL    HW114762   0.125   6.097   4.797
 4912SOL    HW214763   0.053   6.145   4.936
 4913SOL     OW14764   0.189   6.106   5.446
 4913SOL    HW114765   0.248   6.066   5.376
 4913SOL    HW214766   0.131   6.177   5.405
 4914SOL     OW14767   1.369   6.536   5.384
 4914SOL    HW114768   1.408   6.625   5.404
 4914SOL    HW214769   1.379   6.516   5.287
 4915SOL     OW14770   0.815   6.158   4.049
 4915SOL    HW114771   0.822   6.069   4.003
 4915SOL    HW214772   0.721   6.192   4.041
 4916SOL     OW14773   1.657   6.190   4.930
 4916SOL    HW114774   1.619   6.121   4.992
 4916SOL    HW214775   1.739   6.154   4.886
 4917SOL     OW14776   0.252   7.150   5.468
 4917SOL    HW114777   0.222   7.207   5.544
 4917SOL    HW214778   0.245   7.053   5.494
 4918SOL     OW14779   0.671   6.050   4.993
 4918SOL    HW114780   0.637   5.961   4.963
 4918SOL    HW214781   0.697   6.104   4.913
 4919SOL     OW14782   0.930   7.264   5.189
 4919SOL    HW114783   0.906   7.246   5.094
 4919SOL    HW214784   0.960   7.358   5.199
 4920SOL     OW14785   0.473   6.086   3.915
 4920SOL    HW114786   0.534   6.166   3.919
 4920SOL    HW214787   0.378   6.117   3.922
 4921SOL     OW14788   0.159   6.723   5.190
 4921SOL    HW114789   0.181   6.662   5.266
 4921SOL    HW214790   0.169   6.674   5.104
 4922SOL     OW14791   1.347   6.645   4.958
 4922SOL    HW114792   1.371   6.582   4.884
 4922SOL    HW214793   1.257   6.685   4.940
 4923SOL     OW14794   1.302   6.441   4.033
 4923SOL    HW114795   1.216   6.410   4.075
 4923SOL    HW214796   1.298   6.427   3.934
 4924SOL     OW14797   1.759   7.333   4.878
 4924SOL    HW114798   1.820   7.363   4.805
 4924SOL    HW214799   1.721   7.244   4.856
 4925SOL     OW14800   1.252   7.317   4.852
 4925SOL    HW114801   1.336   7.322   4.798
 4925SOL    HW214802   1.229   7.221   4.870
 4926SOL     OW14803   0.083   6.844   4.746
 4926SOL    HW114804   0.078   6.843   4.846
 4926SOL    HW214805   0.000   6.803   4.708
 4927SOL     OW14806   0.688   7.248   5.440
 4927SOL    HW114807   0.632   7.329   5.449
 4927SOL    HW214808   0.740   7.252   5.354
 4928SOL     OW14809   1.726   5.721   4.247
 4928SOL    HW114810   1.799   5.704   4.180
 4928SOL    HW214811   1.695   5.634   4.285
 4929SOL     OW14812   1.388   7.159   4.201
 4929SOL    HW114813   1.455   7.171   4.127
 4929SOL    HW214814   1.348   7.248   4.224
 4930SOL     OW14815   0.130   7.380   5.575
 4930SOL    HW114816   0.089   7.306   5.628
 4930SOL    HW214817   0.194   7.431   5.633
 4931SOL     OW14818   1.280   6.513   4.396
 4931SOL    HW114819   1.340   6.432   4.398
 4931SOL    HW214820   1.320   6.582   4.336
 4932SOL     OW14821   0.830   6.859   5.146
 4932SOL    HW114822   0.825   6.892   5.241
 4932SOL    HW214823   0.744   6.878   5.100
 4933SOL     OW14824   0.672   7.202   3.878
 4933SOL    HW114825   0.681   7.212   3.779
 4933SOL    HW214826   0.632   7.113   3.899
 4934SOL     OW14827   1.650   7.306   5.118
 4934SOL    HW114828   1.703   7.316   5.034
 4934SOL    HW214829   1.623   7.396   5.152
 4935SOL     OW14830   1.841   5.761   4.687
 4935SOL    HW114831   1.880   5.676   4.651
 4935SOL    HW214832   1.743   5.763   4.668
 4936SOL     OW14833   0.263   5.912   4.444
 4936SOL    HW114834   0.184   5.963   4.410
 4936SOL    HW214835   0.254   5.897   4.542
 4937SOL     OW14836   1.194   7.198   3.755
 4937SOL    HW114837   1.200   7.105   3.792
 4937SOL    HW214838   1.135   7.198   3.675
 4938SOL     OW14839   0.822   6.588   5.096
 4938SOL    HW114840   0.862   6.587   5.004
 4938SOL    HW214841   0.832   6.680   5.136
 4939SOL     OW14842   0.916   6.496   4.015
 4939SOL    HW114843   0.979   6.534   3.947
 4939SOL    HW214844   0.956   6.413   4.054
 4940SOL     OW14845   1.504   7.193   3.768
 4940SOL    HW114846   1.412   7.230   3.775
 4940SOL    HW214847   1.542   7.213   3.678
 4941SOL     OW14848   0.372   6.874   5.214
 4941SOL    HW114849   0.359   6.967   5.180
 4941SOL    HW214850   0.288   6.822   5.201
 4942SOL     OW14851   1.614   6.878   5.013
 4942SOL    HW114852   1.674   6.881   5.093
 4942SOL    HW214853   1.539   6.942   5.026
 4943SOL     OW14854   1.039   6.684   4.420
 4943SOL    HW114855   0.969   6.637   4.474
 4943SOL    HW214856   1.098   6.616   4.377
 4944SOL     OW14857   1.014   5.822   4.695
 4944SOL    HW114858   1.006   5.786   4.602
 4944SOL    HW214859   1.012   5.746   4.760
 4945SOL     OW14860   0.590   7.073   4.215
 4945SOL    HW114861   0.632   7.015   4.145
 4945SOL    HW214862   0.546   7.152   4.171
 4946SOL     OW14863   1.709   5.971   5.105
 4946SOL    HW114864   1.782   6.040   5.109
 4946SOL    HW214865   1.737   5.896   5.046
 4947SOL     OW14866   0.255   6.934   4.014
 4947SOL    HW114867   0.159   6.935   3.987
 4947SOL    HW214868   0.267   6.987   4.098
 4948SOL     OW14869   0.105   6.599   5.450
 4948SOL    HW114870   0.028   6.566   5.504
 4948SOL    HW214871   0.190   6.569   5.492
 4949SOL     OW14872   0.672   5.789   5.213
 4949SOL    HW114873   0.762   5.773   5.173
 4949SOL    HW214874   0.680   5.794   5.312
 4950SOL     OW14875   0.075   5.931   3.757
 4950SOL    HW114876  -0.017   5.903   3.728
 4950SOL    HW214877   0.106   6.008   3.701
 4951SOL     OW14878   1.440   6.442   5.122
 4951SOL    HW114879   1.383   6.494   5.059
 4951SOL    HW214880   1.536   6.454   5.098
 4952SOL     OW14881   0.072   5.752   4.042
 4952SOL    HW114882   0.055   5.835   3.988
 4952SOL    HW214883   0.162   5.715   4.020
 4953SOL     OW14884   1.183   6.921   3.843
 4953SOL    HW114885   1.084   6.910   3.845
 4953SOL    HW214886   1.217   6.936   3.936
 4954SOL     OW14887   0.613   6.428   5.155
 4954SOL    HW114888   0.669   6.509   5.138
 4954SOL    HW214889   0.672   6.348   5.158
 4955SOL     OW14890   1.493   7.353   4.683
 4955SOL    HW114891   1.526   7.417   4.614
 4955SOL    HW214892   1.559   7.347   4.758
 4956SOL     OW14893   0.716   6.151   5.432
 4956SOL    HW114894   0.735   6.216   5.506
 4956SOL    HW214895   0.776   6.071   5.441
 4957SOL     OW14896   1.450   6.806   5.357
 4957SOL    HW114897   1.441   6.796   5.456
 4957SOL    HW214898   1.546   6.799   5.331
 4958SOL     OW14899   0.390   7.327   5.284
 4958SOL    HW114900   0.299   7.368   5.282
 4958SOL    HW214901   0.383   7.233   5.316
 4959SOL     OW14902   1.674   6.469   4.978
 4959SOL    HW114903   1.647   6.380   4.941
 4959SOL    HW214904   1.675   6.537   4.905
 4960SOL     OW14905   1.225   5.911   4.173
 4960SOL    HW114906   1.290   5.837   4.162
 4960SOL    HW214907   1.245   5.961   4.257
 4961SOL     OW14908   0.594   6.331   4.376
 4961SOL    HW114909   0.644   6.416   4.357
 4961SOL    HW214910   0.506   6.333   4.328
 4962SOL     OW14911   1.777   5.928   5.366
 4962SOL    HW114912   1.760   5.959   5.272
 4962SOL    HW214913   1.693   5.891   5.404
 4963SOL     OW14914   1.730   6.520   5.241
 4963SOL    HW114915   1.768   6.611   5.256
 4963SOL    HW214916   1.722   6.503   5.142
 4964SOL     OW14917   0.859   6.960   3.740
 4964SOL    HW114918   0.813   6.975   3.828
 4964SOL    HW214919   0.903   7.045   3.710
 4965SOL     OW14920   0.661   7.376   4.677
 4965SOL    HW114921   0.615   7.464   4.664
 4965SOL    HW214922   0.760   7.388   4.670
 4966SOL     OW14923   0.859   6.542   4.585
 4966SOL    HW114924   0.913   6.473   4.633
 4966SOL    HW214925   0.827   6.611   4.651
 4967SOL     OW14926   1.083   6.570   3.811
 4967SOL    HW114927   1.060   6.623   3.729
 4967SOL    HW214928   1.164   6.514   3.792
 4968SOL     OW14929   1.861   7.155   4.575
 4968SOL    HW114930   1.790   7.143   4.505
 4968SOL    HW214931   1.862   7.076   4.635
 4969SOL     OW14932   0.221   6.900   5.568
 4969SOL    HW114933   0.156   6.827   5.547
 4969SOL    HW214934   0.225   6.914   5.666
 4970SOL     OW14935   0.079   6.826   4.377
 4970SOL    HW114936   0.078   6.779   4.465
 4970SOL    HW214937   0.161   6.798   4.326
 4971SOL     OW14938   0.672   6.977   5.348
 4971SOL    HW114939   0.594   6.927   5.386
 4971SOL    HW214940   0.669   7.072   5.379
 4972SOL     OW14941   1.824   5.778   4.951
 4972SOL    HW114942   1.820   5.688   4.995
 4972SOL    HW214943   1.827   5.767   4.852
 4973SOL     OW14944   0.428   6.010   4.244
 4973SOL    HW114945   0.458   5.938   4.182
 4973SOL    HW214946   0.389   5.970   4.327
 4974SOL     OW14947   1.705   7.073   4.828
 4974SOL    HW114948   1.612   7.048   4.801
 4974SOL    HW214949   1.731   7.023   4.910
 4975SOL     OW14950   0.317   6.133   5.004
 4975SOL    HW114951   0.355   6.074   5.076
 4975SOL    HW214952   0.357   6.107   4.916
 4976SOL     OW14953   0.812   7.172   4.411
 4976SOL    HW114954   0.844   7.182   4.317
 4976SOL    HW214955   0.733   7.110   4.413
 4977SOL     OW14956   1.424   5.800   4.836
 4977SOL    HW114957   1.476   5.735   4.891
 4977SOL    HW214958   1.375   5.863   4.897
 4978SOL     OW14959   1.001   5.620   4.878
 4978SOL    HW114960   0.938   5.548   4.847
 4978SOL    HW214961   1.094   5.584   4.878
 4979SOL     OW14962   0.770   6.916   4.025
 4979SOL    HW114963   0.724   6.829   4.042
 4979SOL    HW214964   0.861   6.913   4.066
 4980SOL     OW14965   0.618   7.153   5.008
 4980SOL    HW114966   0.613   7.235   5.065
 4980SOL    HW214967   0.707   7.150   4.963
 4981SOL     OW14968   1.352   5.638   3.892
 4981SOL    HW114969   1.387   5.597   3.808
 4981SOL    HW214970   1.262   5.600   3.912
 4982SOL     OW14971   1.300   6.039   4.415
 4982SOL    HW114972   1.241   6.119   4.419
 4982SOL    HW214973   1.315   6.004   4.508
 4983SOL     OW14974   1.593   5.807   4.606
 4983SOL    HW114975   1.509   5.806   4.660
 4983SOL    HW214976   1.595   5.890   4.550
 4984SOL     OW14977   0.039   6.663   4.024
 4984SOL    HW114978   0.138   6.652   4.015
 4984SOL    HW214979  -0.001   6.577   4.056
 4985SOL     OW14980   0.875   7.232   4.061
 4985SOL    HW114981   0.798   7.197   4.007
 4985SOL    HW214982   0.843   7.303   4.123
 4986SOL     OW14983   0.230   6.214   5.699
 4986SOL    HW114984   0.137   6.212   5.736
 4986SOL    HW214985   0.231   6.175   5.607
 4987SOL     OW14986   0.225   5.861   6.582
 4987SOL    HW114987   0.260   5.844   6.674
 4987SOL    HW214988   0.137   5.816   6.570
 4988SOL     OW14989   0.019   5.954   6.233
 4988SOL    HW114990  -0.063   5.997   6.272
 4988SOL    HW214991  -0.009   5.881   6.170
 4989SOL     OW14992   0.569   6.861   6.751
 4989SOL    HW114993   0.476   6.854   6.714
 4989SOL    HW214994   0.580   6.950   6.795
 4990SOL     OW14995   1.555   7.097   6.289
 4990SOL    HW114996   1.498   7.081   6.370
 4990SOL    HW214997   1.496   7.107   6.209
 4991SOL     OW14998   1.135   6.289   6.303
 4991SOL    HW114999   1.192   6.367   6.278
 4991SOL    HW215000   1.075   6.315   6.379
 4992SOL     OW15001   1.755   6.193   5.817
 4992SOL    HW115002   1.743   6.180   5.718
 4992SOL    HW215003   1.725   6.112   5.866
 4993SOL     OW15004   0.768   6.730   6.609
 4993SOL    HW115005   0.690   6.747   6.669
 4993SOL    HW215006   0.802   6.817   6.573
 4994SOL     OW15007   0.850   6.384   7.409
 4994SOL    HW115008   0.846   6.460   7.474
 4994SOL    HW215009   0.872   6.420   7.318
 4995SOL     OW15010   0.685   6.598   6.251
 4995SOL    HW115011   0.754   6.582   6.321
 4995SOL    HW215012   0.612   6.655   6.289
 4996SOL     OW15013   0.686   6.747   7.389
 4996SOL    HW115014   0.746   6.826   7.403
 4996SOL    HW215015   0.600   6.778   7.348
 4997SOL     OW15016   0.335   7.021   6.647
 4997SOL    HW115017   0.257   6.990   6.594
 4997SOL    HW215018   0.393   7.079   6.590
 4998SOL     OW15019   1.460   7.091   6.925
 4998SOL    HW115020   1.484   7.185   6.951
 4998SOL    HW215021   1.444   7.037   7.007
 4999SOL     OW15022   0.438   5.978   7.085
 4999SOL    HW115023   0.520   5.922   7.094
 4999SOL    HW215024   0.357   5.920   7.089
 5000SOL     OW15025   1.603   6.033   6.323
 5000SOL    HW115026   1.529   6.079   6.273
 5000SOL    HW215027   1.654   6.101   6.376
 5001SOL     OW15028   0.231   7.299   6.069
 5001SOL    HW115029   0.265   7.376   6.123
 5001SOL    HW215030   0.275   7.299   5.979
 5002SOL     OW15031   1.127   6.927   7.276
 5002SOL    HW115032   1.174   6.927   7.364
 5002SOL    HW215033   1.079   6.840   7.265
 5003SOL     OW15034   0.230   7.020   6.124
 5003SOL    HW115035   0.204   7.116   6.124
 5003SOL    HW215036   0.159   6.966   6.169
 5004SOL     OW15037   0.240   6.677   6.472
 5004SOL    HW115038   0.254   6.593   6.524
 5004SOL    HW215039   0.185   6.741   6.527
 5005SOL     OW15040   0.620   7.372   7.025
 5005SOL    HW115041   0.528   7.355   7.060
 5005SOL    HW215042   0.648   7.464   7.051
 5006SOL     OW15043   0.606   6.550   5.709
 5006SOL    HW115044   0.613   6.634   5.655
 5006SOL    HW215045   0.652   6.563   5.797
 5007SOL     OW15046   1.594   5.700   7.066
 5007SOL    HW115047   1.576   5.767   6.994
 5007SOL    HW215048   1.591   5.746   7.155
 5008SOL     OW15049   0.122   6.229   6.149
 5008SOL    HW115050   0.077   6.141   6.166
 5008SOL    HW215051   0.121   6.283   6.233
 5009SOL     OW15052   1.842   7.353   5.945
 5009SOL    HW115053   1.896   7.324   6.025
 5009SOL    HW215054   1.872   7.443   5.916
 5010SOL     OW15055   0.027   7.182   5.703
 5010SOL    HW115056   0.008   7.086   5.724
 5010SOL    HW215057  -0.006   7.240   5.778
 5011SOL     OW15058   1.689   6.508   6.198
 5011SOL    HW115059   1.784   6.479   6.206
 5011SOL    HW215060   1.681   6.573   6.123
 5012SOL     OW15061   1.641   6.694   6.018
 5012SOL    HW115062   1.727   6.696   5.966
 5012SOL    HW215063   1.655   6.741   6.106
 5013SOL     OW15064   0.113   6.323   7.183
 5013SOL    HW115065   0.201   6.310   7.228
 5013SOL    HW215066   0.100   6.420   7.161
 5014SOL     OW15067   0.613   6.951   6.312
 5014SOL    HW115068   0.564   6.864   6.321
 5014SOL    HW215069   0.590   6.994   6.225
 5015SOL     OW15070   1.293   6.814   7.009
 5015SOL    HW115071   1.330   6.741   6.951
 5015SOL    HW215072   1.345   6.819   7.094
 5016SOL     OW15073   0.809   5.590   6.088
 5016SOL    HW115074   0.849   5.681   6.079
 5016SOL    HW215075   0.709   5.598   6.094
 5017SOL     OW15076   0.197   6.562   6.850
 5017SOL    HW115077   0.286   6.517   6.836
 5017SOL    HW215078   0.124   6.497   6.831
 5018SOL     OW15079   1.525   6.585   5.776
 5018SOL    HW115080   1.462   6.509   5.789
 5018SOL    HW215081   1.573   6.603   5.862
 5019SOL     OW15082   1.187   7.378   7.202
 5019SOL    HW115083   1.211   7.438   7.126
 5019SOL    HW215084   1.194   7.283   7.172
 5020SOL     OW15085   0.317   5.837   7.387
 5020SOL    HW115086   0.388   5.908   7.393
 5020SOL    HW215087   0.229   5.876   7.415
 5021SOL     OW15088   1.466   7.003   6.539
 5021SOL    HW115089   1.407   7.009   6.619
 5021SOL    HW215090   1.451   6.915   6.493
 5022SOL     OW15091   1.667   7.300   6.158
 5022SOL    HW115092   1.626   7.277   6.070
 5022SOL    HW215093   1.649   7.226   6.223
 5023SOL     OW15094   0.598   6.315   5.856
 5023SOL    HW115095   0.622   6.384   5.788
 5023SOL    HW215096   0.520   6.348   5.910
 5024SOL     OW15097   1.281   5.931   6.530
 5024SOL    HW115098   1.195   5.881   6.517
 5024SOL    HW215099   1.343   5.877   6.586
 5025SOL     OW15100   1.576   7.248   5.893
 5025SOL    HW115101   1.665   7.294   5.896
 5025SOL    HW215102   1.555   7.224   5.798
 5026SOL     OW15103   0.807   6.191   7.051
 5026SOL    HW115104   0.760   6.188   7.140
 5026SOL    HW215105   0.756   6.136   6.985
 5027SOL     OW15106   1.394   6.055   7.260
 5027SOL    HW115107   1.374   6.098   7.348
 5027SOL    HW215108   1.472   5.993   7.269
 5028SOL     OW15109   0.973   6.476   7.158
 5028SOL    HW115110   1.019   6.392   7.129
 5028SOL    HW215111   0.917   6.510   7.083
 5029SOL     OW15112   0.991   5.996   6.828
 5029SOL    HW115113   0.914   6.030   6.882
 5029SOL    HW215114   0.957   5.945   6.749
 5030SOL     OW15115   1.041   6.287   6.015
 5030SOL    HW115116   1.067   6.283   6.111
 5030SOL    HW215117   0.956   6.236   6.001
 5031SOL     OW15118   0.076   6.397   6.375
 5031SOL    HW115119   0.175   6.385   6.384
 5031SOL    HW215120   0.052   6.492   6.396
 5032SOL     OW15121   0.130   7.407   7.157
 5032SOL    HW115122   0.120   7.392   7.256
 5032SOL    HW215123   0.044   7.443   7.121
 5033SOL     OW15124   0.865   5.934   5.781
 5033SOL    HW115125   0.924   5.997   5.732
 5033SOL    HW215126   0.884   5.840   5.752
 5034SOL     OW15127   1.719   6.171   7.417
 5034SOL    HW115128   1.693   6.260   7.381
 5034SOL    HW215129   1.717   6.103   7.344
 5035SOL     OW15130   1.362   6.730   6.131
 5035SOL    HW115131   1.445   6.701   6.083
 5035SOL    HW215132   1.313   6.797   6.075
 5036SOL     OW15133   0.550   5.782   6.471
 5036SOL    HW115134   0.545   5.777   6.571
 5036SOL    HW215135   0.552   5.878   6.442
 5037SOL     OW15136   1.008   7.042   6.063
 5037SOL    HW115137   0.962   7.114   6.011
 5037SOL    HW215138   1.004   7.062   6.161
 5038SOL     OW15139   0.351   7.387   6.439
 5038SOL    HW115140   0.401   7.301   6.445
 5038SOL    HW215141   0.416   7.464   6.436
 5039SOL     OW15142   1.795   6.652   6.459
 5039SOL    HW115143   1.733   6.637   6.383
 5039SOL    HW215144   1.743   6.663   6.544
 5040SOL     OW15145   1.227   7.136   7.092
 5040SOL    HW115146   1.233   7.059   7.156
 5040SOL    HW215147   1.175   7.110   7.012
 5041SOL     OW15148   0.321   6.529   5.828
 5041SOL    HW115149   0.403   6.568   5.786
 5041SOL    HW215150   0.294   6.447   5.779
 5042SOL     OW15151   1.458   6.321   6.314
 5042SOL    HW115152   1.453   6.256   6.389
 5042SOL    HW215153   1.538   6.380   6.327
 5043SOL     OW15154   0.461   6.852   7.313
 5043SOL    HW115155   0.411   6.853   7.227
 5043SOL    HW215156   0.398   6.834   7.389
 5044SOL     OW15157   1.111   7.362   5.823
 5044SOL    HW115158   1.051   7.300   5.873
 5044SOL    HW215159   1.142   7.318   5.738
 5045SOL     OW15160   0.202   5.871   7.084
 5045SOL    HW115161   0.122   5.931   7.071
 5045SOL    HW215162   0.192   5.822   7.170
 5046SOL     OW15163   1.632   6.963   5.667
 5046SOL    HW115164   1.600   7.057   5.657
 5046SOL    HW215165   1.556   6.900   5.655
 5047SOL     OW15166   0.464   7.329   5.909
 5047SOL    HW115167   0.497   7.368   5.995
 5047SOL    HW215168   0.540   7.322   5.844
 5048SOL     OW15169   1.400   5.693   6.012
 5048SOL    HW115170   1.376   5.656   5.922
 5048SOL    HW215171   1.499   5.709   6.016
 5049SOL     OW15172   0.249   7.371   6.827
 5049SOL    HW115173   0.306   7.306   6.877
 5049SOL    HW215174   0.233   7.338   6.734
 5050SOL     OW15175   0.940   7.284   6.490
 5050SOL    HW115176   1.020   7.227   6.511
 5050SOL    HW215177   0.891   7.244   6.413
 5051SOL     OW15178   0.382   6.286   6.066
 5051SOL    HW115179   0.427   6.196   6.063
 5051SOL    HW215180   0.288   6.275   6.099
 5052SOL     OW15181   1.547   5.808   7.315
 5052SOL    HW115182   1.542   5.845   7.407
 5052SOL    HW215183   1.475   5.739   7.303
 5053SOL     OW15184   0.614   5.708   5.703
 5053SOL    HW115185   0.712   5.686   5.710
 5053SOL    HW215186   0.583   5.691   5.610
 5054SOL     OW15187   0.781   5.850   7.335
 5054SOL    HW115188   0.848   5.789   7.378
 5054SOL    HW215189   0.708   5.869   7.400
 5055SOL     OW15190   0.888   7.100   6.781
 5055SOL    HW115191   0.865   7.075   6.687
 5055SOL    HW215192   0.949   7.031   6.820
 5056SOL     OW15193   1.351   6.176   7.019
 5056SOL    HW115194   1.379   6.133   7.104
 5056SOL    HW215195   1.376   6.272   7.020
 5057SOL     OW15196   0.803   6.988   6.510
 5057SOL    HW115197   0.893   7.002   6.468
 5057SOL    HW215198   0.732   6.990   6.439
 5058SOL     OW15199   0.922   6.089   6.485
 5058SOL    HW115200   0.897   6.080   6.389
 5058SOL    HW215201   0.970   6.007   6.516
 5059SOL     OW15202   0.539   5.650   6.098
 5059SOL    HW115203   0.458   5.651   6.156
 5059SOL    HW215204   0.542   5.733   6.043
 5060SOL     OW15205   1.434   6.774   5.627
 5060SOL    HW115206   1.466   6.698   5.684
 5060SOL    HW215207   1.342   6.801   5.657
 5061SOL     OW15208   0.297   5.621   5.757
 5061SOL    HW115209   0.346   5.705   5.736
 5061SOL    HW215210   0.359   5.556   5.802
 5062SOL     OW15211   0.935   5.822   6.066
 5062SOL    HW115212   0.887   5.863   5.988
 5062SOL    HW215213   1.034   5.820   6.047
 5063SOL     OW15214   1.076   6.269   7.050
 5063SOL    HW115215   0.996   6.208   7.053
 5063SOL    HW215216   1.157   6.216   7.026
 5064SOL     OW15217   1.227   7.156   6.379
 5064SOL    HW115218   1.248   7.230   6.314
 5064SOL    HW215219   1.295   7.156   6.452
 5065SOL     OW15220   0.459   6.738   6.327
 5065SOL    HW115221   0.388   6.711   6.392
 5065SOL    HW215222   0.433   6.710   6.234
 5066SOL     OW15223   1.271   7.383   6.177
 5066SOL    HW115224   1.315   7.447   6.113
 5066SOL    HW215225   1.221   7.435   6.247
 5067SOL     OW15226   1.032   6.135   5.602
 5067SOL    HW115227   0.991   6.217   5.563
 5067SOL    HW215228   1.096   6.161   5.675
 5068SOL     OW15229   0.078   6.142   6.972
 5068SOL    HW115230   0.170   6.141   6.931
 5068SOL    HW215231   0.072   6.216   7.039
 5069SOL     OW15232   0.561   5.808   6.733
 5069SOL    HW115233   0.599   5.724   6.770
 5069SOL    HW215234   0.473   5.827   6.777
 5070SOL     OW15235   0.866   6.040   6.228
 5070SOL    HW115236   0.834   6.112   6.166
 5070SOL    HW215237   0.890   5.959   6.175
 5071SOL     OW15238   1.017   5.625   6.339
 5071SOL    HW115239   0.945   5.630   6.270
 5071SOL    HW215240   0.993   5.556   6.408
 5072SOL     OW15241   1.429   6.759   6.453
 5072SOL    HW115242   1.374   6.675   6.446
 5072SOL    HW215243   1.455   6.788   6.361
 5073SOL     OW15244   1.466   6.176   6.578
 5073SOL    HW115245   1.436   6.081   6.585
 5073SOL    HW215246   1.539   6.192   6.644
 5074SOL     OW15247   1.857   6.419   5.963
 5074SOL    HW115248   1.899   6.355   6.027
 5074SOL    HW215249   1.819   6.368   5.885
 5075SOL     OW15250   0.488   6.971   5.760
 5075SOL    HW115251   0.401   6.956   5.807
 5075SOL    HW215252   0.471   6.997   5.665
 5076SOL     OW15253   1.664   6.866   6.243
 5076SOL    HW115254   1.763   6.874   6.257
 5076SOL    HW215255   1.619   6.950   6.274
 5077SOL     OW15256   1.390   6.161   5.664
 5077SOL    HW115257   1.336   6.140   5.745
 5077SOL    HW215258   1.481   6.120   5.673
 5078SOL     OW15259   0.527   5.842   5.914
 5078SOL    HW115260   0.554   5.783   5.839
 5078SOL    HW215261   0.527   5.937   5.883
 5079SOL     OW15262   1.754   6.809   7.174
 5079SOL    HW115263   1.845   6.770   7.161
 5079SOL    HW215264   1.762   6.905   7.198
 5080SOL     OW15265   1.064   6.933   6.926
 5080SOL    HW115266   0.984   6.910   6.981
 5080SOL    HW215267   1.147   6.907   6.975
 5081SOL     OW15268   1.592   7.215   7.211
 5081SOL    HW115269   1.619   7.249   7.121
 5081SOL    HW215270   1.671   7.177   7.257
 5082SOL     OW15271   1.111   6.781   6.686
 5082SOL    HW115272   1.071   6.825   6.767
 5082SOL    HW215273   1.070   6.818   6.603
 5083SOL     OW15274   1.638   6.685   6.665
 5083SOL    HW115275   1.643   6.766   6.724
 5083SOL    HW215276   1.552   6.687   6.614
 5084SOL     OW15277   0.915   5.675   6.988
 5084SOL    HW115278   0.940   5.655   6.893
 5084SOL    HW215279   0.987   5.731   7.030
 5085SOL     OW15280   0.980   6.702   7.305
 5085SOL    HW115281   0.881   6.708   7.315
 5085SOL    HW215282   1.003   6.622   7.249
 5086SOL     OW15283   0.705   6.636   5.954
 5086SOL    HW115284   0.691   6.643   6.053
 5086SOL    HW215285   0.789   6.585   5.936
 5087SOL     OW15286   0.410   6.399   6.837
 5087SOL    HW115287   0.496   6.411   6.887
 5087SOL    HW215288   0.368   6.312   6.864
 5088SOL     OW15289   1.274   5.972   6.848
 5088SOL    HW115290   1.295   6.046   6.912
 5088SOL    HW215291   1.185   5.989   6.805
 5089SOL     OW15292   0.064   7.150   6.917
 5089SOL    HW115293   0.018   7.232   6.883
 5089SOL    HW215294   0.162   7.169   6.926
 5090SOL     OW15295   0.367   6.686   6.087
 5090SOL    HW115296   0.360   6.769   6.031
 5090SOL    HW215297   0.371   6.606   6.027
 5091SOL     OW15298   0.566   6.123   6.451
 5091SOL    HW115299   0.578   6.189   6.377
 5091SOL    HW215300   0.612   6.157   6.534
 5092SOL     OW15301   1.252   6.934   5.974
 5092SOL    HW115302   1.302   7.011   6.014
 5092SOL    HW215303   1.157   6.936   6.006
 5093SOL     OW15304   1.272   7.031   6.728
 5093SOL    HW115305   1.319   7.044   6.815
 5093SOL    HW215306   1.206   6.957   6.737
 5094SOL     OW15307   1.582   6.225   6.058
 5094SOL    HW115308   1.551   6.286   6.131
 5094SOL    HW215309   1.632   6.277   5.989
 5095SOL     OW15310   0.354   7.096   6.915
 5095SOL    HW115311   0.333   7.052   6.828
 5095SOL    HW215312   0.451   7.122   6.918
 5096SOL     OW15313   0.402   6.337   7.184
 5096SOL    HW115314   0.470   6.392   7.137
 5096SOL    HW215315   0.442   6.249   7.211
 5097SOL     OW15316   1.587   6.365   7.256
 5097SOL    HW115317   1.495   6.403   7.251
 5097SOL    HW215318   1.647   6.412   7.191
 5098SOL     OW15319   1.013   5.691   7.356
 5098SOL    HW115320   1.019   5.776   7.304
 5098SOL    HW215321   1.045   5.615   7.299
 5099SOL     OW15322   0.504   5.636   7.326
 5099SOL    HW115323   0.462   5.579   7.256
 5099SOL    HW215324   0.438   5.705   7.358
 5100SOL     OW15325   0.573   6.456   6.615
 5100SOL    HW115326   0.617   6.545   6.606
 5100SOL    HW215327   0.510   6.456   6.692
 5101SOL     OW15328   1.360   6.448   6.631
 5101SOL    HW115329   1.285   6.448   6.565
 5101SOL    HW215330   1.397   6.356   6.640
 5102SOL     OW15331   1.209   6.111   5.861
 5102SOL    HW115332   1.222   6.027   5.915
 5102SOL    HW215333   1.180   6.185   5.921
 5103SOL     OW15334   0.307   5.799   6.817
 5103SOL    HW115335   0.284   5.836   6.907
 5103SOL    HW215336   0.277   5.704   6.811
 5104SOL     OW15337   0.037   6.896   6.868
 5104SOL    HW115338   0.090   6.847   6.936
 5104SOL    HW215339   0.059   6.994   6.873
 5105SOL     OW15340   0.732   6.220   6.650
 5105SOL    HW115341   0.791   6.194   6.574
 5105SOL    HW215342   0.704   6.316   6.639
 5106SOL     OW15343   1.728   6.521   7.440
 5106SOL    HW115344   1.682   6.514   7.351
 5106SOL    HW215345   1.666   6.565   7.506
 5107SOL     OW15346   0.307   5.649   6.204
 5107SOL    HW115347   0.296   5.743   6.237
 5107SOL    HW215348   0.302   5.586   6.281
 5108SOL     OW15349   1.622   5.953   5.960
 5108SOL    HW115350   1.624   5.877   6.024
 5108SOL    HW215351   1.574   6.030   6.000
 5109SOL     OW15352   1.023   6.352   6.552
 5109SOL    HW115353   1.038   6.373   6.648
 5109SOL    HW215354   0.993   6.257   6.543
 5110SOL     OW15355   0.980   7.159   7.286
 5110SOL    HW115356   0.960   7.203   7.198
 5110SOL    HW215357   1.019   7.068   7.270
 5111SOL     OW15358   1.859   7.104   7.191
 5111SOL    HW115359   1.873   7.131   7.096
 5111SOL    HW215360   1.942   7.126   7.244
 5112SOL     OW15361   0.350   6.484   7.390
 5112SOL    HW115362   0.426   6.528   7.438
 5112SOL    HW215363   0.385   6.437   7.308
 5113SOL     OW15364   1.540   5.860   5.711
 5113SOL    HW115365   1.479   5.785   5.734
 5113SOL    HW215366   1.562   5.912   5.794
 5114SOL     OW15367   1.303   6.424   5.628
 5114SOL    HW115368   1.337   6.331   5.643
 5114SOL    HW215369   1.321   6.451   5.533
 5115SOL     OW15370   1.068   6.919   6.435
 5115SOL    HW115371   1.075   6.835   6.380
 5115SOL    HW215372   1.130   6.988   6.399
 5116SOL     OW15373   0.319   6.396   6.535
 5116SOL    HW115374   0.412   6.432   6.540
 5116SOL    HW215375   0.313   6.311   6.587
 5117SOL     OW15376   0.339   6.095   6.592
 5117SOL    HW115377   0.287   6.012   6.575
 5117SOL    HW215378   0.416   6.100   6.528
 5118SOL     OW15379   1.138   5.966   7.264
 5118SOL    HW115380   1.093   6.029   7.328
 5118SOL    HW215381   1.231   5.997   7.247
 5119SOL     OW15382   1.160   5.793   7.063
 5119SOL    HW115383   1.160   5.857   7.140
 5119SOL    HW215384   1.188   5.841   6.980
 5120SOL     OW15385   0.008   6.912   5.786
 5120SOL    HW115386  -0.085   6.933   5.755
 5120SOL    HW215387   0.018   6.813   5.799
 5121SOL     OW15388   0.088   7.387   6.513
 5121SOL    HW115389   0.046   7.301   6.486
 5121SOL    HW215390   0.182   7.390   6.479
 5122SOL     OW15391   0.504   7.154   6.496
 5122SOL    HW115392   0.570   7.228   6.505
 5122SOL    HW215393   0.548   7.075   6.454
 5123SOL     OW15394   1.002   6.382   6.824
 5123SOL    HW115395   1.043   6.350   6.910
 5123SOL    HW215396   0.906   6.355   6.821
 5124SOL     OW15397   0.040   6.130   6.700
 5124SOL    HW115398   0.125   6.097   6.659
 5124SOL    HW215399   0.053   6.145   6.798
 5125SOL     OW15400   0.189   6.106   7.308
 5125SOL    HW115401   0.248   6.066   7.238
 5125SOL    HW215402   0.131   6.177   7.267
 5126SOL     OW15403   1.369   6.536   7.246
 5126SOL    HW115404   1.408   6.625   7.266
 5126SOL    HW215405   1.379   6.516   7.149
 5127SOL     OW15406   0.815   6.158   5.911
 5127SOL    HW115407   0.822   6.069   5.865
 5127SOL    HW215408   0.721   6.192   5.903
 5128SOL     OW15409   1.657   6.190   6.792
 5128SOL    HW115410   1.619   6.121   6.854
 5128SOL    HW215411   1.739   6.154   6.748
 5129SOL     OW15412   0.252   7.150   7.330
 5129SOL    HW115413   0.222   7.207   7.406
 5129SOL    HW215414   0.245   7.053   7.356
 5130SOL     OW15415   0.671   6.050   6.855
 5130SOL    HW115416   0.637   5.961   6.825
 5130SOL    HW215417   0.697   6.104   6.775
 5131SOL     OW15418   0.930   7.264   7.051
 5131SOL    HW115419   0.906   7.246   6.956
 5131SOL    HW215420   0.960   7.358   7.061
 5132SOL     OW15421   0.473   6.086   5.777
 5132SOL    HW115422   0.534   6.166   5.781
 5132SOL    HW215423   0.378   6.117   5.784
 5133SOL     OW15424   0.159   6.723   7.052
 5133SOL    HW115425   0.181   6.662   7.128
 5133SOL    HW215426   0.169   6.674   6.966
 5134SOL     OW15427   1.347   6.645   6.820
 5134SOL    HW115428   1.371   6.582   6.746
 5134SOL    HW215429   1.257   6.685   6.802
 5135SOL     OW15430   1.302   6.441   5.895
 5135SOL    HW115431   1.216   6.410   5.937
 5135SOL    HW215432   1.298   6.427   5.796
 5136SOL     OW15433   1.759   7.333   6.740
 5136SOL    HW115434   1.820   7.363   6.667
 5136SOL    HW215435   1.721   7.244   6.718
 5137SOL     OW15436   1.252   7.317   6.714
 5137SOL    HW115437   1.336   7.322   6.660
 5137SOL    HW215438   1.229   7.221   6.732
 5138SOL     OW15439   0.083   6.844   6.608
 5138SOL    HW115440   0.078   6.843   6.708
 5138SOL    HW215441   0.000   6.803   6.570
 5139SOL     OW15442   0.688   7.248   7.302
 5139SOL    HW115443   0.632   7.329   7.311
 5139SOL    HW215444   0.740   7.252   7.216
 5140SOL     OW15445   1.726   5.721   6.109
 5140SOL    HW115446   1.799   5.704   6.042
 5140SOL    HW215447   1.695   5.634   6.147
 5141SOL     OW15448   1.388   7.159   6.063
 5141SOL    HW115449   1.455   7.171   5.989
 5141SOL    HW215450   1.348   7.248   6.086
 5142SOL     OW15451   0.130   7.380   7.437
 5142SOL    HW115452   0.089   7.306   7.490
 5142SOL    HW215453   0.194   7.431   7.495
 5143SOL     OW15454   1.280   6.513   6.258
 5143SOL    HW115455   1.340   6.432   6.260
 5143SOL    HW215456   1.320   6.582   6.198
 5144SOL     OW15457   0.830   6.859   7.008
 5144SOL    HW115458   0.825   6.892   7.103
 5144SOL    HW215459   0.744   6.878   6.962
 5145SOL     OW15460   0.672   7.202   5.740
 5145SOL    HW115461   0.681   7.212   5.641
 5145SOL    HW215462   0.632   7.113   5.761
 5146SOL     OW15463   1.650   7.306   6.980
 5146SOL    HW115464   1.703   7.316   6.896
 5146SOL    HW215465   1.623   7.396   7.014
 5147SOL     OW15466   1.841   5.761   6.549
 5147SOL    HW115467   1.880   5.676   6.513
 5147SOL    HW215468   1.743   5.763   6.530
 5148SOL     OW15469   0.263   5.912   6.306
 5148SOL    HW115470   0.184   5.963   6.272
 5148SOL    HW215471   0.254   5.897   6.404
 5149SOL     OW15472   1.194   7.198   5.617
 5149SOL    HW115473   1.200   7.105   5.654
 5149SOL    HW215474   1.135   7.198   5.537
 5150SOL     OW15475   0.822   6.588   6.958
 5150SOL    HW115476   0.862   6.587   6.866
 5150SOL    HW215477   0.832   6.680   6.998
 5151SOL     OW15478   0.916   6.496   5.877
 5151SOL    HW115479   0.979   6.534   5.809
 5151SOL    HW215480   0.956   6.413   5.916
 5152SOL     OW15481   1.504   7.193   5.630
 5152SOL    HW115482   1.412   7.230   5.637
 5152SOL    HW215483   1.542   7.213   5.540
 5153SOL     OW15484   0.372   6.874   7.076
 5153SOL    HW115485   0.359   6.967   7.042
 5153SOL    HW215486   0.288   6.822   7.063
 5154SOL     OW15487   1.614   6.878   6.875
 5154SOL    HW115488   1.674   6.881   6.955
 5154SOL    HW215489   1.539   6.942   6.888
 5155SOL     OW15490   1.039   6.684   6.282
 5155SOL    HW115491   0.969   6.637   6.336
 5155SOL    HW215492   1.098   6.616   6.239
 5156SOL     OW15493   1.014   5.822   6.557
 5156SOL    HW115494   1.006   5.786   6.464
 5156SOL    HW215495   1.012   5.746   6.622
 5157SOL     OW15496   0.590   7.073   6.077
 5157SOL    HW115497   0.632   7.015   6.007
 5157SOL    HW215498   0.546   7.152   6.033
 5158SOL     OW15499   1.709   5.971   6.967
 5158SOL    HW115500   1.782   6.040   6.971
 5158SOL    HW215501   1.737   5.896   6.908
 5159SOL     OW15502   0.255   6.934   5.876
 5159SOL    HW115503   0.159   6.935   5.849
 5159SOL    HW215504   0.267   6.987   5.960
 5160SOL     OW15505   0.105   6.599   7.312
 5160SOL    HW115506   0.028   6.566   7.366
 5160SOL    HW215507   0.190   6.569   7.354
 5161SOL     OW15508   0.672   5.789   7.075
 5161SOL    HW115509   0.762   5.773   7.035
 5161SOL    HW215510   0.680   5.794   7.174
 5162SOL     OW15511   0.075   5.931   5.619
 5162SOL    HW115512  -0.017   5.903   5.590
 5162SOL    HW215513   0.106   6.008   5.563
 5163SOL     OW15514   1.440   6.442   6.984
 5163SOL    HW115515   1.383   6.494   6.921
 5163SOL    HW215516   1.536   6.454   6.960
 5164SOL     OW15517   0.072   5.752   5.904
 5164SOL    HW115518   0.055   5.835   5.850
 5164SOL    HW215519   0.162   5.715   5.882
 5165SOL     OW15520   1.183   6.921   5.705
 5165SOL    HW115521   1.084   6.910   5.707
 5165SOL    HW215522   1.217   6.936   5.798
 5166SOL     OW15523   0.613   6.428   7.017
 5166SOL    HW115524   0.669   6.509   7.000
 5166SOL    HW215525   0.672   6.348   7.020
 5167SOL     OW15526   1.493   7.353   6.545
 5167SOL    HW115527   1.526   7.417   6.476
 5167SOL    HW215528   1.559   7.347   6.620
 5168SOL     OW15529   0.716   6.151   7.294
 5168SOL    HW115530   0.735   6.216   7.368
 5168SOL    HW215531   0.776   6.071   7.303
 5169SOL     OW15532   1.450   6.806   7.219
 5169SOL    HW115533   1.441   6.796   7.318
 5169SOL    HW215534   1.546   6.799   7.193
 5170SOL     OW15535   0.390   7.327   7.146
 5170SOL    HW115536   0.299   7.368   7.144
 5170SOL    HW215537   0.383   7.233   7.178
 5171SOL     OW15538   1.674   6.469   6.840
 5171SOL    HW115539   1.647   6.380   6.803
 5171SOL    HW215540   1.675   6.537   6.767
 5172SOL     OW15541   1.225   5.911   6.035
 5172SOL    HW115542   1.290   5.837   6.024
 5172SOL    HW215543   1.245   5.961   6.119
 5173SOL     OW15544   0.594   6.331   6.238
 5173SOL    HW115545   0.644   6.416   6.219
 5173SOL    HW215546   0.506   6.333   6.190
 5174SOL     OW15547   1.777   5.928   7.228
 5174SOL    HW115548   1.760   5.959   7.134
 5174SOL    HW215549   1.693   5.891   7.266
 5175SOL     OW15550   1.730   6.520   7.103
 5175SOL    HW115551   1.768   6.611   7.118
 5175SOL    HW215552   1.722   6.503   7.004
 5176SOL     OW15553   0.859   6.960   5.602
 5176SOL    HW115554   0.813   6.975   5.690
 5176SOL    HW215555   0.903   7.045   5.572
 5177SOL     OW15556   0.661   7.376   6.539
 5177SOL    HW115557   0.615   7.464   6.526
 5177SOL    HW215558   0.760   7.388   6.532
 5178SOL     OW15559   0.859   6.542   6.447
 5178SOL    HW115560   0.913   6.473   6.495
 5178SOL    HW215561   0.827   6.611   6.513
 5179SOL     OW15562   1.083   6.570   5.673
 5179SOL    HW115563   1.060   6.623   5.591
 5179SOL    HW215564   1.164   6.514   5.654
 5180SOL     OW15565   1.861   7.155   6.437
 5180SOL    HW115566   1.790   7.143   6.367
 5180SOL    HW215567   1.862   7.076   6.497
 5181SOL     OW15568   0.221   6.900   7.430
 5181SOL    HW115569   0.156   6.827   7.409
 5181SOL    HW215570   0.225   6.914   7.528
 5182SOL     OW15571   0.079   6.826   6.239
 5182SOL    HW115572   0.078   6.779   6.327
 5182SOL    HW215573   0.161   6.798   6.188
 5183SOL     OW15574   0.672   6.977   7.210
 5183SOL    HW115575   0.594   6.927   7.248
 5183SOL    HW215576   0.669   7.072   7.241
 5184SOL     OW15577   1.824   5.778   6.813
 5184SOL    HW115578   1.820   5.688   6.857
 5184SOL    HW215579   1.827   5.767   6.714
 5185SOL     OW15580   0.428   6.010   6.106
 5185SOL    HW115581   0.458   5.938   6.044
 5185SOL    HW215582   0.389   5.970   6.189
 5186SOL     OW15583   1.705   7.073   6.690
 5186SOL    HW115584   1.612   7.048   6.663
 5186SOL    HW215585   1.731   7.023   6.772
 5187SOL     OW15586   0.317   6.133   6.866
 5187SOL    HW115587   0.355   6.074   6.938
 5187SOL    HW215588   0.357   6.107   6.778
 5188SOL     OW15589   0.812   7.172   6.273
 5188SOL    HW115590   0.844   7.182   6.179
 5188SOL    HW215591   0.733   7.110   6.275
 5189SOL     OW15592   1.424   5.800   6.698
 5189SOL    HW115593   1.476   5.735   6.753
 5189SOL    HW215594   1.375   5.863   6.759
 5190SOL     OW15595   1.001   5.620   6.740
 5190SOL    HW115596   0.938   5.548   6.709
 5190SOL    HW215597   1.094   5.584   6.740
 5191SOL     OW15598   0.770   6.916   5.887
 5191SOL    HW115599   0.724   6.829   5.904
 5191SOL    HW215600   0.861   6.913   5.928
 5192SOL     OW15601   0.618   7.153   6.870
 5192SOL    HW115602   0.613   7.235   6.927
 5192SOL    HW215603   0.707   7.150   6.825
 5193SOL     OW15604   1.352   5.638   5.754
 5193SOL    HW115605   1.387   5.597   5.670
 5193SOL    HW215606   1.262   5.600   5.774
 5194SOL     OW15607   1.300   6.039   6.277
 5194SOL    HW115608   1.241   6.119   6.281
 5194SOL    HW215609   1.315   6.004   6.370
 5195SOL     OW15610   1.593   5.807   6.468
 5195SOL    HW115611   1.509   5.806   6.522
 5195SOL    HW215612   1.595   5.890   6.412
 5196SOL     OW15613   0.039   6.663   5.886
 5196SOL    HW115614   0.138   6.652   5.877
 5196SOL    HW215615  -0.001   6.577   5.918
 5197SOL     OW15616   0.875   7.232   5.923
 5197SOL    HW115617   0.798   7.197   5.869
 5197SOL    HW215618   0.843   7.303   5.985
 5198SOL     OW15619   0.230   6.214   7.561
 5198SOL    HW115620   0.137   6.212   7.598
 5198SOL    HW215621   0.231   6.175   7.469
 5199SOL     OW15622   0.225   5.861   8.444
 5199SOL    HW115623   0.260   5.844   8.536
 5199SOL    HW215624   0.137   5.816   8.432
 5200SOL     OW15625   0.019   5.954   8.095
 5200SOL    HW115626  -0.063   5.997   8.134
 5200SOL    HW215627  -0.009   5.881   8.032
 5201SOL     OW15628   0.569   6.861   8.613
 5201SOL    HW115629   0.476   6.854   8.576
 5201SOL    HW215630   0.580   6.950   8.657
 5202SOL     OW15631   1.555   7.097   8.151
 5202SOL    HW115632   1.498   7.081   8.232
 5202SOL    HW215633   1.496   7.107   8.071
 5203SOL     OW15634   1.135   6.289   8.165
 5203SOL    HW115635   1.192   6.367   8.140
 5203SOL    HW215636   1.075   6.315   8.241
 5204SOL     OW15637   1.755   6.193   7.679
 5204SOL    HW115638   1.743   6.180   7.580
 5204SOL    HW215639   1.725   6.112   7.728
 5205SOL     OW15640   0.768   6.730   8.471
 5205SOL    HW115641   0.690   6.747   8.531
 5205SOL    HW215642   0.802   6.817   8.435
 5206SOL     OW15643   0.850   6.384   9.271
 5206SOL    HW115644   0.846   6.460   9.336
 5206SOL    HW215645   0.872   6.420   9.180
 5207SOL     OW15646   0.685   6.598   8.113
 5207SOL    HW115647   0.754   6.582   8.183
 5207SOL    HW215648   0.612   6.655   8.151
 5208SOL     OW15649   0.686   6.747   9.251
 5208SOL    HW115650   0.746   6.826   9.265
 5208SOL    HW215651   0.600   6.778   9.210
 5209SOL     OW15652   0.335   7.021   8.509
 5209SOL    HW115653   0.257   6.990   8.456
 5209SOL    HW215654   0.393   7.079   8.452
 5210SOL     OW15655   1.460   7.091   8.787
 5210SOL    HW115656   1.484   7.185   8.813
 5210SOL    HW215657   1.444   7.037   8.869
 5211SOL     OW15658   0.438   5.978   8.947
 5211SOL    HW115659   0.520   5.922   8.956
 5211SOL    HW215660   0.357   5.920   8.951
 5212SOL     OW15661   1.603   6.033   8.185
 5212SOL    HW115662   1.529   6.079   8.135
 5212SOL    HW215663   1.654   6.101   8.238
 5213SOL     OW15664   0.231   7.299   7.931
 5213SOL    HW115665   0.265   7.376   7.985
 5213SOL    HW215666   0.275   7.299   7.841
 5214SOL     OW15667   1.127   6.927   9.138
 5214SOL    HW115668   1.174   6.927   9.226
 5214SOL    HW215669   1.079   6.840   9.127
 5215SOL     OW15670   0.230   7.020   7.986
 5215SOL    HW115671   0.204   7.116   7.986
 5215SOL    HW215672   0.159   6.966   8.031
 5216SOL     OW15673   0.240   6.677   8.334
 5216SOL    HW115674   0.254   6.593   8.386
 5216SOL    HW215675   0.185   6.741   8.389
 5217SOL     OW15676   0.620   7.372   8.887
 5217SOL    HW115677   0.528   7.355   8.922
 5217SOL    HW215678   0.648   7.464   8.913
 5218SOL     OW15679   0.606   6.550   7.571
 5218SOL    HW115680   0.613   6.634   7.517
 5218SOL    HW215681   0.652   6.563   7.659
 5219SOL     OW15682   1.594   5.700   8.928
 5219SOL    HW115683   1.576   5.767   8.856
 5219SOL    HW215684   1.591   5.746   9.017
 5220SOL     OW15685   0.122   6.229   8.011
 5220SOL    HW115686   0.077   6.141   8.028
 5220SOL    HW215687   0.121   6.283   8.095
 5221SOL     OW15688   1.842   7.353   7.807
 5221SOL    HW115689   1.896   7.324   7.887
 5221SOL    HW215690   1.872   7.443   7.778
 5222SOL     OW15691   0.027   7.182   7.565
 5222SOL    HW115692   0.008   7.086   7.586
 5222SOL    HW215693  -0.006   7.240   7.640
 5223SOL     OW15694   1.689   6.508   8.060
 5223SOL    HW115695   1.784   6.479   8.068
 5223SOL    HW215696   1.681   6.573   7.985
 5224SOL     OW15697   1.641   6.694   7.880
 5224SOL    HW115698   1.727   6.696   7.828
 5224SOL    HW215699   1.655   6.741   7.968
 5225SOL     OW15700   0.113   6.323   9.045
 5225SOL    HW115701   0.201   6.310   9.090
 5225SOL    HW215702   0.100   6.420   9.023
 5226SOL     OW15703   0.613   6.951   8.174
 5226SOL    HW115704   0.564   6.864   8.183
 5226SOL    HW215705   0.590   6.994   8.087
 5227SOL     OW15706   1.293   6.814   8.871
 5227SOL    HW115707   1.330   6.741   8.813
 5227SOL    HW215708   1.345   6.819   8.956
 5228SOL     OW15709   0.809   5.590   7.950
 5228SOL    HW115710   0.849   5.681   7.941
 5228SOL    HW215711   0.709   5.598   7.956
 5229SOL     OW15712   0.197   6.562   8.712
 5229SOL    HW115713   0.286   6.517   8.698
 5229SOL    HW215714   0.124   6.497   8.693
 5230SOL     OW15715   1.525   6.585   7.638
 5230SOL    HW115716   1.462   6.509   7.651
 5230SOL    HW215717   1.573   6.603   7.724
 5231SOL     OW15718   1.187   7.378   9.064
 5231SOL    HW115719   1.211   7.438   8.988
 5231SOL    HW215720   1.194   7.283   9.034
 5232SOL     OW15721   0.317   5.837   9.249
 5232SOL    HW115722   0.388   5.908   9.255
 5232SOL    HW215723   0.229   5.876   9.277
 5233SOL     OW15724   1.466   7.003   8.401
 5233SOL    HW115725   1.407   7.009   8.481
 5233SOL    HW215726   1.451   6.915   8.355
 5234SOL     OW15727   1.667   7.300   8.020
 5234SOL    HW115728   1.626   7.277   7.932
 5234SOL    HW215729   1.649   7.226   8.085
 5235SOL     OW15730   0.598   6.315   7.718
 5235SOL    HW115731   0.622   6.384   7.650
 5235SOL    HW215732   0.520   6.348   7.772
 5236SOL     OW15733   1.281   5.931   8.392
 5236SOL    HW115734   1.195   5.881   8.379
 5236SOL    HW215735   1.343   5.877   8.448
 5237SOL     OW15736   1.576   7.248   7.755
 5237SOL    HW115737   1.665   7.294   7.758
 5237SOL    HW215738   1.555   7.224   7.660
 5238SOL     OW15739   0.807   6.191   8.913
 5238SOL    HW115740   0.760   6.188   9.002
 5238SOL    HW215741   0.756   6.136   8.847
 5239SOL     OW15742   1.394   6.055   9.122
 5239SOL    HW115743   1.374   6.098   9.210
 5239SOL    HW215744   1.472   5.993   9.131
 5240SOL     OW15745   0.973   6.476   9.020
 5240SOL    HW115746   1.019   6.392   8.991
 5240SOL    HW215747   0.917   6.510   8.945
 5241SOL     OW15748   0.991   5.996   8.690
 5241SOL    HW115749   0.914   6.030   8.744
 5241SOL    HW215750   0.957   5.945   8.611
 5242SOL     OW15751   1.041   6.287   7.877
 5242SOL    HW115752   1.067   6.283   7.973
 5242SOL    HW215753   0.956   6.236   7.863
 5243SOL     OW15754   0.076   6.397   8.237
 5243SOL    HW115755   0.175   6.385   8.246
 5243SOL    HW215756   0.052   6.492   8.258
 5244SOL     OW15757   0.130   7.407   9.019
 5244SOL    HW115758   0.120   7.392   9.118
 5244SOL    HW215759   0.044   7.443   8.983
 5245SOL     OW15760   0.865   5.934   7.643
 5245SOL    HW115761   0.924   5.997   7.594
 5245SOL    HW215762   0.884   5.840   7.614
 5246SOL     OW15763   1.719   6.171   9.279
 5246SOL    HW115764   1.693   6.260   9.243
 5246SOL    HW215765   1.717   6.103   9.206
 5247SOL     OW15766   1.362   6.730   7.993
 5247SOL    HW115767   1.445   6.701   7.945
 5247SOL    HW215768   1.313   6.797   7.937
 5248SOL     OW15769   0.550   5.782   8.333
 5248SOL    HW115770   0.545   5.777   8.433
 5248SOL    HW215771   0.552   5.878   8.304
 5249SOL     OW15772   1.008   7.042   7.925
 5249SOL    HW115773   0.962   7.114   7.873
 5249SOL    HW215774   1.004   7.062   8.023
 5250SOL     OW15775   0.351   7.387   8.301
 5250SOL    HW115776   0.401   7.301   8.307
 5250SOL    HW215777   0.416   7.464   8.298
 5251SOL     OW15778   1.795   6.652   8.321
 5251SOL    HW115779   1.733   6.637   8.245
 5251SOL    HW215780   1.743   6.663   8.406
 5252SOL     OW15781   1.227   7.136   8.954
 5252SOL    HW115782   1.233   7.059   9.018
 5252SOL    HW215783   1.175   7.110   8.874
 5253SOL     OW15784   0.321   6.529   7.690
 5253SOL    HW115785   0.403   6.568   7.648
 5253SOL    HW215786   0.294   6.447   7.641
 5254SOL     OW15787   1.458   6.321   8.176
 5254SOL    HW115788   1.453   6.256   8.251
 5254SOL    HW215789   1.538   6.380   8.189
 5255SOL     OW15790   0.461   6.852   9.175
 5255SOL    HW115791   0.411   6.853   9.089
 5255SOL    HW215792   0.398   6.834   9.251
 5256SOL     OW15793   1.111   7.362   7.685
 5256SOL    HW115794   1.051   7.300   7.735
 5256SOL    HW215795   1.142   7.318   7.600
 5257SOL     OW15796   0.202   5.871   8.946
 5257SOL    HW115797   0.122   5.931   8.933
 5257SOL    HW215798   0.192   5.822   9.032
 5258SOL     OW15799   1.632   6.963   7.529
 5258SOL    HW115800   1.600   7.057   7.519
 5258SOL    HW215801   1.556   6.900   7.517
 5259SOL     OW15802   0.464   7.329   7.771
 5259SOL    HW115803   0.497   7.368   7.857
 5259SOL    HW215804   0.540   7.322   7.706
 5260SOL     OW15805   1.400   5.693   7.874
 5260SOL    HW115806   1.376   5.656   7.784
 5260SOL    HW215807   1.499   5.709   7.878
 5261SOL     OW15808   0.249   7.371   8.689
 5261SOL    HW115809   0.306   7.306   8.739
 5261SOL    HW215810   0.233   7.338   8.596
 5262SOL     OW15811   0.940   7.284   8.352
 5262SOL    HW115812   1.020   7.227   8.373
 5262SOL    HW215813   0.891   7.244   8.275
 5263SOL     OW15814   0.382   6.286   7.928
 5263SOL    HW115815   0.427   6.196   7.925
 5263SOL    HW215816   0.288   6.275   7.961
 5264SOL     OW15817   1.547   5.808   9.177
 5264SOL    HW115818   1.542   5.845   9.269
 5264SOL    HW215819   1.475   5.739   9.165
 5265SOL     OW15820   0.614   5.708   7.565
 5265SOL    HW115821   0.712   5.686   7.572
 5265SOL    HW215822   0.583   5.691   7.472
 5266SOL     OW15823   0.781   5.850   9.197
 5266SOL    HW115824   0.848   5.789   9.240
 5266SOL    HW215825   0.708   5.869   9.262
 5267SOL     OW15826   0.888   7.100   8.643
 5267SOL    HW115827   0.865   7.075   8.549
 5267SOL    HW215828   0.949   7.031   8.682
 5268SOL     OW15829   1.351   6.176   8.881
 5268SOL    HW115830   1.379   6.133   8.966
 5268SOL    HW215831   1.376   6.272   8.882
 5269SOL     OW15832   0.803   6.988   8.372
 5269SOL    HW115833   0.893   7.002   8.330
 5269SOL    HW215834   0.732   6.990   8.301
 5270SOL     OW15835   0.922   6.089   8.347
 5270SOL    HW115836   0.897   6.080   8.251
 5270SOL    HW215837   0.970   6.007   8.378
 5271SOL     OW15838   0.539   5.650   7.960
 5271SOL    HW115839   0.458   5.651   8.018
 5271SOL    HW215840   0.542   5.733   7.905
 5272SOL     OW15841   1.434   6.774   7.489
 5272SOL    HW115842   1.466   6.698   7.546
 5272SOL    HW215843   1.342   6.801   7.519
 5273SOL     OW15844   0.297   5.621   7.619
 5273SOL    HW115845   0.346   5.705   7.598
 5273SOL    HW215846   0.359   5.556   7.664
 5274SOL     OW15847   0.935   5.822   7.928
 5274SOL    HW115848   0.887   5.863   7.850
 5274SOL    HW215849   1.034   5.820   7.909
 5275SOL     OW15850   1.076   6.269   8.912
 5275SOL    HW115851   0.996   6.208   8.915
 5275SOL    HW215852   1.157   6.216   8.888
 5276SOL     OW15853   1.227   7.156   8.241
 5276SOL    HW115854   1.248   7.230   8.176
 5276SOL    HW215855   1.295   7.156   8.314
 5277SOL     OW15856   0.459   6.738   8.189
 5277SOL    HW115857   0.388   6.711   8.254
 5277SOL    HW215858   0.433   6.710   8.096
 5278SOL     OW15859   1.271   7.383   8.039
 5278SOL    HW115860   1.315   7.447   7.975
 5278SOL    HW215861   1.221   7.435   8.109
 5279SOL     OW15862   1.032   6.135   7.464
 5279SOL    HW115863   0.991   6.217   7.425
 5279SOL    HW215864   1.096   6.161   7.537
 5280SOL     OW15865   0.078   6.142   8.834
 5280SOL    HW115866   0.170   6.141   8.793
 5280SOL    HW215867   0.072   6.216   8.901
 5281SOL     OW15868   0.561   5.808   8.595
 5281SOL    HW115869   0.599   5.724   8.632
 5281SOL    HW215870   0.473   5.827   8.639
 5282SOL     OW15871   0.866   6.040   8.090
 5282SOL    HW115872   0.834   6.112   8.028
 5282SOL    HW215873   0.890   5.959   8.037
 5283SOL     OW15874   1.017   5.625   8.201
 5283SOL    HW115875   0.945   5.630   8.132
 5283SOL    HW215876   0.993   5.556   8.270
 5284SOL     OW15877   1.429   6.759   8.315
 5284SOL    HW115878   1.374   6.675   8.308
 5284SOL    HW215879   1.455   6.788   8.223
 5285SOL     OW15880   1.466   6.176   8.440
 5285SOL    HW115881   1.436   6.081   8.447
 5285SOL    HW215882   1.539   6.192   8.506
 5286SOL     OW15883   1.857   6.419   7.825
 5286SOL    HW115884   1.899   6.355   7.889
 5286SOL    HW215885   1.819   6.368   7.747
 5287SOL     OW15886   0.488   6.971   7.622
 5287SOL    HW115887   0.401   6.956   7.669
 5287SOL    HW215888   0.471   6.997   7.527
 5288SOL     OW15889   1.664   6.866   8.105
 5288SOL    HW115890   1.763   6.874   8.119
 5288SOL    HW215891   1.619   6.950   8.136
 5289SOL     OW15892   1.390   6.161   7.526
 5289SOL    HW115893   1.336   6.140   7.607
 5289SOL    HW215894   1.481   6.120   7.535
 5290SOL     OW15895   0.527   5.842   7.776
 5290SOL    HW115896   0.554   5.783   7.701
 5290SOL    HW215897   0.527   5.937   7.745
 5291SOL     OW15898   1.754   6.809   9.036
 5291SOL    HW115899   1.845   6.770   9.023
 5291SOL    HW215900   1.762   6.905   9.060
 5292SOL     OW15901   1.064   6.933   8.788
 5292SOL    HW115902   0.984   6.910   8.843
 5292SOL    HW215903   1.147   6.907   8.837
 5293SOL     OW15904   1.592   7.215   9.073
 5293SOL    HW115905   1.619   7.249   8.983
 5293SOL    HW215906   1.671   7.177   9.119
 5294SOL     OW15907   1.111   6.781   8.548
 5294SOL    HW115908   1.071   6.825   8.629
 5294SOL    HW215909   1.070   6.818   8.465
 5295SOL     OW15910   1.638   6.685   8.527
 5295SOL    HW115911   1.643   6.766   8.586
 5295SOL    HW215912   1.552   6.687   8.476
 5296SOL     OW15913   0.915   5.675   8.850
 5296SOL    HW115914   0.940   5.655   8.755
 5296SOL    HW215915   0.987   5.731   8.892
 5297SOL     OW15916   0.980   6.702   9.167
 5297SOL    HW115917   0.881   6.708   9.177
 5297SOL    HW215918   1.003   6.622   9.111
 5298SOL     OW15919   0.705   6.636   7.816
 5298SOL    HW115920   0.691   6.643   7.915
 5298SOL    HW215921   0.789   6.585   7.798
 5299SOL     OW15922   0.410   6.399   8.699
 5299SOL    HW115923   0.496   6.411   8.749
 5299SOL    HW215924   0.368   6.312   8.726
 5300SOL     OW15925   1.274   5.972   8.710
 5300SOL    HW115926   1.295   6.046   8.774
 5300SOL    HW215927   1.185   5.989   8.667
 5301SOL     OW15928   0.064   7.150   8.779
 5301SOL    HW115929   0.018   7.232   8.745
 5301SOL    HW215930   0.162   7.169   8.788
 5302SOL     OW15931   0.367   6.686   7.949
 5302SOL    HW115932   0.360   6.769   7.893
 5302SOL    HW215933   0.371   6.606   7.889
 5303SOL     OW15934   0.566   6.123   8.313
 5303SOL    HW115935   0.578   6.189   8.239
 5303SOL    HW215936   0.612   6.157   8.396
 5304SOL     OW15937   1.252   6.934   7.836
 5304SOL    HW115938   1.302   7.011   7.876
 5304SOL    HW215939   1.157   6.936   7.868
 5305SOL     OW15940   1.272   7.031   8.590
 5305SOL    HW115941   1.319   7.044   8.677
 5305SOL    HW215942   1.206   6.957   8.599
 5306SOL     OW15943   1.582   6.225   7.920
 5306SOL    HW115944   1.551   6.286   7.993
 5306SOL    HW215945   1.632   6.277   7.851
 5307SOL     OW15946   0.354   7.096   8.777
 5307SOL    HW115947   0.333   7.052   8.690
 5307SOL    HW215948   0.451   7.122   8.780
 5308SOL     OW15949   0.402   6.337   9.046
 5308SOL    HW115950   0.470   6.392   8.999
 5308SOL    HW215951   0.442   6.249   9.073
 5309SOL     OW15952   1.587   6.365   9.118
 5309SOL    HW115953   1.495   6.403   9.113
 5309SOL    HW215954   1.647   6.412   9.053
 5310SOL     OW15955   1.013   5.691   9.218
 5310SOL    HW115956   1.019   5.776   9.166
 5310SOL    HW215957   1.045   5.615   9.161
 5311SOL     OW15958   0.504   5.636   9.188
 5311SOL    HW115959   0.462   5.579   9.118
 5311SOL    HW215960   0.438   5.705   9.220
 5312SOL     OW15961   0.573   6.456   8.477
 5312SOL    HW115962   0.617   6.545   8.468
 5312SOL    HW215963   0.510   6.456   8.554
 5313SOL     OW15964   1.360   6.448   8.493
 5313SOL    HW115965   1.285   6.448   8.427
 5313SOL    HW215966   1.397   6.356   8.502
 5314SOL     OW15967   1.209   6.111   7.723
 5314SOL    HW115968   1.222   6.027   7.777
 5314SOL    HW215969   1.180   6.185   7.783
 5315SOL     OW15970   0.307   5.799   8.679
 5315SOL    HW115971   0.284   5.836   8.769
 5315SOL    HW215972   0.277   5.704   8.673
 5316SOL     OW15973   0.037   6.896   8.730
 5316SOL    HW115974   0.090   6.847   8.798
 5316SOL    HW215975   0.059   6.994   8.735
 5317SOL     OW15976   0.732   6.220   8.512
 5317SOL    HW115977   0.791   6.194   8.436
 5317SOL    HW215978   0.704   6.316   8.501
 5318SOL     OW15979   1.728   6.521   9.302
 5318SOL    HW115980   1.682   6.514   9.213
 5318SOL    HW215981   1.666   6.565   9.368
 5319SOL     OW15982   0.307   5.649   8.066
 5319SOL    HW115983   0.296   5.743   8.099
 5319SOL    HW215984   0.302   5.586   8.143
 5320SOL     OW15985   1.622   5.953   7.822
 5320SOL    HW115986   1.624   5.877   7.886
 5320SOL    HW215987   1.574   6.030   7.862
 5321SOL     OW15988   1.023   6.352   8.414
 5321SOL    HW115989   1.038   6.373   8.510
 5321SOL    HW215990   0.993   6.257   8.405
 5322SOL     OW15991   0.980   7.159   9.148
 5322SOL    HW115992   0.960   7.203   9.060
 5322SOL    HW215993   1.019   7.068   9.132
 5323SOL     OW15994   1.859   7.104   9.053
 5323SOL    HW115995   1.873   7.131   8.958
 5323SOL    HW215996   1.942   7.126   9.106
 5324SOL     OW15997   0.350   6.484   9.252
 5324SOL    HW115998   0.426   6.528   9.300
 5324SOL    HW215999   0.385   6.437   9.170
 5325SOL     OW16000   1.540   5.860   7.573
 5325SOL    HW116001   1.479   5.785   7.596
 5325SOL    HW216002   1.562   5.912   7.656
 5326SOL     OW16003   1.303   6.424   7.490
 5326SOL    HW116004   1.337   6.331   7.505
 5326SOL    HW216005   1.321   6.451   7.395
 5327SOL     OW16006   1.068   6.919   8.297
 5327SOL    HW116007   1.075   6.835   8.242
 5327SOL    HW216008   1.130   6.988   8.261
 5328SOL     OW16009   0.319   6.396   8.397
 5328SOL    HW116010   0.412   6.432   8.402
 5328SOL    HW216011   0.313   6.311   8.449
 5329SOL     OW16012   0.339   6.095   8.454
 5329SOL    HW116013   0.287   6.012   8.437
 5329SOL    HW216014   0.416   6.100   8.390
 5330SOL     OW16015   1.138   5.966   9.126
 5330SOL    HW116016   1.093   6.029   9.190
 5330SOL    HW216017   1.231   5.997   9.109
 5331SOL     OW16018   1.160   5.793   8.925
 5331SOL    HW116019   1.160   5.857   9.002
 5331SOL    HW216020   1.188   5.841   8.842
 5332SOL     OW16021   0.008   6.912   7.648
 5332SOL    HW116022  -0.085   6.933   7.617
 5332SOL    HW216023   0.018   6.813   7.661
 5333SOL     OW16024   0.088   7.387   8.375
 5333SOL    HW116025   0.046   7.301   8.348
 5333SOL    HW216026   0.182   7.390   8.341
 5334SOL     OW16027   0.504   7.154   8.358
 5334SOL    HW116028   0.570   7.228   8.367
 5334SOL    HW216029   0.548   7.075   8.316
 5335SOL     OW16030   1.002   6.382   8.686
 5335SOL    HW116031   1.043   6.350   8.772
 5335SOL    HW216032   0.906   6.355   8.683
 5336SOL     OW16033   0.040   6.130   8.562
 5336SOL    HW116034   0.125   6.097   8.521
 5336SOL    HW216035   0.053   6.145   8.660
 5337SOL     OW16036   0.189   6.106   9.170
 5337SOL    HW116037   0.248   6.066   9.100
 5337SOL    HW216038   0.131   6.177   9.129
 5338SOL     OW16039   1.369   6.536   9.108
 5338SOL    HW116040   1.408   6.625   9.128
 5338SOL    HW216041   1.379   6.516   9.011
 5339SOL     OW16042   0.815   6.158   7.773
 5339SOL    HW116043   0.822   6.069   7.727
 5339SOL    HW216044   0.721   6.192   7.765
 5340SOL     OW16045   1.657   6.190   8.654
 5340SOL    HW116046   1.619   6.121   8.716
 5340SOL    HW216047   1.739   6.154   8.610
 5341SOL     OW16048   0.252   7.150   9.192
 5341SOL    HW116049   0.222   7.207   9.268
 5341SOL    HW216050   0.245   7.053   9.218
 5342SOL     OW16051   0.671   6.050   8.717
 5342SOL    HW116052   0.637   5.961   8.687
 5342SOL    HW216053   0.697   6.104   8.637
 5343SOL     OW16054   0.930   7.264   8.913
 5343SOL    HW116055   0.906   7.246   8.818
 5343SOL    HW216056   0.960   7.358   8.923
 5344SOL     OW16057   0.473   6.086   7.639
 5344SOL    HW116058   0.534   6.166   7.643
 5344SOL    HW216059   0.378   6.117   7.646
 5345SOL     OW16060   0.159   6.723   8.914
 5345SOL    HW116061   0.181   6.662   8.990
 5345SOL    HW216062   0.169   6.674   8.828
 5346SOL     OW16063   1.347   6.645   8.682
 5346SOL    HW116064   1.371   6.582   8.608
 5346SOL    HW216065   1.257   6.685   8.664
 5347SOL     OW16066   1.302   6.441   7.757
 5347SOL    HW116067   1.216   6.410   7.799
 5347SOL    HW216068   1.298   6.427   7.658
 5348SOL     OW16069   1.759   7.333   8.602
 5348SOL    HW116070   1.820   7.363   8.529
 5348SOL    HW216071   1.721   7.244   8.580
 5349SOL     OW16072   1.252   7.317   8.576
 5349SOL    HW116073   1.336   7.322   8.522
 5349SOL    HW216074   1.229   7.221   8.594
 5350SOL     OW16075   0.083   6.844   8.470
 5350SOL    HW116076   0.078   6.843   8.570
 5350SOL    HW216077   0.000   6.803   8.432
 5351SOL     OW16078   0.688   7.248   9.164
 5351SOL    HW116079   0.632   7.329   9.173
 5351SOL    HW216080   0.740   7.252   9.078
 5352SOL     OW16081   1.726   5.721   7.971
 5352SOL    HW116082   1.799   5.704   7.904
 5352SOL    HW216083   1.695   5.634   8.009
 5353SOL     OW16084   1.388   7.159   7.925
 5353SOL    HW116085   1.455   7.171   7.851
 5353SOL    HW216086   1.348   7.248   7.948
 5354SOL     OW16087   0.130   7.380   9.299
 5354SOL    HW116088   0.089   7.306   9.352
 5354SOL    HW216089   0.194   7.431   9.357
 5355SOL     OW16090   1.280   6.513   8.120
 5355SOL    HW116091   1.340   6.432   8.122
 5355SOL    HW216092   1.320   6.582   8.060
 5356SOL     OW16093   0.830   6.859   8.870
 5356SOL    HW116094   0.825   6.892   8.965
 5356SOL    HW216095   0.744   6.878   8.824
 5357SOL     OW16096   0.672   7.202   7.602
 5357SOL    HW116097   0.681   7.212   7.503
 5357SOL    HW216098   0.632   7.113   7.623
 5358SOL     OW16099   1.650   7.306   8.842
 5358SOL    HW116100   1.703   7.316   8.758
 5358SOL    HW216101   1.623   7.396   8.876
 5359SOL     OW16102   1.841   5.761   8.411
 5359SOL    HW116103   1.880   5.676   8.375
 5359SOL    HW216104   1.743   5.763   8.392
 5360SOL     OW16105   0.263   5.912   8.168
 5360SOL    HW116106   0.184   5.963   8.134
 5360SOL    HW216107   0.254   5.897   8.266
 5361SOL     OW16108   1.194   7.198   7.479
 5361SOL    HW116109   1.200   7.105   7.516
 5361SOL    HW216110   1.135   7.198   7.399
 5362SOL     OW16111   0.822   6.588   8.820
 5362SOL    HW116112   0.862   6.587   8.728
 5362SOL    HW216113   0.832   6.680   8.860
 5363SOL     OW16114   0.916   6.496   7.739
 5363SOL    HW116115   0.979   6.534   7.671
 5363SOL    HW216116   0.956   6.413   7.778
 5364SOL     OW16117   1.504   7.193   7.492
 5364SOL    HW116118   1.412   7.230   7.499
 5364SOL    HW216119   1.542   7.213   7.402
 5365SOL     OW16120   0.372   6.874   8.938
 5365SOL    HW116121   0.359   6.967   8.904
 5365SOL    HW216122   0.288   6.822   8.925
 5366SOL     OW16123   1.614   6.878   8.737
 5366SOL    HW116124   1.674   6.881   8.817
 5366SOL    HW216125   1.539   6.942   8.750
 5367SOL     OW16126   1.039   6.684   8.144
 5367SOL    HW116127   0.969   6.637   8.198
 5367SOL    HW216128   1.098   6.616   8.101
 5368SOL     OW16129   1.014   5.822   8.419
 5368SOL    HW116130   1.006   5.786   8.326
 5368SOL    HW216131   1.012   5.746   8.484
 5369SOL     OW16132   0.590   7.073   7.939
 5369SOL    HW116133   0.632   7.015   7.869
 5369SOL    HW216134   0.546   7.152   7.895
 5370SOL     OW16135   1.709   5.971   8.829
 5370SOL    HW116136   1.782   6.040   8.833
 5370SOL    HW216137   1.737   5.896   8.770
 5371SOL     OW16138   0.255   6.934   7.738
 5371SOL    HW116139   0.159   6.935   7.711
 5371SOL    HW216140   0.267   6.987   7.822
 5372SOL     OW16141   0.105   6.599   9.174
 5372SOL    HW116142   0.028   6.566   9.228
 5372SOL    HW216143   0.190   6.569   9.216
 5373SOL     OW16144   0.672   5.789   8.937
 5373SOL    HW116145   0.762   5.773   8.897
 5373SOL    HW216146   0.680   5.794   9.036
 5374SOL     OW16147   0.075   5.931   7.481
 5374SOL    HW116148  -0.017   5.903   7.452
 5374SOL    HW216149   0.106   6.008   7.425
 5375SOL     OW16150   1.440   6.442   8.846
 5375SOL    HW116151   1.383   6.494   8.783
 5375SOL    HW216152   1.536   6.454   8.822
 5376SOL     OW16153   0.072   5.752   7.766
 5376SOL    HW116154   0.055   5.835   7.712
 5376SOL    HW216155   0.162   5.715   7.744
 5377SOL     OW16156   1.183   6.921   7.567
 5377SOL    HW116157   1.084   6.910   7.569
 5377SOL    HW216158   1.217   6.936   7.660
 5378SOL     OW16159   0.613   6.428   8.879
 5378SOL    HW116160   0.669   6.509   8.862
 5378SOL    HW216161   0.672   6.348   8.882
 5379SOL     OW16162   1.493   7.353   8.407
 5379SOL    HW116163   1.526   7.417   8.338
 5379SOL    HW216164   1.559   7.347   8.482
 5380SOL     OW16165   0.716   6.151   9.156
 5380SOL    HW116166   0.735   6.216   9.230
 5380SOL    HW216167   0.776   6.071   9.165
 5381SOL     OW16168   1.450   6.806   9.081
 5381SOL    HW116169   1.441   6.796   9.180
 5381SOL    HW216170   1.546   6.799   9.055
 5382SOL     OW16171   0.390   7.327   9.008
 5382SOL    HW116172   0.299   7.368   9.006
 5382SOL    HW216173   0.383   7.233   9.040
 5383SOL     OW16174   1.674   6.469   8.702
 5383SOL    HW116175   1.647   6.380   8.665
 5383SOL    HW216176   1.675   6.537   8.629
 5384SOL     OW16177   1.225   5.911   7.897
 5384SOL    HW116178   1.290   5.837   7.886
 5384SOL    HW216179   1.245   5.961   7.981
 5385SOL     OW16180   0.594   6.331   8.100
 5385SOL    HW116181   0.644   6.416   8.081
 5385SOL    HW216182   0.506   6.333   8.052
 5386SOL     OW16183   1.777   5.928   9.090
 5386SOL    HW116184   1.760   5.959   8.996
 5386SOL    HW216185   1.693   5.891   9.128
 5387SOL     OW16186   1.730   6.520   8.965
 5387SOL    HW116187   1.768   6.611   8.980
 5387SOL    HW216188   1.722   6.503   8.866
 5388SOL     OW16189   0.859   6.960   7.464
 5388SOL    HW116190   0.813   6.975   7.552
 5388SOL    HW216191   0.903   7.045   7.434
 5389SOL     OW16192   0.661   7.376   8.401
 5389SOL    HW116193   0.615   7.464   8.388
 5389SOL    HW216194   0.760   7.388   8.394
 5390SOL     OW16195   0.859   6.542   8.309
 5390SOL    HW116196   0.913   6.473   8.357
 5390SOL    HW216197   0.827   6.611   8.375
 5391SOL     OW16198   1.083   6.570   7.535
 5391SOL    HW116199   1.060   6.623   7.453
 5391SOL    HW216200   1.164   6.514   7.516
 5392SOL     OW16201   1.861   7.155   8.299
 5392SOL    HW116202   1.790   7.143   8.229
 5392SOL    HW216203   1.862   7.076   8.359
 5393SOL     OW16204   0.221   6.900   9.292
 5393SOL    HW116205   0.156   6.827   9.271
 5393SOL    HW216206   0.225   6.914   9.390
 5394SOL     OW16207   0.079   6.826   8.101
 5394SOL    HW116208   0.078   6.779   8.189
 5394SOL    HW216209   0.161   6.798   8.050
 5395SOL     OW16210   0.672   6.977   9.072
 5395SOL    HW116211   0.594   6.927   9.110
 5395SOL    HW216212   0.669   7.072   9.103
 5396SOL     OW16213   1.824   5.778   8.675
 5396SOL    HW116214   1.820   5.688   8.719
 5396SOL    HW216215   1.827   5.767   8.576
 5397SOL     OW16216   0.428   6.010   7.968
 5397SOL    HW116217   0.458   5.938   7.906
 5397SOL    HW216218   0.389   5.970   8.051
 5398SOL     OW16219   1.705   7.073   8.552
 5398SOL    HW116220   1.612   7.048   8.525
 5398SOL    HW216221   1.731   7.023   8.634
 5399SOL     OW16222   0.317   6.133   8.728
 5399SOL    HW116223   0.355   6.074   8.800
 5399SOL    HW216224   0.357   6.107   8.640
 5400SOL     OW16225   0.812   7.172   8.135
 5400SOL    HW116226   0.844   7.182   8.041
 5400SOL    HW216227   0.733   7.110   8.137
 5401SOL     OW16228   1.424   5.800   8.560
 5401SOL    HW116229   1.476   5.735   8.615
 5401SOL    HW216230   1.375   5.863   8.621
 5402SOL     OW16231   1.001   5.620   8.602
 5402SOL    HW116232   0.938   5.548   8.571
 5402SOL    HW216233   1.094   5.584   8.602
 5403SOL     OW16234   0.770   6.916   7.749
 5403SOL    HW116235   0.724   6.829   7.766
 5403SOL    HW216236   0.861   6.913   7.790
 5404SOL     OW16237   0.618   7.153   8.732
 5404SOL    HW116238   0.613   7.235   8.789
 5404SOL    HW216239   0.707   7.150   8.687
 5405SOL     OW16240   1.352   5.638   7.616
 5405SOL    HW116241   1.387   5.597   7.532
 5405SOL    HW216242   1.262   5.600   7.636
 5406SOL     OW16243   1.300   6.039   8.139
 5406SOL    HW116244   1.241   6.119   8.143
 5406SOL    HW216245   1.315   6.004   8.232
 5407SOL     OW16246   1.593   5.807   8.330
 5407SOL    HW116247   1.509   5.806   8.384
 5407SOL    HW216248   1.595   5.890   8.274
 5408SOL     OW16249   0.039   6.663   7.748
 5408SOL    HW116250   0.138   6.652   7.739
 5408SOL    HW216251  -0.001   6.577   7.780
 5409SOL     OW16252   0.875   7.232   7.785
 5409SOL    HW116253   0.798   7.197   7.731
 5409SOL    HW216254   0.843   7.303   7.847
 5410SOL     OW16255   0.230   6.214   9.423
 5410SOL    HW116256   0.137   6.212   9.460
 5410SOL    HW216257   0.231   6.175   9.331
 5411SOL     OW16258   0.225   5.861  10.306
 5411SOL    HW116259   0.260   5.844  10.398
 5411SOL    HW216260   0.137   5.816  10.294
 5412SOL     OW16261   0.019   5.954   9.957
 5412SOL    HW116262  -0.063   5.997   9.996
 5412SOL    HW216263  -0.009   5.881   9.894
 5413SOL     OW16264   0.569   6.861  10.475
 5413SOL    HW116265   0.476   6.854  10.438
 5413SOL    HW216266   0.580   6.950  10.519
 5414SOL     OW16267   1.555   7.097  10.013
 5414SOL    HW116268   1.498   7.081  10.094
 5414SOL    HW216269   1.496   7.107   9.933
 5415SOL     OW16270   1.135   6.289  10.027
 5415SOL    HW116271   1.192   6.367  10.002
 5415SOL    HW216272   1.075   6.315  10.103
 5416SOL     OW16273   1.755   6.193   9.541
 5416SOL    HW116274   1.743   6.180   9.442
 5416SOL    HW216275   1.725   6.112   9.590
 5417SOL     OW16276   0.768   6.730  10.333
 5417SOL    HW116277   0.690   6.747  10.393
 5417SOL    HW216278   0.802   6.817  10.297
 5418SOL     OW16279   0.850   6.384  11.133
 5418SOL    HW116280   0.846   6.460  11.198
 5418SOL    HW216281   0.872   6.420  11.042
 5419SOL     OW16282   0.685   6.598   9.975
 5419SOL    HW116283   0.754   6.582  10.045
 5419SOL    HW216284   0.612   6.655  10.013
 5420SOL     OW16285   0.686   6.747  11.113
 5420SOL    HW116286   0.746   6.826  11.127
 5420SOL    HW216287   0.600   6.778  11.072
 5421SOL     OW16288   0.335   7.021  10.371
 5421SOL    HW116289   0.257   6.990  10.318
 5421SOL    HW216290   0.393   7.079  10.314
 5422SOL     OW16291   1.460   7.091  10.649
 5422SOL    HW116292   1.484   7.185  10.675
 5422SOL    HW216293   1.444   7.037  10.731
 5423SOL     OW16294   0.438   5.978  10.809
 5423SOL    HW116295   0.520   5.922  10.818
 5423SOL    HW216296   0.357   5.920  10.813
 5424SOL     OW16297   1.603   6.033  10.047
 5424SOL    HW116298   1.529   6.079   9.997
 5424SOL    HW216299   1.654   6.101  10.100
 5425SOL     OW16300   0.231   7.299   9.793
 5425SOL    HW116301   0.265   7.376   9.847
 5425SOL    HW216302   0.275   7.299   9.703
 5426SOL     OW16303   1.127   6.927  11.000
 5426SOL    HW116304   1.174   6.927  11.088
 5426SOL    HW216305   1.079   6.840  10.989
 5427SOL     OW16306   0.230   7.020   9.848
 5427SOL    HW116307   0.204   7.116   9.848
 5427SOL    HW216308   0.159   6.966   9.893
 5428SOL     OW16309   0.240   6.677  10.196
 5428SOL    HW116310   0.254   6.593  10.248
 5428SOL    HW216311   0.185   6.741  10.251
 5429SOL     OW16312   0.620   7.372  10.749
 5429SOL    HW116313   0.528   7.355  10.784
 5429SOL    HW216314   0.648   7.464  10.775
 5430SOL     OW16315   0.606   6.550   9.433
 5430SOL    HW116316   0.613   6.634   9.379
 5430SOL    HW216317   0.652   6.563   9.521
 5431SOL     OW16318   1.594   5.700  10.790
 5431SOL    HW116319   1.576   5.767  10.718
 5431SOL    HW216320   1.591   5.746  10.879
 5432SOL     OW16321   0.122   6.229   9.873
 5432SOL    HW116322   0.077   6.141   9.890
 5432SOL    HW216323   0.121   6.283   9.957
 5433SOL     OW16324   1.842   7.353   9.669
 5433SOL    HW116325   1.896   7.324   9.749
 5433SOL    HW216326   1.872   7.443   9.640
 5434SOL     OW16327   0.027   7.182   9.427
 5434SOL    HW116328   0.008   7.086   9.448
 5434SOL    HW216329  -0.006   7.240   9.502
 5435SOL     OW16330   1.689   6.508   9.922
 5435SOL    HW116331   1.784   6.479   9.930
 5435SOL    HW216332   1.681   6.573   9.847
 5436SOL     OW16333   1.641   6.694   9.742
 5436SOL    HW116334   1.727   6.696   9.690
 5436SOL    HW216335   1.655   6.741   9.830
 5437SOL     OW16336   0.113   6.323  10.907
 5437SOL    HW116337   0.201   6.310  10.952
 5437SOL    HW216338   0.100   6.420  10.885
 5438SOL     OW16339   0.613   6.951  10.036
 5438SOL    HW116340   0.564   6.864  10.045
 5438SOL    HW216341   0.590   6.994   9.949
 5439SOL     OW16342   1.293   6.814  10.733
 5439SOL    HW116343   1.330   6.741  10.675
 5439SOL    HW216344   1.345   6.819  10.818
 5440SOL     OW16345   0.809   5.590   9.812
 5440SOL    HW116346   0.849   5.681   9.803
 5440SOL    HW216347   0.709   5.598   9.818
 5441SOL     OW16348   0.197   6.562  10.574
 5441SOL    HW116349   0.286   6.517  10.560
 5441SOL    HW216350   0.124   6.497  10.555
 5442SOL     OW16351   1.525   6.585   9.500
 5442SOL    HW116352   1.462   6.509   9.513
 5442SOL    HW216353   1.573   6.603   9.586
 5443SOL     OW16354   1.187   7.378  10.926
 5443SOL    HW116355   1.211   7.438  10.850
 5443SOL    HW216356   1.194   7.283  10.896
 5444SOL     OW16357   0.317   5.837  11.111
 5444SOL    HW116358   0.388   5.908  11.117
 5444SOL    HW216359   0.229   5.876  11.139
 5445SOL     OW16360   1.466   7.003  10.263
 5445SOL    HW116361   1.407   7.009  10.343
 5445SOL    HW216362   1.451   6.915  10.217
 5446SOL     OW16363   1.667   7.300   9.882
 5446SOL    HW116364   1.626   7.277   9.794
 5446SOL    HW216365   1.649   7.226   9.947
 5447SOL     OW16366   0.598   6.315   9.580
 5447SOL    HW116367   0.622   6.384   9.512
 5447SOL    HW216368   0.520   6.348   9.634
 5448SOL     OW16369   1.281   5.931  10.254
 5448SOL    HW116370   1.195   5.881  10.241
 5448SOL    HW216371   1.343   5.877  10.310
 5449SOL     OW16372   1.576   7.248   9.617
 5449SOL    HW116373   1.665   7.294   9.620
 5449SOL    HW216374   1.555   7.224   9.522
 5450SOL     OW16375   0.807   6.191  10.775
 5450SOL    HW116376   0.760   6.188  10.864
 5450SOL    HW216377   0.756   6.136  10.709
 5451SOL     OW16378   1.394   6.055  10.984
 5451SOL    HW116379   1.374   6.098  11.072
 5451SOL    HW216380   1.472   5.993  10.993
 5452SOL     OW16381   0.973   6.476  10.882
 5452SOL    HW116382   1.019   6.392  10.853
 5452SOL    HW216383   0.917   6.510  10.807
 5453SOL     OW16384   0.991   5.996  10.552
 5453SOL    HW116385   0.914   6.030  10.606
 5453SOL    HW216386   0.957   5.945  10.473
 5454SOL     OW16387   1.041   6.287   9.739
 5454SOL    HW116388   1.067   6.283   9.835
 5454SOL    HW216389   0.956   6.236   9.725
 5455SOL     OW16390   0.076   6.397  10.099
 5455SOL    HW116391   0.175   6.385  10.108
 5455SOL    HW216392   0.052   6.492  10.120
 5456SOL     OW16393   0.130   7.407  10.881
 5456SOL    HW116394   0.120   7.392  10.980
 5456SOL    HW216395   0.044   7.443  10.845
 5457SOL     OW16396   0.865   5.934   9.505
 5457SOL    HW116397   0.924   5.997   9.456
 5457SOL    HW216398   0.884   5.840   9.476
 5458SOL     OW16399   1.719   6.171  11.141
 5458SOL    HW116400   1.693   6.260  11.105
 5458SOL    HW216401   1.717   6.103  11.068
 5459SOL     OW16402   1.362   6.730   9.855
 5459SOL    HW116403   1.445   6.701   9.807
 5459SOL    HW216404   1.313   6.797   9.799
 5460SOL     OW16405   0.550   5.782  10.195
 5460SOL    HW116406   0.545   5.777  10.295
 5460SOL    HW216407   0.552   5.878  10.166
 5461SOL     OW16408   1.008   7.042   9.787
 5461SOL    HW116409   0.962   7.114   9.735
 5461SOL    HW216410   1.004   7.062   9.885
 5462SOL     OW16411   0.351   7.387  10.163
 5462SOL    HW116412   0.401   7.301  10.169
 5462SOL    HW216413   0.416   7.464  10.160
 5463SOL     OW16414   1.795   6.652  10.183
 5463SOL    HW116415   1.733   6.637  10.107
 5463SOL    HW216416   1.743   6.663  10.268
 5464SOL     OW16417   1.227   7.136  10.816
 5464SOL    HW116418   1.233   7.059  10.880
 5464SOL    HW216419   1.175   7.110  10.736
 5465SOL     OW16420   0.321   6.529   9.552
 5465SOL    HW116421   0.403   6.568   9.510
 5465SOL    HW216422   0.294   6.447   9.503
 5466SOL     OW16423   1.458   6.321  10.038
 5466SOL    HW116424   1.453   6.256  10.113
 5466SOL    HW216425   1.538   6.380  10.051
 5467SOL     OW16426   0.461   6.852  11.037
 5467SOL    HW116427   0.411   6.853  10.951
 5467SOL    HW216428   0.398   6.834  11.113
 5468SOL     OW16429   1.111   7.362   9.547
 5468SOL    HW116430   1.051   7.300   9.597
 5468SOL    HW216431   1.142   7.318   9.462
 5469SOL     OW16432   0.202   5.871  10.808
 5469SOL    HW116433   0.122   5.931  10.795
 5469SOL    HW216434   0.192   5.822  10.894
 5470SOL     OW16435   1.632   6.963   9.391
 5470SOL    HW116436   1.600   7.057   9.381
 5470SOL    HW216437   1.556   6.900   9.379
 5471SOL     OW16438   0.464   7.329   9.633
 5471SOL    HW116439   0.497   7.368   9.719
 5471SOL    HW216440   0.540   7.322   9.568
 5472SOL     OW16441   1.400   5.693   9.736
 5472SOL    HW116442   1.376   5.656   9.646
 5472SOL    HW216443   1.499   5.709   9.740
 5473SOL     OW16444   0.249   7.371  10.551
 5473SOL    HW116445   0.306   7.306  10.601
 5473SOL    HW216446   0.233   7.338  10.458
 5474SOL     OW16447   0.940   7.284  10.214
 5474SOL    HW116448   1.020   7.227  10.235
 5474SOL    HW216449   0.891   7.244  10.137
 5475SOL     OW16450   0.382   6.286   9.790
 5475SOL    HW116451   0.427   6.196   9.787
 5475SOL    HW216452   0.288   6.275   9.823
 5476SOL     OW16453   1.547   5.808  11.039
 5476SOL    HW116454   1.542   5.845  11.131
 5476SOL    HW216455   1.475   5.739  11.027
 5477SOL     OW16456   0.614   5.708   9.427
 5477SOL    HW116457   0.712   5.686   9.434
 5477SOL    HW216458   0.583   5.691   9.334
 5478SOL     OW16459   0.781   5.850  11.059
 5478SOL    HW116460   0.848   5.789  11.102
 5478SOL    HW216461   0.708   5.869  11.124
 5479SOL     OW16462   0.888   7.100  10.505
 5479SOL    HW116463   0.865   7.075  10.411
 5479SOL    HW216464   0.949   7.031  10.544
 5480SOL     OW16465   1.351   6.176  10.743
 5480SOL    HW116466   1.379   6.133  10.828
 5480SOL    HW216467   1.376   6.272  10.744
 5481SOL     OW16468   0.803   6.988  10.234
 5481SOL    HW116469   0.893   7.002  10.192
 5481SOL    HW216470   0.732   6.990  10.163
 5482SOL     OW16471   0.922   6.089  10.209
 5482SOL    HW116472   0.897   6.080  10.113
 5482SOL    HW216473   0.970   6.007  10.240
 5483SOL     OW16474   0.539   5.650   9.822
 5483SOL    HW116475   0.458   5.651   9.880
 5483SOL    HW216476   0.542   5.733   9.767
 5484SOL     OW16477   1.434   6.774   9.351
 5484SOL    HW116478   1.466   6.698   9.408
 5484SOL    HW216479   1.342   6.801   9.381
 5485SOL     OW16480   0.297   5.621   9.481
 5485SOL    HW116481   0.346   5.705   9.460
 5485SOL    HW216482   0.359   5.556   9.526
 5486SOL     OW16483   0.935   5.822   9.790
 5486SOL    HW116484   0.887   5.863   9.712
 5486SOL    HW216485   1.034   5.820   9.771
 5487SOL     OW16486   1.076   6.269  10.774
 5487SOL    HW116487   0.996   6.208  10.777
 5487SOL    HW216488   1.157   6.216  10.750
 5488SOL     OW16489   1.227   7.156  10.103
 5488SOL    HW116490   1.248   7.230  10.038
 5488SOL    HW216491   1.295   7.156  10.176
 5489SOL     OW16492   0.459   6.738  10.051
 5489SOL    HW116493   0.388   6.711  10.116
 5489SOL    HW216494   0.433   6.710   9.958
 5490SOL     OW16495   1.271   7.383   9.901
 5490SOL    HW116496   1.315   7.447   9.837
 5490SOL    HW216497   1.221   7.435   9.971
 5491SOL     OW16498   1.032   6.135   9.326
 5491SOL    HW116499   0.991   6.217   9.287
 5491SOL    HW216500   1.096   6.161   9.399
 5492SOL     OW16501   0.078   6.142  10.696
 5492SOL    HW116502   0.170   6.141  10.655
 5492SOL    HW216503   0.072   6.216  10.763
 5493SOL     OW16504   0.561   5.808  10.457
 5493SOL    HW116505   0.599   5.724  10.494
 5493SOL    HW216506   0.473   5.827  10.501
 5494SOL     OW16507   0.866   6.040   9.952
 5494SOL    HW116508   0.834   6.112   9.890
 5494SOL    HW216509   0.890   5.959   9.899
 5495SOL     OW16510   1.017   5.625  10.063
 5495SOL    HW116511   0.945   5.630   9.994
 5495SOL    HW216512   0.993   5.556  10.132
 5496SOL     OW16513   1.429   6.759  10.177
 5496SOL    HW116514   1.374   6.675  10.170
 5496SOL    HW216515   1.455   6.788  10.085
 5497SOL     OW16516   1.466   6.176  10.302
 5497SOL    HW116517   1.436   6.081  10.309
 5497SOL    HW216518   1.539   6.192  10.368
 5498SOL     OW16519   1.857   6.419   9.687
 5498SOL    HW116520   1.899   6.355   9.751
 5498SOL    HW216521   1.819   6.368   9.609
 5499SOL     OW16522   0.488   6.971   9.484
 5499SOL    HW116523   0.401   6.956   9.531
 5499SOL    HW216524   0.471   6.997   9.389
 5500SOL     OW16525   1.664   6.866   9.967
 5500SOL    HW116526   1.763   6.874   9.981
 5500SOL    HW216527   1.619   6.950   9.998
 5501SOL     OW16528   1.390   6.161   9.388
 5501SOL    HW116529   1.336   6.140   9.469
 5501SOL    HW216530   1.481   6.120   9.397
 5502SOL     OW16531   0.527   5.842   9.638
 5502SOL    HW116532   0.554   5.783   9.563
 5502SOL    HW216533   0.527   5.937   9.607
 5503SOL     OW16534   1.754   6.809  10.898
 5503SOL    HW116535   1.845   6.770  10.885
 5503SOL    HW216536   1.762   6.905  10.922
 5504SOL     OW16537   1.064   6.933  10.650
 5504SOL    HW116538   0.984   6.910  10.705
 5504SOL    HW216539   1.147   6.907  10.699
 5505SOL     OW16540   1.592   7.215  10.935
 5505SOL    HW116541   1.619   7.249  10.845
 5505SOL    HW216542   1.671   7.177  10.981
 5506SOL     OW16543   1.111   6.781  10.410
 5506SOL    HW116544   1.071   6.825  10.491
 5506SOL    HW216545   1.070   6.818  10.327
 5507SOL     OW16546   1.638   6.685  10.389
 5507SOL    HW116547   1.643   6.766  10.448
 5507SOL    HW216548   1.552   6.687  10.338
 5508SOL     OW16549   0.915   5.675  10.712
 5508SOL    HW116550   0.940   5.655  10.617
 5508SOL    HW216551   0.987   5.731  10.754
 5509SOL     OW16552   0.980   6.702  11.029
 5509SOL    HW116553   0.881   6.708  11.039
 5509SOL    HW216554   1.003   6.622  10.973
 5510SOL     OW16555   0.705   6.636   9.678
 5510SOL    HW116556   0.691   6.643   9.777
 5510SOL    HW216557   0.789   6.585   9.660
 5511SOL     OW16558   0.410   6.399  10.561
 5511SOL    HW116559   0.496   6.411  10.611
 5511SOL    HW216560   0.368   6.312  10.588
 5512SOL     OW16561   1.274   5.972  10.572
 5512SOL    HW116562   1.295   6.046  10.636
 5512SOL    HW216563   1.185   5.989  10.529
 5513SOL     OW16564   0.064   7.150  10.641
 5513SOL    HW116565   0.018   7.232  10.607
 5513SOL    HW216566   0.162   7.169  10.650
 5514SOL     OW16567   0.367   6.686   9.811
 5514SOL    HW116568   0.360   6.769   9.755
 5514SOL    HW216569   0.371   6.606   9.751
 5515SOL     OW16570   0.566   6.123  10.175
 5515SOL    HW116571   0.578   6.189  10.101
 5515SOL    HW216572   0.612   6.157  10.258
 5516SOL     OW16573   1.252   6.934   9.698
 5516SOL    HW116574   1.302   7.011   9.738
 5516SOL    HW216575   1.157   6.936   9.730
 5517SOL     OW16576   1.272   7.031  10.452
 5517SOL    HW116577   1.319   7.044  10.539
 5517SOL    HW216578   1.206   6.957  10.461
 5518SOL     OW16579   1.582   6.225   9.782
 5518SOL    HW116580   1.551   6.286   9.855
 5518SOL    HW216581   1.632   6.277   9.713
 5519SOL     OW16582   0.354   7.096  10.639
 5519SOL    HW116583   0.333   7.052  10.552
 5519SOL    HW216584   0.451   7.122  10.642
 5520SOL     OW16585   0.402   6.337  10.908
 5520SOL    HW116586   0.470   6.392  10.861
 5520SOL    HW216587   0.442   6.249  10.935
 5521SOL     OW16588   1.587   6.365  10.980
 5521SOL    HW116589   1.495   6.403  10.975
 5521SOL    HW216590   1.647   6.412  10.915
 5522SOL     OW16591   1.013   5.691  11.080
 5522SOL    HW116592   1.019   5.776  11.028
 5522SOL    HW216593   1.045   5.615  11.023
 5523SOL     OW16594   0.504   5.636  11.050
 5523SOL    HW116595   0.462   5.579  10.980
 5523SOL    HW216596   0.438   5.705  11.082
 5524SOL     OW16597   0.573   6.456  10.339
 5524SOL    HW116598   0.617   6.545  10.330
 5524SOL    HW216599   0.510   6.456  10.416
 5525SOL     OW16600   1.360   6.448  10.355
 5525SOL    HW116601   1.285   6.448  10.289
 5525SOL    HW216602   1.397   6.356  10.364
 5526SOL     OW16603   1.209   6.111   9.585
 5526SOL    HW116604   1.222   6.027   9.639
 5526SOL    HW216605   1.180   6.185   9.645
 5527SOL     OW16606   0.307   5.799  10.541
 5527SOL    HW116607   0.284   5.836  10.631
 5527SOL    HW216608   0.277   5.704  10.535
 5528SOL     OW16609   0.037   6.896  10.592
 5528SOL    HW116610   0.090   6.847  10.660
 5528SOL    HW216611   0.059   6.994  10.597
 5529SOL     OW16612   0.732   6.220  10.374
 5529SOL    HW116613   0.791   6.194  10.298
 5529SOL    HW216614   0.704   6.316  10.363
 5530SOL     OW16615   1.728   6.521  11.164
 5530SOL    HW116616   1.682   6.514  11.075
 5530SOL    HW216617   1.666   6.565  11.230
 5531SOL     OW16618   0.307   5.649   9.928
 5531SOL    HW116619   0.296   5.743   9.961
 5531SOL    HW216620   0.302   5.586  10.005
 5532SOL     OW16621   1.622   5.953   9.684
 5532SOL    HW116622   1.624   5.877   9.748
 5532SOL    HW216623   1.574   6.030   9.724
 5533SOL     OW16624   1.023   6.352  10.276
 5533SOL    HW116625   1.038   6.373  10.372
 5533SOL    HW216626   0.993   6.257  10.267
 5534SOL     OW16627   0.980   7.159  11.010
 5534SOL    HW116628   0.960   7.203  10.922
 5534SOL    HW216629   1.019   7.068  10.994
 5535SOL     OW16630   1.859   7.104  10.915
 5535SOL    HW116631   1.873   7.131  10.820
 5535SOL    HW216632   1.942   7.126  10.968
 5536SOL     OW16633   0.350   6.484  11.114
 5536SOL    HW116634   0.426   6.528  11.162
 5536SOL    HW216635   0.385   6.437  11.032
 5537SOL     OW16636   1.540   5.860   9.435
 5537SOL    HW116637   1.479   5.785   9.458
 5537SOL    HW216638   1.562   5.912   9.518
 5538SOL     OW16639   1.303   6.424   9.352
 5538SOL    HW116640   1.337   6.331   9.367
 5538SOL    HW216641   1.321   6.451   9.257
 5539SOL     OW16642   1.068   6.919  10.159
 5539SOL    HW116643   1.075   6.835  10.104
 5539SOL    HW216644   1.130   6.988  10.123
 5540SOL     OW16645   0.319   6.396  10.259
 5540SOL    HW116646   0.412   6.432  10.264
 5540SOL    HW216647   0.313   6.311  10.311
 5541SOL     OW16648   0.339   6.095  10.316
 5541SOL    HW116649   0.287   6.012  10.299
 5541SOL    HW216650   0.416   6.100  10.252
 5542SOL     OW16651   1.138   5.966  10.988
 5542SOL    HW116652   1.093   6.029  11.052
 5542SOL    HW216653   1.231   5.997  10.971
 5543SOL     OW16654   1.160   5.793  10.787
 5543SOL    HW116655   1.160   5.857  10.864
 5543SOL    HW216656   1.188   5.841  10.704
 5544SOL     OW16657   0.008   6.912   9.510
 5544SOL    HW116658  -0.085   6.933   9.479
 5544SOL    HW216659   0.018   6.813   9.523
 5545SOL     OW16660   0.088   7.387  10.237
 5545SOL    HW116661   0.046   7.301  10.210
 5545SOL    HW216662   0.182   7.390  10.203
 5546SOL     OW16663   0.504   7.154  10.220
 5546SOL    HW116664   0.570   7.228  10.229
 5546SOL    HW216665   0.548   7.075  10.178
 5547SOL     OW16666   1.002   6.382  10.548
 5547SOL    HW116667   1.043   6.350  10.634
 5547SOL    HW216668   0.906   6.355  10.545
 5548SOL     OW16669   0.040   6.130  10.424
 5548SOL    HW116670   0.125   6.097  10.383
 5548SOL    HW216671   0.053   6.145  10.522
 5549SOL     OW16672   0.189   6.106  11.032
 5549SOL    HW116673   0.248   6.066  10.962
 5549SOL    HW216674   0.131   6.177  10.991
 5550SOL     OW16675   1.369   6.536  10.970
 5550SOL    HW116676   1.408   6.625  10.990
 5550SOL    HW216677   1.379   6.516  10.873
 5551SOL     OW16678   0.815   6.158   9.635
 5551SOL    HW116679   0.822   6.069   9.589
 5551SOL    HW216680   0.721   6.192   9.627
 5552SOL     OW16681   1.657   6.190  10.516
 5552SOL    HW116682   1.619   6.121  10.578
 5552SOL    HW216683   1.739   6.154  10.472
 5553SOL     OW16684   0.252   7.150  11.054
 5553SOL    HW116685   0.222   7.207  11.130
 5553SOL    HW216686   0.245   7.053  11.080
 5554SOL     OW16687   0.671   6.050  10.579
 5554SOL    HW116688   0.637   5.961  10.549
 5554SOL    HW216689   0.697   6.104  10.499
 5555SOL     OW16690   0.930   7.264  10.775
 5555SOL    HW116691   0.906   7.246  10.680
 5555SOL    HW216692   0.960   7.358  10.785
 5556SOL     OW16693   0.473   6.086   9.501
 5556SOL    HW116694   0.534   6.166   9.505
 5556SOL    HW216695   0.378   6.117   9.508
 5557SOL     OW16696   0.159   6.723  10.776
 5557SOL    HW116697   0.181   6.662  10.852
 5557SOL    HW216698   0.169   6.674  10.690
 5558SOL     OW16699   1.347   6.645  10.544
 5558SOL    HW116700   1.371   6.582  10.470
 5558SOL    HW216701   1.257   6.685  10.526
 5559SOL     OW16702   1.302   6.441   9.619
 5559SOL    HW116703   1.216   6.410   9.661
 5559SOL    HW216704   1.298   6.427   9.520
 5560SOL     OW16705   1.759   7.333  10.464
 5560SOL    HW116706   1.820   7.363  10.391
 5560SOL    HW216707   1.721   7.244  10.442
 5561SOL     OW16708   1.252   7.317  10.438
 5561SOL    HW116709   1.336   7.322  10.384
 5561SOL    HW216710   1.229   7.221  10.456
 5562SOL     OW16711   0.083   6.844  10.332
 5562SOL    HW116712   0.078   6.843  10.432
 5562SOL    HW216713   0.000   6.803  10.294
 5563SOL     OW16714   0.688   7.248  11.026
 5563SOL    HW116715   0.632   7.329  11.035
 5563SOL    HW216716   0.740   7.252  10.940
 5564SOL     OW16717   1.726   5.721   9.833
 5564SOL    HW116718   1.799   5.704   9.766
 5564SOL    HW216719   1.695   5.634   9.871
 5565SOL     OW16720   1.388   7.159   9.787
 5565SOL    HW116721   1.455   7.171   9.713
 5565SOL    HW216722   1.348   7.248   9.810
 5566SOL     OW16723   0.130   7.380  11.161
 5566SOL    HW116724   0.089   7.306  11.214
 5566SOL    HW216725   0.194   7.431  11.219
 5567SOL     OW16726   1.280   6.513   9.982
 5567SOL    HW116727   1.340   6.432   9.984
 5567SOL    HW216728   1.320   6.582   9.922
 5568SOL     OW16729   0.830   6.859  10.732
 5568SOL    HW116730   0.825   6.892  10.827
 5568SOL    HW216731   0.744   6.878  10.686
 5569SOL     OW16732   0.672   7.202   9.464
 5569SOL    HW116733   0.681   7.212   9.365
 5569SOL    HW216734   0.632   7.113   9.485
 5570SOL     OW16735   1.650   7.306  10.704
 5570SOL    HW116736   1.703   7.316  10.620
 5570SOL    HW216737   1.623   7.396  10.738
 5571SOL     OW16738   1.841   5.761  10.273
 5571SOL    HW116739   1.880   5.676  10.237
 5571SOL    HW216740   1.743   5.763  10.254
 5572SOL     OW16741   0.263   5.912  10.030
 5572SOL    HW116742   0.184   5.963   9.996
 5572SOL    HW216743   0.254   5.897  10.128
 5573SOL     OW16744   1.194   7.198   9.341
 5573SOL    HW116745   1.200   7.105   9.378
 5573SOL    HW216746   1.135   7.198   9.261
 5574SOL     OW16747   0.822   6.588  10.682
 5574SOL    HW116748   0.862   6.587  10.590
 5574SOL    HW216749   0.832   6.680  10.722
 5575SOL     OW16750   0.916   6.496   9.601
 5575SOL    HW116751   0.979   6.534   9.533
 5575SOL    HW216752   0.956   6.413   9.640
 5576SOL     OW16753   1.504   7.193   9.354
 5576SOL    HW116754   1.412   7.230   9.361
 5576SOL    HW216755   1.542   7.213   9.264
 5577SOL     OW16756   0.372   6.874  10.800
 5577SOL    HW116757   0.359   6.967  10.766
 5577SOL    HW216758   0.288   6.822  10.787
 5578SOL     OW16759   1.614   6.878  10.599
 5578SOL    HW116760   1.674   6.881  10.679
 5578SOL    HW216761   1.539   6.942  10.612
 5579SOL     OW16762   1.039   6.684  10.006
 5579SOL    HW116763   0.969   6.637  10.060
 5579SOL    HW216764   1.098   6.616   9.963
 5580SOL     OW16765   1.014   5.822  10.281
 5580SOL    HW116766   1.006   5.786  10.188
 5580SOL    HW216767   1.012   5.746  10.346
 5581SOL     OW16768   0.590   7.073   9.801
 5581SOL    HW116769   0.632   7.015   9.731
 5581SOL    HW216770   0.546   7.152   9.757
 5582SOL     OW16771   1.709   5.971  10.691
 5582SOL    HW116772   1.782   6.040  10.695
 5582SOL    HW216773   1.737   5.896  10.632
 5583SOL     OW16774   0.255   6.934   9.600
 5583SOL    HW116775   0.159   6.935   9.573
 5583SOL    HW216776   0.267   6.987   9.684
 5584SOL     OW16777   0.105   6.599  11.036
 5584SOL    HW116778   0.028   6.566  11.090
 5584SOL    HW216779   0.190   6.569  11.078
 5585SOL     OW16780   0.672   5.789  10.799
 5585SOL    HW116781   0.762   5.773  10.759
 5585SOL    HW216782   0.680   5.794  10.898
 5586SOL     OW16783   0.075   5.931   9.343
 5586SOL    HW116784  -0.017   5.903   9.314
 5586SOL    HW216785   0.106   6.008   9.287
 5587SOL     OW16786   1.440   6.442  10.708
 5587SOL    HW116787   1.383   6.494  10.645
 5587SOL    HW216788   1.536   6.454  10.684
 5588SOL     OW16789   0.072   5.752   9.628
 5588SOL    HW116790   0.055   5.835   9.574
 5588SOL    HW216791   0.162   5.715   9.606
 5589SOL     OW16792   1.183   6.921   9.429
 5589SOL    HW116793   1.084   6.910   9.431
 5589SOL    HW216794   1.217   6.936   9.522
 5590SOL     OW16795   0.613   6.428  10.741
 5590SOL    HW116796   0.669   6.509  10.724
 5590SOL    HW216797   0.672   6.348  10.744
 5591SOL     OW16798   1.493   7.353  10.269
 5591SOL    HW116799   1.526   7.417  10.200
 5591SOL    HW216800   1.559   7.347  10.344
 5592SOL     OW16801   0.716   6.151  11.018
 5592SOL    HW116802   0.735   6.216  11.092
 5592SOL    HW216803   0.776   6.071  11.027
 5593SOL     OW16804   1.450   6.806  10.943
 5593SOL    HW116805   1.441   6.796  11.042
 5593SOL    HW216806   1.546   6.799  10.917
 5594SOL     OW16807   0.390   7.327  10.870
 5594SOL    HW116808   0.299   7.368  10.868
 5594SOL    HW216809   0.383   7.233  10.902
 5595SOL     OW16810   1.674   6.469  10.564
 5595SOL    HW116811   1.647   6.380  10.527
 5595SOL    HW216812   1.675   6.537  10.491
 5596SOL     OW16813   1.225   5.911   9.759
 5596SOL    HW116814   1.290   5.837   9.748
 5596SOL    HW216815   1.245   5.961   9.843
 5597SOL     OW16816   0.594   6.331   9.962
 5597SOL    HW116817   0.644   6.416   9.943
 5597SOL    HW216818   0.506   6.333   9.914
 5598SOL     OW16819   1.777   5.928  10.952
 5598SOL    HW116820   1.760   5.959  10.858
 5598SOL    HW216821   1.693   5.891  10.990
 5599SOL     OW16822   1.730   6.520  10.827
 5599SOL    HW116823   1.768   6.611  10.842
 5599SOL    HW216824   1.722   6.503  10.728
 5600SOL     OW16825   0.859   6.960   9.326
 5600SOL    HW116826   0.813   6.975   9.414
 5600SOL    HW216827   0.903   7.045   9.296
 5601SOL     OW16828   0.661   7.376  10.263
 5601SOL    HW116829   0.615   7.464  10.250
 5601SOL    HW216830   0.760   7.388  10.256
 5602SOL     OW16831   0.859   6.542  10.171
 5602SOL    HW116832   0.913   6.473  10.219
 5602SOL    HW216833   0.827   6.611  10.237
 5603SOL     OW16834   1.083   6.570   9.397
 5603SOL    HW116835   1.060   6.623   9.315
 5603SOL    HW216836   1.164   6.514   9.378
 5604SOL     OW16837   1.861   7.155  10.161
 5604SOL    HW116838   1.790   7.143  10.091
 5604SOL    HW216839   1.862   7.076  10.221
 5605SOL     OW16840   0.221   6.900  11.154
 5605SOL    HW116841   0.156   6.827  11.133
 5605SOL    HW216842   0.225   6.914  11.252
 5606SOL     OW16843   0.079   6.826   9.963
 5606SOL    HW116844   0.078   6.779  10.051
 5606SOL    HW216845   0.161   6.798   9.912
 5607SOL     OW16846   0.672   6.977  10.934
 5607SOL    HW116847   0.594   6.927  10.972
 5607SOL    HW216848   0.669   7.072  10.965
 5608SOL     OW16849   1.824   5.778  10.537
 5608SOL    HW116850   1.820   5.688  10.581
 5608SOL    HW216851   1.827   5.767  10.438
 5609SOL     OW16852   0.428   6.010   9.830
 5609SOL    HW116853   0.458   5.938   9.768
 5609SOL    HW216854   0.389   5.970   9.913
 5610SOL     OW16855   1.705   7.073  10.414
 5610SOL    HW116856   1.612   7.048  10.387
 5610SOL    HW216857   1.731   7.023  10.496
 5611SOL     OW16858   0.317   6.133  10.590
 5611SOL    HW116859   0.355   6.074  10.662
 5611SOL    HW216860   0.357   6.107  10.502
 5612SOL     OW16861   0.812   7.172   9.997
 5612SOL    HW116862   0.844   7.182   9.903
 5612SOL    HW216863   0.733   7.110   9.999
 5613SOL     OW16864   1.424   5.800  10.422
 5613SOL    HW116865   1.476   5.735  10.477
 5613SOL    HW216866   1.375   5.863  10.483
 5614SOL     OW16867   1.001   5.620  10.464
 5614SOL    HW116868   0.938   5.548  10.433
 5614SOL    HW216869   1.094   5.584  10.464
 5615SOL     OW16870   0.770   6.916   9.611
 5615SOL    HW116871   0.724   6.829   9.628
 5615SOL    HW216872   0.861   6.913   9.652
 5616SOL     OW16873   0.618   7.153  10.594
 5616SOL    HW116874   0.613   7.235  10.651
 5616SOL    HW216875   0.707   7.150  10.549
 5617SOL     OW16876   1.352   5.638   9.478
 5617SOL    HW116877   1.387   5.597   9.394
 5617SOL    HW216878   1.262   5.600   9.498
 5618SOL     OW16879   1.300   6.039  10.001
 5618SOL    HW116880   1.241   6.119  10.005
 5618SOL    HW216881   1.315   6.004  10.094
 5619SOL     OW16882   1.593   5.807  10.192
 5619SOL    HW116883   1.509   5.806  10.246
 5619SOL    HW216884   1.595   5.890  10.136
 5620SOL     OW16885   0.039   6.663   9.610
 5620SOL    HW116886   0.138   6.652   9.601
 5620SOL    HW216887  -0.001   6.577   9.642
 5621SOL     OW16888   0.875   7.232   9.647
 5621SOL    HW116889   0.798   7.197   9.593
 5621SOL    HW216890   0.843   7.303   9.709
 5622SOL     OW16891   0.230   6.214  11.285
 5622SOL    HW116892   0.137   6.212  11.322
 5622SOL    HW216893   0.231   6.175  11.193
 5623SOL     OW16894   0.225   5.861  12.168
 5623SOL    HW116895   0.260   5.844  12.260
 5623SOL    HW216896   0.137   5.816  12.156
 5624SOL     OW16897   0.019   5.954  11.819
 5624SOL    HW116898  -0.063   5.997  11.858
 5624SOL    HW216899  -0.009   5.881  11.756
 5625SOL     OW16900   0.569   6.861  12.337
 5625SOL    HW116901   0.476   6.854  12.300
 5625SOL    HW216902   0.580   6.950  12.381
 5626SOL     OW16903   1.555   7.097  11.875
 5626SOL    HW116904   1.498   7.081  11.956
 5626SOL    HW216905   1.496   7.107  11.795
 5627SOL     OW16906   1.135   6.289  11.889
 5627SOL    HW116907   1.192   6.367  11.864
 5627SOL    HW216908   1.075   6.315  11.965
 5628SOL     OW16909   1.755   6.193  11.403
 5628SOL    HW116910   1.743   6.180  11.304
 5628SOL    HW216911   1.725   6.112  11.452
 5629SOL     OW16912   0.768   6.730  12.195
 5629SOL    HW116913   0.690   6.747  12.255
 5629SOL    HW216914   0.802   6.817  12.159
 5630SOL     OW16915   0.685   6.598  11.837
 5630SOL    HW116916   0.754   6.582  11.907
 5630SOL    HW216917   0.612   6.655  11.875
 5631SOL     OW16918   0.335   7.021  12.233
 5631SOL    HW116919   0.257   6.990  12.180
 5631SOL    HW216920   0.393   7.079  12.176
 5632SOL     OW16921   1.460   7.091  12.511
 5632SOL    HW116922   1.484   7.185  12.537
 5632SOL    HW216923   1.444   7.037  12.593
 5633SOL     OW16924   0.438   5.978  12.671
 5633SOL    HW116925   0.520   5.922  12.680
 5633SOL    HW216926   0.357   5.920  12.675
 5634SOL     OW16927   1.603   6.033  11.909
 5634SOL    HW116928   1.529   6.079  11.859
 5634SOL    HW216929   1.654   6.101  11.962
 5635SOL     OW16930   0.231   7.299  11.655
 5635SOL    HW116931   0.265   7.376  11.709
 5635SOL    HW216932   0.275   7.299  11.565
 5636SOL     OW16933   0.230   7.020  11.710
 5636SOL    HW116934   0.204   7.116  11.710
 5636SOL    HW216935   0.159   6.966  11.755
 5637SOL     OW16936   0.240   6.677  12.058
 5637SOL    HW116937   0.254   6.593  12.110
 5637SOL    HW216938   0.185   6.741  12.113
 5638SOL     OW16939   0.620   7.372  12.611
 5638SOL    HW116940   0.528   7.355  12.646
 5638SOL    HW216941   0.648   7.464  12.637
 5639SOL     OW16942   0.606   6.550  11.295
 5639SOL    HW116943   0.613   6.634  11.241
 5639SOL    HW216944   0.652   6.563  11.383
 5640SOL     OW16945   1.594   5.700  12.652
 5640SOL    HW116946   1.576   5.767  12.580
 5640SOL    HW216947   1.591   5.746  12.741
 5641SOL     OW16948   0.122   6.229  11.735
 5641SOL    HW116949   0.077   6.141  11.752
 5641SOL    HW216950   0.121   6.283  11.819
 5642SOL     OW16951   1.842   7.353  11.531
 5642SOL    HW116952   1.896   7.324  11.611
 5642SOL    HW216953   1.872   7.443  11.502
 5643SOL     OW16954   0.027   7.182  11.289
 5643SOL    HW116955   0.008   7.086  11.310
 5643SOL    HW216956  -0.006   7.240  11.364
 5644SOL     OW16957   1.689   6.508  11.784
 5644SOL    HW116958   1.784   6.479  11.792
 5644SOL    HW216959   1.681   6.573  11.709
 5645SOL     OW16960   1.641   6.694  11.604
 5645SOL    HW116961   1.727   6.696  11.552
 5645SOL    HW216962   1.655   6.741  11.692
 5646SOL     OW16963   0.613   6.951  11.898
 5646SOL    HW116964   0.564   6.864  11.907
 5646SOL    HW216965   0.590   6.994  11.811
 5647SOL     OW16966   0.809   5.590  11.674
 5647SOL    HW116967   0.849   5.681  11.665
 5647SOL    HW216968   0.709   5.598  11.680
 5648SOL     OW16969   0.197   6.562  12.436
 5648SOL    HW116970   0.286   6.517  12.422
 5648SOL    HW216971   0.124   6.497  12.417
 5649SOL     OW16972   1.525   6.585  11.362
 5649SOL    HW116973   1.462   6.509  11.375
 5649SOL    HW216974   1.573   6.603  11.448
 5650SOL     OW16975   0.317   5.837  12.973
 5650SOL    HW116976   0.388   5.908  12.979
 5650SOL    HW216977   0.229   5.876  13.001
 5651SOL     OW16978   1.466   7.003  12.125
 5651SOL    HW116979   1.407   7.009  12.205
 5651SOL    HW216980   1.451   6.915  12.079
 5652SOL     OW16981   1.667   7.300  11.744
 5652SOL    HW116982   1.626   7.277  11.656
 5652SOL    HW216983   1.649   7.226  11.809
 5653SOL     OW16984   0.598   6.315  11.442
 5653SOL    HW116985   0.622   6.384  11.374
 5653SOL    HW216986   0.520   6.348  11.496
 5654SOL     OW16987   1.281   5.931  12.116
 5654SOL    HW116988   1.195   5.881  12.103
 5654SOL    HW216989   1.343   5.877  12.172
 5655SOL     OW16990   1.576   7.248  11.479
 5655SOL    HW116991   1.665   7.294  11.482
 5655SOL    HW216992   1.555   7.224  11.384
 5656SOL     OW16993   0.807   6.191  12.637
 5656SOL    HW116994   0.760   6.188  12.726
 5656SOL    HW216995   0.756   6.136  12.571
 5657SOL     OW16996   0.991   5.996  12.414
 5657SOL    HW116997   0.914   6.030  12.468
 5657SOL    HW216998   0.957   5.945  12.335
 5658SOL     OW16999   1.041   6.287  11.601
 5658SOL    HW117000   1.067   6.283  11.697
 5658SOL    HW217001   0.956   6.236  11.587
 5659SOL     OW17002   0.076   6.397  11.961
 5659SOL    HW117003   0.175   6.385  11.970
 5659SOL    HW217004   0.052   6.492  11.982
 5660SOL     OW17005   0.130   7.407  12.743
 5660SOL    HW117006   0.120   7.392  12.842
 5660SOL    HW217007   0.044   7.443  12.707
 5661SOL     OW17008   0.865   5.934  11.367
 5661SOL    HW117009   0.924   5.997  11.318
 5661SOL    HW217010   0.884   5.840  11.338
 5662SOL     OW17011   1.362   6.730  11.717
 5662SOL    HW117012   1.445   6.701  11.669
 5662SOL    HW217013   1.313   6.797  11.661
 5663SOL     OW17014   0.550   5.782  12.057
 5663SOL    HW117015   0.545   5.777  12.157
 5663SOL    HW217016   0.552   5.878  12.028
 5664SOL     OW17017   1.008   7.042  11.649
 5664SOL    HW117018   0.962   7.114  11.597
 5664SOL    HW217019   1.004   7.062  11.747
 5665SOL     OW17020   0.351   7.387  12.025
 5665SOL    HW117021   0.401   7.301  12.031
 5665SOL    HW217022   0.416   7.464  12.022
 5666SOL     OW17023   1.795   6.652  12.045
 5666SOL    HW117024   1.733   6.637  11.969
 5666SOL    HW217025   1.743   6.663  12.130
 5667SOL     OW17026   0.321   6.529  11.414
 5667SOL    HW117027   0.403   6.568  11.372
 5667SOL    HW217028   0.294   6.447  11.365
 5668SOL     OW17029   1.458   6.321  11.900
 5668SOL    HW117030   1.453   6.256  11.975
 5668SOL    HW217031   1.538   6.380  11.913
 5669SOL     OW17032   1.111   7.362  11.409
 5669SOL    HW117033   1.051   7.300  11.459
 5669SOL    HW217034   1.142   7.318  11.324
 5670SOL     OW17035   1.632   6.963  11.253
 5670SOL    HW117036   1.600   7.057  11.243
 5670SOL    HW217037   1.556   6.900  11.241
 5671SOL     OW17038   0.464   7.329  11.495
 5671SOL    HW117039   0.497   7.368  11.581
 5671SOL    HW217040   0.540   7.322  11.430
 5672SOL     OW17041   1.400   5.693  11.598
 5672SOL    HW117042   1.376   5.656  11.508
 5672SOL    HW217043   1.499   5.709  11.602
 5673SOL     OW17044   0.249   7.371  12.413
 5673SOL    HW117045   0.306   7.306  12.463
 5673SOL    HW217046   0.233   7.338  12.320
 5674SOL     OW17047   0.940   7.284  12.076
 5674SOL    HW117048   1.020   7.227  12.097
 5674SOL    HW217049   0.891   7.244  11.999
 5675SOL     OW17050   0.382   6.286  11.652
 5675SOL    HW117051   0.427   6.196  11.649
 5675SOL    HW217052   0.288   6.275  11.685
 5676SOL     OW17053   0.614   5.708  11.289
 5676SOL    HW117054   0.712   5.686  11.296
 5676SOL    HW217055   0.583   5.691  11.196
 5677SOL     OW17056   0.888   7.100  12.367
 5677SOL    HW117057   0.865   7.075  12.273
 5677SOL    HW217058   0.949   7.031  12.406
 5678SOL     OW17059   0.803   6.988  12.096
 5678SOL    HW117060   0.893   7.002  12.054
 5678SOL    HW217061   0.732   6.990  12.025
 5679SOL     OW17062   0.922   6.089  12.071
 5679SOL    HW117063   0.897   6.080  11.975
 5679SOL    HW217064   0.970   6.007  12.102
 5680SOL     OW17065   0.539   5.650  11.684
 5680SOL    HW117066   0.458   5.651  11.742
 5680SOL    HW217067   0.542   5.733  11.629
 5681SOL     OW17068   1.434   6.774  11.213
 5681SOL    HW117069   1.466   6.698  11.270
 5681SOL    HW217070   1.342   6.801  11.243
 5682SOL     OW17071   0.297   5.621  11.343
 5682SOL    HW117072   0.346   5.705  11.322
 5682SOL    HW217073   0.359   5.556  11.388
 5683SOL     OW17074   0.935   5.822  11.652
 5683SOL    HW117075   0.887   5.863  11.574
 5683SOL    HW217076   1.034   5.820  11.633
 5684SOL     OW17077   1.227   7.156  11.965
 5684SOL    HW117078   1.248   7.230  11.900
 5684SOL    HW217079   1.295   7.156  12.038
 5685SOL     OW17080   0.459   6.738  11.913
 5685SOL    HW117081   0.388   6.711  11.978
 5685SOL    HW217082   0.433   6.710  11.820
 5686SOL     OW17083   1.271   7.383  11.763
 5686SOL    HW117084   1.315   7.447  11.699
 5686SOL    HW217085   1.221   7.435  11.833
 5687SOL     OW17086   1.032   6.135  11.188
 5687SOL    HW117087   0.991   6.217  11.149
 5687SOL    HW217088   1.096   6.161  11.261
 5688SOL     OW17089   0.078   6.142  12.558
 5688SOL    HW117090   0.170   6.141  12.517
 5688SOL    HW217091   0.072   6.216  12.625
 5689SOL     OW17092   0.561   5.808  12.319
 5689SOL    HW117093   0.599   5.724  12.356
 5689SOL    HW217094   0.473   5.827  12.363
 5690SOL     OW17095   0.866   6.040  11.814
 5690SOL    HW117096   0.834   6.112  11.752
 5690SOL    HW217097   0.890   5.959  11.761
 5691SOL     OW17098   1.017   5.625  11.925
 5691SOL    HW117099   0.945   5.630  11.856
 5691SOL    HW217100   0.993   5.556  11.994
 5692SOL     OW17101   1.429   6.759  12.039
 5692SOL    HW117102   1.374   6.675  12.032
 5692SOL    HW217103   1.455   6.788  11.947
 5693SOL     OW17104   1.466   6.176  12.164
 5693SOL    HW117105   1.436   6.081  12.171
 5693SOL    HW217106   1.539   6.192  12.230
 5694SOL     OW17107   1.857   6.419  11.549
 5694SOL    HW117108   1.899   6.355  11.613
 5694SOL    HW217109   1.819   6.368  11.471
 5695SOL     OW17110   0.488   6.971  11.346
 5695SOL    HW117111   0.401   6.956  11.393
 5695SOL    HW217112   0.471   6.997  11.251
 5696SOL     OW17113   1.664   6.866  11.829
 5696SOL    HW117114   1.763   6.874  11.843
 5696SOL    HW217115   1.619   6.950  11.860
 5697SOL     OW17116   1.390   6.161  11.250
 5697SOL    HW117117   1.336   6.140  11.331
 5697SOL    HW217118   1.481   6.120  11.259
 5698SOL     OW17119   0.527   5.842  11.500
 5698SOL    HW117120   0.554   5.783  11.425
 5698SOL    HW217121   0.527   5.937  11.469
 5699SOL     OW17122   1.064   6.933  12.512
 5699SOL    HW117123   0.984   6.910  12.567
 5699SOL    HW217124   1.147   6.907  12.561
 5700SOL     OW17125   1.111   6.781  12.272
 5700SOL    HW117126   1.071   6.825  12.353
 5700SOL    HW217127   1.070   6.818  12.189
 5701SOL     OW17128   1.638   6.685  12.251
 5701SOL    HW117129   1.643   6.766  12.310
 5701SOL    HW217130   1.552   6.687  12.200
 5702SOL     OW17131   0.915   5.675  12.574
 5702SOL    HW117132   0.940   5.655  12.479
 5702SOL    HW217133   0.987   5.731  12.616
 5703SOL     OW17134   0.705   6.636  11.540
 5703SOL    HW117135   0.691   6.643  11.639
 5703SOL    HW217136   0.789   6.585  11.522
 5704SOL     OW17137   0.410   6.399  12.423
 5704SOL    HW117138   0.496   6.411  12.473
 5704SOL    HW217139   0.368   6.312  12.450
 5705SOL     OW17140   1.274   5.972  12.434
 5705SOL    HW117141   1.295   6.046  12.498
 5705SOL    HW217142   1.185   5.989  12.391
 5706SOL     OW17143   0.064   7.150  12.503
 5706SOL    HW117144   0.018   7.232  12.469
 5706SOL    HW217145   0.162   7.169  12.512
 5707SOL     OW17146   0.367   6.686  11.673
 5707SOL    HW117147   0.360   6.769  11.617
 5707SOL    HW217148   0.371   6.606  11.613
 5708SOL     OW17149   0.566   6.123  12.037
 5708SOL    HW117150   0.578   6.189  11.963
 5708SOL    HW217151   0.612   6.157  12.120
 5709SOL     OW17152   1.252   6.934  11.560
 5709SOL    HW117153   1.302   7.011  11.600
 5709SOL    HW217154   1.157   6.936  11.592
 5710SOL     OW17155   1.272   7.031  12.314
 5710SOL    HW117156   1.319   7.044  12.401
 5710SOL    HW217157   1.206   6.957  12.323
 5711SOL     OW17158   1.582   6.225  11.644
 5711SOL    HW117159   1.551   6.286  11.717
 5711SOL    HW217160   1.632   6.277  11.575
 5712SOL     OW17161   0.354   7.096  12.501
 5712SOL    HW117162   0.333   7.052  12.414
 5712SOL    HW217163   0.451   7.122  12.504
 5713SOL     OW17164   0.402   6.337  12.770
 5713SOL    HW117165   0.470   6.392  12.723
 5713SOL    HW217166   0.442   6.249  12.797
 5714SOL     OW17167   1.587   6.365  12.842
 5714SOL    HW117168   1.495   6.403  12.837
 5714SOL    HW217169   1.647   6.412  12.777
 5715SOL     OW17170   0.573   6.456  12.201
 5715SOL    HW117171   0.617   6.545  12.192
 5715SOL    HW217172   0.510   6.456  12.278
 5716SOL     OW17173   1.360   6.448  12.217
 5716SOL    HW117174   1.285   6.448  12.151
 5716SOL    HW217175   1.397   6.356  12.226
 5717SOL     OW17176   1.209   6.111  11.447
 5717SOL    HW117177   1.222   6.027  11.501
 5717SOL    HW217178   1.180   6.185  11.507
 5718SOL     OW17179   0.307   5.799  12.403
 5718SOL    HW117180   0.284   5.836  12.493
 5718SOL    HW217181   0.277   5.704  12.397
 5719SOL     OW17182   0.037   6.896  12.454
 5719SOL    HW117183   0.090   6.847  12.522
 5719SOL    HW217184   0.059   6.994  12.459
 5720SOL     OW17185   0.732   6.220  12.236
 5720SOL    HW117186   0.791   6.194  12.160
 5720SOL    HW217187   0.704   6.316  12.225
 5721SOL     OW17188   0.307   5.649  11.790
 5721SOL    HW117189   0.296   5.743  11.823
 5721SOL    HW217190   0.302   5.586  11.867
 5722SOL     OW17191   1.622   5.953  11.546
 5722SOL    HW117192   1.624   5.877  11.610
 5722SOL    HW217193   1.574   6.030  11.586
 5723SOL     OW17194   1.023   6.352  12.138
 5723SOL    HW117195   1.038   6.373  12.234
 5723SOL    HW217196   0.993   6.257  12.129
 5724SOL     OW17197   0.980   7.159  12.872
 5724SOL    HW117198   0.960   7.203  12.784
 5724SOL    HW217199   1.019   7.068  12.856
 5725SOL     OW17200   1.540   5.860  11.297
 5725SOL    HW117201   1.479   5.785  11.320
 5725SOL    HW217202   1.562   5.912  11.380
 5726SOL     OW17203   1.303   6.424  11.214
 5726SOL    HW117204   1.337   6.331  11.229
 5726SOL    HW217205   1.321   6.451  11.119
 5727SOL     OW17206   1.068   6.919  12.021
 5727SOL    HW117207   1.075   6.835  11.966
 5727SOL    HW217208   1.130   6.988  11.985
 5728SOL     OW17209   0.319   6.396  12.121
 5728SOL    HW117210   0.412   6.432  12.126
 5728SOL    HW217211   0.313   6.311  12.173
 5729SOL     OW17212   0.339   6.095  12.178
 5729SOL    HW117213   0.287   6.012  12.161
 5729SOL    HW217214   0.416   6.100  12.114
 5730SOL     OW17215   1.138   5.966  12.850
 5730SOL    HW117216   1.093   6.029  12.914
 5730SOL    HW217217   1.231   5.997  12.833
 5731SOL     OW17218   1.160   5.793  12.649
 5731SOL    HW117219   1.160   5.857  12.726
 5731SOL    HW217220   1.188   5.841  12.566
 5732SOL     OW17221   0.008   6.912  11.372
 5732SOL    HW117222  -0.085   6.933  11.341
 5732SOL    HW217223   0.018   6.813  11.385
 5733SOL     OW17224   0.088   7.387  12.099
 5733SOL    HW117225   0.046   7.301  12.072
 5733SOL    HW217226   0.182   7.390  12.065
 5734SOL     OW17227   0.504   7.154  12.082
 5734SOL    HW117228   0.570   7.228  12.091
 5734SOL    HW217229   0.548   7.075  12.040
 5735SOL     OW17230   1.002   6.382  12.410
 5735SOL    HW117231   1.043   6.350  12.496
 5735SOL    HW217232   0.906   6.355  12.407
 5736SOL     OW17233   0.040   6.130  12.286
 5736SOL    HW117234   0.125   6.097  12.245
 5736SOL    HW217235   0.053   6.145  12.384
 5737SOL     OW17236   0.815   6.158  11.497
 5737SOL    HW117237   0.822   6.069  11.451
 5737SOL    HW217238   0.721   6.192  11.489
 5738SOL     OW17239   1.657   6.190  12.378
 5738SOL    HW117240   1.619   6.121  12.440
 5738SOL    HW217241   1.739   6.154  12.334
 5739SOL     OW17242   0.671   6.050  12.441
 5739SOL    HW117243   0.637   5.961  12.411
 5739SOL    HW217244   0.697   6.104  12.361
 5740SOL     OW17245   0.930   7.264  12.637
 5740SOL    HW117246   0.906   7.246  12.542
 5740SOL    HW217247   0.960   7.358  12.647
 5741SOL     OW17248   0.473   6.086  11.363
 5741SOL    HW117249   0.534   6.166  11.367
 5741SOL    HW217250   0.378   6.117  11.370
 5742SOL     OW17251   0.159   6.723  12.638
 5742SOL    HW117252   0.181   6.662  12.714
 5742SOL    HW217253   0.169   6.674  12.552
 5743SOL     OW17254   1.347   6.645  12.406
 5743SOL    HW117255   1.371   6.582  12.332
 5743SOL    HW217256   1.257   6.685  12.388
 5744SOL     OW17257   1.302   6.441  11.481
 5744SOL    HW117258   1.216   6.410  11.523
 5744SOL    HW217259   1.298   6.427  11.382
 5745SOL     OW17260   1.759   7.333  12.326
 5745SOL    HW117261   1.820   7.363  12.253
 5745SOL    HW217262   1.721   7.244  12.304
 5746SOL     OW17263   1.252   7.317  12.300
 5746SOL    HW117264   1.336   7.322  12.246
 5746SOL    HW217265   1.229   7.221  12.318
 5747SOL     OW17266   0.083   6.844  12.194
 5747SOL    HW117267   0.078   6.843  12.294
 5747SOL    HW217268   0.000   6.803  12.156
 5748SOL     OW17269   1.726   5.721  11.695
 5748SOL    HW117270   1.799   5.704  11.628
 5748SOL    HW217271   1.695   5.634  11.733
 5749SOL     OW17272   1.388   7.159  11.649
 5749SOL    HW117273   1.455   7.171  11.575
 5749SOL    HW217274   1.348   7.248  11.672
 5750SOL     OW17275   1.280   6.513  11.844
 5750SOL    HW117276   1.340   6.432  11.846
 5750SOL    HW217277   1.320   6.582  11.784
 5751SOL     OW17278   0.672   7.202  11.326
 5751SOL    HW117279   0.681   7.212  11.227
 5751SOL    HW217280   0.632   7.113  11.347
 5752SOL     OW17281   1.650   7.306  12.566
 5752SOL    HW117282   1.703   7.316  12.482
 5752SOL    HW217283   1.623   7.396  12.600
 5753SOL     OW17284   1.841   5.761  12.135
 5753SOL    HW117285   1.880   5.676  12.099
 5753SOL    HW217286   1.743   5.763  12.116
 5754SOL     OW17287   0.263   5.912  11.892
 5754SOL    HW117288   0.184   5.963  11.858
 5754SOL    HW217289   0.254   5.897  11.990
 5755SOL     OW17290   1.194   7.198  11.203
 5755SOL    HW117291   1.200   7.105  11.240
 5755SOL    HW217292   1.135   7.198  11.123
 5756SOL     OW17293   0.822   6.588  12.544
 5756SOL    HW117294   0.862   6.587  12.452
 5756SOL    HW217295   0.832   6.680  12.584
 5757SOL     OW17296   0.916   6.496  11.463
 5757SOL    HW117297   0.979   6.534  11.395
 5757SOL    HW217298   0.956   6.413  11.502
 5758SOL     OW17299   1.504   7.193  11.216
 5758SOL    HW117300   1.412   7.230  11.223
 5758SOL    HW217301   1.542   7.213  11.126
 5759SOL     OW17302   0.372   6.874  12.662
 5759SOL    HW117303   0.359   6.967  12.628
 5759SOL    HW217304   0.288   6.822  12.649
 5760SOL     OW17305   1.614   6.878  12.461
 5760SOL    HW117306   1.674   6.881  12.541
 5760SOL    HW217307   1.539   6.942  12.474
 5761SOL     OW17308   1.039   6.684  11.868
 5761SOL    HW117309   0.969   6.637  11.922
 5761SOL    HW217310   1.098   6.616  11.825
 5762SOL     OW17311   1.014   5.822  12.143
 5762SOL    HW117312   1.006   5.786  12.050
 5762SOL    HW217313   1.012   5.746  12.208
 5763SOL     OW17314   0.590   7.073  11.663
 5763SOL    HW117315   0.632   7.015  11.593
 5763SOL    HW217316   0.546   7.152  11.619
 5764SOL     OW17317   1.709   5.971  12.553
 5764SOL    HW117318   1.782   6.040  12.557
 5764SOL    HW217319   1.737   5.896  12.494
 5765SOL     OW17320   0.255   6.934  11.462
 5765SOL    HW117321   0.159   6.935  11.435
 5765SOL    HW217322   0.267   6.987  11.546
 5766SOL     OW17323   0.075   5.931  11.205
 5766SOL    HW117324  -0.017   5.903  11.176
 5766SOL    HW217325   0.106   6.008  11.149
 5767SOL     OW17326   1.440   6.442  12.570
 5767SOL    HW117327   1.383   6.494  12.507
 5767SOL    HW217328   1.536   6.454  12.546
 5768SOL     OW17329   0.072   5.752  11.490
 5768SOL    HW117330   0.055   5.835  11.436
 5768SOL    HW217331   0.162   5.715  11.468
 5769SOL     OW17332   1.183   6.921  11.291
 5769SOL    HW117333   1.084   6.910  11.293
 5769SOL    HW217334   1.217   6.936  11.384
 5770SOL     OW17335   0.613   6.428  12.603
 5770SOL    HW117336   0.669   6.509  12.586
 5770SOL    HW217337   0.672   6.348  12.606
 5771SOL     OW17338   1.493   7.353  12.131
 5771SOL    HW117339   1.526   7.417  12.062
 5771SOL    HW217340   1.559   7.347  12.206
 5772SOL     OW17341   0.390   7.327  12.732
 5772SOL    HW117342   0.299   7.368  12.730
 5772SOL    HW217343   0.383   7.233  12.764
 5773SOL     OW17344   1.674   6.469  12.426
 5773SOL    HW117345   1.647   6.380  12.389
 5773SOL    HW217346   1.675   6.537  12.353
 5774SOL     OW17347   1.225   5.911  11.621
 5774SOL    HW117348   1.290   5.837  11.610
 5774SOL    HW217349   1.245   5.961  11.705
 5775SOL     OW17350   0.594   6.331  11.824
 5775SOL    HW117351   0.644   6.416  11.805
 5775SOL    HW217352   0.506   6.333  11.776
 5776SOL     OW17353   1.730   6.520  12.689
 5776SOL    HW117354   1.768   6.611  12.704
 5776SOL    HW217355   1.722   6.503  12.590
 5777SOL     OW17356   0.859   6.960  11.188
 5777SOL    HW117357   0.813   6.975  11.276
 5777SOL    HW217358   0.903   7.045  11.158
 5778SOL     OW17359   0.661   7.376  12.125
 5778SOL    HW117360   0.615   7.464  12.112
 5778SOL    HW217361   0.760   7.388  12.118
 5779SOL     OW17362   0.859   6.542  12.033
 5779SOL    HW117363   0.913   6.473  12.081
 5779SOL    HW217364   0.827   6.611  12.099
 5780SOL     OW17365   1.083   6.570  11.259
 5780SOL    HW117366   1.060   6.623  11.177
 5780SOL    HW217367   1.164   6.514  11.240
 5781SOL     OW17368   1.861   7.155  12.023
 5781SOL    HW117369   1.790   7.143  11.953
 5781SOL    HW217370   1.862   7.076  12.083
 5782SOL     OW17371   0.079   6.826  11.825
 5782SOL    HW117372   0.078   6.779  11.913
 5782SOL    HW217373   0.161   6.798  11.774
 5783SOL     OW17374   1.824   5.778  12.399
 5783SOL    HW117375   1.820   5.688  12.443
 5783SOL    HW217376   1.827   5.767  12.300
 5784SOL     OW17377   0.428   6.010  11.692
 5784SOL    HW117378   0.458   5.938  11.630
 5784SOL    HW217379   0.389   5.970  11.775
 5785SOL     OW17380   1.705   7.073  12.276
 5785SOL    HW117381   1.612   7.048  12.249
 5785SOL    HW217382   1.731   7.023  12.358
 5786SOL     OW17383   0.317   6.133  12.452
 5786SOL    HW117384   0.355   6.074  12.524
 5786SOL    HW217385   0.357   6.107  12.364
 5787SOL     OW17386   0.812   7.172  11.859
 5787SOL    HW117387   0.844   7.182  11.765
 5787SOL    HW217388   0.733   7.110  11.861
 5788SOL     OW17389   1.424   5.800  12.284
 5788SOL    HW117390   1.476   5.735  12.339
 5788SOL    HW217391   1.375   5.863  12.345
 5789SOL     OW17392   1.001   5.620  12.326
 5789SOL    HW117393   0.938   5.548  12.295
 5789SOL    HW217394   1.094   5.584  12.326
 5790SOL     OW17395   0.770   6.916  11.473
 5790SOL    HW117396   0.724   6.829  11.490
 5790SOL    HW217397   0.861   6.913  11.514
 5791SOL     OW17398   0.618   7.153  12.456
 5791SOL    HW117399   0.613   7.235  12.513
 5791SOL    HW217400   0.707   7.150  12.411
 5792SOL     OW17401   1.352   5.638  11.340
 5792SOL    HW117402   1.387   5.597  11.256
 5792SOL    HW217403   1.262   5.600  11.360
 5793SOL     OW17404   1.300   6.039  11.863
 5793SOL    HW117405   1.241   6.119  11.867
 5793SOL    HW217406   1.315   6.004  11.956
 5794SOL     OW17407   1.593   5.807  12.054
 5794SOL    HW117408   1.509   5.806  12.108
 5794SOL    HW217409   1.595   5.890  11.998
 5795SOL     OW17410   0.039   6.663  11.472
 5795SOL    HW117411   0.138   6.652  11.463
 5795SOL    HW217412  -0.001   6.577  11.504
 5796SOL     OW17413   0.875   7.232  11.509
 5796SOL    HW117414   0.798   7.197  11.455
 5796SOL    HW217415   0.843   7.303  11.571
 5797SOL     OW17416   0.230   8.076   0.113
 5797SOL    HW117417   0.137   8.074   0.150
 5797SOL    HW217418   0.231   8.037   0.021
 5798SOL     OW17419   0.225   7.723   0.996
 5798SOL    HW117420   0.260   7.706   1.088
 5798SOL    HW217421   0.137   7.678   0.984
 5799SOL     OW17422   0.019   7.816   0.647
 5799SOL    HW117423  -0.063   7.859   0.686
 5799SOL    HW217424  -0.009   7.743   0.584
 5800SOL     OW17425   0.569   8.723   1.165
 5800SOL    HW117426   0.476   8.716   1.128
 5800SOL    HW217427   0.580   8.812   1.209
 5801SOL     OW17428   1.555   8.959   0.703
 5801SOL    HW117429   1.498   8.943   0.784
 5801SOL    HW217430   1.496   8.969   0.623
 5802SOL     OW17431   1.135   8.151   0.717
 5802SOL    HW117432   1.192   8.229   0.692
 5802SOL    HW217433   1.075   8.177   0.793
 5803SOL     OW17434   1.755   8.055   0.231
 5803SOL    HW117435   1.743   8.042   0.132
 5803SOL    HW217436   1.725   7.974   0.280
 5804SOL     OW17437   0.768   8.592   1.023
 5804SOL    HW117438   0.690   8.609   1.083
 5804SOL    HW217439   0.802   8.679   0.987
 5805SOL     OW17440   0.850   8.246   1.823
 5805SOL    HW117441   0.846   8.322   1.888
 5805SOL    HW217442   0.872   8.282   1.732
 5806SOL     OW17443   0.685   8.460   0.665
 5806SOL    HW117444   0.754   8.444   0.735
 5806SOL    HW217445   0.612   8.517   0.703
 5807SOL     OW17446   0.686   8.609   1.803
 5807SOL    HW117447   0.746   8.688   1.817
 5807SOL    HW217448   0.600   8.640   1.762
 5808SOL     OW17449   0.335   8.883   1.061
 5808SOL    HW117450   0.257   8.852   1.008
 5808SOL    HW217451   0.393   8.941   1.004
 5809SOL     OW17452   1.460   8.953   1.339
 5809SOL    HW117453   1.484   9.047   1.365
 5809SOL    HW217454   1.444   8.899   1.421
 5810SOL     OW17455   0.438   7.840   1.499
 5810SOL    HW117456   0.520   7.784   1.508
 5810SOL    HW217457   0.357   7.782   1.503
 5811SOL     OW17458   1.603   7.895   0.737
 5811SOL    HW117459   1.529   7.941   0.687
 5811SOL    HW217460   1.654   7.963   0.790
 5812SOL     OW17461   0.231   9.161   0.483
 5812SOL    HW117462   0.265   9.238   0.537
 5812SOL    HW217463   0.275   9.161   0.393
 5813SOL     OW17464   1.127   8.789   1.690
 5813SOL    HW117465   1.174   8.789   1.778
 5813SOL    HW217466   1.079   8.702   1.679
 5814SOL     OW17467   0.230   8.882   0.538
 5814SOL    HW117468   0.204   8.978   0.538
 5814SOL    HW217469   0.159   8.828   0.583
 5815SOL     OW17470   0.240   8.539   0.886
 5815SOL    HW117471   0.254   8.455   0.938
 5815SOL    HW217472   0.185   8.603   0.941
 5816SOL     OW17473   0.620   9.234   1.439
 5816SOL    HW117474   0.528   9.217   1.474
 5816SOL    HW217475   0.648   9.326   1.465
 5817SOL     OW17476   0.606   8.412   0.123
 5817SOL    HW117477   0.613   8.496   0.069
 5817SOL    HW217478   0.652   8.425   0.211
 5818SOL     OW17479   1.594   7.562   1.480
 5818SOL    HW117480   1.576   7.629   1.408
 5818SOL    HW217481   1.591   7.608   1.569
 5819SOL     OW17482   0.122   8.091   0.563
 5819SOL    HW117483   0.077   8.003   0.580
 5819SOL    HW217484   0.121   8.145   0.647
 5820SOL     OW17485   1.842   9.215   0.359
 5820SOL    HW117486   1.896   9.186   0.439
 5820SOL    HW217487   1.872   9.305   0.330
 5821SOL     OW17488   0.027   9.044   0.117
 5821SOL    HW117489   0.008   8.948   0.138
 5821SOL    HW217490  -0.006   9.102   0.192
 5822SOL     OW17491   1.689   8.370   0.612
 5822SOL    HW117492   1.784   8.341   0.620
 5822SOL    HW217493   1.681   8.435   0.537
 5823SOL     OW17494   1.641   8.556   0.432
 5823SOL    HW117495   1.727   8.558   0.380
 5823SOL    HW217496   1.655   8.603   0.520
 5824SOL     OW17497   0.113   8.185   1.597
 5824SOL    HW117498   0.201   8.172   1.642
 5824SOL    HW217499   0.100   8.282   1.575
 5825SOL     OW17500   0.613   8.813   0.726
 5825SOL    HW117501   0.564   8.726   0.735
 5825SOL    HW217502   0.590   8.856   0.639
 5826SOL     OW17503   1.293   8.676   1.423
 5826SOL    HW117504   1.330   8.603   1.365
 5826SOL    HW217505   1.345   8.681   1.508
 5827SOL     OW17506   0.809   7.452   0.502
 5827SOL    HW117507   0.849   7.543   0.493
 5827SOL    HW217508   0.709   7.460   0.508
 5828SOL     OW17509   0.197   8.424   1.264
 5828SOL    HW117510   0.286   8.379   1.250
 5828SOL    HW217511   0.124   8.359   1.245
 5829SOL     OW17512   1.525   8.447   0.190
 5829SOL    HW117513   1.462   8.371   0.203
 5829SOL    HW217514   1.573   8.465   0.276
 5830SOL     OW17515   1.187   9.240   1.616
 5830SOL    HW117516   1.211   9.300   1.540
 5830SOL    HW217517   1.194   9.145   1.586
 5831SOL     OW17518   0.317   7.699   1.801
 5831SOL    HW117519   0.388   7.770   1.807
 5831SOL    HW217520   0.229   7.738   1.829
 5832SOL     OW17521   1.466   8.865   0.953
 5832SOL    HW117522   1.407   8.871   1.033
 5832SOL    HW217523   1.451   8.777   0.907
 5833SOL     OW17524   1.667   9.162   0.572
 5833SOL    HW117525   1.626   9.139   0.484
 5833SOL    HW217526   1.649   9.088   0.637
 5834SOL     OW17527   0.598   8.177   0.270
 5834SOL    HW117528   0.622   8.246   0.202
 5834SOL    HW217529   0.520   8.210   0.324
 5835SOL     OW17530   1.281   7.793   0.944
 5835SOL    HW117531   1.195   7.743   0.931
 5835SOL    HW217532   1.343   7.739   1.000
 5836SOL     OW17533   1.576   9.110   0.307
 5836SOL    HW117534   1.665   9.156   0.310
 5836SOL    HW217535   1.555   9.086   0.212
 5837SOL     OW17536   0.807   8.053   1.465
 5837SOL    HW117537   0.760   8.050   1.554
 5837SOL    HW217538   0.756   7.998   1.399
 5838SOL     OW17539   1.394   7.917   1.674
 5838SOL    HW117540   1.374   7.960   1.762
 5838SOL    HW217541   1.472   7.855   1.683
 5839SOL     OW17542   0.973   8.338   1.572
 5839SOL    HW117543   1.019   8.254   1.543
 5839SOL    HW217544   0.917   8.372   1.497
 5840SOL     OW17545   0.991   7.858   1.242
 5840SOL    HW117546   0.914   7.892   1.296
 5840SOL    HW217547   0.957   7.807   1.163
 5841SOL     OW17548   1.041   8.149   0.429
 5841SOL    HW117549   1.067   8.145   0.525
 5841SOL    HW217550   0.956   8.098   0.415
 5842SOL     OW17551   0.076   8.259   0.789
 5842SOL    HW117552   0.175   8.247   0.798
 5842SOL    HW217553   0.052   8.354   0.810
 5843SOL     OW17554   0.130   9.269   1.571
 5843SOL    HW117555   0.120   9.254   1.670
 5843SOL    HW217556   0.044   9.305   1.535
 5844SOL     OW17557   0.865   7.796   0.195
 5844SOL    HW117558   0.924   7.859   0.146
 5844SOL    HW217559   0.884   7.702   0.166
 5845SOL     OW17560   1.719   8.033   1.831
 5845SOL    HW117561   1.693   8.122   1.795
 5845SOL    HW217562   1.717   7.965   1.758
 5846SOL     OW17563   1.362   8.592   0.545
 5846SOL    HW117564   1.445   8.563   0.497
 5846SOL    HW217565   1.313   8.659   0.489
 5847SOL     OW17566   0.550   7.644   0.885
 5847SOL    HW117567   0.545   7.639   0.985
 5847SOL    HW217568   0.552   7.740   0.856
 5848SOL     OW17569   1.008   8.904   0.477
 5848SOL    HW117570   0.962   8.976   0.425
 5848SOL    HW217571   1.004   8.924   0.575
 5849SOL     OW17572   0.351   9.249   0.853
 5849SOL    HW117573   0.401   9.163   0.859
 5849SOL    HW217574   0.416   9.326   0.850
 5850SOL     OW17575   1.795   8.514   0.873
 5850SOL    HW117576   1.733   8.499   0.797
 5850SOL    HW217577   1.743   8.525   0.958
 5851SOL     OW17578   1.227   8.998   1.506
 5851SOL    HW117579   1.233   8.921   1.570
 5851SOL    HW217580   1.175   8.972   1.426
 5852SOL     OW17581   0.321   8.391   0.242
 5852SOL    HW117582   0.403   8.430   0.200
 5852SOL    HW217583   0.294   8.309   0.193
 5853SOL     OW17584   1.458   8.183   0.728
 5853SOL    HW117585   1.453   8.118   0.803
 5853SOL    HW217586   1.538   8.242   0.741
 5854SOL     OW17587   0.461   8.714   1.727
 5854SOL    HW117588   0.411   8.715   1.641
 5854SOL    HW217589   0.398   8.696   1.803
 5855SOL     OW17590   1.111   9.224   0.237
 5855SOL    HW117591   1.051   9.162   0.287
 5855SOL    HW217592   1.142   9.180   0.152
 5856SOL     OW17593   0.202   7.733   1.498
 5856SOL    HW117594   0.122   7.793   1.485
 5856SOL    HW217595   0.192   7.684   1.584
 5857SOL     OW17596   1.632   8.825   0.081
 5857SOL    HW117597   1.600   8.919   0.071
 5857SOL    HW217598   1.556   8.762   0.069
 5858SOL     OW17599   0.464   9.191   0.323
 5858SOL    HW117600   0.497   9.230   0.409
 5858SOL    HW217601   0.540   9.184   0.258
 5859SOL     OW17602   1.400   7.555   0.426
 5859SOL    HW117603   1.376   7.518   0.336
 5859SOL    HW217604   1.499   7.571   0.430
 5860SOL     OW17605   0.249   9.233   1.241
 5860SOL    HW117606   0.306   9.168   1.291
 5860SOL    HW217607   0.233   9.200   1.148
 5861SOL     OW17608   0.940   9.146   0.904
 5861SOL    HW117609   1.020   9.089   0.925
 5861SOL    HW217610   0.891   9.106   0.827
 5862SOL     OW17611   0.382   8.148   0.480
 5862SOL    HW117612   0.427   8.058   0.477
 5862SOL    HW217613   0.288   8.137   0.513
 5863SOL     OW17614   1.547   7.670   1.729
 5863SOL    HW117615   1.542   7.707   1.821
 5863SOL    HW217616   1.475   7.601   1.717
 5864SOL     OW17617   0.614   7.570   0.117
 5864SOL    HW117618   0.712   7.548   0.124
 5864SOL    HW217619   0.583   7.553   0.024
 5865SOL     OW17620   0.781   7.712   1.749
 5865SOL    HW117621   0.848   7.651   1.792
 5865SOL    HW217622   0.708   7.731   1.814
 5866SOL     OW17623   0.888   8.962   1.195
 5866SOL    HW117624   0.865   8.937   1.101
 5866SOL    HW217625   0.949   8.893   1.234
 5867SOL     OW17626   1.351   8.038   1.433
 5867SOL    HW117627   1.379   7.995   1.518
 5867SOL    HW217628   1.376   8.134   1.434
 5868SOL     OW17629   0.803   8.850   0.924
 5868SOL    HW117630   0.893   8.864   0.882
 5868SOL    HW217631   0.732   8.852   0.853
 5869SOL     OW17632   0.922   7.951   0.899
 5869SOL    HW117633   0.897   7.942   0.803
 5869SOL    HW217634   0.970   7.869   0.930
 5870SOL     OW17635   0.539   7.512   0.512
 5870SOL    HW117636   0.458   7.513   0.570
 5870SOL    HW217637   0.542   7.595   0.457
 5871SOL     OW17638   1.434   8.636   0.041
 5871SOL    HW117639   1.466   8.560   0.098
 5871SOL    HW217640   1.342   8.663   0.071
 5872SOL     OW17641   0.297   7.483   0.171
 5872SOL    HW117642   0.346   7.567   0.150
 5872SOL    HW217643   0.359   7.418   0.216
 5873SOL     OW17644   0.935   7.684   0.480
 5873SOL    HW117645   0.887   7.725   0.402
 5873SOL    HW217646   1.034   7.682   0.461
 5874SOL     OW17647   1.076   8.131   1.464
 5874SOL    HW117648   0.996   8.070   1.467
 5874SOL    HW217649   1.157   8.078   1.440
 5875SOL     OW17650   1.227   9.018   0.793
 5875SOL    HW117651   1.248   9.092   0.728
 5875SOL    HW217652   1.295   9.018   0.866
 5876SOL     OW17653   0.459   8.600   0.741
 5876SOL    HW117654   0.388   8.573   0.806
 5876SOL    HW217655   0.433   8.572   0.648
 5877SOL     OW17656   1.271   9.245   0.591
 5877SOL    HW117657   1.315   9.309   0.527
 5877SOL    HW217658   1.221   9.297   0.661
 5878SOL     OW17659   1.032   7.997   0.016
 5878SOL    HW117660   0.991   8.079  -0.023
 5878SOL    HW217661   1.096   8.023   0.089
 5879SOL     OW17662   0.078   8.004   1.386
 5879SOL    HW117663   0.170   8.003   1.345
 5879SOL    HW217664   0.072   8.078   1.453
 5880SOL     OW17665   0.561   7.670   1.147
 5880SOL    HW117666   0.599   7.586   1.184
 5880SOL    HW217667   0.473   7.689   1.191
 5881SOL     OW17668   0.866   7.902   0.642
 5881SOL    HW117669   0.834   7.974   0.580
 5881SOL    HW217670   0.890   7.821   0.589
 5882SOL     OW17671   1.017   7.487   0.753
 5882SOL    HW117672   0.945   7.492   0.684
 5882SOL    HW217673   0.993   7.418   0.822
 5883SOL     OW17674   1.429   8.621   0.867
 5883SOL    HW117675   1.374   8.537   0.860
 5883SOL    HW217676   1.455   8.650   0.775
 5884SOL     OW17677   1.466   8.038   0.992
 5884SOL    HW117678   1.436   7.943   0.999
 5884SOL    HW217679   1.539   8.054   1.058
 5885SOL     OW17680   1.857   8.281   0.377
 5885SOL    HW117681   1.899   8.217   0.441
 5885SOL    HW217682   1.819   8.230   0.299
 5886SOL     OW17683   0.488   8.833   0.174
 5886SOL    HW117684   0.401   8.818   0.221
 5886SOL    HW217685   0.471   8.859   0.079
 5887SOL     OW17686   1.664   8.728   0.657
 5887SOL    HW117687   1.763   8.736   0.671
 5887SOL    HW217688   1.619   8.812   0.688
 5888SOL     OW17689   1.390   8.023   0.078
 5888SOL    HW117690   1.336   8.002   0.159
 5888SOL    HW217691   1.481   7.982   0.087
 5889SOL     OW17692   0.527   7.704   0.328
 5889SOL    HW117693   0.554   7.645   0.253
 5889SOL    HW217694   0.527   7.799   0.297
 5890SOL     OW17695   1.754   8.671   1.588
 5890SOL    HW117696   1.845   8.632   1.575
 5890SOL    HW217697   1.762   8.767   1.612
 5891SOL     OW17698   1.064   8.795   1.340
 5891SOL    HW117699   0.984   8.772   1.395
 5891SOL    HW217700   1.147   8.769   1.389
 5892SOL     OW17701   1.592   9.077   1.625
 5892SOL    HW117702   1.619   9.111   1.535
 5892SOL    HW217703   1.671   9.039   1.671
 5893SOL     OW17704   1.111   8.643   1.100
 5893SOL    HW117705   1.071   8.687   1.181
 5893SOL    HW217706   1.070   8.680   1.017
 5894SOL     OW17707   1.638   8.547   1.079
 5894SOL    HW117708   1.643   8.628   1.138
 5894SOL    HW217709   1.552   8.549   1.028
 5895SOL     OW17710   0.915   7.537   1.402
 5895SOL    HW117711   0.940   7.517   1.307
 5895SOL    HW217712   0.987   7.593   1.444
 5896SOL     OW17713   0.980   8.564   1.719
 5896SOL    HW117714   0.881   8.570   1.729
 5896SOL    HW217715   1.003   8.484   1.663
 5897SOL     OW17716   0.705   8.498   0.368
 5897SOL    HW117717   0.691   8.505   0.467
 5897SOL    HW217718   0.789   8.447   0.350
 5898SOL     OW17719   0.410   8.261   1.251
 5898SOL    HW117720   0.496   8.273   1.301
 5898SOL    HW217721   0.368   8.174   1.278
 5899SOL     OW17722   1.274   7.834   1.262
 5899SOL    HW117723   1.295   7.908   1.326
 5899SOL    HW217724   1.185   7.851   1.219
 5900SOL     OW17725   0.064   9.012   1.331
 5900SOL    HW117726   0.018   9.094   1.297
 5900SOL    HW217727   0.162   9.031   1.340
 5901SOL     OW17728   0.367   8.548   0.501
 5901SOL    HW117729   0.360   8.631   0.445
 5901SOL    HW217730   0.371   8.468   0.441
 5902SOL     OW17731   0.566   7.985   0.865
 5902SOL    HW117732   0.578   8.051   0.791
 5902SOL    HW217733   0.612   8.019   0.948
 5903SOL     OW17734   1.252   8.796   0.388
 5903SOL    HW117735   1.302   8.873   0.428
 5903SOL    HW217736   1.157   8.798   0.420
 5904SOL     OW17737   1.272   8.893   1.142
 5904SOL    HW117738   1.319   8.906   1.229
 5904SOL    HW217739   1.206   8.819   1.151
 5905SOL     OW17740   1.582   8.087   0.472
 5905SOL    HW117741   1.551   8.148   0.545
 5905SOL    HW217742   1.632   8.139   0.403
 5906SOL     OW17743   0.354   8.958   1.329
 5906SOL    HW117744   0.333   8.914   1.242
 5906SOL    HW217745   0.451   8.984   1.332
 5907SOL     OW17746   0.402   8.199   1.598
 5907SOL    HW117747   0.470   8.254   1.551
 5907SOL    HW217748   0.442   8.111   1.625
 5908SOL     OW17749   1.587   8.227   1.670
 5908SOL    HW117750   1.495   8.265   1.665
 5908SOL    HW217751   1.647   8.274   1.605
 5909SOL     OW17752   1.013   7.553   1.770
 5909SOL    HW117753   1.019   7.638   1.718
 5909SOL    HW217754   1.045   7.477   1.713
 5910SOL     OW17755   0.504   7.498   1.740
 5910SOL    HW117756   0.462   7.441   1.670
 5910SOL    HW217757   0.438   7.567   1.772
 5911SOL     OW17758   0.573   8.318   1.029
 5911SOL    HW117759   0.617   8.407   1.020
 5911SOL    HW217760   0.510   8.318   1.106
 5912SOL     OW17761   1.360   8.310   1.045
 5912SOL    HW117762   1.285   8.310   0.979
 5912SOL    HW217763   1.397   8.218   1.054
 5913SOL     OW17764   1.209   7.973   0.275
 5913SOL    HW117765   1.222   7.889   0.329
 5913SOL    HW217766   1.180   8.047   0.335
 5914SOL     OW17767   0.307   7.661   1.231
 5914SOL    HW117768   0.284   7.698   1.321
 5914SOL    HW217769   0.277   7.566   1.225
 5915SOL     OW17770   0.037   8.758   1.282
 5915SOL    HW117771   0.090   8.709   1.350
 5915SOL    HW217772   0.059   8.856   1.287
 5916SOL     OW17773   0.732   8.082   1.064
 5916SOL    HW117774   0.791   8.056   0.988
 5916SOL    HW217775   0.704   8.178   1.053
 5917SOL     OW17776   1.728   8.383   1.854
 5917SOL    HW117777   1.682   8.376   1.765
 5917SOL    HW217778   1.666   8.427   1.920
 5918SOL     OW17779   0.307   7.511   0.618
 5918SOL    HW117780   0.296   7.605   0.651
 5918SOL    HW217781   0.302   7.448   0.695
 5919SOL     OW17782   1.622   7.815   0.374
 5919SOL    HW117783   1.624   7.739   0.438
 5919SOL    HW217784   1.574   7.892   0.414
 5920SOL     OW17785   1.023   8.214   0.966
 5920SOL    HW117786   1.038   8.235   1.062
 5920SOL    HW217787   0.993   8.119   0.957
 5921SOL     OW17788   0.980   9.021   1.700
 5921SOL    HW117789   0.960   9.065   1.612
 5921SOL    HW217790   1.019   8.930   1.684
 5922SOL     OW17791   1.859   8.966   1.605
 5922SOL    HW117792   1.873   8.993   1.510
 5922SOL    HW217793   1.942   8.988   1.658
 5923SOL     OW17794   0.350   8.346   1.804
 5923SOL    HW117795   0.426   8.390   1.852
 5923SOL    HW217796   0.385   8.299   1.722
 5924SOL     OW17797   1.540   7.722   0.125
 5924SOL    HW117798   1.479   7.647   0.148
 5924SOL    HW217799   1.562   7.774   0.208
 5925SOL     OW17800   1.303   8.286   0.042
 5925SOL    HW117801   1.337   8.193   0.057
 5925SOL    HW217802   1.321   8.313  -0.053
 5926SOL     OW17803   1.068   8.781   0.849
 5926SOL    HW117804   1.075   8.697   0.794
 5926SOL    HW217805   1.130   8.850   0.813
 5927SOL     OW17806   0.319   8.258   0.949
 5927SOL    HW117807   0.412   8.294   0.954
 5927SOL    HW217808   0.313   8.173   1.001
 5928SOL     OW17809   0.339   7.957   1.006
 5928SOL    HW117810   0.287   7.874   0.989
 5928SOL    HW217811   0.416   7.962   0.942
 5929SOL     OW17812   1.138   7.828   1.678
 5929SOL    HW117813   1.093   7.891   1.742
 5929SOL    HW217814   1.231   7.859   1.661
 5930SOL     OW17815   1.160   7.655   1.477
 5930SOL    HW117816   1.160   7.719   1.554
 5930SOL    HW217817   1.188   7.703   1.394
 5931SOL     OW17818   0.008   8.774   0.200
 5931SOL    HW117819  -0.085   8.795   0.169
 5931SOL    HW217820   0.018   8.675   0.213
 5932SOL     OW17821   0.088   9.249   0.927
 5932SOL    HW117822   0.046   9.163   0.900
 5932SOL    HW217823   0.182   9.252   0.893
 5933SOL     OW17824   0.504   9.016   0.910
 5933SOL    HW117825   0.570   9.090   0.919
 5933SOL    HW217826   0.548   8.937   0.868
 5934SOL     OW17827   1.002   8.244   1.238
 5934SOL    HW117828   1.043   8.212   1.324
 5934SOL    HW217829   0.906   8.217   1.235
 5935SOL     OW17830   0.040   7.992   1.114
 5935SOL    HW117831   0.125   7.959   1.073
 5935SOL    HW217832   0.053   8.007   1.212
 5936SOL     OW17833   0.189   7.968   1.722
 5936SOL    HW117834   0.248   7.928   1.652
 5936SOL    HW217835   0.131   8.039   1.681
 5937SOL     OW17836   1.369   8.398   1.660
 5937SOL    HW117837   1.408   8.487   1.680
 5937SOL    HW217838   1.379   8.378   1.563
 5938SOL     OW17839   0.815   8.020   0.325
 5938SOL    HW117840   0.822   7.931   0.279
 5938SOL    HW217841   0.721   8.054   0.317
 5939SOL     OW17842   1.657   8.052   1.206
 5939SOL    HW117843   1.619   7.983   1.268
 5939SOL    HW217844   1.739   8.016   1.162
 5940SOL     OW17845   0.252   9.012   1.744
 5940SOL    HW117846   0.222   9.069   1.820
 5940SOL    HW217847   0.245   8.915   1.770
 5941SOL     OW17848   0.671   7.912   1.269
 5941SOL    HW117849   0.637   7.823   1.239
 5941SOL    HW217850   0.697   7.966   1.189
 5942SOL     OW17851   0.930   9.126   1.465
 5942SOL    HW117852   0.906   9.108   1.370
 5942SOL    HW217853   0.960   9.220   1.475
 5943SOL     OW17854   0.473   7.948   0.191
 5943SOL    HW117855   0.534   8.028   0.195
 5943SOL    HW217856   0.378   7.979   0.198
 5944SOL     OW17857   0.159   8.585   1.466
 5944SOL    HW117858   0.181   8.524   1.542
 5944SOL    HW217859   0.169   8.536   1.380
 5945SOL     OW17860   1.347   8.507   1.234
 5945SOL    HW117861   1.371   8.444   1.160
 5945SOL    HW217862   1.257   8.547   1.216
 5946SOL     OW17863   1.302   8.303   0.309
 5946SOL    HW117864   1.216   8.272   0.351
 5946SOL    HW217865   1.298   8.289   0.210
 5947SOL     OW17866   1.759   9.195   1.154
 5947SOL    HW117867   1.820   9.225   1.081
 5947SOL    HW217868   1.721   9.106   1.132
 5948SOL     OW17869   1.252   9.179   1.128
 5948SOL    HW117870   1.336   9.184   1.074
 5948SOL    HW217871   1.229   9.083   1.146
 5949SOL     OW17872   0.083   8.706   1.022
 5949SOL    HW117873   0.078   8.705   1.122
 5949SOL    HW217874   0.000   8.665   0.984
 5950SOL     OW17875   0.688   9.110   1.716
 5950SOL    HW117876   0.632   9.191   1.725
 5950SOL    HW217877   0.740   9.114   1.630
 5951SOL     OW17878   0.903   7.534   0.133
 5951SOL    HW117879   0.954   7.535   0.047
 5951SOL    HW217880   0.959   7.492   0.204
 5952SOL     OW17881   1.726   7.583   0.523
 5952SOL    HW117882   1.799   7.566   0.456
 5952SOL    HW217883   1.695   7.496   0.561
 5953SOL     OW17884   1.388   9.021   0.477
 5953SOL    HW117885   1.455   9.033   0.403
 5953SOL    HW217886   1.348   9.110   0.500
 5954SOL     OW17887   0.130   9.242   1.851
 5954SOL    HW117888   0.089   9.168   1.904
 5954SOL    HW217889   0.194   9.293   1.909
 5955SOL     OW17890   1.280   8.375   0.672
 5955SOL    HW117891   1.340   8.294   0.674
 5955SOL    HW217892   1.320   8.444   0.612
 5956SOL     OW17893   0.830   8.721   1.422
 5956SOL    HW117894   0.825   8.754   1.517
 5956SOL    HW217895   0.744   8.740   1.376
 5957SOL     OW17896   0.672   9.064   0.154
 5957SOL    HW117897   0.681   9.074   0.055
 5957SOL    HW217898   0.632   8.975   0.175
 5958SOL     OW17899   1.650   9.168   1.394
 5958SOL    HW117900   1.703   9.178   1.310
 5958SOL    HW217901   1.623   9.258   1.428
 5959SOL     OW17902   1.841   7.623   0.963
 5959SOL    HW117903   1.880   7.538   0.927
 5959SOL    HW217904   1.743   7.625   0.944
 5960SOL     OW17905   0.263   7.774   0.720
 5960SOL    HW117906   0.184   7.825   0.686
 5960SOL    HW217907   0.254   7.759   0.818
 5961SOL     OW17908   1.194   9.060   0.031
 5961SOL    HW117909   1.200   8.967   0.068
 5961SOL    HW217910   1.135   9.060  -0.049
 5962SOL     OW17911   0.822   8.450   1.372
 5962SOL    HW117912   0.862   8.449   1.280
 5962SOL    HW217913   0.832   8.542   1.412
 5963SOL     OW17914   0.916   8.358   0.291
 5963SOL    HW117915   0.979   8.396   0.223
 5963SOL    HW217916   0.956   8.275   0.330
 5964SOL     OW17917   1.504   9.055   0.044
 5964SOL    HW117918   1.412   9.092   0.051
 5964SOL    HW217919   1.542   9.075  -0.046
 5965SOL     OW17920   0.372   8.736   1.490
 5965SOL    HW117921   0.359   8.829   1.456
 5965SOL    HW217922   0.288   8.684   1.477
 5966SOL     OW17923   1.614   8.740   1.289
 5966SOL    HW117924   1.674   8.743   1.369
 5966SOL    HW217925   1.539   8.804   1.302
 5967SOL     OW17926   1.039   8.546   0.696
 5967SOL    HW117927   0.969   8.499   0.750
 5967SOL    HW217928   1.098   8.478   0.653
 5968SOL     OW17929   1.014   7.684   0.971
 5968SOL    HW117930   1.006   7.648   0.878
 5968SOL    HW217931   1.012   7.608   1.036
 5969SOL     OW17932   0.590   8.935   0.491
 5969SOL    HW117933   0.632   8.877   0.421
 5969SOL    HW217934   0.546   9.014   0.447
 5970SOL     OW17935   1.709   7.833   1.381
 5970SOL    HW117936   1.782   7.902   1.385
 5970SOL    HW217937   1.737   7.758   1.322
 5971SOL     OW17938   0.255   8.796   0.290
 5971SOL    HW117939   0.159   8.797   0.263
 5971SOL    HW217940   0.267   8.849   0.374
 5972SOL     OW17941   0.105   8.461   1.726
 5972SOL    HW117942   0.028   8.428   1.780
 5972SOL    HW217943   0.190   8.431   1.768
 5973SOL     OW17944   0.672   7.651   1.489
 5973SOL    HW117945   0.762   7.635   1.449
 5973SOL    HW217946   0.680   7.656   1.588
 5974SOL     OW17947   0.075   7.793   0.033
 5974SOL    HW117948  -0.017   7.765   0.004
 5974SOL    HW217949   0.106   7.870  -0.023
 5975SOL     OW17950   1.440   8.304   1.398
 5975SOL    HW117951   1.383   8.356   1.335
 5975SOL    HW217952   1.536   8.316   1.374
 5976SOL     OW17953   0.072   7.614   0.318
 5976SOL    HW117954   0.055   7.697   0.264
 5976SOL    HW217955   0.162   7.577   0.296
 5977SOL     OW17956   1.183   8.783   0.119
 5977SOL    HW117957   1.084   8.772   0.121
 5977SOL    HW217958   1.217   8.798   0.212
 5978SOL     OW17959   0.613   8.290   1.431
 5978SOL    HW117960   0.669   8.371   1.414
 5978SOL    HW217961   0.672   8.210   1.434
 5979SOL     OW17962   1.493   9.215   0.959
 5979SOL    HW117963   1.526   9.279   0.890
 5979SOL    HW217964   1.559   9.209   1.034
 5980SOL     OW17965   0.716   8.013   1.708
 5980SOL    HW117966   0.735   8.078   1.782
 5980SOL    HW217967   0.776   7.933   1.717
 5981SOL     OW17968   1.450   8.668   1.633
 5981SOL    HW117969   1.441   8.658   1.732
 5981SOL    HW217970   1.546   8.661   1.607
 5982SOL     OW17971   0.390   9.189   1.560
 5982SOL    HW117972   0.299   9.230   1.558
 5982SOL    HW217973   0.383   9.095   1.592
 5983SOL     OW17974   1.674   8.331   1.254
 5983SOL    HW117975   1.647   8.242   1.217
 5983SOL    HW217976   1.675   8.399   1.181
 5984SOL     OW17977   1.225   7.773   0.449
 5984SOL    HW117978   1.290   7.699   0.438
 5984SOL    HW217979   1.245   7.823   0.533
 5985SOL     OW17980   0.594   8.193   0.652
 5985SOL    HW117981   0.644   8.278   0.633
 5985SOL    HW217982   0.506   8.195   0.604
 5986SOL     OW17983   1.777   7.790   1.642
 5986SOL    HW117984   1.760   7.821   1.548
 5986SOL    HW217985   1.693   7.753   1.680
 5987SOL     OW17986   1.730   8.382   1.517
 5987SOL    HW117987   1.768   8.473   1.532
 5987SOL    HW217988   1.722   8.365   1.418
 5988SOL     OW17989   0.859   8.822   0.016
 5988SOL    HW117990   0.813   8.837   0.104
 5988SOL    HW217991   0.903   8.907  -0.014
 5989SOL     OW17992   0.661   9.238   0.953
 5989SOL    HW117993   0.615   9.326   0.940
 5989SOL    HW217994   0.760   9.250   0.946
 5990SOL     OW17995   0.859   8.404   0.861
 5990SOL    HW117996   0.913   8.335   0.909
 5990SOL    HW217997   0.827   8.473   0.927
 5991SOL     OW17998   1.083   8.432   0.087
 5991SOL    HW117999   1.060   8.485   0.005
 5991SOL    HW218000   1.164   8.376   0.068
 5992SOL     OW18001   1.861   9.017   0.851
 5992SOL    HW118002   1.790   9.005   0.781
 5992SOL    HW218003   1.862   8.938   0.911
 5993SOL     OW18004   0.221   8.762   1.844
 5993SOL    HW118005   0.156   8.689   1.823
 5993SOL    HW218006   0.225   8.776   1.942
 5994SOL     OW18007   0.079   8.688   0.653
 5994SOL    HW118008   0.078   8.641   0.741
 5994SOL    HW218009   0.161   8.660   0.602
 5995SOL     OW18010   0.672   8.839   1.624
 5995SOL    HW118011   0.594   8.789   1.662
 5995SOL    HW218012   0.669   8.934   1.655
 5996SOL     OW18013   1.824   7.640   1.227
 5996SOL    HW118014   1.820   7.550   1.271
 5996SOL    HW218015   1.827   7.629   1.128
 5997SOL     OW18016   0.428   7.872   0.520
 5997SOL    HW118017   0.458   7.800   0.458
 5997SOL    HW218018   0.389   7.832   0.603
 5998SOL     OW18019   1.705   8.935   1.104
 5998SOL    HW118020   1.612   8.910   1.077
 5998SOL    HW218021   1.731   8.885   1.186
 5999SOL     OW18022   0.317   7.995   1.280
 5999SOL    HW118023   0.355   7.936   1.352
 5999SOL    HW218024   0.357   7.969   1.192
 6000SOL     OW18025   0.812   9.034   0.687
 6000SOL    HW118026   0.844   9.044   0.593
 6000SOL    HW218027   0.733   8.972   0.689
 6001SOL     OW18028   1.424   7.662   1.112
 6001SOL    HW118029   1.476   7.597   1.167
 6001SOL    HW218030   1.375   7.725   1.173
 6002SOL     OW18031   1.001   7.482   1.154
 6002SOL    HW118032   0.938   7.410   1.123
 6002SOL    HW218033   1.094   7.446   1.154
 6003SOL     OW18034   0.770   8.778   0.301
 6003SOL    HW118035   0.724   8.691   0.318
 6003SOL    HW218036   0.861   8.775   0.342
 6004SOL     OW18037   0.618   9.015   1.284
 6004SOL    HW118038   0.613   9.097   1.341
 6004SOL    HW218039   0.707   9.012   1.239
 6005SOL     OW18040   1.352   7.500   0.168
 6005SOL    HW118041   1.387   7.459   0.084
 6005SOL    HW218042   1.262   7.462   0.188
 6006SOL     OW18043   1.300   7.901   0.691
 6006SOL    HW118044   1.241   7.981   0.695
 6006SOL    HW218045   1.315   7.866   0.784
 6007SOL     OW18046   1.593   7.669   0.882
 6007SOL    HW118047   1.509   7.668   0.936
 6007SOL    HW218048   1.595   7.752   0.826
 6008SOL     OW18049   0.039   8.525   0.300
 6008SOL    HW118050   0.138   8.514   0.291
 6008SOL    HW218051  -0.001   8.439   0.332
 6009SOL     OW18052   0.875   9.094   0.337
 6009SOL    HW118053   0.798   9.059   0.283
 6009SOL    HW218054   0.843   9.165   0.399
 6010SOL     OW18055   0.230   8.076   1.975
 6010SOL    HW118056   0.137   8.074   2.012
 6010SOL    HW218057   0.231   8.037   1.883
 6011SOL     OW18058   0.225   7.723   2.858
 6011SOL    HW118059   0.260   7.706   2.950
 6011SOL    HW218060   0.137   7.678   2.846
 6012SOL     OW18061   0.019   7.816   2.509
 6012SOL    HW118062  -0.063   7.859   2.548
 6012SOL    HW218063  -0.009   7.743   2.446
 6013SOL     OW18064   0.569   8.723   3.027
 6013SOL    HW118065   0.476   8.716   2.990
 6013SOL    HW218066   0.580   8.812   3.071
 6014SOL     OW18067   1.555   8.959   2.565
 6014SOL    HW118068   1.498   8.943   2.646
 6014SOL    HW218069   1.496   8.969   2.485
 6015SOL     OW18070   1.135   8.151   2.579
 6015SOL    HW118071   1.192   8.229   2.554
 6015SOL    HW218072   1.075   8.177   2.655
 6016SOL     OW18073   1.755   8.055   2.093
 6016SOL    HW118074   1.743   8.042   1.994
 6016SOL    HW218075   1.725   7.974   2.142
 6017SOL     OW18076   0.768   8.592   2.885
 6017SOL    HW118077   0.690   8.609   2.945
 6017SOL    HW218078   0.802   8.679   2.849
 6018SOL     OW18079   0.850   8.246   3.685
 6018SOL    HW118080   0.846   8.322   3.750
 6018SOL    HW218081   0.872   8.282   3.594
 6019SOL     OW18082   0.685   8.460   2.527
 6019SOL    HW118083   0.754   8.444   2.597
 6019SOL    HW218084   0.612   8.517   2.565
 6020SOL     OW18085   0.686   8.609   3.665
 6020SOL    HW118086   0.746   8.688   3.679
 6020SOL    HW218087   0.600   8.640   3.624
 6021SOL     OW18088   0.335   8.883   2.923
 6021SOL    HW118089   0.257   8.852   2.870
 6021SOL    HW218090   0.393   8.941   2.866
 6022SOL     OW18091   1.460   8.953   3.201
 6022SOL    HW118092   1.484   9.047   3.227
 6022SOL    HW218093   1.444   8.899   3.283
 6023SOL     OW18094   0.438   7.840   3.361
 6023SOL    HW118095   0.520   7.784   3.370
 6023SOL    HW218096   0.357   7.782   3.365
 6024SOL     OW18097   1.603   7.895   2.599
 6024SOL    HW118098   1.529   7.941   2.549
 6024SOL    HW218099   1.654   7.963   2.652
 6025SOL     OW18100   0.231   9.161   2.345
 6025SOL    HW118101   0.265   9.238   2.399
 6025SOL    HW218102   0.275   9.161   2.255
 6026SOL     OW18103   1.127   8.789   3.552
 6026SOL    HW118104   1.174   8.789   3.640
 6026SOL    HW218105   1.079   8.702   3.541
 6027SOL     OW18106   0.230   8.882   2.400
 6027SOL    HW118107   0.204   8.978   2.400
 6027SOL    HW218108   0.159   8.828   2.445
 6028SOL     OW18109   0.240   8.539   2.748
 6028SOL    HW118110   0.254   8.455   2.800
 6028SOL    HW218111   0.185   8.603   2.803
 6029SOL     OW18112   0.620   9.234   3.301
 6029SOL    HW118113   0.528   9.217   3.336
 6029SOL    HW218114   0.648   9.326   3.327
 6030SOL     OW18115   0.606   8.412   1.985
 6030SOL    HW118116   0.613   8.496   1.931
 6030SOL    HW218117   0.652   8.425   2.073
 6031SOL     OW18118   1.594   7.562   3.342
 6031SOL    HW118119   1.576   7.629   3.270
 6031SOL    HW218120   1.591   7.608   3.431
 6032SOL     OW18121   0.122   8.091   2.425
 6032SOL    HW118122   0.077   8.003   2.442
 6032SOL    HW218123   0.121   8.145   2.509
 6033SOL     OW18124   1.842   9.215   2.221
 6033SOL    HW118125   1.896   9.186   2.301
 6033SOL    HW218126   1.872   9.305   2.192
 6034SOL     OW18127   0.027   9.044   1.979
 6034SOL    HW118128   0.008   8.948   2.000
 6034SOL    HW218129  -0.006   9.102   2.054
 6035SOL     OW18130   1.689   8.370   2.474
 6035SOL    HW118131   1.784   8.341   2.482
 6035SOL    HW218132   1.681   8.435   2.399
 6036SOL     OW18133   1.641   8.556   2.294
 6036SOL    HW118134   1.727   8.558   2.242
 6036SOL    HW218135   1.655   8.603   2.382
 6037SOL     OW18136   0.113   8.185   3.459
 6037SOL    HW118137   0.201   8.172   3.504
 6037SOL    HW218138   0.100   8.282   3.437
 6038SOL     OW18139   0.613   8.813   2.588
 6038SOL    HW118140   0.564   8.726   2.597
 6038SOL    HW218141   0.590   8.856   2.501
 6039SOL     OW18142   1.293   8.676   3.285
 6039SOL    HW118143   1.330   8.603   3.227
 6039SOL    HW218144   1.345   8.681   3.370
 6040SOL     OW18145   0.809   7.452   2.364
 6040SOL    HW118146   0.849   7.543   2.355
 6040SOL    HW218147   0.709   7.460   2.370
 6041SOL     OW18148   0.197   8.424   3.126
 6041SOL    HW118149   0.286   8.379   3.112
 6041SOL    HW218150   0.124   8.359   3.107
 6042SOL     OW18151   1.525   8.447   2.052
 6042SOL    HW118152   1.462   8.371   2.065
 6042SOL    HW218153   1.573   8.465   2.138
 6043SOL     OW18154   1.187   9.240   3.478
 6043SOL    HW118155   1.211   9.300   3.402
 6043SOL    HW218156   1.194   9.145   3.448
 6044SOL     OW18157   0.317   7.699   3.663
 6044SOL    HW118158   0.388   7.770   3.669
 6044SOL    HW218159   0.229   7.738   3.691
 6045SOL     OW18160   1.466   8.865   2.815
 6045SOL    HW118161   1.407   8.871   2.895
 6045SOL    HW218162   1.451   8.777   2.769
 6046SOL     OW18163   1.667   9.162   2.434
 6046SOL    HW118164   1.626   9.139   2.346
 6046SOL    HW218165   1.649   9.088   2.499
 6047SOL     OW18166   0.598   8.177   2.132
 6047SOL    HW118167   0.622   8.246   2.064
 6047SOL    HW218168   0.520   8.210   2.186
 6048SOL     OW18169   1.281   7.793   2.806
 6048SOL    HW118170   1.195   7.743   2.793
 6048SOL    HW218171   1.343   7.739   2.862
 6049SOL     OW18172   1.576   9.110   2.169
 6049SOL    HW118173   1.665   9.156   2.172
 6049SOL    HW218174   1.555   9.086   2.074
 6050SOL     OW18175   0.807   8.053   3.327
 6050SOL    HW118176   0.760   8.050   3.416
 6050SOL    HW218177   0.756   7.998   3.261
 6051SOL     OW18178   1.394   7.917   3.536
 6051SOL    HW118179   1.374   7.960   3.624
 6051SOL    HW218180   1.472   7.855   3.545
 6052SOL     OW18181   0.973   8.338   3.434
 6052SOL    HW118182   1.019   8.254   3.405
 6052SOL    HW218183   0.917   8.372   3.359
 6053SOL     OW18184   0.991   7.858   3.104
 6053SOL    HW118185   0.914   7.892   3.158
 6053SOL    HW218186   0.957   7.807   3.025
 6054SOL     OW18187   1.041   8.149   2.291
 6054SOL    HW118188   1.067   8.145   2.387
 6054SOL    HW218189   0.956   8.098   2.277
 6055SOL     OW18190   0.076   8.259   2.651
 6055SOL    HW118191   0.175   8.247   2.660
 6055SOL    HW218192   0.052   8.354   2.672
 6056SOL     OW18193   0.130   9.269   3.433
 6056SOL    HW118194   0.120   9.254   3.532
 6056SOL    HW218195   0.044   9.305   3.397
 6057SOL     OW18196   0.865   7.796   2.057
 6057SOL    HW118197   0.924   7.859   2.008
 6057SOL    HW218198   0.884   7.702   2.028
 6058SOL     OW18199   1.719   8.033   3.693
 6058SOL    HW118200   1.693   8.122   3.657
 6058SOL    HW218201   1.717   7.965   3.620
 6059SOL     OW18202   1.362   8.592   2.407
 6059SOL    HW118203   1.445   8.563   2.359
 6059SOL    HW218204   1.313   8.659   2.351
 6060SOL     OW18205   0.550   7.644   2.747
 6060SOL    HW118206   0.545   7.639   2.847
 6060SOL    HW218207   0.552   7.740   2.718
 6061SOL     OW18208   1.008   8.904   2.339
 6061SOL    HW118209   0.962   8.976   2.287
 6061SOL    HW218210   1.004   8.924   2.437
 6062SOL     OW18211   0.351   9.249   2.715
 6062SOL    HW118212   0.401   9.163   2.721
 6062SOL    HW218213   0.416   9.326   2.712
 6063SOL     OW18214   1.795   8.514   2.735
 6063SOL    HW118215   1.733   8.499   2.659
 6063SOL    HW218216   1.743   8.525   2.820
 6064SOL     OW18217   1.227   8.998   3.368
 6064SOL    HW118218   1.233   8.921   3.432
 6064SOL    HW218219   1.175   8.972   3.288
 6065SOL     OW18220   0.321   8.391   2.104
 6065SOL    HW118221   0.403   8.430   2.062
 6065SOL    HW218222   0.294   8.309   2.055
 6066SOL     OW18223   1.458   8.183   2.590
 6066SOL    HW118224   1.453   8.118   2.665
 6066SOL    HW218225   1.538   8.242   2.603
 6067SOL     OW18226   0.461   8.714   3.589
 6067SOL    HW118227   0.411   8.715   3.503
 6067SOL    HW218228   0.398   8.696   3.665
 6068SOL     OW18229   1.111   9.224   2.099
 6068SOL    HW118230   1.051   9.162   2.149
 6068SOL    HW218231   1.142   9.180   2.014
 6069SOL     OW18232   0.202   7.733   3.360
 6069SOL    HW118233   0.122   7.793   3.347
 6069SOL    HW218234   0.192   7.684   3.446
 6070SOL     OW18235   1.632   8.825   1.943
 6070SOL    HW118236   1.600   8.919   1.933
 6070SOL    HW218237   1.556   8.762   1.931
 6071SOL     OW18238   0.464   9.191   2.185
 6071SOL    HW118239   0.497   9.230   2.271
 6071SOL    HW218240   0.540   9.184   2.120
 6072SOL     OW18241   1.400   7.555   2.288
 6072SOL    HW118242   1.376   7.518   2.198
 6072SOL    HW218243   1.499   7.571   2.292
 6073SOL     OW18244   0.249   9.233   3.103
 6073SOL    HW118245   0.306   9.168   3.153
 6073SOL    HW218246   0.233   9.200   3.010
 6074SOL     OW18247   0.940   9.146   2.766
 6074SOL    HW118248   1.020   9.089   2.787
 6074SOL    HW218249   0.891   9.106   2.689
 6075SOL     OW18250   0.382   8.148   2.342
 6075SOL    HW118251   0.427   8.058   2.339
 6075SOL    HW218252   0.288   8.137   2.375
 6076SOL     OW18253   1.547   7.670   3.591
 6076SOL    HW118254   1.542   7.707   3.683
 6076SOL    HW218255   1.475   7.601   3.579
 6077SOL     OW18256   0.614   7.570   1.979
 6077SOL    HW118257   0.712   7.548   1.986
 6077SOL    HW218258   0.583   7.553   1.886
 6078SOL     OW18259   0.781   7.712   3.611
 6078SOL    HW118260   0.848   7.651   3.654
 6078SOL    HW218261   0.708   7.731   3.676
 6079SOL     OW18262   0.888   8.962   3.057
 6079SOL    HW118263   0.865   8.937   2.963
 6079SOL    HW218264   0.949   8.893   3.096
 6080SOL     OW18265   1.351   8.038   3.295
 6080SOL    HW118266   1.379   7.995   3.380
 6080SOL    HW218267   1.376   8.134   3.296
 6081SOL     OW18268   0.803   8.850   2.786
 6081SOL    HW118269   0.893   8.864   2.744
 6081SOL    HW218270   0.732   8.852   2.715
 6082SOL     OW18271   0.922   7.951   2.761
 6082SOL    HW118272   0.897   7.942   2.665
 6082SOL    HW218273   0.970   7.869   2.792
 6083SOL     OW18274   0.539   7.512   2.374
 6083SOL    HW118275   0.458   7.513   2.432
 6083SOL    HW218276   0.542   7.595   2.319
 6084SOL     OW18277   1.434   8.636   1.903
 6084SOL    HW118278   1.466   8.560   1.960
 6084SOL    HW218279   1.342   8.663   1.933
 6085SOL     OW18280   0.297   7.483   2.033
 6085SOL    HW118281   0.346   7.567   2.012
 6085SOL    HW218282   0.359   7.418   2.078
 6086SOL     OW18283   0.935   7.684   2.342
 6086SOL    HW118284   0.887   7.725   2.264
 6086SOL    HW218285   1.034   7.682   2.323
 6087SOL     OW18286   1.076   8.131   3.326
 6087SOL    HW118287   0.996   8.070   3.329
 6087SOL    HW218288   1.157   8.078   3.302
 6088SOL     OW18289   1.227   9.018   2.655
 6088SOL    HW118290   1.248   9.092   2.590
 6088SOL    HW218291   1.295   9.018   2.728
 6089SOL     OW18292   0.459   8.600   2.603
 6089SOL    HW118293   0.388   8.573   2.668
 6089SOL    HW218294   0.433   8.572   2.510
 6090SOL     OW18295   1.271   9.245   2.453
 6090SOL    HW118296   1.315   9.309   2.389
 6090SOL    HW218297   1.221   9.297   2.523
 6091SOL     OW18298   1.032   7.997   1.878
 6091SOL    HW118299   0.991   8.079   1.839
 6091SOL    HW218300   1.096   8.023   1.951
 6092SOL     OW18301   0.078   8.004   3.248
 6092SOL    HW118302   0.170   8.003   3.207
 6092SOL    HW218303   0.072   8.078   3.315
 6093SOL     OW18304   0.561   7.670   3.009
 6093SOL    HW118305   0.599   7.586   3.046
 6093SOL    HW218306   0.473   7.689   3.053
 6094SOL     OW18307   0.866   7.902   2.504
 6094SOL    HW118308   0.834   7.974   2.442
 6094SOL    HW218309   0.890   7.821   2.451
 6095SOL     OW18310   1.017   7.487   2.615
 6095SOL    HW118311   0.945   7.492   2.546
 6095SOL    HW218312   0.993   7.418   2.684
 6096SOL     OW18313   1.429   8.621   2.729
 6096SOL    HW118314   1.374   8.537   2.722
 6096SOL    HW218315   1.455   8.650   2.637
 6097SOL     OW18316   1.466   8.038   2.854
 6097SOL    HW118317   1.436   7.943   2.861
 6097SOL    HW218318   1.539   8.054   2.920
 6098SOL     OW18319   1.857   8.281   2.239
 6098SOL    HW118320   1.899   8.217   2.303
 6098SOL    HW218321   1.819   8.230   2.161
 6099SOL     OW18322   0.488   8.833   2.036
 6099SOL    HW118323   0.401   8.818   2.083
 6099SOL    HW218324   0.471   8.859   1.941
 6100SOL     OW18325   1.664   8.728   2.519
 6100SOL    HW118326   1.763   8.736   2.533
 6100SOL    HW218327   1.619   8.812   2.550
 6101SOL     OW18328   1.390   8.023   1.940
 6101SOL    HW118329   1.336   8.002   2.021
 6101SOL    HW218330   1.481   7.982   1.949
 6102SOL     OW18331   0.527   7.704   2.190
 6102SOL    HW118332   0.554   7.645   2.115
 6102SOL    HW218333   0.527   7.799   2.159
 6103SOL     OW18334   1.754   8.671   3.450
 6103SOL    HW118335   1.845   8.632   3.437
 6103SOL    HW218336   1.762   8.767   3.474
 6104SOL     OW18337   1.064   8.795   3.202
 6104SOL    HW118338   0.984   8.772   3.257
 6104SOL    HW218339   1.147   8.769   3.251
 6105SOL     OW18340   1.592   9.077   3.487
 6105SOL    HW118341   1.619   9.111   3.397
 6105SOL    HW218342   1.671   9.039   3.533
 6106SOL     OW18343   1.111   8.643   2.962
 6106SOL    HW118344   1.071   8.687   3.043
 6106SOL    HW218345   1.070   8.680   2.879
 6107SOL     OW18346   1.638   8.547   2.941
 6107SOL    HW118347   1.643   8.628   3.000
 6107SOL    HW218348   1.552   8.549   2.890
 6108SOL     OW18349   0.915   7.537   3.264
 6108SOL    HW118350   0.940   7.517   3.169
 6108SOL    HW218351   0.987   7.593   3.306
 6109SOL     OW18352   0.980   8.564   3.581
 6109SOL    HW118353   0.881   8.570   3.591
 6109SOL    HW218354   1.003   8.484   3.525
 6110SOL     OW18355   0.705   8.498   2.230
 6110SOL    HW118356   0.691   8.505   2.329
 6110SOL    HW218357   0.789   8.447   2.212
 6111SOL     OW18358   0.410   8.261   3.113
 6111SOL    HW118359   0.496   8.273   3.163
 6111SOL    HW218360   0.368   8.174   3.140
 6112SOL     OW18361   1.274   7.834   3.124
 6112SOL    HW118362   1.295   7.908   3.188
 6112SOL    HW218363   1.185   7.851   3.081
 6113SOL     OW18364   0.064   9.012   3.193
 6113SOL    HW118365   0.018   9.094   3.159
 6113SOL    HW218366   0.162   9.031   3.202
 6114SOL     OW18367   0.367   8.548   2.363
 6114SOL    HW118368   0.360   8.631   2.307
 6114SOL    HW218369   0.371   8.468   2.303
 6115SOL     OW18370   0.566   7.985   2.727
 6115SOL    HW118371   0.578   8.051   2.653
 6115SOL    HW218372   0.612   8.019   2.810
 6116SOL     OW18373   1.252   8.796   2.250
 6116SOL    HW118374   1.302   8.873   2.290
 6116SOL    HW218375   1.157   8.798   2.282
 6117SOL     OW18376   1.272   8.893   3.004
 6117SOL    HW118377   1.319   8.906   3.091
 6117SOL    HW218378   1.206   8.819   3.013
 6118SOL     OW18379   1.582   8.087   2.334
 6118SOL    HW118380   1.551   8.148   2.407
 6118SOL    HW218381   1.632   8.139   2.265
 6119SOL     OW18382   0.354   8.958   3.191
 6119SOL    HW118383   0.333   8.914   3.104
 6119SOL    HW218384   0.451   8.984   3.194
 6120SOL     OW18385   0.402   8.199   3.460
 6120SOL    HW118386   0.470   8.254   3.413
 6120SOL    HW218387   0.442   8.111   3.487
 6121SOL     OW18388   1.587   8.227   3.532
 6121SOL    HW118389   1.495   8.265   3.527
 6121SOL    HW218390   1.647   8.274   3.467
 6122SOL     OW18391   1.013   7.553   3.632
 6122SOL    HW118392   1.019   7.638   3.580
 6122SOL    HW218393   1.045   7.477   3.575
 6123SOL     OW18394   0.504   7.498   3.602
 6123SOL    HW118395   0.462   7.441   3.532
 6123SOL    HW218396   0.438   7.567   3.634
 6124SOL     OW18397   0.573   8.318   2.891
 6124SOL    HW118398   0.617   8.407   2.882
 6124SOL    HW218399   0.510   8.318   2.968
 6125SOL     OW18400   1.360   8.310   2.907
 6125SOL    HW118401   1.285   8.310   2.841
 6125SOL    HW218402   1.397   8.218   2.916
 6126SOL     OW18403   1.209   7.973   2.137
 6126SOL    HW118404   1.222   7.889   2.191
 6126SOL    HW218405   1.180   8.047   2.197
 6127SOL     OW18406   0.307   7.661   3.093
 6127SOL    HW118407   0.284   7.698   3.183
 6127SOL    HW218408   0.277   7.566   3.087
 6128SOL     OW18409   0.037   8.758   3.144
 6128SOL    HW118410   0.090   8.709   3.212
 6128SOL    HW218411   0.059   8.856   3.149
 6129SOL     OW18412   0.732   8.082   2.926
 6129SOL    HW118413   0.791   8.056   2.850
 6129SOL    HW218414   0.704   8.178   2.915
 6130SOL     OW18415   1.728   8.383   3.716
 6130SOL    HW118416   1.682   8.376   3.627
 6130SOL    HW218417   1.666   8.427   3.782
 6131SOL     OW18418   0.307   7.511   2.480
 6131SOL    HW118419   0.296   7.605   2.513
 6131SOL    HW218420   0.302   7.448   2.557
 6132SOL     OW18421   1.622   7.815   2.236
 6132SOL    HW118422   1.624   7.739   2.300
 6132SOL    HW218423   1.574   7.892   2.276
 6133SOL     OW18424   1.023   8.214   2.828
 6133SOL    HW118425   1.038   8.235   2.924
 6133SOL    HW218426   0.993   8.119   2.819
 6134SOL     OW18427   0.980   9.021   3.562
 6134SOL    HW118428   0.960   9.065   3.474
 6134SOL    HW218429   1.019   8.930   3.546
 6135SOL     OW18430   1.859   8.966   3.467
 6135SOL    HW118431   1.873   8.993   3.372
 6135SOL    HW218432   1.942   8.988   3.520
 6136SOL     OW18433   0.350   8.346   3.666
 6136SOL    HW118434   0.426   8.390   3.714
 6136SOL    HW218435   0.385   8.299   3.584
 6137SOL     OW18436   1.540   7.722   1.987
 6137SOL    HW118437   1.479   7.647   2.010
 6137SOL    HW218438   1.562   7.774   2.070
 6138SOL     OW18439   1.303   8.286   1.904
 6138SOL    HW118440   1.337   8.193   1.919
 6138SOL    HW218441   1.321   8.313   1.809
 6139SOL     OW18442   1.068   8.781   2.711
 6139SOL    HW118443   1.075   8.697   2.656
 6139SOL    HW218444   1.130   8.850   2.675
 6140SOL     OW18445   0.319   8.258   2.811
 6140SOL    HW118446   0.412   8.294   2.816
 6140SOL    HW218447   0.313   8.173   2.863
 6141SOL     OW18448   0.339   7.957   2.868
 6141SOL    HW118449   0.287   7.874   2.851
 6141SOL    HW218450   0.416   7.962   2.804
 6142SOL     OW18451   1.138   7.828   3.540
 6142SOL    HW118452   1.093   7.891   3.604
 6142SOL    HW218453   1.231   7.859   3.523
 6143SOL     OW18454   1.160   7.655   3.339
 6143SOL    HW118455   1.160   7.719   3.416
 6143SOL    HW218456   1.188   7.703   3.256
 6144SOL     OW18457   0.008   8.774   2.062
 6144SOL    HW118458  -0.085   8.795   2.031
 6144SOL    HW218459   0.018   8.675   2.075
 6145SOL     OW18460   0.088   9.249   2.789
 6145SOL    HW118461   0.046   9.163   2.762
 6145SOL    HW218462   0.182   9.252   2.755
 6146SOL     OW18463   0.504   9.016   2.772
 6146SOL    HW118464   0.570   9.090   2.781
 6146SOL    HW218465   0.548   8.937   2.730
 6147SOL     OW18466   1.002   8.244   3.100
 6147SOL    HW118467   1.043   8.212   3.186
 6147SOL    HW218468   0.906   8.217   3.097
 6148SOL     OW18469   0.040   7.992   2.976
 6148SOL    HW118470   0.125   7.959   2.935
 6148SOL    HW218471   0.053   8.007   3.074
 6149SOL     OW18472   0.189   7.968   3.584
 6149SOL    HW118473   0.248   7.928   3.514
 6149SOL    HW218474   0.131   8.039   3.543
 6150SOL     OW18475   1.369   8.398   3.522
 6150SOL    HW118476   1.408   8.487   3.542
 6150SOL    HW218477   1.379   8.378   3.425
 6151SOL     OW18478   0.815   8.020   2.187
 6151SOL    HW118479   0.822   7.931   2.141
 6151SOL    HW218480   0.721   8.054   2.179
 6152SOL     OW18481   1.657   8.052   3.068
 6152SOL    HW118482   1.619   7.983   3.130
 6152SOL    HW218483   1.739   8.016   3.024
 6153SOL     OW18484   0.252   9.012   3.606
 6153SOL    HW118485   0.222   9.069   3.682
 6153SOL    HW218486   0.245   8.915   3.632
 6154SOL     OW18487   0.671   7.912   3.131
 6154SOL    HW118488   0.637   7.823   3.101
 6154SOL    HW218489   0.697   7.966   3.051
 6155SOL     OW18490   0.930   9.126   3.327
 6155SOL    HW118491   0.906   9.108   3.232
 6155SOL    HW218492   0.960   9.220   3.337
 6156SOL     OW18493   0.473   7.948   2.053
 6156SOL    HW118494   0.534   8.028   2.057
 6156SOL    HW218495   0.378   7.979   2.060
 6157SOL     OW18496   0.159   8.585   3.328
 6157SOL    HW118497   0.181   8.524   3.404
 6157SOL    HW218498   0.169   8.536   3.242
 6158SOL     OW18499   1.347   8.507   3.096
 6158SOL    HW118500   1.371   8.444   3.022
 6158SOL    HW218501   1.257   8.547   3.078
 6159SOL     OW18502   1.302   8.303   2.171
 6159SOL    HW118503   1.216   8.272   2.213
 6159SOL    HW218504   1.298   8.289   2.072
 6160SOL     OW18505   1.759   9.195   3.016
 6160SOL    HW118506   1.820   9.225   2.943
 6160SOL    HW218507   1.721   9.106   2.994
 6161SOL     OW18508   1.252   9.179   2.990
 6161SOL    HW118509   1.336   9.184   2.936
 6161SOL    HW218510   1.229   9.083   3.008
 6162SOL     OW18511   0.083   8.706   2.884
 6162SOL    HW118512   0.078   8.705   2.984
 6162SOL    HW218513   0.000   8.665   2.846
 6163SOL     OW18514   0.688   9.110   3.578
 6163SOL    HW118515   0.632   9.191   3.587
 6163SOL    HW218516   0.740   9.114   3.492
 6164SOL     OW18517   1.726   7.583   2.385
 6164SOL    HW118518   1.799   7.566   2.318
 6164SOL    HW218519   1.695   7.496   2.423
 6165SOL     OW18520   1.388   9.021   2.339
 6165SOL    HW118521   1.455   9.033   2.265
 6165SOL    HW218522   1.348   9.110   2.362
 6166SOL     OW18523   0.130   9.242   3.713
 6166SOL    HW118524   0.089   9.168   3.766
 6166SOL    HW218525   0.194   9.293   3.771
 6167SOL     OW18526   1.280   8.375   2.534
 6167SOL    HW118527   1.340   8.294   2.536
 6167SOL    HW218528   1.320   8.444   2.474
 6168SOL     OW18529   0.830   8.721   3.284
 6168SOL    HW118530   0.825   8.754   3.379
 6168SOL    HW218531   0.744   8.740   3.238
 6169SOL     OW18532   0.672   9.064   2.016
 6169SOL    HW118533   0.681   9.074   1.917
 6169SOL    HW218534   0.632   8.975   2.037
 6170SOL     OW18535   1.650   9.168   3.256
 6170SOL    HW118536   1.703   9.178   3.172
 6170SOL    HW218537   1.623   9.258   3.290
 6171SOL     OW18538   1.841   7.623   2.825
 6171SOL    HW118539   1.880   7.538   2.789
 6171SOL    HW218540   1.743   7.625   2.806
 6172SOL     OW18541   0.263   7.774   2.582
 6172SOL    HW118542   0.184   7.825   2.548
 6172SOL    HW218543   0.254   7.759   2.680
 6173SOL     OW18544   1.194   9.060   1.893
 6173SOL    HW118545   1.200   8.967   1.930
 6173SOL    HW218546   1.135   9.060   1.813
 6174SOL     OW18547   0.822   8.450   3.234
 6174SOL    HW118548   0.862   8.449   3.142
 6174SOL    HW218549   0.832   8.542   3.274
 6175SOL     OW18550   0.916   8.358   2.153
 6175SOL    HW118551   0.979   8.396   2.085
 6175SOL    HW218552   0.956   8.275   2.192
 6176SOL     OW18553   1.504   9.055   1.906
 6176SOL    HW118554   1.412   9.092   1.913
 6176SOL    HW218555   1.542   9.075   1.816
 6177SOL     OW18556   0.372   8.736   3.352
 6177SOL    HW118557   0.359   8.829   3.318
 6177SOL    HW218558   0.288   8.684   3.339
 6178SOL     OW18559   1.614   8.740   3.151
 6178SOL    HW118560   1.674   8.743   3.231
 6178SOL    HW218561   1.539   8.804   3.164
 6179SOL     OW18562   1.039   8.546   2.558
 6179SOL    HW118563   0.969   8.499   2.612
 6179SOL    HW218564   1.098   8.478   2.515
 6180SOL     OW18565   1.014   7.684   2.833
 6180SOL    HW118566   1.006   7.648   2.740
 6180SOL    HW218567   1.012   7.608   2.898
 6181SOL     OW18568   0.590   8.935   2.353
 6181SOL    HW118569   0.632   8.877   2.283
 6181SOL    HW218570   0.546   9.014   2.309
 6182SOL     OW18571   1.709   7.833   3.243
 6182SOL    HW118572   1.782   7.902   3.247
 6182SOL    HW218573   1.737   7.758   3.184
 6183SOL     OW18574   0.255   8.796   2.152
 6183SOL    HW118575   0.159   8.797   2.125
 6183SOL    HW218576   0.267   8.849   2.236
 6184SOL     OW18577   0.105   8.461   3.588
 6184SOL    HW118578   0.028   8.428   3.642
 6184SOL    HW218579   0.190   8.431   3.630
 6185SOL     OW18580   0.672   7.651   3.351
 6185SOL    HW118581   0.762   7.635   3.311
 6185SOL    HW218582   0.680   7.656   3.450
 6186SOL     OW18583   0.075   7.793   1.895
 6186SOL    HW118584  -0.017   7.765   1.866
 6186SOL    HW218585   0.106   7.870   1.839
 6187SOL     OW18586   1.440   8.304   3.260
 6187SOL    HW118587   1.383   8.356   3.197
 6187SOL    HW218588   1.536   8.316   3.236
 6188SOL     OW18589   0.072   7.614   2.180
 6188SOL    HW118590   0.055   7.697   2.126
 6188SOL    HW218591   0.162   7.577   2.158
 6189SOL     OW18592   1.183   8.783   1.981
 6189SOL    HW118593   1.084   8.772   1.983
 6189SOL    HW218594   1.217   8.798   2.074
 6190SOL     OW18595   0.613   8.290   3.293
 6190SOL    HW118596   0.669   8.371   3.276
 6190SOL    HW218597   0.672   8.210   3.296
 6191SOL     OW18598   1.493   9.215   2.821
 6191SOL    HW118599   1.526   9.279   2.752
 6191SOL    HW218600   1.559   9.209   2.896
 6192SOL     OW18601   0.716   8.013   3.570
 6192SOL    HW118602   0.735   8.078   3.644
 6192SOL    HW218603   0.776   7.933   3.579
 6193SOL     OW18604   1.450   8.668   3.495
 6193SOL    HW118605   1.441   8.658   3.594
 6193SOL    HW218606   1.546   8.661   3.469
 6194SOL     OW18607   0.390   9.189   3.422
 6194SOL    HW118608   0.299   9.230   3.420
 6194SOL    HW218609   0.383   9.095   3.454
 6195SOL     OW18610   1.674   8.331   3.116
 6195SOL    HW118611   1.647   8.242   3.079
 6195SOL    HW218612   1.675   8.399   3.043
 6196SOL     OW18613   1.225   7.773   2.311
 6196SOL    HW118614   1.290   7.699   2.300
 6196SOL    HW218615   1.245   7.823   2.395
 6197SOL     OW18616   0.594   8.193   2.514
 6197SOL    HW118617   0.644   8.278   2.495
 6197SOL    HW218618   0.506   8.195   2.466
 6198SOL     OW18619   1.777   7.790   3.504
 6198SOL    HW118620   1.760   7.821   3.410
 6198SOL    HW218621   1.693   7.753   3.542
 6199SOL     OW18622   1.730   8.382   3.379
 6199SOL    HW118623   1.768   8.473   3.394
 6199SOL    HW218624   1.722   8.365   3.280
 6200SOL     OW18625   0.859   8.822   1.878
 6200SOL    HW118626   0.813   8.837   1.966
 6200SOL    HW218627   0.903   8.907   1.848
 6201SOL     OW18628   0.661   9.238   2.815
 6201SOL    HW118629   0.615   9.326   2.802
 6201SOL    HW218630   0.760   9.250   2.808
 6202SOL     OW18631   0.859   8.404   2.723
 6202SOL    HW118632   0.913   8.335   2.771
 6202SOL    HW218633   0.827   8.473   2.789
 6203SOL     OW18634   1.083   8.432   1.949
 6203SOL    HW118635   1.060   8.485   1.867
 6203SOL    HW218636   1.164   8.376   1.930
 6204SOL     OW18637   1.861   9.017   2.713
 6204SOL    HW118638   1.790   9.005   2.643
 6204SOL    HW218639   1.862   8.938   2.773
 6205SOL     OW18640   0.221   8.762   3.706
 6205SOL    HW118641   0.156   8.689   3.685
 6205SOL    HW218642   0.225   8.776   3.804
 6206SOL     OW18643   0.079   8.688   2.515
 6206SOL    HW118644   0.078   8.641   2.603
 6206SOL    HW218645   0.161   8.660   2.464
 6207SOL     OW18646   0.672   8.839   3.486
 6207SOL    HW118647   0.594   8.789   3.524
 6207SOL    HW218648   0.669   8.934   3.517
 6208SOL     OW18649   1.824   7.640   3.089
 6208SOL    HW118650   1.820   7.550   3.133
 6208SOL    HW218651   1.827   7.629   2.990
 6209SOL     OW18652   0.428   7.872   2.382
 6209SOL    HW118653   0.458   7.800   2.320
 6209SOL    HW218654   0.389   7.832   2.465
 6210SOL     OW18655   1.705   8.935   2.966
 6210SOL    HW118656   1.612   8.910   2.939
 6210SOL    HW218657   1.731   8.885   3.048
 6211SOL     OW18658   0.317   7.995   3.142
 6211SOL    HW118659   0.355   7.936   3.214
 6211SOL    HW218660   0.357   7.969   3.054
 6212SOL     OW18661   0.812   9.034   2.549
 6212SOL    HW118662   0.844   9.044   2.455
 6212SOL    HW218663   0.733   8.972   2.551
 6213SOL     OW18664   1.424   7.662   2.974
 6213SOL    HW118665   1.476   7.597   3.029
 6213SOL    HW218666   1.375   7.725   3.035
 6214SOL     OW18667   1.001   7.482   3.016
 6214SOL    HW118668   0.938   7.410   2.985
 6214SOL    HW218669   1.094   7.446   3.016
 6215SOL     OW18670   0.770   8.778   2.163
 6215SOL    HW118671   0.724   8.691   2.180
 6215SOL    HW218672   0.861   8.775   2.204
 6216SOL     OW18673   0.618   9.015   3.146
 6216SOL    HW118674   0.613   9.097   3.203
 6216SOL    HW218675   0.707   9.012   3.101
 6217SOL     OW18676   1.352   7.500   2.030
 6217SOL    HW118677   1.387   7.459   1.946
 6217SOL    HW218678   1.262   7.462   2.050
 6218SOL     OW18679   1.300   7.901   2.553
 6218SOL    HW118680   1.241   7.981   2.557
 6218SOL    HW218681   1.315   7.866   2.646
 6219SOL     OW18682   1.593   7.669   2.744
 6219SOL    HW118683   1.509   7.668   2.798
 6219SOL    HW218684   1.595   7.752   2.688
 6220SOL     OW18685   0.039   8.525   2.162
 6220SOL    HW118686   0.138   8.514   2.153
 6220SOL    HW218687  -0.001   8.439   2.194
 6221SOL     OW18688   0.875   9.094   2.199
 6221SOL    HW118689   0.798   9.059   2.145
 6221SOL    HW218690   0.843   9.165   2.261
 6222SOL     OW18691   0.230   8.076   3.837
 6222SOL    HW118692   0.137   8.074   3.874
 6222SOL    HW218693   0.231   8.037   3.745
 6223SOL     OW18694   0.225   7.723   4.720
 6223SOL    HW118695   0.260   7.706   4.812
 6223SOL    HW218696   0.137   7.678   4.708
 6224SOL     OW18697   0.019   7.816   4.371
 6224SOL    HW118698  -0.063   7.859   4.410
 6224SOL    HW218699  -0.009   7.743   4.308
 6225SOL     OW18700   0.569   8.723   4.889
 6225SOL    HW118701   0.476   8.716   4.852
 6225SOL    HW218702   0.580   8.812   4.933
 6226SOL     OW18703   1.555   8.959   4.427
 6226SOL    HW118704   1.498   8.943   4.508
 6226SOL    HW218705   1.496   8.969   4.347
 6227SOL     OW18706   1.135   8.151   4.441
 6227SOL    HW118707   1.192   8.229   4.416
 6227SOL    HW218708   1.075   8.177   4.517
 6228SOL     OW18709   1.755   8.055   3.955
 6228SOL    HW118710   1.743   8.042   3.856
 6228SOL    HW218711   1.725   7.974   4.004
 6229SOL     OW18712   0.768   8.592   4.747
 6229SOL    HW118713   0.690   8.609   4.807
 6229SOL    HW218714   0.802   8.679   4.711
 6230SOL     OW18715   0.850   8.246   5.547
 6230SOL    HW118716   0.846   8.322   5.612
 6230SOL    HW218717   0.872   8.282   5.456
 6231SOL     OW18718   0.685   8.460   4.389
 6231SOL    HW118719   0.754   8.444   4.459
 6231SOL    HW218720   0.612   8.517   4.427
 6232SOL     OW18721   0.686   8.609   5.527
 6232SOL    HW118722   0.746   8.688   5.541
 6232SOL    HW218723   0.600   8.640   5.486
 6233SOL     OW18724   0.335   8.883   4.785
 6233SOL    HW118725   0.257   8.852   4.732
 6233SOL    HW218726   0.393   8.941   4.728
 6234SOL     OW18727   1.460   8.953   5.063
 6234SOL    HW118728   1.484   9.047   5.089
 6234SOL    HW218729   1.444   8.899   5.145
 6235SOL     OW18730   0.438   7.840   5.223
 6235SOL    HW118731   0.520   7.784   5.232
 6235SOL    HW218732   0.357   7.782   5.227
 6236SOL     OW18733   1.603   7.895   4.461
 6236SOL    HW118734   1.529   7.941   4.411
 6236SOL    HW218735   1.654   7.963   4.514
 6237SOL     OW18736   0.231   9.161   4.207
 6237SOL    HW118737   0.265   9.238   4.261
 6237SOL    HW218738   0.275   9.161   4.117
 6238SOL     OW18739   1.127   8.789   5.414
 6238SOL    HW118740   1.174   8.789   5.502
 6238SOL    HW218741   1.079   8.702   5.403
 6239SOL     OW18742   0.230   8.882   4.262
 6239SOL    HW118743   0.204   8.978   4.262
 6239SOL    HW218744   0.159   8.828   4.307
 6240SOL     OW18745   0.240   8.539   4.610
 6240SOL    HW118746   0.254   8.455   4.662
 6240SOL    HW218747   0.185   8.603   4.665
 6241SOL     OW18748   0.620   9.234   5.163
 6241SOL    HW118749   0.528   9.217   5.198
 6241SOL    HW218750   0.648   9.326   5.189
 6242SOL     OW18751   0.606   8.412   3.847
 6242SOL    HW118752   0.613   8.496   3.793
 6242SOL    HW218753   0.652   8.425   3.935
 6243SOL     OW18754   1.594   7.562   5.204
 6243SOL    HW118755   1.576   7.629   5.132
 6243SOL    HW218756   1.591   7.608   5.293
 6244SOL     OW18757   0.122   8.091   4.287
 6244SOL    HW118758   0.077   8.003   4.304
 6244SOL    HW218759   0.121   8.145   4.371
 6245SOL     OW18760   1.842   9.215   4.083
 6245SOL    HW118761   1.896   9.186   4.163
 6245SOL    HW218762   1.872   9.305   4.054
 6246SOL     OW18763   0.027   9.044   3.841
 6246SOL    HW118764   0.008   8.948   3.862
 6246SOL    HW218765  -0.006   9.102   3.916
 6247SOL     OW18766   1.689   8.370   4.336
 6247SOL    HW118767   1.784   8.341   4.344
 6247SOL    HW218768   1.681   8.435   4.261
 6248SOL     OW18769   1.641   8.556   4.156
 6248SOL    HW118770   1.727   8.558   4.104
 6248SOL    HW218771   1.655   8.603   4.244
 6249SOL     OW18772   0.113   8.185   5.321
 6249SOL    HW118773   0.201   8.172   5.366
 6249SOL    HW218774   0.100   8.282   5.299
 6250SOL     OW18775   0.613   8.813   4.450
 6250SOL    HW118776   0.564   8.726   4.459
 6250SOL    HW218777   0.590   8.856   4.363
 6251SOL     OW18778   1.293   8.676   5.147
 6251SOL    HW118779   1.330   8.603   5.089
 6251SOL    HW218780   1.345   8.681   5.232
 6252SOL     OW18781   0.809   7.452   4.226
 6252SOL    HW118782   0.849   7.543   4.217
 6252SOL    HW218783   0.709   7.460   4.232
 6253SOL     OW18784   0.197   8.424   4.988
 6253SOL    HW118785   0.286   8.379   4.974
 6253SOL    HW218786   0.124   8.359   4.969
 6254SOL     OW18787   1.525   8.447   3.914
 6254SOL    HW118788   1.462   8.371   3.927
 6254SOL    HW218789   1.573   8.465   4.000
 6255SOL     OW18790   1.187   9.240   5.340
 6255SOL    HW118791   1.211   9.300   5.264
 6255SOL    HW218792   1.194   9.145   5.310
 6256SOL     OW18793   0.317   7.699   5.525
 6256SOL    HW118794   0.388   7.770   5.531
 6256SOL    HW218795   0.229   7.738   5.553
 6257SOL     OW18796   1.466   8.865   4.677
 6257SOL    HW118797   1.407   8.871   4.757
 6257SOL    HW218798   1.451   8.777   4.631
 6258SOL     OW18799   1.667   9.162   4.296
 6258SOL    HW118800   1.626   9.139   4.208
 6258SOL    HW218801   1.649   9.088   4.361
 6259SOL     OW18802   0.598   8.177   3.994
 6259SOL    HW118803   0.622   8.246   3.926
 6259SOL    HW218804   0.520   8.210   4.048
 6260SOL     OW18805   1.281   7.793   4.668
 6260SOL    HW118806   1.195   7.743   4.655
 6260SOL    HW218807   1.343   7.739   4.724
 6261SOL     OW18808   1.576   9.110   4.031
 6261SOL    HW118809   1.665   9.156   4.034
 6261SOL    HW218810   1.555   9.086   3.936
 6262SOL     OW18811   0.807   8.053   5.189
 6262SOL    HW118812   0.760   8.050   5.278
 6262SOL    HW218813   0.756   7.998   5.123
 6263SOL     OW18814   1.394   7.917   5.398
 6263SOL    HW118815   1.374   7.960   5.486
 6263SOL    HW218816   1.472   7.855   5.407
 6264SOL     OW18817   0.973   8.338   5.296
 6264SOL    HW118818   1.019   8.254   5.267
 6264SOL    HW218819   0.917   8.372   5.221
 6265SOL     OW18820   0.991   7.858   4.966
 6265SOL    HW118821   0.914   7.892   5.020
 6265SOL    HW218822   0.957   7.807   4.887
 6266SOL     OW18823   1.041   8.149   4.153
 6266SOL    HW118824   1.067   8.145   4.249
 6266SOL    HW218825   0.956   8.098   4.139
 6267SOL     OW18826   0.076   8.259   4.513
 6267SOL    HW118827   0.175   8.247   4.522
 6267SOL    HW218828   0.052   8.354   4.534
 6268SOL     OW18829   0.130   9.269   5.295
 6268SOL    HW118830   0.120   9.254   5.394
 6268SOL    HW218831   0.044   9.305   5.259
 6269SOL     OW18832   0.865   7.796   3.919
 6269SOL    HW118833   0.924   7.859   3.870
 6269SOL    HW218834   0.884   7.702   3.890
 6270SOL     OW18835   1.719   8.033   5.555
 6270SOL    HW118836   1.693   8.122   5.519
 6270SOL    HW218837   1.717   7.965   5.482
 6271SOL     OW18838   1.362   8.592   4.269
 6271SOL    HW118839   1.445   8.563   4.221
 6271SOL    HW218840   1.313   8.659   4.213
 6272SOL     OW18841   0.550   7.644   4.609
 6272SOL    HW118842   0.545   7.639   4.709
 6272SOL    HW218843   0.552   7.740   4.580
 6273SOL     OW18844   1.008   8.904   4.201
 6273SOL    HW118845   0.962   8.976   4.149
 6273SOL    HW218846   1.004   8.924   4.299
 6274SOL     OW18847   0.351   9.249   4.577
 6274SOL    HW118848   0.401   9.163   4.583
 6274SOL    HW218849   0.416   9.326   4.574
 6275SOL     OW18850   1.795   8.514   4.597
 6275SOL    HW118851   1.733   8.499   4.521
 6275SOL    HW218852   1.743   8.525   4.682
 6276SOL     OW18853   1.227   8.998   5.230
 6276SOL    HW118854   1.233   8.921   5.294
 6276SOL    HW218855   1.175   8.972   5.150
 6277SOL     OW18856   0.321   8.391   3.966
 6277SOL    HW118857   0.403   8.430   3.924
 6277SOL    HW218858   0.294   8.309   3.917
 6278SOL     OW18859   1.458   8.183   4.452
 6278SOL    HW118860   1.453   8.118   4.527
 6278SOL    HW218861   1.538   8.242   4.465
 6279SOL     OW18862   0.461   8.714   5.451
 6279SOL    HW118863   0.411   8.715   5.365
 6279SOL    HW218864   0.398   8.696   5.527
 6280SOL     OW18865   1.111   9.224   3.961
 6280SOL    HW118866   1.051   9.162   4.011
 6280SOL    HW218867   1.142   9.180   3.876
 6281SOL     OW18868   0.202   7.733   5.222
 6281SOL    HW118869   0.122   7.793   5.209
 6281SOL    HW218870   0.192   7.684   5.308
 6282SOL     OW18871   1.632   8.825   3.805
 6282SOL    HW118872   1.600   8.919   3.795
 6282SOL    HW218873   1.556   8.762   3.793
 6283SOL     OW18874   0.464   9.191   4.047
 6283SOL    HW118875   0.497   9.230   4.133
 6283SOL    HW218876   0.540   9.184   3.982
 6284SOL     OW18877   1.400   7.555   4.150
 6284SOL    HW118878   1.376   7.518   4.060
 6284SOL    HW218879   1.499   7.571   4.154
 6285SOL     OW18880   0.249   9.233   4.965
 6285SOL    HW118881   0.306   9.168   5.015
 6285SOL    HW218882   0.233   9.200   4.872
 6286SOL     OW18883   0.940   9.146   4.628
 6286SOL    HW118884   1.020   9.089   4.649
 6286SOL    HW218885   0.891   9.106   4.551
 6287SOL     OW18886   0.382   8.148   4.204
 6287SOL    HW118887   0.427   8.058   4.201
 6287SOL    HW218888   0.288   8.137   4.237
 6288SOL     OW18889   1.547   7.670   5.453
 6288SOL    HW118890   1.542   7.707   5.545
 6288SOL    HW218891   1.475   7.601   5.441
 6289SOL     OW18892   0.614   7.570   3.841
 6289SOL    HW118893   0.712   7.548   3.848
 6289SOL    HW218894   0.583   7.553   3.748
 6290SOL     OW18895   0.781   7.712   5.473
 6290SOL    HW118896   0.848   7.651   5.516
 6290SOL    HW218897   0.708   7.731   5.538
 6291SOL     OW18898   0.888   8.962   4.919
 6291SOL    HW118899   0.865   8.937   4.825
 6291SOL    HW218900   0.949   8.893   4.958
 6292SOL     OW18901   1.351   8.038   5.157
 6292SOL    HW118902   1.379   7.995   5.242
 6292SOL    HW218903   1.376   8.134   5.158
 6293SOL     OW18904   0.803   8.850   4.648
 6293SOL    HW118905   0.893   8.864   4.606
 6293SOL    HW218906   0.732   8.852   4.577
 6294SOL     OW18907   0.922   7.951   4.623
 6294SOL    HW118908   0.897   7.942   4.527
 6294SOL    HW218909   0.970   7.869   4.654
 6295SOL     OW18910   0.539   7.512   4.236
 6295SOL    HW118911   0.458   7.513   4.294
 6295SOL    HW218912   0.542   7.595   4.181
 6296SOL     OW18913   1.434   8.636   3.765
 6296SOL    HW118914   1.466   8.560   3.822
 6296SOL    HW218915   1.342   8.663   3.795
 6297SOL     OW18916   0.297   7.483   3.895
 6297SOL    HW118917   0.346   7.567   3.874
 6297SOL    HW218918   0.359   7.418   3.940
 6298SOL     OW18919   0.935   7.684   4.204
 6298SOL    HW118920   0.887   7.725   4.126
 6298SOL    HW218921   1.034   7.682   4.185
 6299SOL     OW18922   1.076   8.131   5.188
 6299SOL    HW118923   0.996   8.070   5.191
 6299SOL    HW218924   1.157   8.078   5.164
 6300SOL     OW18925   1.227   9.018   4.517
 6300SOL    HW118926   1.248   9.092   4.452
 6300SOL    HW218927   1.295   9.018   4.590
 6301SOL     OW18928   0.459   8.600   4.465
 6301SOL    HW118929   0.388   8.573   4.530
 6301SOL    HW218930   0.433   8.572   4.372
 6302SOL     OW18931   1.271   9.245   4.315
 6302SOL    HW118932   1.315   9.309   4.251
 6302SOL    HW218933   1.221   9.297   4.385
 6303SOL     OW18934   1.032   7.997   3.740
 6303SOL    HW118935   0.991   8.079   3.701
 6303SOL    HW218936   1.096   8.023   3.813
 6304SOL     OW18937   0.078   8.004   5.110
 6304SOL    HW118938   0.170   8.003   5.069
 6304SOL    HW218939   0.072   8.078   5.177
 6305SOL     OW18940   0.561   7.670   4.871
 6305SOL    HW118941   0.599   7.586   4.908
 6305SOL    HW218942   0.473   7.689   4.915
 6306SOL     OW18943   0.866   7.902   4.366
 6306SOL    HW118944   0.834   7.974   4.304
 6306SOL    HW218945   0.890   7.821   4.313
 6307SOL     OW18946   1.017   7.487   4.477
 6307SOL    HW118947   0.945   7.492   4.408
 6307SOL    HW218948   0.993   7.418   4.546
 6308SOL     OW18949   1.429   8.621   4.591
 6308SOL    HW118950   1.374   8.537   4.584
 6308SOL    HW218951   1.455   8.650   4.499
 6309SOL     OW18952   1.466   8.038   4.716
 6309SOL    HW118953   1.436   7.943   4.723
 6309SOL    HW218954   1.539   8.054   4.782
 6310SOL     OW18955   1.857   8.281   4.101
 6310SOL    HW118956   1.899   8.217   4.165
 6310SOL    HW218957   1.819   8.230   4.023
 6311SOL     OW18958   0.488   8.833   3.898
 6311SOL    HW118959   0.401   8.818   3.945
 6311SOL    HW218960   0.471   8.859   3.803
 6312SOL     OW18961   1.664   8.728   4.381
 6312SOL    HW118962   1.763   8.736   4.395
 6312SOL    HW218963   1.619   8.812   4.412
 6313SOL     OW18964   1.390   8.023   3.802
 6313SOL    HW118965   1.336   8.002   3.883
 6313SOL    HW218966   1.481   7.982   3.811
 6314SOL     OW18967   0.527   7.704   4.052
 6314SOL    HW118968   0.554   7.645   3.977
 6314SOL    HW218969   0.527   7.799   4.021
 6315SOL     OW18970   1.754   8.671   5.312
 6315SOL    HW118971   1.845   8.632   5.299
 6315SOL    HW218972   1.762   8.767   5.336
 6316SOL     OW18973   1.064   8.795   5.064
 6316SOL    HW118974   0.984   8.772   5.119
 6316SOL    HW218975   1.147   8.769   5.113
 6317SOL     OW18976   1.592   9.077   5.349
 6317SOL    HW118977   1.619   9.111   5.259
 6317SOL    HW218978   1.671   9.039   5.395
 6318SOL     OW18979   1.111   8.643   4.824
 6318SOL    HW118980   1.071   8.687   4.905
 6318SOL    HW218981   1.070   8.680   4.741
 6319SOL     OW18982   1.638   8.547   4.803
 6319SOL    HW118983   1.643   8.628   4.862
 6319SOL    HW218984   1.552   8.549   4.752
 6320SOL     OW18985   0.915   7.537   5.126
 6320SOL    HW118986   0.940   7.517   5.031
 6320SOL    HW218987   0.987   7.593   5.168
 6321SOL     OW18988   0.980   8.564   5.443
 6321SOL    HW118989   0.881   8.570   5.453
 6321SOL    HW218990   1.003   8.484   5.387
 6322SOL     OW18991   0.705   8.498   4.092
 6322SOL    HW118992   0.691   8.505   4.191
 6322SOL    HW218993   0.789   8.447   4.074
 6323SOL     OW18994   0.410   8.261   4.975
 6323SOL    HW118995   0.496   8.273   5.025
 6323SOL    HW218996   0.368   8.174   5.002
 6324SOL     OW18997   1.274   7.834   4.986
 6324SOL    HW118998   1.295   7.908   5.050
 6324SOL    HW218999   1.185   7.851   4.943
 6325SOL     OW19000   0.064   9.012   5.055
 6325SOL    HW119001   0.018   9.094   5.021
 6325SOL    HW219002   0.162   9.031   5.064
 6326SOL     OW19003   0.367   8.548   4.225
 6326SOL    HW119004   0.360   8.631   4.169
 6326SOL    HW219005   0.371   8.468   4.165
 6327SOL     OW19006   0.566   7.985   4.589
 6327SOL    HW119007   0.578   8.051   4.515
 6327SOL    HW219008   0.612   8.019   4.672
 6328SOL     OW19009   1.252   8.796   4.112
 6328SOL    HW119010   1.302   8.873   4.152
 6328SOL    HW219011   1.157   8.798   4.144
 6329SOL     OW19012   1.272   8.893   4.866
 6329SOL    HW119013   1.319   8.906   4.953
 6329SOL    HW219014   1.206   8.819   4.875
 6330SOL     OW19015   1.582   8.087   4.196
 6330SOL    HW119016   1.551   8.148   4.269
 6330SOL    HW219017   1.632   8.139   4.127
 6331SOL     OW19018   0.354   8.958   5.053
 6331SOL    HW119019   0.333   8.914   4.966
 6331SOL    HW219020   0.451   8.984   5.056
 6332SOL     OW19021   0.402   8.199   5.322
 6332SOL    HW119022   0.470   8.254   5.275
 6332SOL    HW219023   0.442   8.111   5.349
 6333SOL     OW19024   1.587   8.227   5.394
 6333SOL    HW119025   1.495   8.265   5.389
 6333SOL    HW219026   1.647   8.274   5.329
 6334SOL     OW19027   1.013   7.553   5.494
 6334SOL    HW119028   1.019   7.638   5.442
 6334SOL    HW219029   1.045   7.477   5.437
 6335SOL     OW19030   0.504   7.498   5.464
 6335SOL    HW119031   0.462   7.441   5.394
 6335SOL    HW219032   0.438   7.567   5.496
 6336SOL     OW19033   0.573   8.318   4.753
 6336SOL    HW119034   0.617   8.407   4.744
 6336SOL    HW219035   0.510   8.318   4.830
 6337SOL     OW19036   1.360   8.310   4.769
 6337SOL    HW119037   1.285   8.310   4.703
 6337SOL    HW219038   1.397   8.218   4.778
 6338SOL     OW19039   1.209   7.973   3.999
 6338SOL    HW119040   1.222   7.889   4.053
 6338SOL    HW219041   1.180   8.047   4.059
 6339SOL     OW19042   0.307   7.661   4.955
 6339SOL    HW119043   0.284   7.698   5.045
 6339SOL    HW219044   0.277   7.566   4.949
 6340SOL     OW19045   0.037   8.758   5.006
 6340SOL    HW119046   0.090   8.709   5.074
 6340SOL    HW219047   0.059   8.856   5.011
 6341SOL     OW19048   0.732   8.082   4.788
 6341SOL    HW119049   0.791   8.056   4.712
 6341SOL    HW219050   0.704   8.178   4.777
 6342SOL     OW19051   1.728   8.383   5.578
 6342SOL    HW119052   1.682   8.376   5.489
 6342SOL    HW219053   1.666   8.427   5.644
 6343SOL     OW19054   0.307   7.511   4.342
 6343SOL    HW119055   0.296   7.605   4.375
 6343SOL    HW219056   0.302   7.448   4.419
 6344SOL     OW19057   1.622   7.815   4.098
 6344SOL    HW119058   1.624   7.739   4.162
 6344SOL    HW219059   1.574   7.892   4.138
 6345SOL     OW19060   1.023   8.214   4.690
 6345SOL    HW119061   1.038   8.235   4.786
 6345SOL    HW219062   0.993   8.119   4.681
 6346SOL     OW19063   0.980   9.021   5.424
 6346SOL    HW119064   0.960   9.065   5.336
 6346SOL    HW219065   1.019   8.930   5.408
 6347SOL     OW19066   1.859   8.966   5.329
 6347SOL    HW119067   1.873   8.993   5.234
 6347SOL    HW219068   1.942   8.988   5.382
 6348SOL     OW19069   0.350   8.346   5.528
 6348SOL    HW119070   0.426   8.390   5.576
 6348SOL    HW219071   0.385   8.299   5.446
 6349SOL     OW19072   1.540   7.722   3.849
 6349SOL    HW119073   1.479   7.647   3.872
 6349SOL    HW219074   1.562   7.774   3.932
 6350SOL     OW19075   1.303   8.286   3.766
 6350SOL    HW119076   1.337   8.193   3.781
 6350SOL    HW219077   1.321   8.313   3.671
 6351SOL     OW19078   1.068   8.781   4.573
 6351SOL    HW119079   1.075   8.697   4.518
 6351SOL    HW219080   1.130   8.850   4.537
 6352SOL     OW19081   0.319   8.258   4.673
 6352SOL    HW119082   0.412   8.294   4.678
 6352SOL    HW219083   0.313   8.173   4.725
 6353SOL     OW19084   0.339   7.957   4.730
 6353SOL    HW119085   0.287   7.874   4.713
 6353SOL    HW219086   0.416   7.962   4.666
 6354SOL     OW19087   1.138   7.828   5.402
 6354SOL    HW119088   1.093   7.891   5.466
 6354SOL    HW219089   1.231   7.859   5.385
 6355SOL     OW19090   1.160   7.655   5.201
 6355SOL    HW119091   1.160   7.719   5.278
 6355SOL    HW219092   1.188   7.703   5.118
 6356SOL     OW19093   0.008   8.774   3.924
 6356SOL    HW119094  -0.085   8.795   3.893
 6356SOL    HW219095   0.018   8.675   3.937
 6357SOL     OW19096   0.088   9.249   4.651
 6357SOL    HW119097   0.046   9.163   4.624
 6357SOL    HW219098   0.182   9.252   4.617
 6358SOL     OW19099   0.504   9.016   4.634
 6358SOL    HW119100   0.570   9.090   4.643
 6358SOL    HW219101   0.548   8.937   4.592
 6359SOL     OW19102   1.002   8.244   4.962
 6359SOL    HW119103   1.043   8.212   5.048
 6359SOL    HW219104   0.906   8.217   4.959
 6360SOL     OW19105   0.040   7.992   4.838
 6360SOL    HW119106   0.125   7.959   4.797
 6360SOL    HW219107   0.053   8.007   4.936
 6361SOL     OW19108   0.189   7.968   5.446
 6361SOL    HW119109   0.248   7.928   5.376
 6361SOL    HW219110   0.131   8.039   5.405
 6362SOL     OW19111   1.369   8.398   5.384
 6362SOL    HW119112   1.408   8.487   5.404
 6362SOL    HW219113   1.379   8.378   5.287
 6363SOL     OW19114   0.815   8.020   4.049
 6363SOL    HW119115   0.822   7.931   4.003
 6363SOL    HW219116   0.721   8.054   4.041
 6364SOL     OW19117   1.657   8.052   4.930
 6364SOL    HW119118   1.619   7.983   4.992
 6364SOL    HW219119   1.739   8.016   4.886
 6365SOL     OW19120   0.252   9.012   5.468
 6365SOL    HW119121   0.222   9.069   5.544
 6365SOL    HW219122   0.245   8.915   5.494
 6366SOL     OW19123   0.671   7.912   4.993
 6366SOL    HW119124   0.637   7.823   4.963
 6366SOL    HW219125   0.697   7.966   4.913
 6367SOL     OW19126   0.930   9.126   5.189
 6367SOL    HW119127   0.906   9.108   5.094
 6367SOL    HW219128   0.960   9.220   5.199
 6368SOL     OW19129   0.473   7.948   3.915
 6368SOL    HW119130   0.534   8.028   3.919
 6368SOL    HW219131   0.378   7.979   3.922
 6369SOL     OW19132   0.159   8.585   5.190
 6369SOL    HW119133   0.181   8.524   5.266
 6369SOL    HW219134   0.169   8.536   5.104
 6370SOL     OW19135   1.347   8.507   4.958
 6370SOL    HW119136   1.371   8.444   4.884
 6370SOL    HW219137   1.257   8.547   4.940
 6371SOL     OW19138   1.302   8.303   4.033
 6371SOL    HW119139   1.216   8.272   4.075
 6371SOL    HW219140   1.298   8.289   3.934
 6372SOL     OW19141   1.759   9.195   4.878
 6372SOL    HW119142   1.820   9.225   4.805
 6372SOL    HW219143   1.721   9.106   4.856
 6373SOL     OW19144   1.252   9.179   4.852
 6373SOL    HW119145   1.336   9.184   4.798
 6373SOL    HW219146   1.229   9.083   4.870
 6374SOL     OW19147   0.083   8.706   4.746
 6374SOL    HW119148   0.078   8.705   4.846
 6374SOL    HW219149   0.000   8.665   4.708
 6375SOL     OW19150   0.688   9.110   5.440
 6375SOL    HW119151   0.632   9.191   5.449
 6375SOL    HW219152   0.740   9.114   5.354
 6376SOL     OW19153   1.726   7.583   4.247
 6376SOL    HW119154   1.799   7.566   4.180
 6376SOL    HW219155   1.695   7.496   4.285
 6377SOL     OW19156   1.388   9.021   4.201
 6377SOL    HW119157   1.455   9.033   4.127
 6377SOL    HW219158   1.348   9.110   4.224
 6378SOL     OW19159   0.130   9.242   5.575
 6378SOL    HW119160   0.089   9.168   5.628
 6378SOL    HW219161   0.194   9.293   5.633
 6379SOL     OW19162   1.280   8.375   4.396
 6379SOL    HW119163   1.340   8.294   4.398
 6379SOL    HW219164   1.320   8.444   4.336
 6380SOL     OW19165   0.830   8.721   5.146
 6380SOL    HW119166   0.825   8.754   5.241
 6380SOL    HW219167   0.744   8.740   5.100
 6381SOL     OW19168   0.672   9.064   3.878
 6381SOL    HW119169   0.681   9.074   3.779
 6381SOL    HW219170   0.632   8.975   3.899
 6382SOL     OW19171   1.650   9.168   5.118
 6382SOL    HW119172   1.703   9.178   5.034
 6382SOL    HW219173   1.623   9.258   5.152
 6383SOL     OW19174   1.841   7.623   4.687
 6383SOL    HW119175   1.880   7.538   4.651
 6383SOL    HW219176   1.743   7.625   4.668
 6384SOL     OW19177   0.263   7.774   4.444
 6384SOL    HW119178   0.184   7.825   4.410
 6384SOL    HW219179   0.254   7.759   4.542
 6385SOL     OW19180   1.194   9.060   3.755
 6385SOL    HW119181   1.200   8.967   3.792
 6385SOL    HW219182   1.135   9.060   3.675
 6386SOL     OW19183   0.822   8.450   5.096
 6386SOL    HW119184   0.862   8.449   5.004
 6386SOL    HW219185   0.832   8.542   5.136
 6387SOL     OW19186   0.916   8.358   4.015
 6387SOL    HW119187   0.979   8.396   3.947
 6387SOL    HW219188   0.956   8.275   4.054
 6388SOL     OW19189   1.504   9.055   3.768
 6388SOL    HW119190   1.412   9.092   3.775
 6388SOL    HW219191   1.542   9.075   3.678
 6389SOL     OW19192   0.372   8.736   5.214
 6389SOL    HW119193   0.359   8.829   5.180
 6389SOL    HW219194   0.288   8.684   5.201
 6390SOL     OW19195   1.614   8.740   5.013
 6390SOL    HW119196   1.674   8.743   5.093
 6390SOL    HW219197   1.539   8.804   5.026
 6391SOL     OW19198   1.039   8.546   4.420
 6391SOL    HW119199   0.969   8.499   4.474
 6391SOL    HW219200   1.098   8.478   4.377
 6392SOL     OW19201   1.014   7.684   4.695
 6392SOL    HW119202   1.006   7.648   4.602
 6392SOL    HW219203   1.012   7.608   4.760
 6393SOL     OW19204   0.590   8.935   4.215
 6393SOL    HW119205   0.632   8.877   4.145
 6393SOL    HW219206   0.546   9.014   4.171
 6394SOL     OW19207   1.709   7.833   5.105
 6394SOL    HW119208   1.782   7.902   5.109
 6394SOL    HW219209   1.737   7.758   5.046
 6395SOL     OW19210   0.255   8.796   4.014
 6395SOL    HW119211   0.159   8.797   3.987
 6395SOL    HW219212   0.267   8.849   4.098
 6396SOL     OW19213   0.105   8.461   5.450
 6396SOL    HW119214   0.028   8.428   5.504
 6396SOL    HW219215   0.190   8.431   5.492
 6397SOL     OW19216   0.672   7.651   5.213
 6397SOL    HW119217   0.762   7.635   5.173
 6397SOL    HW219218   0.680   7.656   5.312
 6398SOL     OW19219   0.075   7.793   3.757
 6398SOL    HW119220  -0.017   7.765   3.728
 6398SOL    HW219221   0.106   7.870   3.701
 6399SOL     OW19222   1.440   8.304   5.122
 6399SOL    HW119223   1.383   8.356   5.059
 6399SOL    HW219224   1.536   8.316   5.098
 6400SOL     OW19225   0.072   7.614   4.042
 6400SOL    HW119226   0.055   7.697   3.988
 6400SOL    HW219227   0.162   7.577   4.020
 6401SOL     OW19228   1.183   8.783   3.843
 6401SOL    HW119229   1.084   8.772   3.845
 6401SOL    HW219230   1.217   8.798   3.936
 6402SOL     OW19231   0.613   8.290   5.155
 6402SOL    HW119232   0.669   8.371   5.138
 6402SOL    HW219233   0.672   8.210   5.158
 6403SOL     OW19234   1.493   9.215   4.683
 6403SOL    HW119235   1.526   9.279   4.614
 6403SOL    HW219236   1.559   9.209   4.758
 6404SOL     OW19237   0.716   8.013   5.432
 6404SOL    HW119238   0.735   8.078   5.506
 6404SOL    HW219239   0.776   7.933   5.441
 6405SOL     OW19240   1.450   8.668   5.357
 6405SOL    HW119241   1.441   8.658   5.456
 6405SOL    HW219242   1.546   8.661   5.331
 6406SOL     OW19243   0.390   9.189   5.284
 6406SOL    HW119244   0.299   9.230   5.282
 6406SOL    HW219245   0.383   9.095   5.316
 6407SOL     OW19246   1.674   8.331   4.978
 6407SOL    HW119247   1.647   8.242   4.941
 6407SOL    HW219248   1.675   8.399   4.905
 6408SOL     OW19249   1.225   7.773   4.173
 6408SOL    HW119250   1.290   7.699   4.162
 6408SOL    HW219251   1.245   7.823   4.257
 6409SOL     OW19252   0.594   8.193   4.376
 6409SOL    HW119253   0.644   8.278   4.357
 6409SOL    HW219254   0.506   8.195   4.328
 6410SOL     OW19255   1.777   7.790   5.366
 6410SOL    HW119256   1.760   7.821   5.272
 6410SOL    HW219257   1.693   7.753   5.404
 6411SOL     OW19258   1.730   8.382   5.241
 6411SOL    HW119259   1.768   8.473   5.256
 6411SOL    HW219260   1.722   8.365   5.142
 6412SOL     OW19261   0.859   8.822   3.740
 6412SOL    HW119262   0.813   8.837   3.828
 6412SOL    HW219263   0.903   8.907   3.710
 6413SOL     OW19264   0.661   9.238   4.677
 6413SOL    HW119265   0.615   9.326   4.664
 6413SOL    HW219266   0.760   9.250   4.670
 6414SOL     OW19267   0.859   8.404   4.585
 6414SOL    HW119268   0.913   8.335   4.633
 6414SOL    HW219269   0.827   8.473   4.651
 6415SOL     OW19270   1.083   8.432   3.811
 6415SOL    HW119271   1.060   8.485   3.729
 6415SOL    HW219272   1.164   8.376   3.792
 6416SOL     OW19273   1.861   9.017   4.575
 6416SOL    HW119274   1.790   9.005   4.505
 6416SOL    HW219275   1.862   8.938   4.635
 6417SOL     OW19276   0.221   8.762   5.568
 6417SOL    HW119277   0.156   8.689   5.547
 6417SOL    HW219278   0.225   8.776   5.666
 6418SOL     OW19279   0.079   8.688   4.377
 6418SOL    HW119280   0.078   8.641   4.465
 6418SOL    HW219281   0.161   8.660   4.326
 6419SOL     OW19282   0.672   8.839   5.348
 6419SOL    HW119283   0.594   8.789   5.386
 6419SOL    HW219284   0.669   8.934   5.379
 6420SOL     OW19285   1.824   7.640   4.951
 6420SOL    HW119286   1.820   7.550   4.995
 6420SOL    HW219287   1.827   7.629   4.852
 6421SOL     OW19288   0.428   7.872   4.244
 6421SOL    HW119289   0.458   7.800   4.182
 6421SOL    HW219290   0.389   7.832   4.327
 6422SOL     OW19291   1.705   8.935   4.828
 6422SOL    HW119292   1.612   8.910   4.801
 6422SOL    HW219293   1.731   8.885   4.910
 6423SOL     OW19294   0.317   7.995   5.004
 6423SOL    HW119295   0.355   7.936   5.076
 6423SOL    HW219296   0.357   7.969   4.916
 6424SOL     OW19297   0.812   9.034   4.411
 6424SOL    HW119298   0.844   9.044   4.317
 6424SOL    HW219299   0.733   8.972   4.413
 6425SOL     OW19300   1.424   7.662   4.836
 6425SOL    HW119301   1.476   7.597   4.891
 6425SOL    HW219302   1.375   7.725   4.897
 6426SOL     OW19303   1.001   7.482   4.878
 6426SOL    HW119304   0.938   7.410   4.847
 6426SOL    HW219305   1.094   7.446   4.878
 6427SOL     OW19306   0.770   8.778   4.025
 6427SOL    HW119307   0.724   8.691   4.042
 6427SOL    HW219308   0.861   8.775   4.066
 6428SOL     OW19309   0.618   9.015   5.008
 6428SOL    HW119310   0.613   9.097   5.065
 6428SOL    HW219311   0.707   9.012   4.963
 6429SOL     OW19312   1.352   7.500   3.892
 6429SOL    HW119313   1.387   7.459   3.808
 6429SOL    HW219314   1.262   7.462   3.912
 6430SOL     OW19315   1.300   7.901   4.415
 6430SOL    HW119316   1.241   7.981   4.419
 6430SOL    HW219317   1.315   7.866   4.508
 6431SOL     OW19318   1.593   7.669   4.606
 6431SOL    HW119319   1.509   7.668   4.660
 6431SOL    HW219320   1.595   7.752   4.550
 6432SOL     OW19321   0.039   8.525   4.024
 6432SOL    HW119322   0.138   8.514   4.015
 6432SOL    HW219323  -0.001   8.439   4.056
 6433SOL     OW19324   0.875   9.094   4.061
 6433SOL    HW119325   0.798   9.059   4.007
 6433SOL    HW219326   0.843   9.165   4.123
 6434SOL     OW19327   0.230   8.076   5.699
 6434SOL    HW119328   0.137   8.074   5.736
 6434SOL    HW219329   0.231   8.037   5.607
 6435SOL     OW19330   0.225   7.723   6.582
 6435SOL    HW119331   0.260   7.706   6.674
 6435SOL    HW219332   0.137   7.678   6.570
 6436SOL     OW19333   0.019   7.816   6.233
 6436SOL    HW119334  -0.063   7.859   6.272
 6436SOL    HW219335  -0.009   7.743   6.170
 6437SOL     OW19336   0.569   8.723   6.751
 6437SOL    HW119337   0.476   8.716   6.714
 6437SOL    HW219338   0.580   8.812   6.795
 6438SOL     OW19339   1.555   8.959   6.289
 6438SOL    HW119340   1.498   8.943   6.370
 6438SOL    HW219341   1.496   8.969   6.209
 6439SOL     OW19342   1.135   8.151   6.303
 6439SOL    HW119343   1.192   8.229   6.278
 6439SOL    HW219344   1.075   8.177   6.379
 6440SOL     OW19345   1.755   8.055   5.817
 6440SOL    HW119346   1.743   8.042   5.718
 6440SOL    HW219347   1.725   7.974   5.866
 6441SOL     OW19348   0.768   8.592   6.609
 6441SOL    HW119349   0.690   8.609   6.669
 6441SOL    HW219350   0.802   8.679   6.573
 6442SOL     OW19351   0.850   8.246   7.409
 6442SOL    HW119352   0.846   8.322   7.474
 6442SOL    HW219353   0.872   8.282   7.318
 6443SOL     OW19354   0.685   8.460   6.251
 6443SOL    HW119355   0.754   8.444   6.321
 6443SOL    HW219356   0.612   8.517   6.289
 6444SOL     OW19357   0.686   8.609   7.389
 6444SOL    HW119358   0.746   8.688   7.403
 6444SOL    HW219359   0.600   8.640   7.348
 6445SOL     OW19360   0.335   8.883   6.647
 6445SOL    HW119361   0.257   8.852   6.594
 6445SOL    HW219362   0.393   8.941   6.590
 6446SOL     OW19363   1.460   8.953   6.925
 6446SOL    HW119364   1.484   9.047   6.951
 6446SOL    HW219365   1.444   8.899   7.007
 6447SOL     OW19366   0.438   7.840   7.085
 6447SOL    HW119367   0.520   7.784   7.094
 6447SOL    HW219368   0.357   7.782   7.089
 6448SOL     OW19369   1.603   7.895   6.323
 6448SOL    HW119370   1.529   7.941   6.273
 6448SOL    HW219371   1.654   7.963   6.376
 6449SOL     OW19372   0.231   9.161   6.069
 6449SOL    HW119373   0.265   9.238   6.123
 6449SOL    HW219374   0.275   9.161   5.979
 6450SOL     OW19375   1.127   8.789   7.276
 6450SOL    HW119376   1.174   8.789   7.364
 6450SOL    HW219377   1.079   8.702   7.265
 6451SOL     OW19378   0.230   8.882   6.124
 6451SOL    HW119379   0.204   8.978   6.124
 6451SOL    HW219380   0.159   8.828   6.169
 6452SOL     OW19381   0.240   8.539   6.472
 6452SOL    HW119382   0.254   8.455   6.524
 6452SOL    HW219383   0.185   8.603   6.527
 6453SOL     OW19384   0.620   9.234   7.025
 6453SOL    HW119385   0.528   9.217   7.060
 6453SOL    HW219386   0.648   9.326   7.051
 6454SOL     OW19387   0.606   8.412   5.709
 6454SOL    HW119388   0.613   8.496   5.655
 6454SOL    HW219389   0.652   8.425   5.797
 6455SOL     OW19390   1.594   7.562   7.066
 6455SOL    HW119391   1.576   7.629   6.994
 6455SOL    HW219392   1.591   7.608   7.155
 6456SOL     OW19393   0.122   8.091   6.149
 6456SOL    HW119394   0.077   8.003   6.166
 6456SOL    HW219395   0.121   8.145   6.233
 6457SOL     OW19396   1.842   9.215   5.945
 6457SOL    HW119397   1.896   9.186   6.025
 6457SOL    HW219398   1.872   9.305   5.916
 6458SOL     OW19399   0.027   9.044   5.703
 6458SOL    HW119400   0.008   8.948   5.724
 6458SOL    HW219401  -0.006   9.102   5.778
 6459SOL     OW19402   1.689   8.370   6.198
 6459SOL    HW119403   1.784   8.341   6.206
 6459SOL    HW219404   1.681   8.435   6.123
 6460SOL     OW19405   1.641   8.556   6.018
 6460SOL    HW119406   1.727   8.558   5.966
 6460SOL    HW219407   1.655   8.603   6.106
 6461SOL     OW19408   0.113   8.185   7.183
 6461SOL    HW119409   0.201   8.172   7.228
 6461SOL    HW219410   0.100   8.282   7.161
 6462SOL     OW19411   0.613   8.813   6.312
 6462SOL    HW119412   0.564   8.726   6.321
 6462SOL    HW219413   0.590   8.856   6.225
 6463SOL     OW19414   1.293   8.676   7.009
 6463SOL    HW119415   1.330   8.603   6.951
 6463SOL    HW219416   1.345   8.681   7.094
 6464SOL     OW19417   0.809   7.452   6.088
 6464SOL    HW119418   0.849   7.543   6.079
 6464SOL    HW219419   0.709   7.460   6.094
 6465SOL     OW19420   0.197   8.424   6.850
 6465SOL    HW119421   0.286   8.379   6.836
 6465SOL    HW219422   0.124   8.359   6.831
 6466SOL     OW19423   1.525   8.447   5.776
 6466SOL    HW119424   1.462   8.371   5.789
 6466SOL    HW219425   1.573   8.465   5.862
 6467SOL     OW19426   1.187   9.240   7.202
 6467SOL    HW119427   1.211   9.300   7.126
 6467SOL    HW219428   1.194   9.145   7.172
 6468SOL     OW19429   0.317   7.699   7.387
 6468SOL    HW119430   0.388   7.770   7.393
 6468SOL    HW219431   0.229   7.738   7.415
 6469SOL     OW19432   1.466   8.865   6.539
 6469SOL    HW119433   1.407   8.871   6.619
 6469SOL    HW219434   1.451   8.777   6.493
 6470SOL     OW19435   1.667   9.162   6.158
 6470SOL    HW119436   1.626   9.139   6.070
 6470SOL    HW219437   1.649   9.088   6.223
 6471SOL     OW19438   0.598   8.177   5.856
 6471SOL    HW119439   0.622   8.246   5.788
 6471SOL    HW219440   0.520   8.210   5.910
 6472SOL     OW19441   1.281   7.793   6.530
 6472SOL    HW119442   1.195   7.743   6.517
 6472SOL    HW219443   1.343   7.739   6.586
 6473SOL     OW19444   1.576   9.110   5.893
 6473SOL    HW119445   1.665   9.156   5.896
 6473SOL    HW219446   1.555   9.086   5.798
 6474SOL     OW19447   0.807   8.053   7.051
 6474SOL    HW119448   0.760   8.050   7.140
 6474SOL    HW219449   0.756   7.998   6.985
 6475SOL     OW19450   1.394   7.917   7.260
 6475SOL    HW119451   1.374   7.960   7.348
 6475SOL    HW219452   1.472   7.855   7.269
 6476SOL     OW19453   0.973   8.338   7.158
 6476SOL    HW119454   1.019   8.254   7.129
 6476SOL    HW219455   0.917   8.372   7.083
 6477SOL     OW19456   0.991   7.858   6.828
 6477SOL    HW119457   0.914   7.892   6.882
 6477SOL    HW219458   0.957   7.807   6.749
 6478SOL     OW19459   1.041   8.149   6.015
 6478SOL    HW119460   1.067   8.145   6.111
 6478SOL    HW219461   0.956   8.098   6.001
 6479SOL     OW19462   0.076   8.259   6.375
 6479SOL    HW119463   0.175   8.247   6.384
 6479SOL    HW219464   0.052   8.354   6.396
 6480SOL     OW19465   0.130   9.269   7.157
 6480SOL    HW119466   0.120   9.254   7.256
 6480SOL    HW219467   0.044   9.305   7.121
 6481SOL     OW19468   0.865   7.796   5.781
 6481SOL    HW119469   0.924   7.859   5.732
 6481SOL    HW219470   0.884   7.702   5.752
 6482SOL     OW19471   1.719   8.033   7.417
 6482SOL    HW119472   1.693   8.122   7.381
 6482SOL    HW219473   1.717   7.965   7.344
 6483SOL     OW19474   1.362   8.592   6.131
 6483SOL    HW119475   1.445   8.563   6.083
 6483SOL    HW219476   1.313   8.659   6.075
 6484SOL     OW19477   0.550   7.644   6.471
 6484SOL    HW119478   0.545   7.639   6.571
 6484SOL    HW219479   0.552   7.740   6.442
 6485SOL     OW19480   1.008   8.904   6.063
 6485SOL    HW119481   0.962   8.976   6.011
 6485SOL    HW219482   1.004   8.924   6.161
 6486SOL     OW19483   0.351   9.249   6.439
 6486SOL    HW119484   0.401   9.163   6.445
 6486SOL    HW219485   0.416   9.326   6.436
 6487SOL     OW19486   1.795   8.514   6.459
 6487SOL    HW119487   1.733   8.499   6.383
 6487SOL    HW219488   1.743   8.525   6.544
 6488SOL     OW19489   1.227   8.998   7.092
 6488SOL    HW119490   1.233   8.921   7.156
 6488SOL    HW219491   1.175   8.972   7.012
 6489SOL     OW19492   0.321   8.391   5.828
 6489SOL    HW119493   0.403   8.430   5.786
 6489SOL    HW219494   0.294   8.309   5.779
 6490SOL     OW19495   1.458   8.183   6.314
 6490SOL    HW119496   1.453   8.118   6.389
 6490SOL    HW219497   1.538   8.242   6.327
 6491SOL     OW19498   0.461   8.714   7.313
 6491SOL    HW119499   0.411   8.715   7.227
 6491SOL    HW219500   0.398   8.696   7.389
 6492SOL     OW19501   1.111   9.224   5.823
 6492SOL    HW119502   1.051   9.162   5.873
 6492SOL    HW219503   1.142   9.180   5.738
 6493SOL     OW19504   0.202   7.733   7.084
 6493SOL    HW119505   0.122   7.793   7.071
 6493SOL    HW219506   0.192   7.684   7.170
 6494SOL     OW19507   1.632   8.825   5.667
 6494SOL    HW119508   1.600   8.919   5.657
 6494SOL    HW219509   1.556   8.762   5.655
 6495SOL     OW19510   0.464   9.191   5.909
 6495SOL    HW119511   0.497   9.230   5.995
 6495SOL    HW219512   0.540   9.184   5.844
 6496SOL     OW19513   1.400   7.555   6.012
 6496SOL    HW119514   1.376   7.518   5.922
 6496SOL    HW219515   1.499   7.571   6.016
 6497SOL     OW19516   0.249   9.233   6.827
 6497SOL    HW119517   0.306   9.168   6.877
 6497SOL    HW219518   0.233   9.200   6.734
 6498SOL     OW19519   0.940   9.146   6.490
 6498SOL    HW119520   1.020   9.089   6.511
 6498SOL    HW219521   0.891   9.106   6.413
 6499SOL     OW19522   0.382   8.148   6.066
 6499SOL    HW119523   0.427   8.058   6.063
 6499SOL    HW219524   0.288   8.137   6.099
 6500SOL     OW19525   1.547   7.670   7.315
 6500SOL    HW119526   1.542   7.707   7.407
 6500SOL    HW219527   1.475   7.601   7.303
 6501SOL     OW19528   0.614   7.570   5.703
 6501SOL    HW119529   0.712   7.548   5.710
 6501SOL    HW219530   0.583   7.553   5.610
 6502SOL     OW19531   0.781   7.712   7.335
 6502SOL    HW119532   0.848   7.651   7.378
 6502SOL    HW219533   0.708   7.731   7.400
 6503SOL     OW19534   0.888   8.962   6.781
 6503SOL    HW119535   0.865   8.937   6.687
 6503SOL    HW219536   0.949   8.893   6.820
 6504SOL     OW19537   1.351   8.038   7.019
 6504SOL    HW119538   1.379   7.995   7.104
 6504SOL    HW219539   1.376   8.134   7.020
 6505SOL     OW19540   0.803   8.850   6.510
 6505SOL    HW119541   0.893   8.864   6.468
 6505SOL    HW219542   0.732   8.852   6.439
 6506SOL     OW19543   0.922   7.951   6.485
 6506SOL    HW119544   0.897   7.942   6.389
 6506SOL    HW219545   0.970   7.869   6.516
 6507SOL     OW19546   0.539   7.512   6.098
 6507SOL    HW119547   0.458   7.513   6.156
 6507SOL    HW219548   0.542   7.595   6.043
 6508SOL     OW19549   1.434   8.636   5.627
 6508SOL    HW119550   1.466   8.560   5.684
 6508SOL    HW219551   1.342   8.663   5.657
 6509SOL     OW19552   0.297   7.483   5.757
 6509SOL    HW119553   0.346   7.567   5.736
 6509SOL    HW219554   0.359   7.418   5.802
 6510SOL     OW19555   0.935   7.684   6.066
 6510SOL    HW119556   0.887   7.725   5.988
 6510SOL    HW219557   1.034   7.682   6.047
 6511SOL     OW19558   1.076   8.131   7.050
 6511SOL    HW119559   0.996   8.070   7.053
 6511SOL    HW219560   1.157   8.078   7.026
 6512SOL     OW19561   1.227   9.018   6.379
 6512SOL    HW119562   1.248   9.092   6.314
 6512SOL    HW219563   1.295   9.018   6.452
 6513SOL     OW19564   0.459   8.600   6.327
 6513SOL    HW119565   0.388   8.573   6.392
 6513SOL    HW219566   0.433   8.572   6.234
 6514SOL     OW19567   1.271   9.245   6.177
 6514SOL    HW119568   1.315   9.309   6.113
 6514SOL    HW219569   1.221   9.297   6.247
 6515SOL     OW19570   1.032   7.997   5.602
 6515SOL    HW119571   0.991   8.079   5.563
 6515SOL    HW219572   1.096   8.023   5.675
 6516SOL     OW19573   0.078   8.004   6.972
 6516SOL    HW119574   0.170   8.003   6.931
 6516SOL    HW219575   0.072   8.078   7.039
 6517SOL     OW19576   0.561   7.670   6.733
 6517SOL    HW119577   0.599   7.586   6.770
 6517SOL    HW219578   0.473   7.689   6.777
 6518SOL     OW19579   0.866   7.902   6.228
 6518SOL    HW119580   0.834   7.974   6.166
 6518SOL    HW219581   0.890   7.821   6.175
 6519SOL     OW19582   1.017   7.487   6.339
 6519SOL    HW119583   0.945   7.492   6.270
 6519SOL    HW219584   0.993   7.418   6.408
 6520SOL     OW19585   1.429   8.621   6.453
 6520SOL    HW119586   1.374   8.537   6.446
 6520SOL    HW219587   1.455   8.650   6.361
 6521SOL     OW19588   1.466   8.038   6.578
 6521SOL    HW119589   1.436   7.943   6.585
 6521SOL    HW219590   1.539   8.054   6.644
 6522SOL     OW19591   1.857   8.281   5.963
 6522SOL    HW119592   1.899   8.217   6.027
 6522SOL    HW219593   1.819   8.230   5.885
 6523SOL     OW19594   0.488   8.833   5.760
 6523SOL    HW119595   0.401   8.818   5.807
 6523SOL    HW219596   0.471   8.859   5.665
 6524SOL     OW19597   1.664   8.728   6.243
 6524SOL    HW119598   1.763   8.736   6.257
 6524SOL    HW219599   1.619   8.812   6.274
 6525SOL     OW19600   1.390   8.023   5.664
 6525SOL    HW119601   1.336   8.002   5.745
 6525SOL    HW219602   1.481   7.982   5.673
 6526SOL     OW19603   0.527   7.704   5.914
 6526SOL    HW119604   0.554   7.645   5.839
 6526SOL    HW219605   0.527   7.799   5.883
 6527SOL     OW19606   1.754   8.671   7.174
 6527SOL    HW119607   1.845   8.632   7.161
 6527SOL    HW219608   1.762   8.767   7.198
 6528SOL     OW19609   1.064   8.795   6.926
 6528SOL    HW119610   0.984   8.772   6.981
 6528SOL    HW219611   1.147   8.769   6.975
 6529SOL     OW19612   1.592   9.077   7.211
 6529SOL    HW119613   1.619   9.111   7.121
 6529SOL    HW219614   1.671   9.039   7.257
 6530SOL     OW19615   1.111   8.643   6.686
 6530SOL    HW119616   1.071   8.687   6.767
 6530SOL    HW219617   1.070   8.680   6.603
 6531SOL     OW19618   1.638   8.547   6.665
 6531SOL    HW119619   1.643   8.628   6.724
 6531SOL    HW219620   1.552   8.549   6.614
 6532SOL     OW19621   0.915   7.537   6.988
 6532SOL    HW119622   0.940   7.517   6.893
 6532SOL    HW219623   0.987   7.593   7.030
 6533SOL     OW19624   0.980   8.564   7.305
 6533SOL    HW119625   0.881   8.570   7.315
 6533SOL    HW219626   1.003   8.484   7.249
 6534SOL     OW19627   0.705   8.498   5.954
 6534SOL    HW119628   0.691   8.505   6.053
 6534SOL    HW219629   0.789   8.447   5.936
 6535SOL     OW19630   0.410   8.261   6.837
 6535SOL    HW119631   0.496   8.273   6.887
 6535SOL    HW219632   0.368   8.174   6.864
 6536SOL     OW19633   1.274   7.834   6.848
 6536SOL    HW119634   1.295   7.908   6.912
 6536SOL    HW219635   1.185   7.851   6.805
 6537SOL     OW19636   0.064   9.012   6.917
 6537SOL    HW119637   0.018   9.094   6.883
 6537SOL    HW219638   0.162   9.031   6.926
 6538SOL     OW19639   0.367   8.548   6.087
 6538SOL    HW119640   0.360   8.631   6.031
 6538SOL    HW219641   0.371   8.468   6.027
 6539SOL     OW19642   0.566   7.985   6.451
 6539SOL    HW119643   0.578   8.051   6.377
 6539SOL    HW219644   0.612   8.019   6.534
 6540SOL     OW19645   1.252   8.796   5.974
 6540SOL    HW119646   1.302   8.873   6.014
 6540SOL    HW219647   1.157   8.798   6.006
 6541SOL     OW19648   1.272   8.893   6.728
 6541SOL    HW119649   1.319   8.906   6.815
 6541SOL    HW219650   1.206   8.819   6.737
 6542SOL     OW19651   1.582   8.087   6.058
 6542SOL    HW119652   1.551   8.148   6.131
 6542SOL    HW219653   1.632   8.139   5.989
 6543SOL     OW19654   0.354   8.958   6.915
 6543SOL    HW119655   0.333   8.914   6.828
 6543SOL    HW219656   0.451   8.984   6.918
 6544SOL     OW19657   0.402   8.199   7.184
 6544SOL    HW119658   0.470   8.254   7.137
 6544SOL    HW219659   0.442   8.111   7.211
 6545SOL     OW19660   1.587   8.227   7.256
 6545SOL    HW119661   1.495   8.265   7.251
 6545SOL    HW219662   1.647   8.274   7.191
 6546SOL     OW19663   1.013   7.553   7.356
 6546SOL    HW119664   1.019   7.638   7.304
 6546SOL    HW219665   1.045   7.477   7.299
 6547SOL     OW19666   0.504   7.498   7.326
 6547SOL    HW119667   0.462   7.441   7.256
 6547SOL    HW219668   0.438   7.567   7.358
 6548SOL     OW19669   0.573   8.318   6.615
 6548SOL    HW119670   0.617   8.407   6.606
 6548SOL    HW219671   0.510   8.318   6.692
 6549SOL     OW19672   1.360   8.310   6.631
 6549SOL    HW119673   1.285   8.310   6.565
 6549SOL    HW219674   1.397   8.218   6.640
 6550SOL     OW19675   1.209   7.973   5.861
 6550SOL    HW119676   1.222   7.889   5.915
 6550SOL    HW219677   1.180   8.047   5.921
 6551SOL     OW19678   0.307   7.661   6.817
 6551SOL    HW119679   0.284   7.698   6.907
 6551SOL    HW219680   0.277   7.566   6.811
 6552SOL     OW19681   0.037   8.758   6.868
 6552SOL    HW119682   0.090   8.709   6.936
 6552SOL    HW219683   0.059   8.856   6.873
 6553SOL     OW19684   0.732   8.082   6.650
 6553SOL    HW119685   0.791   8.056   6.574
 6553SOL    HW219686   0.704   8.178   6.639
 6554SOL     OW19687   1.728   8.383   7.440
 6554SOL    HW119688   1.682   8.376   7.351
 6554SOL    HW219689   1.666   8.427   7.506
 6555SOL     OW19690   0.307   7.511   6.204
 6555SOL    HW119691   0.296   7.605   6.237
 6555SOL    HW219692   0.302   7.448   6.281
 6556SOL     OW19693   1.622   7.815   5.960
 6556SOL    HW119694   1.624   7.739   6.024
 6556SOL    HW219695   1.574   7.892   6.000
 6557SOL     OW19696   1.023   8.214   6.552
 6557SOL    HW119697   1.038   8.235   6.648
 6557SOL    HW219698   0.993   8.119   6.543
 6558SOL     OW19699   0.980   9.021   7.286
 6558SOL    HW119700   0.960   9.065   7.198
 6558SOL    HW219701   1.019   8.930   7.270
 6559SOL     OW19702   1.859   8.966   7.191
 6559SOL    HW119703   1.873   8.993   7.096
 6559SOL    HW219704   1.942   8.988   7.244
 6560SOL     OW19705   0.350   8.346   7.390
 6560SOL    HW119706   0.426   8.390   7.438
 6560SOL    HW219707   0.385   8.299   7.308
 6561SOL     OW19708   1.540   7.722   5.711
 6561SOL    HW119709   1.479   7.647   5.734
 6561SOL    HW219710   1.562   7.774   5.794
 6562SOL     OW19711   1.303   8.286   5.628
 6562SOL    HW119712   1.337   8.193   5.643
 6562SOL    HW219713   1.321   8.313   5.533
 6563SOL     OW19714   1.068   8.781   6.435
 6563SOL    HW119715   1.075   8.697   6.380
 6563SOL    HW219716   1.130   8.850   6.399
 6564SOL     OW19717   0.319   8.258   6.535
 6564SOL    HW119718   0.412   8.294   6.540
 6564SOL    HW219719   0.313   8.173   6.587
 6565SOL     OW19720   0.339   7.957   6.592
 6565SOL    HW119721   0.287   7.874   6.575
 6565SOL    HW219722   0.416   7.962   6.528
 6566SOL     OW19723   1.138   7.828   7.264
 6566SOL    HW119724   1.093   7.891   7.328
 6566SOL    HW219725   1.231   7.859   7.247
 6567SOL     OW19726   1.160   7.655   7.063
 6567SOL    HW119727   1.160   7.719   7.140
 6567SOL    HW219728   1.188   7.703   6.980
 6568SOL     OW19729   0.008   8.774   5.786
 6568SOL    HW119730  -0.085   8.795   5.755
 6568SOL    HW219731   0.018   8.675   5.799
 6569SOL     OW19732   0.088   9.249   6.513
 6569SOL    HW119733   0.046   9.163   6.486
 6569SOL    HW219734   0.182   9.252   6.479
 6570SOL     OW19735   0.504   9.016   6.496
 6570SOL    HW119736   0.570   9.090   6.505
 6570SOL    HW219737   0.548   8.937   6.454
 6571SOL     OW19738   1.002   8.244   6.824
 6571SOL    HW119739   1.043   8.212   6.910
 6571SOL    HW219740   0.906   8.217   6.821
 6572SOL     OW19741   0.040   7.992   6.700
 6572SOL    HW119742   0.125   7.959   6.659
 6572SOL    HW219743   0.053   8.007   6.798
 6573SOL     OW19744   0.189   7.968   7.308
 6573SOL    HW119745   0.248   7.928   7.238
 6573SOL    HW219746   0.131   8.039   7.267
 6574SOL     OW19747   1.369   8.398   7.246
 6574SOL    HW119748   1.408   8.487   7.266
 6574SOL    HW219749   1.379   8.378   7.149
 6575SOL     OW19750   0.815   8.020   5.911
 6575SOL    HW119751   0.822   7.931   5.865
 6575SOL    HW219752   0.721   8.054   5.903
 6576SOL     OW19753   1.657   8.052   6.792
 6576SOL    HW119754   1.619   7.983   6.854
 6576SOL    HW219755   1.739   8.016   6.748
 6577SOL     OW19756   0.252   9.012   7.330
 6577SOL    HW119757   0.222   9.069   7.406
 6577SOL    HW219758   0.245   8.915   7.356
 6578SOL     OW19759   0.671   7.912   6.855
 6578SOL    HW119760   0.637   7.823   6.825
 6578SOL    HW219761   0.697   7.966   6.775
 6579SOL     OW19762   0.930   9.126   7.051
 6579SOL    HW119763   0.906   9.108   6.956
 6579SOL    HW219764   0.960   9.220   7.061
 6580SOL     OW19765   0.473   7.948   5.777
 6580SOL    HW119766   0.534   8.028   5.781
 6580SOL    HW219767   0.378   7.979   5.784
 6581SOL     OW19768   0.159   8.585   7.052
 6581SOL    HW119769   0.181   8.524   7.128
 6581SOL    HW219770   0.169   8.536   6.966
 6582SOL     OW19771   1.347   8.507   6.820
 6582SOL    HW119772   1.371   8.444   6.746
 6582SOL    HW219773   1.257   8.547   6.802
 6583SOL     OW19774   1.302   8.303   5.895
 6583SOL    HW119775   1.216   8.272   5.937
 6583SOL    HW219776   1.298   8.289   5.796
 6584SOL     OW19777   1.759   9.195   6.740
 6584SOL    HW119778   1.820   9.225   6.667
 6584SOL    HW219779   1.721   9.106   6.718
 6585SOL     OW19780   1.252   9.179   6.714
 6585SOL    HW119781   1.336   9.184   6.660
 6585SOL    HW219782   1.229   9.083   6.732
 6586SOL     OW19783   0.083   8.706   6.608
 6586SOL    HW119784   0.078   8.705   6.708
 6586SOL    HW219785   0.000   8.665   6.570
 6587SOL     OW19786   0.688   9.110   7.302
 6587SOL    HW119787   0.632   9.191   7.311
 6587SOL    HW219788   0.740   9.114   7.216
 6588SOL     OW19789   1.726   7.583   6.109
 6588SOL    HW119790   1.799   7.566   6.042
 6588SOL    HW219791   1.695   7.496   6.147
 6589SOL     OW19792   1.388   9.021   6.063
 6589SOL    HW119793   1.455   9.033   5.989
 6589SOL    HW219794   1.348   9.110   6.086
 6590SOL     OW19795   0.130   9.242   7.437
 6590SOL    HW119796   0.089   9.168   7.490
 6590SOL    HW219797   0.194   9.293   7.495
 6591SOL     OW19798   1.280   8.375   6.258
 6591SOL    HW119799   1.340   8.294   6.260
 6591SOL    HW219800   1.320   8.444   6.198
 6592SOL     OW19801   0.830   8.721   7.008
 6592SOL    HW119802   0.825   8.754   7.103
 6592SOL    HW219803   0.744   8.740   6.962
 6593SOL     OW19804   0.672   9.064   5.740
 6593SOL    HW119805   0.681   9.074   5.641
 6593SOL    HW219806   0.632   8.975   5.761
 6594SOL     OW19807   1.650   9.168   6.980
 6594SOL    HW119808   1.703   9.178   6.896
 6594SOL    HW219809   1.623   9.258   7.014
 6595SOL     OW19810   1.841   7.623   6.549
 6595SOL    HW119811   1.880   7.538   6.513
 6595SOL    HW219812   1.743   7.625   6.530
 6596SOL     OW19813   0.263   7.774   6.306
 6596SOL    HW119814   0.184   7.825   6.272
 6596SOL    HW219815   0.254   7.759   6.404
 6597SOL     OW19816   1.194   9.060   5.617
 6597SOL    HW119817   1.200   8.967   5.654
 6597SOL    HW219818   1.135   9.060   5.537
 6598SOL     OW19819   0.822   8.450   6.958
 6598SOL    HW119820   0.862   8.449   6.866
 6598SOL    HW219821   0.832   8.542   6.998
 6599SOL     OW19822   0.916   8.358   5.877
 6599SOL    HW119823   0.979   8.396   5.809
 6599SOL    HW219824   0.956   8.275   5.916
 6600SOL     OW19825   1.504   9.055   5.630
 6600SOL    HW119826   1.412   9.092   5.637
 6600SOL    HW219827   1.542   9.075   5.540
 6601SOL     OW19828   0.372   8.736   7.076
 6601SOL    HW119829   0.359   8.829   7.042
 6601SOL    HW219830   0.288   8.684   7.063
 6602SOL     OW19831   1.614   8.740   6.875
 6602SOL    HW119832   1.674   8.743   6.955
 6602SOL    HW219833   1.539   8.804   6.888
 6603SOL     OW19834   1.039   8.546   6.282
 6603SOL    HW119835   0.969   8.499   6.336
 6603SOL    HW219836   1.098   8.478   6.239
 6604SOL     OW19837   1.014   7.684   6.557
 6604SOL    HW119838   1.006   7.648   6.464
 6604SOL    HW219839   1.012   7.608   6.622
 6605SOL     OW19840   0.590   8.935   6.077
 6605SOL    HW119841   0.632   8.877   6.007
 6605SOL    HW219842   0.546   9.014   6.033
 6606SOL     OW19843   1.709   7.833   6.967
 6606SOL    HW119844   1.782   7.902   6.971
 6606SOL    HW219845   1.737   7.758   6.908
 6607SOL     OW19846   0.255   8.796   5.876
 6607SOL    HW119847   0.159   8.797   5.849
 6607SOL    HW219848   0.267   8.849   5.960
 6608SOL     OW19849   0.105   8.461   7.312
 6608SOL    HW119850   0.028   8.428   7.366
 6608SOL    HW219851   0.190   8.431   7.354
 6609SOL     OW19852   0.672   7.651   7.075
 6609SOL    HW119853   0.762   7.635   7.035
 6609SOL    HW219854   0.680   7.656   7.174
 6610SOL     OW19855   0.075   7.793   5.619
 6610SOL    HW119856  -0.017   7.765   5.590
 6610SOL    HW219857   0.106   7.870   5.563
 6611SOL     OW19858   1.440   8.304   6.984
 6611SOL    HW119859   1.383   8.356   6.921
 6611SOL    HW219860   1.536   8.316   6.960
 6612SOL     OW19861   0.072   7.614   5.904
 6612SOL    HW119862   0.055   7.697   5.850
 6612SOL    HW219863   0.162   7.577   5.882
 6613SOL     OW19864   1.183   8.783   5.705
 6613SOL    HW119865   1.084   8.772   5.707
 6613SOL    HW219866   1.217   8.798   5.798
 6614SOL     OW19867   0.613   8.290   7.017
 6614SOL    HW119868   0.669   8.371   7.000
 6614SOL    HW219869   0.672   8.210   7.020
 6615SOL     OW19870   1.493   9.215   6.545
 6615SOL    HW119871   1.526   9.279   6.476
 6615SOL    HW219872   1.559   9.209   6.620
 6616SOL     OW19873   0.716   8.013   7.294
 6616SOL    HW119874   0.735   8.078   7.368
 6616SOL    HW219875   0.776   7.933   7.303
 6617SOL     OW19876   1.450   8.668   7.219
 6617SOL    HW119877   1.441   8.658   7.318
 6617SOL    HW219878   1.546   8.661   7.193
 6618SOL     OW19879   0.390   9.189   7.146
 6618SOL    HW119880   0.299   9.230   7.144
 6618SOL    HW219881   0.383   9.095   7.178
 6619SOL     OW19882   1.674   8.331   6.840
 6619SOL    HW119883   1.647   8.242   6.803
 6619SOL    HW219884   1.675   8.399   6.767
 6620SOL     OW19885   1.225   7.773   6.035
 6620SOL    HW119886   1.290   7.699   6.024
 6620SOL    HW219887   1.245   7.823   6.119
 6621SOL     OW19888   0.594   8.193   6.238
 6621SOL    HW119889   0.644   8.278   6.219
 6621SOL    HW219890   0.506   8.195   6.190
 6622SOL     OW19891   1.777   7.790   7.228
 6622SOL    HW119892   1.760   7.821   7.134
 6622SOL    HW219893   1.693   7.753   7.266
 6623SOL     OW19894   1.730   8.382   7.103
 6623SOL    HW119895   1.768   8.473   7.118
 6623SOL    HW219896   1.722   8.365   7.004
 6624SOL     OW19897   0.859   8.822   5.602
 6624SOL    HW119898   0.813   8.837   5.690
 6624SOL    HW219899   0.903   8.907   5.572
 6625SOL     OW19900   0.661   9.238   6.539
 6625SOL    HW119901   0.615   9.326   6.526
 6625SOL    HW219902   0.760   9.250   6.532
 6626SOL     OW19903   0.859   8.404   6.447
 6626SOL    HW119904   0.913   8.335   6.495
 6626SOL    HW219905   0.827   8.473   6.513
 6627SOL     OW19906   1.083   8.432   5.673
 6627SOL    HW119907   1.060   8.485   5.591
 6627SOL    HW219908   1.164   8.376   5.654
 6628SOL     OW19909   1.861   9.017   6.437
 6628SOL    HW119910   1.790   9.005   6.367
 6628SOL    HW219911   1.862   8.938   6.497
 6629SOL     OW19912   0.221   8.762   7.430
 6629SOL    HW119913   0.156   8.689   7.409
 6629SOL    HW219914   0.225   8.776   7.528
 6630SOL     OW19915   0.079   8.688   6.239
 6630SOL    HW119916   0.078   8.641   6.327
 6630SOL    HW219917   0.161   8.660   6.188
 6631SOL     OW19918   0.672   8.839   7.210
 6631SOL    HW119919   0.594   8.789   7.248
 6631SOL    HW219920   0.669   8.934   7.241
 6632SOL     OW19921   1.824   7.640   6.813
 6632SOL    HW119922   1.820   7.550   6.857
 6632SOL    HW219923   1.827   7.629   6.714
 6633SOL     OW19924   0.428   7.872   6.106
 6633SOL    HW119925   0.458   7.800   6.044
 6633SOL    HW219926   0.389   7.832   6.189
 6634SOL     OW19927   1.705   8.935   6.690
 6634SOL    HW119928   1.612   8.910   6.663
 6634SOL    HW219929   1.731   8.885   6.772
 6635SOL     OW19930   0.317   7.995   6.866
 6635SOL    HW119931   0.355   7.936   6.938
 6635SOL    HW219932   0.357   7.969   6.778
 6636SOL     OW19933   0.812   9.034   6.273
 6636SOL    HW119934   0.844   9.044   6.179
 6636SOL    HW219935   0.733   8.972   6.275
 6637SOL     OW19936   1.424   7.662   6.698
 6637SOL    HW119937   1.476   7.597   6.753
 6637SOL    HW219938   1.375   7.725   6.759
 6638SOL     OW19939   1.001   7.482   6.740
 6638SOL    HW119940   0.938   7.410   6.709
 6638SOL    HW219941   1.094   7.446   6.740
 6639SOL     OW19942   0.770   8.778   5.887
 6639SOL    HW119943   0.724   8.691   5.904
 6639SOL    HW219944   0.861   8.775   5.928
 6640SOL     OW19945   0.618   9.015   6.870
 6640SOL    HW119946   0.613   9.097   6.927
 6640SOL    HW219947   0.707   9.012   6.825
 6641SOL     OW19948   1.352   7.500   5.754
 6641SOL    HW119949   1.387   7.459   5.670
 6641SOL    HW219950   1.262   7.462   5.774
 6642SOL     OW19951   1.300   7.901   6.277
 6642SOL    HW119952   1.241   7.981   6.281
 6642SOL    HW219953   1.315   7.866   6.370
 6643SOL     OW19954   1.593   7.669   6.468
 6643SOL    HW119955   1.509   7.668   6.522
 6643SOL    HW219956   1.595   7.752   6.412
 6644SOL     OW19957   0.039   8.525   5.886
 6644SOL    HW119958   0.138   8.514   5.877
 6644SOL    HW219959  -0.001   8.439   5.918
 6645SOL     OW19960   0.875   9.094   5.923
 6645SOL    HW119961   0.798   9.059   5.869
 6645SOL    HW219962   0.843   9.165   5.985
 6646SOL     OW19963   0.230   8.076   7.561
 6646SOL    HW119964   0.137   8.074   7.598
 6646SOL    HW219965   0.231   8.037   7.469
 6647SOL     OW19966   0.225   7.723   8.444
 6647SOL    HW119967   0.260   7.706   8.536
 6647SOL    HW219968   0.137   7.678   8.432
 6648SOL     OW19969   0.019   7.816   8.095
 6648SOL    HW119970  -0.063   7.859   8.134
 6648SOL    HW219971  -0.009   7.743   8.032
 6649SOL     OW19972   0.569   8.723   8.613
 6649SOL    HW119973   0.476   8.716   8.576
 6649SOL    HW219974   0.580   8.812   8.657
 6650SOL     OW19975   1.555   8.959   8.151
 6650SOL    HW119976   1.498   8.943   8.232
 6650SOL    HW219977   1.496   8.969   8.071
 6651SOL     OW19978   1.135   8.151   8.165
 6651SOL    HW119979   1.192   8.229   8.140
 6651SOL    HW219980   1.075   8.177   8.241
 6652SOL     OW19981   1.755   8.055   7.679
 6652SOL    HW119982   1.743   8.042   7.580
 6652SOL    HW219983   1.725   7.974   7.728
 6653SOL     OW19984   0.768   8.592   8.471
 6653SOL    HW119985   0.690   8.609   8.531
 6653SOL    HW219986   0.802   8.679   8.435
 6654SOL     OW19987   0.850   8.246   9.271
 6654SOL    HW119988   0.846   8.322   9.336
 6654SOL    HW219989   0.872   8.282   9.180
 6655SOL     OW19990   0.685   8.460   8.113
 6655SOL    HW119991   0.754   8.444   8.183
 6655SOL    HW219992   0.612   8.517   8.151
 6656SOL     OW19993   0.686   8.609   9.251
 6656SOL    HW119994   0.746   8.688   9.265
 6656SOL    HW219995   0.600   8.640   9.210
 6657SOL     OW19996   0.335   8.883   8.509
 6657SOL    HW119997   0.257   8.852   8.456
 6657SOL    HW219998   0.393   8.941   8.452
 6658SOL     OW19999   1.460   8.953   8.787
 6658SOL    HW120000   1.484   9.047   8.813
 6658SOL    HW220001   1.444   8.899   8.869
 6659SOL     OW20002   0.438   7.840   8.947
 6659SOL    HW120003   0.520   7.784   8.956
 6659SOL    HW220004   0.357   7.782   8.951
 6660SOL     OW20005   1.603   7.895   8.185
 6660SOL    HW120006   1.529   7.941   8.135
 6660SOL    HW220007   1.654   7.963   8.238
 6661SOL     OW20008   0.231   9.161   7.931
 6661SOL    HW120009   0.265   9.238   7.985
 6661SOL    HW220010   0.275   9.161   7.841
 6662SOL     OW20011   1.127   8.789   9.138
 6662SOL    HW120012   1.174   8.789   9.226
 6662SOL    HW220013   1.079   8.702   9.127
 6663SOL     OW20014   0.230   8.882   7.986
 6663SOL    HW120015   0.204   8.978   7.986
 6663SOL    HW220016   0.159   8.828   8.031
 6664SOL     OW20017   0.240   8.539   8.334
 6664SOL    HW120018   0.254   8.455   8.386
 6664SOL    HW220019   0.185   8.603   8.389
 6665SOL     OW20020   0.620   9.234   8.887
 6665SOL    HW120021   0.528   9.217   8.922
 6665SOL    HW220022   0.648   9.326   8.913
 6666SOL     OW20023   0.606   8.412   7.571
 6666SOL    HW120024   0.613   8.496   7.517
 6666SOL    HW220025   0.652   8.425   7.659
 6667SOL     OW20026   1.594   7.562   8.928
 6667SOL    HW120027   1.576   7.629   8.856
 6667SOL    HW220028   1.591   7.608   9.017
 6668SOL     OW20029   0.122   8.091   8.011
 6668SOL    HW120030   0.077   8.003   8.028
 6668SOL    HW220031   0.121   8.145   8.095
 6669SOL     OW20032   1.842   9.215   7.807
 6669SOL    HW120033   1.896   9.186   7.887
 6669SOL    HW220034   1.872   9.305   7.778
 6670SOL     OW20035   0.027   9.044   7.565
 6670SOL    HW120036   0.008   8.948   7.586
 6670SOL    HW220037  -0.006   9.102   7.640
 6671SOL     OW20038   1.689   8.370   8.060
 6671SOL    HW120039   1.784   8.341   8.068
 6671SOL    HW220040   1.681   8.435   7.985
 6672SOL     OW20041   1.641   8.556   7.880
 6672SOL    HW120042   1.727   8.558   7.828
 6672SOL    HW220043   1.655   8.603   7.968
 6673SOL     OW20044   0.113   8.185   9.045
 6673SOL    HW120045   0.201   8.172   9.090
 6673SOL    HW220046   0.100   8.282   9.023
 6674SOL     OW20047   0.613   8.813   8.174
 6674SOL    HW120048   0.564   8.726   8.183
 6674SOL    HW220049   0.590   8.856   8.087
 6675SOL     OW20050   1.293   8.676   8.871
 6675SOL    HW120051   1.330   8.603   8.813
 6675SOL    HW220052   1.345   8.681   8.956
 6676SOL     OW20053   0.809   7.452   7.950
 6676SOL    HW120054   0.849   7.543   7.941
 6676SOL    HW220055   0.709   7.460   7.956
 6677SOL     OW20056   0.197   8.424   8.712
 6677SOL    HW120057   0.286   8.379   8.698
 6677SOL    HW220058   0.124   8.359   8.693
 6678SOL     OW20059   1.525   8.447   7.638
 6678SOL    HW120060   1.462   8.371   7.651
 6678SOL    HW220061   1.573   8.465   7.724
 6679SOL     OW20062   1.187   9.240   9.064
 6679SOL    HW120063   1.211   9.300   8.988
 6679SOL    HW220064   1.194   9.145   9.034
 6680SOL     OW20065   0.317   7.699   9.249
 6680SOL    HW120066   0.388   7.770   9.255
 6680SOL    HW220067   0.229   7.738   9.277
 6681SOL     OW20068   1.466   8.865   8.401
 6681SOL    HW120069   1.407   8.871   8.481
 6681SOL    HW220070   1.451   8.777   8.355
 6682SOL     OW20071   1.667   9.162   8.020
 6682SOL    HW120072   1.626   9.139   7.932
 6682SOL    HW220073   1.649   9.088   8.085
 6683SOL     OW20074   0.598   8.177   7.718
 6683SOL    HW120075   0.622   8.246   7.650
 6683SOL    HW220076   0.520   8.210   7.772
 6684SOL     OW20077   1.281   7.793   8.392
 6684SOL    HW120078   1.195   7.743   8.379
 6684SOL    HW220079   1.343   7.739   8.448
 6685SOL     OW20080   1.576   9.110   7.755
 6685SOL    HW120081   1.665   9.156   7.758
 6685SOL    HW220082   1.555   9.086   7.660
 6686SOL     OW20083   0.807   8.053   8.913
 6686SOL    HW120084   0.760   8.050   9.002
 6686SOL    HW220085   0.756   7.998   8.847
 6687SOL     OW20086   1.394   7.917   9.122
 6687SOL    HW120087   1.374   7.960   9.210
 6687SOL    HW220088   1.472   7.855   9.131
 6688SOL     OW20089   0.973   8.338   9.020
 6688SOL    HW120090   1.019   8.254   8.991
 6688SOL    HW220091   0.917   8.372   8.945
 6689SOL     OW20092   0.991   7.858   8.690
 6689SOL    HW120093   0.914   7.892   8.744
 6689SOL    HW220094   0.957   7.807   8.611
 6690SOL     OW20095   1.041   8.149   7.877
 6690SOL    HW120096   1.067   8.145   7.973
 6690SOL    HW220097   0.956   8.098   7.863
 6691SOL     OW20098   0.076   8.259   8.237
 6691SOL    HW120099   0.175   8.247   8.246
 6691SOL    HW220100   0.052   8.354   8.258
 6692SOL     OW20101   0.130   9.269   9.019
 6692SOL    HW120102   0.120   9.254   9.118
 6692SOL    HW220103   0.044   9.305   8.983
 6693SOL     OW20104   0.865   7.796   7.643
 6693SOL    HW120105   0.924   7.859   7.594
 6693SOL    HW220106   0.884   7.702   7.614
 6694SOL     OW20107   1.719   8.033   9.279
 6694SOL    HW120108   1.693   8.122   9.243
 6694SOL    HW220109   1.717   7.965   9.206
 6695SOL     OW20110   1.362   8.592   7.993
 6695SOL    HW120111   1.445   8.563   7.945
 6695SOL    HW220112   1.313   8.659   7.937
 6696SOL     OW20113   0.550   7.644   8.333
 6696SOL    HW120114   0.545   7.639   8.433
 6696SOL    HW220115   0.552   7.740   8.304
 6697SOL     OW20116   1.008   8.904   7.925
 6697SOL    HW120117   0.962   8.976   7.873
 6697SOL    HW220118   1.004   8.924   8.023
 6698SOL     OW20119   0.351   9.249   8.301
 6698SOL    HW120120   0.401   9.163   8.307
 6698SOL    HW220121   0.416   9.326   8.298
 6699SOL     OW20122   1.795   8.514   8.321
 6699SOL    HW120123   1.733   8.499   8.245
 6699SOL    HW220124   1.743   8.525   8.406
 6700SOL     OW20125   1.227   8.998   8.954
 6700SOL    HW120126   1.233   8.921   9.018
 6700SOL    HW220127   1.175   8.972   8.874
 6701SOL     OW20128   0.321   8.391   7.690
 6701SOL    HW120129   0.403   8.430   7.648
 6701SOL    HW220130   0.294   8.309   7.641
 6702SOL     OW20131   1.458   8.183   8.176
 6702SOL    HW120132   1.453   8.118   8.251
 6702SOL    HW220133   1.538   8.242   8.189
 6703SOL     OW20134   0.461   8.714   9.175
 6703SOL    HW120135   0.411   8.715   9.089
 6703SOL    HW220136   0.398   8.696   9.251
 6704SOL     OW20137   1.111   9.224   7.685
 6704SOL    HW120138   1.051   9.162   7.735
 6704SOL    HW220139   1.142   9.180   7.600
 6705SOL     OW20140   0.202   7.733   8.946
 6705SOL    HW120141   0.122   7.793   8.933
 6705SOL    HW220142   0.192   7.684   9.032
 6706SOL     OW20143   1.632   8.825   7.529
 6706SOL    HW120144   1.600   8.919   7.519
 6706SOL    HW220145   1.556   8.762   7.517
 6707SOL     OW20146   0.464   9.191   7.771
 6707SOL    HW120147   0.497   9.230   7.857
 6707SOL    HW220148   0.540   9.184   7.706
 6708SOL     OW20149   1.400   7.555   7.874
 6708SOL    HW120150   1.376   7.518   7.784
 6708SOL    HW220151   1.499   7.571   7.878
 6709SOL     OW20152   0.249   9.233   8.689
 6709SOL    HW120153   0.306   9.168   8.739
 6709SOL    HW220154   0.233   9.200   8.596
 6710SOL     OW20155   0.940   9.146   8.352
 6710SOL    HW120156   1.020   9.089   8.373
 6710SOL    HW220157   0.891   9.106   8.275
 6711SOL     OW20158   0.382   8.148   7.928
 6711SOL    HW120159   0.427   8.058   7.925
 6711SOL    HW220160   0.288   8.137   7.961
 6712SOL     OW20161   1.547   7.670   9.177
 6712SOL    HW120162   1.542   7.707   9.269
 6712SOL    HW220163   1.475   7.601   9.165
 6713SOL     OW20164   0.614   7.570   7.565
 6713SOL    HW120165   0.712   7.548   7.572
 6713SOL    HW220166   0.583   7.553   7.472
 6714SOL     OW20167   0.781   7.712   9.197
 6714SOL    HW120168   0.848   7.651   9.240
 6714SOL    HW220169   0.708   7.731   9.262
 6715SOL     OW20170   0.888   8.962   8.643
 6715SOL    HW120171   0.865   8.937   8.549
 6715SOL    HW220172   0.949   8.893   8.682
 6716SOL     OW20173   1.351   8.038   8.881
 6716SOL    HW120174   1.379   7.995   8.966
 6716SOL    HW220175   1.376   8.134   8.882
 6717SOL     OW20176   0.803   8.850   8.372
 6717SOL    HW120177   0.893   8.864   8.330
 6717SOL    HW220178   0.732   8.852   8.301
 6718SOL     OW20179   0.922   7.951   8.347
 6718SOL    HW120180   0.897   7.942   8.251
 6718SOL    HW220181   0.970   7.869   8.378
 6719SOL     OW20182   0.539   7.512   7.960
 6719SOL    HW120183   0.458   7.513   8.018
 6719SOL    HW220184   0.542   7.595   7.905
 6720SOL     OW20185   1.434   8.636   7.489
 6720SOL    HW120186   1.466   8.560   7.546
 6720SOL    HW220187   1.342   8.663   7.519
 6721SOL     OW20188   0.297   7.483   7.619
 6721SOL    HW120189   0.346   7.567   7.598
 6721SOL    HW220190   0.359   7.418   7.664
 6722SOL     OW20191   0.935   7.684   7.928
 6722SOL    HW120192   0.887   7.725   7.850
 6722SOL    HW220193   1.034   7.682   7.909
 6723SOL     OW20194   1.076   8.131   8.912
 6723SOL    HW120195   0.996   8.070   8.915
 6723SOL    HW220196   1.157   8.078   8.888
 6724SOL     OW20197   1.227   9.018   8.241
 6724SOL    HW120198   1.248   9.092   8.176
 6724SOL    HW220199   1.295   9.018   8.314
 6725SOL     OW20200   0.459   8.600   8.189
 6725SOL    HW120201   0.388   8.573   8.254
 6725SOL    HW220202   0.433   8.572   8.096
 6726SOL     OW20203   1.271   9.245   8.039
 6726SOL    HW120204   1.315   9.309   7.975
 6726SOL    HW220205   1.221   9.297   8.109
 6727SOL     OW20206   1.032   7.997   7.464
 6727SOL    HW120207   0.991   8.079   7.425
 6727SOL    HW220208   1.096   8.023   7.537
 6728SOL     OW20209   0.078   8.004   8.834
 6728SOL    HW120210   0.170   8.003   8.793
 6728SOL    HW220211   0.072   8.078   8.901
 6729SOL     OW20212   0.561   7.670   8.595
 6729SOL    HW120213   0.599   7.586   8.632
 6729SOL    HW220214   0.473   7.689   8.639
 6730SOL     OW20215   0.866   7.902   8.090
 6730SOL    HW120216   0.834   7.974   8.028
 6730SOL    HW220217   0.890   7.821   8.037
 6731SOL     OW20218   1.017   7.487   8.201
 6731SOL    HW120219   0.945   7.492   8.132
 6731SOL    HW220220   0.993   7.418   8.270
 6732SOL     OW20221   1.429   8.621   8.315
 6732SOL    HW120222   1.374   8.537   8.308
 6732SOL    HW220223   1.455   8.650   8.223
 6733SOL     OW20224   1.466   8.038   8.440
 6733SOL    HW120225   1.436   7.943   8.447
 6733SOL    HW220226   1.539   8.054   8.506
 6734SOL     OW20227   1.857   8.281   7.825
 6734SOL    HW120228   1.899   8.217   7.889
 6734SOL    HW220229   1.819   8.230   7.747
 6735SOL     OW20230   0.488   8.833   7.622
 6735SOL    HW120231   0.401   8.818   7.669
 6735SOL    HW220232   0.471   8.859   7.527
 6736SOL     OW20233   1.664   8.728   8.105
 6736SOL    HW120234   1.763   8.736   8.119
 6736SOL    HW220235   1.619   8.812   8.136
 6737SOL     OW20236   1.390   8.023   7.526
 6737SOL    HW120237   1.336   8.002   7.607
 6737SOL    HW220238   1.481   7.982   7.535
 6738SOL     OW20239   0.527   7.704   7.776
 6738SOL    HW120240   0.554   7.645   7.701
 6738SOL    HW220241   0.527   7.799   7.745
 6739SOL     OW20242   1.754   8.671   9.036
 6739SOL    HW120243   1.845   8.632   9.023
 6739SOL    HW220244   1.762   8.767   9.060
 6740SOL     OW20245   1.064   8.795   8.788
 6740SOL    HW120246   0.984   8.772   8.843
 6740SOL    HW220247   1.147   8.769   8.837
 6741SOL     OW20248   1.592   9.077   9.073
 6741SOL    HW120249   1.619   9.111   8.983
 6741SOL    HW220250   1.671   9.039   9.119
 6742SOL     OW20251   1.111   8.643   8.548
 6742SOL    HW120252   1.071   8.687   8.629
 6742SOL    HW220253   1.070   8.680   8.465
 6743SOL     OW20254   1.638   8.547   8.527
 6743SOL    HW120255   1.643   8.628   8.586
 6743SOL    HW220256   1.552   8.549   8.476
 6744SOL     OW20257   0.915   7.537   8.850
 6744SOL    HW120258   0.940   7.517   8.755
 6744SOL    HW220259   0.987   7.593   8.892
 6745SOL     OW20260   0.980   8.564   9.167
 6745SOL    HW120261   0.881   8.570   9.177
 6745SOL    HW220262   1.003   8.484   9.111
 6746SOL     OW20263   0.705   8.498   7.816
 6746SOL    HW120264   0.691   8.505   7.915
 6746SOL    HW220265   0.789   8.447   7.798
 6747SOL     OW20266   0.410   8.261   8.699
 6747SOL    HW120267   0.496   8.273   8.749
 6747SOL    HW220268   0.368   8.174   8.726
 6748SOL     OW20269   1.274   7.834   8.710
 6748SOL    HW120270   1.295   7.908   8.774
 6748SOL    HW220271   1.185   7.851   8.667
 6749SOL     OW20272   0.064   9.012   8.779
 6749SOL    HW120273   0.018   9.094   8.745
 6749SOL    HW220274   0.162   9.031   8.788
 6750SOL     OW20275   0.367   8.548   7.949
 6750SOL    HW120276   0.360   8.631   7.893
 6750SOL    HW220277   0.371   8.468   7.889
 6751SOL     OW20278   0.566   7.985   8.313
 6751SOL    HW120279   0.578   8.051   8.239
 6751SOL    HW220280   0.612   8.019   8.396
 6752SOL     OW20281   1.252   8.796   7.836
 6752SOL    HW120282   1.302   8.873   7.876
 6752SOL    HW220283   1.157   8.798   7.868
 6753SOL     OW20284   1.272   8.893   8.590
 6753SOL    HW120285   1.319   8.906   8.677
 6753SOL    HW220286   1.206   8.819   8.599
 6754SOL     OW20287   1.582   8.087   7.920
 6754SOL    HW120288   1.551   8.148   7.993
 6754SOL    HW220289   1.632   8.139   7.851
 6755SOL     OW20290   0.354   8.958   8.777
 6755SOL    HW120291   0.333   8.914   8.690
 6755SOL    HW220292   0.451   8.984   8.780
 6756SOL     OW20293   0.402   8.199   9.046
 6756SOL    HW120294   0.470   8.254   8.999
 6756SOL    HW220295   0.442   8.111   9.073
 6757SOL     OW20296   1.587   8.227   9.118
 6757SOL    HW120297   1.495   8.265   9.113
 6757SOL    HW220298   1.647   8.274   9.053
 6758SOL     OW20299   1.013   7.553   9.218
 6758SOL    HW120300   1.019   7.638   9.166
 6758SOL    HW220301   1.045   7.477   9.161
 6759SOL     OW20302   0.504   7.498   9.188
 6759SOL    HW120303   0.462   7.441   9.118
 6759SOL    HW220304   0.438   7.567   9.220
 6760SOL     OW20305   0.573   8.318   8.477
 6760SOL    HW120306   0.617   8.407   8.468
 6760SOL    HW220307   0.510   8.318   8.554
 6761SOL     OW20308   1.360   8.310   8.493
 6761SOL    HW120309   1.285   8.310   8.427
 6761SOL    HW220310   1.397   8.218   8.502
 6762SOL     OW20311   1.209   7.973   7.723
 6762SOL    HW120312   1.222   7.889   7.777
 6762SOL    HW220313   1.180   8.047   7.783
 6763SOL     OW20314   0.307   7.661   8.679
 6763SOL    HW120315   0.284   7.698   8.769
 6763SOL    HW220316   0.277   7.566   8.673
 6764SOL     OW20317   0.037   8.758   8.730
 6764SOL    HW120318   0.090   8.709   8.798
 6764SOL    HW220319   0.059   8.856   8.735
 6765SOL     OW20320   0.732   8.082   8.512
 6765SOL    HW120321   0.791   8.056   8.436
 6765SOL    HW220322   0.704   8.178   8.501
 6766SOL     OW20323   1.728   8.383   9.302
 6766SOL    HW120324   1.682   8.376   9.213
 6766SOL    HW220325   1.666   8.427   9.368
 6767SOL     OW20326   0.307   7.511   8.066
 6767SOL    HW120327   0.296   7.605   8.099
 6767SOL    HW220328   0.302   7.448   8.143
 6768SOL     OW20329   1.622   7.815   7.822
 6768SOL    HW120330   1.624   7.739   7.886
 6768SOL    HW220331   1.574   7.892   7.862
 6769SOL     OW20332   1.023   8.214   8.414
 6769SOL    HW120333   1.038   8.235   8.510
 6769SOL    HW220334   0.993   8.119   8.405
 6770SOL     OW20335   0.980   9.021   9.148
 6770SOL    HW120336   0.960   9.065   9.060
 6770SOL    HW220337   1.019   8.930   9.132
 6771SOL     OW20338   1.859   8.966   9.053
 6771SOL    HW120339   1.873   8.993   8.958
 6771SOL    HW220340   1.942   8.988   9.106
 6772SOL     OW20341   0.350   8.346   9.252
 6772SOL    HW120342   0.426   8.390   9.300
 6772SOL    HW220343   0.385   8.299   9.170
 6773SOL     OW20344   1.540   7.722   7.573
 6773SOL    HW120345   1.479   7.647   7.596
 6773SOL    HW220346   1.562   7.774   7.656
 6774SOL     OW20347   1.303   8.286   7.490
 6774SOL    HW120348   1.337   8.193   7.505
 6774SOL    HW220349   1.321   8.313   7.395
 6775SOL     OW20350   1.068   8.781   8.297
 6775SOL    HW120351   1.075   8.697   8.242
 6775SOL    HW220352   1.130   8.850   8.261
 6776SOL     OW20353   0.319   8.258   8.397
 6776SOL    HW120354   0.412   8.294   8.402
 6776SOL    HW220355   0.313   8.173   8.449
 6777SOL     OW20356   0.339   7.957   8.454
 6777SOL    HW120357   0.287   7.874   8.437
 6777SOL    HW220358   0.416   7.962   8.390
 6778SOL     OW20359   1.138   7.828   9.126
 6778SOL    HW120360   1.093   7.891   9.190
 6778SOL    HW220361   1.231   7.859   9.109
 6779SOL     OW20362   1.160   7.655   8.925
 6779SOL    HW120363   1.160   7.719   9.002
 6779SOL    HW220364   1.188   7.703   8.842
 6780SOL     OW20365   0.008   8.774   7.648
 6780SOL    HW120366  -0.085   8.795   7.617
 6780SOL    HW220367   0.018   8.675   7.661
 6781SOL     OW20368   0.088   9.249   8.375
 6781SOL    HW120369   0.046   9.163   8.348
 6781SOL    HW220370   0.182   9.252   8.341
 6782SOL     OW20371   0.504   9.016   8.358
 6782SOL    HW120372   0.570   9.090   8.367
 6782SOL    HW220373   0.548   8.937   8.316
 6783SOL     OW20374   1.002   8.244   8.686
 6783SOL    HW120375   1.043   8.212   8.772
 6783SOL    HW220376   0.906   8.217   8.683
 6784SOL     OW20377   0.040   7.992   8.562
 6784SOL    HW120378   0.125   7.959   8.521
 6784SOL    HW220379   0.053   8.007   8.660
 6785SOL     OW20380   0.189   7.968   9.170
 6785SOL    HW120381   0.248   7.928   9.100
 6785SOL    HW220382   0.131   8.039   9.129
 6786SOL     OW20383   1.369   8.398   9.108
 6786SOL    HW120384   1.408   8.487   9.128
 6786SOL    HW220385   1.379   8.378   9.011
 6787SOL     OW20386   0.815   8.020   7.773
 6787SOL    HW120387   0.822   7.931   7.727
 6787SOL    HW220388   0.721   8.054   7.765
 6788SOL     OW20389   1.657   8.052   8.654
 6788SOL    HW120390   1.619   7.983   8.716
 6788SOL    HW220391   1.739   8.016   8.610
 6789SOL     OW20392   0.252   9.012   9.192
 6789SOL    HW120393   0.222   9.069   9.268
 6789SOL    HW220394   0.245   8.915   9.218
 6790SOL     OW20395   0.671   7.912   8.717
 6790SOL    HW120396   0.637   7.823   8.687
 6790SOL    HW220397   0.697   7.966   8.637
 6791SOL     OW20398   0.930   9.126   8.913
 6791SOL    HW120399   0.906   9.108   8.818
 6791SOL    HW220400   0.960   9.220   8.923
 6792SOL     OW20401   0.473   7.948   7.639
 6792SOL    HW120402   0.534   8.028   7.643
 6792SOL    HW220403   0.378   7.979   7.646
 6793SOL     OW20404   0.159   8.585   8.914
 6793SOL    HW120405   0.181   8.524   8.990
 6793SOL    HW220406   0.169   8.536   8.828
 6794SOL     OW20407   1.347   8.507   8.682
 6794SOL    HW120408   1.371   8.444   8.608
 6794SOL    HW220409   1.257   8.547   8.664
 6795SOL     OW20410   1.302   8.303   7.757
 6795SOL    HW120411   1.216   8.272   7.799
 6795SOL    HW220412   1.298   8.289   7.658
 6796SOL     OW20413   1.759   9.195   8.602
 6796SOL    HW120414   1.820   9.225   8.529
 6796SOL    HW220415   1.721   9.106   8.580
 6797SOL     OW20416   1.252   9.179   8.576
 6797SOL    HW120417   1.336   9.184   8.522
 6797SOL    HW220418   1.229   9.083   8.594
 6798SOL     OW20419   0.083   8.706   8.470
 6798SOL    HW120420   0.078   8.705   8.570
 6798SOL    HW220421   0.000   8.665   8.432
 6799SOL     OW20422   0.688   9.110   9.164
 6799SOL    HW120423   0.632   9.191   9.173
 6799SOL    HW220424   0.740   9.114   9.078
 6800SOL     OW20425   1.726   7.583   7.971
 6800SOL    HW120426   1.799   7.566   7.904
 6800SOL    HW220427   1.695   7.496   8.009
 6801SOL     OW20428   1.388   9.021   7.925
 6801SOL    HW120429   1.455   9.033   7.851
 6801SOL    HW220430   1.348   9.110   7.948
 6802SOL     OW20431   0.130   9.242   9.299
 6802SOL    HW120432   0.089   9.168   9.352
 6802SOL    HW220433   0.194   9.293   9.357
 6803SOL     OW20434   1.280   8.375   8.120
 6803SOL    HW120435   1.340   8.294   8.122
 6803SOL    HW220436   1.320   8.444   8.060
 6804SOL     OW20437   0.830   8.721   8.870
 6804SOL    HW120438   0.825   8.754   8.965
 6804SOL    HW220439   0.744   8.740   8.824
 6805SOL     OW20440   0.672   9.064   7.602
 6805SOL    HW120441   0.681   9.074   7.503
 6805SOL    HW220442   0.632   8.975   7.623
 6806SOL     OW20443   1.650   9.168   8.842
 6806SOL    HW120444   1.703   9.178   8.758
 6806SOL    HW220445   1.623   9.258   8.876
 6807SOL     OW20446   1.841   7.623   8.411
 6807SOL    HW120447   1.880   7.538   8.375
 6807SOL    HW220448   1.743   7.625   8.392
 6808SOL     OW20449   0.263   7.774   8.168
 6808SOL    HW120450   0.184   7.825   8.134
 6808SOL    HW220451   0.254   7.759   8.266
 6809SOL     OW20452   1.194   9.060   7.479
 6809SOL    HW120453   1.200   8.967   7.516
 6809SOL    HW220454   1.135   9.060   7.399
 6810SOL     OW20455   0.822   8.450   8.820
 6810SOL    HW120456   0.862   8.449   8.728
 6810SOL    HW220457   0.832   8.542   8.860
 6811SOL     OW20458   0.916   8.358   7.739
 6811SOL    HW120459   0.979   8.396   7.671
 6811SOL    HW220460   0.956   8.275   7.778
 6812SOL     OW20461   1.504   9.055   7.492
 6812SOL    HW120462   1.412   9.092   7.499
 6812SOL    HW220463   1.542   9.075   7.402
 6813SOL     OW20464   0.372   8.736   8.938
 6813SOL    HW120465   0.359   8.829   8.904
 6813SOL    HW220466   0.288   8.684   8.925
 6814SOL     OW20467   1.614   8.740   8.737
 6814SOL    HW120468   1.674   8.743   8.817
 6814SOL    HW220469   1.539   8.804   8.750
 6815SOL     OW20470   1.039   8.546   8.144
 6815SOL    HW120471   0.969   8.499   8.198
 6815SOL    HW220472   1.098   8.478   8.101
 6816SOL     OW20473   1.014   7.684   8.419
 6816SOL    HW120474   1.006   7.648   8.326
 6816SOL    HW220475   1.012   7.608   8.484
 6817SOL     OW20476   0.590   8.935   7.939
 6817SOL    HW120477   0.632   8.877   7.869
 6817SOL    HW220478   0.546   9.014   7.895
 6818SOL     OW20479   1.709   7.833   8.829
 6818SOL    HW120480   1.782   7.902   8.833
 6818SOL    HW220481   1.737   7.758   8.770
 6819SOL     OW20482   0.255   8.796   7.738
 6819SOL    HW120483   0.159   8.797   7.711
 6819SOL    HW220484   0.267   8.849   7.822
 6820SOL     OW20485   0.105   8.461   9.174
 6820SOL    HW120486   0.028   8.428   9.228
 6820SOL    HW220487   0.190   8.431   9.216
 6821SOL     OW20488   0.672   7.651   8.937
 6821SOL    HW120489   0.762   7.635   8.897
 6821SOL    HW220490   0.680   7.656   9.036
 6822SOL     OW20491   0.075   7.793   7.481
 6822SOL    HW120492  -0.017   7.765   7.452
 6822SOL    HW220493   0.106   7.870   7.425
 6823SOL     OW20494   1.440   8.304   8.846
 6823SOL    HW120495   1.383   8.356   8.783
 6823SOL    HW220496   1.536   8.316   8.822
 6824SOL     OW20497   0.072   7.614   7.766
 6824SOL    HW120498   0.055   7.697   7.712
 6824SOL    HW220499   0.162   7.577   7.744
 6825SOL     OW20500   1.183   8.783   7.567
 6825SOL    HW120501   1.084   8.772   7.569
 6825SOL    HW220502   1.217   8.798   7.660
 6826SOL     OW20503   0.613   8.290   8.879
 6826SOL    HW120504   0.669   8.371   8.862
 6826SOL    HW220505   0.672   8.210   8.882
 6827SOL     OW20506   1.493   9.215   8.407
 6827SOL    HW120507   1.526   9.279   8.338
 6827SOL    HW220508   1.559   9.209   8.482
 6828SOL     OW20509   0.716   8.013   9.156
 6828SOL    HW120510   0.735   8.078   9.230
 6828SOL    HW220511   0.776   7.933   9.165
 6829SOL     OW20512   1.450   8.668   9.081
 6829SOL    HW120513   1.441   8.658   9.180
 6829SOL    HW220514   1.546   8.661   9.055
 6830SOL     OW20515   0.390   9.189   9.008
 6830SOL    HW120516   0.299   9.230   9.006
 6830SOL    HW220517   0.383   9.095   9.040
 6831SOL     OW20518   1.674   8.331   8.702
 6831SOL    HW120519   1.647   8.242   8.665
 6831SOL    HW220520   1.675   8.399   8.629
 6832SOL     OW20521   1.225   7.773   7.897
 6832SOL    HW120522   1.290   7.699   7.886
 6832SOL    HW220523   1.245   7.823   7.981
 6833SOL     OW20524   0.594   8.193   8.100
 6833SOL    HW120525   0.644   8.278   8.081
 6833SOL    HW220526   0.506   8.195   8.052
 6834SOL     OW20527   1.777   7.790   9.090
 6834SOL    HW120528   1.760   7.821   8.996
 6834SOL    HW220529   1.693   7.753   9.128
 6835SOL     OW20530   1.730   8.382   8.965
 6835SOL    HW120531   1.768   8.473   8.980
 6835SOL    HW220532   1.722   8.365   8.866
 6836SOL     OW20533   0.859   8.822   7.464
 6836SOL    HW120534   0.813   8.837   7.552
 6836SOL    HW220535   0.903   8.907   7.434
 6837SOL     OW20536   0.661   9.238   8.401
 6837SOL    HW120537   0.615   9.326   8.388
 6837SOL    HW220538   0.760   9.250   8.394
 6838SOL     OW20539   0.859   8.404   8.309
 6838SOL    HW120540   0.913   8.335   8.357
 6838SOL    HW220541   0.827   8.473   8.375
 6839SOL     OW20542   1.083   8.432   7.535
 6839SOL    HW120543   1.060   8.485   7.453
 6839SOL    HW220544   1.164   8.376   7.516
 6840SOL     OW20545   1.861   9.017   8.299
 6840SOL    HW120546   1.790   9.005   8.229
 6840SOL    HW220547   1.862   8.938   8.359
 6841SOL     OW20548   0.221   8.762   9.292
 6841SOL    HW120549   0.156   8.689   9.271
 6841SOL    HW220550   0.225   8.776   9.390
 6842SOL     OW20551   0.079   8.688   8.101
 6842SOL    HW120552   0.078   8.641   8.189
 6842SOL    HW220553   0.161   8.660   8.050
 6843SOL     OW20554   0.672   8.839   9.072
 6843SOL    HW120555   0.594   8.789   9.110
 6843SOL    HW220556   0.669   8.934   9.103
 6844SOL     OW20557   1.824   7.640   8.675
 6844SOL    HW120558   1.820   7.550   8.719
 6844SOL    HW220559   1.827   7.629   8.576
 6845SOL     OW20560   0.428   7.872   7.968
 6845SOL    HW120561   0.458   7.800   7.906
 6845SOL    HW220562   0.389   7.832   8.051
 6846SOL     OW20563   1.705   8.935   8.552
 6846SOL    HW120564   1.612   8.910   8.525
 6846SOL    HW220565   1.731   8.885   8.634
 6847SOL     OW20566   0.317   7.995   8.728
 6847SOL    HW120567   0.355   7.936   8.800
 6847SOL    HW220568   0.357   7.969   8.640
 6848SOL     OW20569   0.812   9.034   8.135
 6848SOL    HW120570   0.844   9.044   8.041
 6848SOL    HW220571   0.733   8.972   8.137
 6849SOL     OW20572   1.424   7.662   8.560
 6849SOL    HW120573   1.476   7.597   8.615
 6849SOL    HW220574   1.375   7.725   8.621
 6850SOL     OW20575   1.001   7.482   8.602
 6850SOL    HW120576   0.938   7.410   8.571
 6850SOL    HW220577   1.094   7.446   8.602
 6851SOL     OW20578   0.770   8.778   7.749
 6851SOL    HW120579   0.724   8.691   7.766
 6851SOL    HW220580   0.861   8.775   7.790
 6852SOL     OW20581   0.618   9.015   8.732
 6852SOL    HW120582   0.613   9.097   8.789
 6852SOL    HW220583   0.707   9.012   8.687
 6853SOL     OW20584   1.352   7.500   7.616
 6853SOL    HW120585   1.387   7.459   7.532
 6853SOL    HW220586   1.262   7.462   7.636
 6854SOL     OW20587   1.300   7.901   8.139
 6854SOL    HW120588   1.241   7.981   8.143
 6854SOL    HW220589   1.315   7.866   8.232
 6855SOL     OW20590   1.593   7.669   8.330
 6855SOL    HW120591   1.509   7.668   8.384
 6855SOL    HW220592   1.595   7.752   8.274
 6856SOL     OW20593   0.039   8.525   7.748
 6856SOL    HW120594   0.138   8.514   7.739
 6856SOL    HW220595  -0.001   8.439   7.780
 6857SOL     OW20596   0.875   9.094   7.785
 6857SOL    HW120597   0.798   9.059   7.731
 6857SOL    HW220598   0.843   9.165   7.847
 6858SOL     OW20599   0.230   8.076   9.423
 6858SOL    HW120600   0.137   8.074   9.460
 6858SOL    HW220601   0.231   8.037   9.331
 6859SOL     OW20602   0.225   7.723  10.306
 6859SOL    HW120603   0.260   7.706  10.398
 6859SOL    HW220604   0.137   7.678  10.294
 6860SOL     OW20605   0.019   7.816   9.957
 6860SOL    HW120606  -0.063   7.859   9.996
 6860SOL    HW220607  -0.009   7.743   9.894
 6861SOL     OW20608   0.569   8.723  10.475
 6861SOL    HW120609   0.476   8.716  10.438
 6861SOL    HW220610   0.580   8.812  10.519
 6862SOL     OW20611   1.555   8.959  10.013
 6862SOL    HW120612   1.498   8.943  10.094
 6862SOL    HW220613   1.496   8.969   9.933
 6863SOL     OW20614   1.135   8.151  10.027
 6863SOL    HW120615   1.192   8.229  10.002
 6863SOL    HW220616   1.075   8.177  10.103
 6864SOL     OW20617   1.755   8.055   9.541
 6864SOL    HW120618   1.743   8.042   9.442
 6864SOL    HW220619   1.725   7.974   9.590
 6865SOL     OW20620   0.768   8.592  10.333
 6865SOL    HW120621   0.690   8.609  10.393
 6865SOL    HW220622   0.802   8.679  10.297
 6866SOL     OW20623   0.850   8.246  11.133
 6866SOL    HW120624   0.846   8.322  11.198
 6866SOL    HW220625   0.872   8.282  11.042
 6867SOL     OW20626   0.685   8.460   9.975
 6867SOL    HW120627   0.754   8.444  10.045
 6867SOL    HW220628   0.612   8.517  10.013
 6868SOL     OW20629   0.686   8.609  11.113
 6868SOL    HW120630   0.746   8.688  11.127
 6868SOL    HW220631   0.600   8.640  11.072
 6869SOL     OW20632   0.335   8.883  10.371
 6869SOL    HW120633   0.257   8.852  10.318
 6869SOL    HW220634   0.393   8.941  10.314
 6870SOL     OW20635   1.460   8.953  10.649
 6870SOL    HW120636   1.484   9.047  10.675
 6870SOL    HW220637   1.444   8.899  10.731
 6871SOL     OW20638   0.438   7.840  10.809
 6871SOL    HW120639   0.520   7.784  10.818
 6871SOL    HW220640   0.357   7.782  10.813
 6872SOL     OW20641   1.603   7.895  10.047
 6872SOL    HW120642   1.529   7.941   9.997
 6872SOL    HW220643   1.654   7.963  10.100
 6873SOL     OW20644   0.231   9.161   9.793
 6873SOL    HW120645   0.265   9.238   9.847
 6873SOL    HW220646   0.275   9.161   9.703
 6874SOL     OW20647   1.127   8.789  11.000
 6874SOL    HW120648   1.174   8.789  11.088
 6874SOL    HW220649   1.079   8.702  10.989
 6875SOL     OW20650   0.230   8.882   9.848
 6875SOL    HW120651   0.204   8.978   9.848
 6875SOL    HW220652   0.159   8.828   9.893
 6876SOL     OW20653   0.240   8.539  10.196
 6876SOL    HW120654   0.254   8.455  10.248
 6876SOL    HW220655   0.185   8.603  10.251
 6877SOL     OW20656   0.620   9.234  10.749
 6877SOL    HW120657   0.528   9.217  10.784
 6877SOL    HW220658   0.648   9.326  10.775
 6878SOL     OW20659   0.606   8.412   9.433
 6878SOL    HW120660   0.613   8.496   9.379
 6878SOL    HW220661   0.652   8.425   9.521
 6879SOL     OW20662   1.594   7.562  10.790
 6879SOL    HW120663   1.576   7.629  10.718
 6879SOL    HW220664   1.591   7.608  10.879
 6880SOL     OW20665   0.122   8.091   9.873
 6880SOL    HW120666   0.077   8.003   9.890
 6880SOL    HW220667   0.121   8.145   9.957
 6881SOL     OW20668   1.842   9.215   9.669
 6881SOL    HW120669   1.896   9.186   9.749
 6881SOL    HW220670   1.872   9.305   9.640
 6882SOL     OW20671   0.027   9.044   9.427
 6882SOL    HW120672   0.008   8.948   9.448
 6882SOL    HW220673  -0.006   9.102   9.502
 6883SOL     OW20674   1.689   8.370   9.922
 6883SOL    HW120675   1.784   8.341   9.930
 6883SOL    HW220676   1.681   8.435   9.847
 6884SOL     OW20677   1.641   8.556   9.742
 6884SOL    HW120678   1.727   8.558   9.690
 6884SOL    HW220679   1.655   8.603   9.830
 6885SOL     OW20680   0.113   8.185  10.907
 6885SOL    HW120681   0.201   8.172  10.952
 6885SOL    HW220682   0.100   8.282  10.885
 6886SOL     OW20683   0.613   8.813  10.036
 6886SOL    HW120684   0.564   8.726  10.045
 6886SOL    HW220685   0.590   8.856   9.949
 6887SOL     OW20686   1.293   8.676  10.733
 6887SOL    HW120687   1.330   8.603  10.675
 6887SOL    HW220688   1.345   8.681  10.818
 6888SOL     OW20689   0.809   7.452   9.812
 6888SOL    HW120690   0.849   7.543   9.803
 6888SOL    HW220691   0.709   7.460   9.818
 6889SOL     OW20692   0.197   8.424  10.574
 6889SOL    HW120693   0.286   8.379  10.560
 6889SOL    HW220694   0.124   8.359  10.555
 6890SOL     OW20695   1.525   8.447   9.500
 6890SOL    HW120696   1.462   8.371   9.513
 6890SOL    HW220697   1.573   8.465   9.586
 6891SOL     OW20698   1.187   9.240  10.926
 6891SOL    HW120699   1.211   9.300  10.850
 6891SOL    HW220700   1.194   9.145  10.896
 6892SOL     OW20701   0.317   7.699  11.111
 6892SOL    HW120702   0.388   7.770  11.117
 6892SOL    HW220703   0.229   7.738  11.139
 6893SOL     OW20704   1.466   8.865  10.263
 6893SOL    HW120705   1.407   8.871  10.343
 6893SOL    HW220706   1.451   8.777  10.217
 6894SOL     OW20707   1.667   9.162   9.882
 6894SOL    HW120708   1.626   9.139   9.794
 6894SOL    HW220709   1.649   9.088   9.947
 6895SOL     OW20710   0.598   8.177   9.580
 6895SOL    HW120711   0.622   8.246   9.512
 6895SOL    HW220712   0.520   8.210   9.634
 6896SOL     OW20713   1.281   7.793  10.254
 6896SOL    HW120714   1.195   7.743  10.241
 6896SOL    HW220715   1.343   7.739  10.310
 6897SOL     OW20716   1.576   9.110   9.617
 6897SOL    HW120717   1.665   9.156   9.620
 6897SOL    HW220718   1.555   9.086   9.522
 6898SOL     OW20719   0.807   8.053  10.775
 6898SOL    HW120720   0.760   8.050  10.864
 6898SOL    HW220721   0.756   7.998  10.709
 6899SOL     OW20722   1.394   7.917  10.984
 6899SOL    HW120723   1.374   7.960  11.072
 6899SOL    HW220724   1.472   7.855  10.993
 6900SOL     OW20725   0.973   8.338  10.882
 6900SOL    HW120726   1.019   8.254  10.853
 6900SOL    HW220727   0.917   8.372  10.807
 6901SOL     OW20728   0.991   7.858  10.552
 6901SOL    HW120729   0.914   7.892  10.606
 6901SOL    HW220730   0.957   7.807  10.473
 6902SOL     OW20731   1.041   8.149   9.739
 6902SOL    HW120732   1.067   8.145   9.835
 6902SOL    HW220733   0.956   8.098   9.725
 6903SOL     OW20734   0.076   8.259  10.099
 6903SOL    HW120735   0.175   8.247  10.108
 6903SOL    HW220736   0.052   8.354  10.120
 6904SOL     OW20737   0.130   9.269  10.881
 6904SOL    HW120738   0.120   9.254  10.980
 6904SOL    HW220739   0.044   9.305  10.845
 6905SOL     OW20740   0.865   7.796   9.505
 6905SOL    HW120741   0.924   7.859   9.456
 6905SOL    HW220742   0.884   7.702   9.476
 6906SOL     OW20743   1.719   8.033  11.141
 6906SOL    HW120744   1.693   8.122  11.105
 6906SOL    HW220745   1.717   7.965  11.068
 6907SOL     OW20746   1.362   8.592   9.855
 6907SOL    HW120747   1.445   8.563   9.807
 6907SOL    HW220748   1.313   8.659   9.799
 6908SOL     OW20749   0.550   7.644  10.195
 6908SOL    HW120750   0.545   7.639  10.295
 6908SOL    HW220751   0.552   7.740  10.166
 6909SOL     OW20752   1.008   8.904   9.787
 6909SOL    HW120753   0.962   8.976   9.735
 6909SOL    HW220754   1.004   8.924   9.885
 6910SOL     OW20755   0.351   9.249  10.163
 6910SOL    HW120756   0.401   9.163  10.169
 6910SOL    HW220757   0.416   9.326  10.160
 6911SOL     OW20758   1.795   8.514  10.183
 6911SOL    HW120759   1.733   8.499  10.107
 6911SOL    HW220760   1.743   8.525  10.268
 6912SOL     OW20761   1.227   8.998  10.816
 6912SOL    HW120762   1.233   8.921  10.880
 6912SOL    HW220763   1.175   8.972  10.736
 6913SOL     OW20764   0.321   8.391   9.552
 6913SOL    HW120765   0.403   8.430   9.510
 6913SOL    HW220766   0.294   8.309   9.503
 6914SOL     OW20767   1.458   8.183  10.038
 6914SOL    HW120768   1.453   8.118  10.113
 6914SOL    HW220769   1.538   8.242  10.051
 6915SOL     OW20770   0.461   8.714  11.037
 6915SOL    HW120771   0.411   8.715  10.951
 6915SOL    HW220772   0.398   8.696  11.113
 6916SOL     OW20773   1.111   9.224   9.547
 6916SOL    HW120774   1.051   9.162   9.597
 6916SOL    HW220775   1.142   9.180   9.462
 6917SOL     OW20776   0.202   7.733  10.808
 6917SOL    HW120777   0.122   7.793  10.795
 6917SOL    HW220778   0.192   7.684  10.894
 6918SOL     OW20779   1.632   8.825   9.391
 6918SOL    HW120780   1.600   8.919   9.381
 6918SOL    HW220781   1.556   8.762   9.379
 6919SOL     OW20782   0.464   9.191   9.633
 6919SOL    HW120783   0.497   9.230   9.719
 6919SOL    HW220784   0.540   9.184   9.568
 6920SOL     OW20785   1.400   7.555   9.736
 6920SOL    HW120786   1.376   7.518   9.646
 6920SOL    HW220787   1.499   7.571   9.740
 6921SOL     OW20788   0.249   9.233  10.551
 6921SOL    HW120789   0.306   9.168  10.601
 6921SOL    HW220790   0.233   9.200  10.458
 6922SOL     OW20791   0.940   9.146  10.214
 6922SOL    HW120792   1.020   9.089  10.235
 6922SOL    HW220793   0.891   9.106  10.137
 6923SOL     OW20794   0.382   8.148   9.790
 6923SOL    HW120795   0.427   8.058   9.787
 6923SOL    HW220796   0.288   8.137   9.823
 6924SOL     OW20797   1.547   7.670  11.039
 6924SOL    HW120798   1.542   7.707  11.131
 6924SOL    HW220799   1.475   7.601  11.027
 6925SOL     OW20800   0.614   7.570   9.427
 6925SOL    HW120801   0.712   7.548   9.434
 6925SOL    HW220802   0.583   7.553   9.334
 6926SOL     OW20803   0.781   7.712  11.059
 6926SOL    HW120804   0.848   7.651  11.102
 6926SOL    HW220805   0.708   7.731  11.124
 6927SOL     OW20806   0.888   8.962  10.505
 6927SOL    HW120807   0.865   8.937  10.411
 6927SOL    HW220808   0.949   8.893  10.544
 6928SOL     OW20809   1.351   8.038  10.743
 6928SOL    HW120810   1.379   7.995  10.828
 6928SOL    HW220811   1.376   8.134  10.744
 6929SOL     OW20812   0.803   8.850  10.234
 6929SOL    HW120813   0.893   8.864  10.192
 6929SOL    HW220814   0.732   8.852  10.163
 6930SOL     OW20815   0.922   7.951  10.209
 6930SOL    HW120816   0.897   7.942  10.113
 6930SOL    HW220817   0.970   7.869  10.240
 6931SOL     OW20818   0.539   7.512   9.822
 6931SOL    HW120819   0.458   7.513   9.880
 6931SOL    HW220820   0.542   7.595   9.767
 6932SOL     OW20821   1.434   8.636   9.351
 6932SOL    HW120822   1.466   8.560   9.408
 6932SOL    HW220823   1.342   8.663   9.381
 6933SOL     OW20824   0.297   7.483   9.481
 6933SOL    HW120825   0.346   7.567   9.460
 6933SOL    HW220826   0.359   7.418   9.526
 6934SOL     OW20827   0.935   7.684   9.790
 6934SOL    HW120828   0.887   7.725   9.712
 6934SOL    HW220829   1.034   7.682   9.771
 6935SOL     OW20830   1.076   8.131  10.774
 6935SOL    HW120831   0.996   8.070  10.777
 6935SOL    HW220832   1.157   8.078  10.750
 6936SOL     OW20833   1.227   9.018  10.103
 6936SOL    HW120834   1.248   9.092  10.038
 6936SOL    HW220835   1.295   9.018  10.176
 6937SOL     OW20836   0.459   8.600  10.051
 6937SOL    HW120837   0.388   8.573  10.116
 6937SOL    HW220838   0.433   8.572   9.958
 6938SOL     OW20839   1.271   9.245   9.901
 6938SOL    HW120840   1.315   9.309   9.837
 6938SOL    HW220841   1.221   9.297   9.971
 6939SOL     OW20842   1.032   7.997   9.326
 6939SOL    HW120843   0.991   8.079   9.287
 6939SOL    HW220844   1.096   8.023   9.399
 6940SOL     OW20845   0.078   8.004  10.696
 6940SOL    HW120846   0.170   8.003  10.655
 6940SOL    HW220847   0.072   8.078  10.763
 6941SOL     OW20848   0.561   7.670  10.457
 6941SOL    HW120849   0.599   7.586  10.494
 6941SOL    HW220850   0.473   7.689  10.501
 6942SOL     OW20851   0.866   7.902   9.952
 6942SOL    HW120852   0.834   7.974   9.890
 6942SOL    HW220853   0.890   7.821   9.899
 6943SOL     OW20854   1.017   7.487  10.063
 6943SOL    HW120855   0.945   7.492   9.994
 6943SOL    HW220856   0.993   7.418  10.132
 6944SOL     OW20857   1.429   8.621  10.177
 6944SOL    HW120858   1.374   8.537  10.170
 6944SOL    HW220859   1.455   8.650  10.085
 6945SOL     OW20860   1.466   8.038  10.302
 6945SOL    HW120861   1.436   7.943  10.309
 6945SOL    HW220862   1.539   8.054  10.368
 6946SOL     OW20863   1.857   8.281   9.687
 6946SOL    HW120864   1.899   8.217   9.751
 6946SOL    HW220865   1.819   8.230   9.609
 6947SOL     OW20866   0.488   8.833   9.484
 6947SOL    HW120867   0.401   8.818   9.531
 6947SOL    HW220868   0.471   8.859   9.389
 6948SOL     OW20869   1.664   8.728   9.967
 6948SOL    HW120870   1.763   8.736   9.981
 6948SOL    HW220871   1.619   8.812   9.998
 6949SOL     OW20872   1.390   8.023   9.388
 6949SOL    HW120873   1.336   8.002   9.469
 6949SOL    HW220874   1.481   7.982   9.397
 6950SOL     OW20875   0.527   7.704   9.638
 6950SOL    HW120876   0.554   7.645   9.563
 6950SOL    HW220877   0.527   7.799   9.607
 6951SOL     OW20878   1.754   8.671  10.898
 6951SOL    HW120879   1.845   8.632  10.885
 6951SOL    HW220880   1.762   8.767  10.922
 6952SOL     OW20881   1.064   8.795  10.650
 6952SOL    HW120882   0.984   8.772  10.705
 6952SOL    HW220883   1.147   8.769  10.699
 6953SOL     OW20884   1.592   9.077  10.935
 6953SOL    HW120885   1.619   9.111  10.845
 6953SOL    HW220886   1.671   9.039  10.981
 6954SOL     OW20887   1.111   8.643  10.410
 6954SOL    HW120888   1.071   8.687  10.491
 6954SOL    HW220889   1.070   8.680  10.327
 6955SOL     OW20890   1.638   8.547  10.389
 6955SOL    HW120891   1.643   8.628  10.448
 6955SOL    HW220892   1.552   8.549  10.338
 6956SOL     OW20893   0.915   7.537  10.712
 6956SOL    HW120894   0.940   7.517  10.617
 6956SOL    HW220895   0.987   7.593  10.754
 6957SOL     OW20896   0.980   8.564  11.029
 6957SOL    HW120897   0.881   8.570  11.039
 6957SOL    HW220898   1.003   8.484  10.973
 6958SOL     OW20899   0.705   8.498   9.678
 6958SOL    HW120900   0.691   8.505   9.777
 6958SOL    HW220901   0.789   8.447   9.660
 6959SOL     OW20902   0.410   8.261  10.561
 6959SOL    HW120903   0.496   8.273  10.611
 6959SOL    HW220904   0.368   8.174  10.588
 6960SOL     OW20905   1.274   7.834  10.572
 6960SOL    HW120906   1.295   7.908  10.636
 6960SOL    HW220907   1.185   7.851  10.529
 6961SOL     OW20908   0.064   9.012  10.641
 6961SOL    HW120909   0.018   9.094  10.607
 6961SOL    HW220910   0.162   9.031  10.650
 6962SOL     OW20911   0.367   8.548   9.811
 6962SOL    HW120912   0.360   8.631   9.755
 6962SOL    HW220913   0.371   8.468   9.751
 6963SOL     OW20914   0.566   7.985  10.175
 6963SOL    HW120915   0.578   8.051  10.101
 6963SOL    HW220916   0.612   8.019  10.258
 6964SOL     OW20917   1.252   8.796   9.698
 6964SOL    HW120918   1.302   8.873   9.738
 6964SOL    HW220919   1.157   8.798   9.730
 6965SOL     OW20920   1.272   8.893  10.452
 6965SOL    HW120921   1.319   8.906  10.539
 6965SOL    HW220922   1.206   8.819  10.461
 6966SOL     OW20923   1.582   8.087   9.782
 6966SOL    HW120924   1.551   8.148   9.855
 6966SOL    HW220925   1.632   8.139   9.713
 6967SOL     OW20926   0.354   8.958  10.639
 6967SOL    HW120927   0.333   8.914  10.552
 6967SOL    HW220928   0.451   8.984  10.642
 6968SOL     OW20929   0.402   8.199  10.908
 6968SOL    HW120930   0.470   8.254  10.861
 6968SOL    HW220931   0.442   8.111  10.935
 6969SOL     OW20932   1.587   8.227  10.980
 6969SOL    HW120933   1.495   8.265  10.975
 6969SOL    HW220934   1.647   8.274  10.915
 6970SOL     OW20935   1.013   7.553  11.080
 6970SOL    HW120936   1.019   7.638  11.028
 6970SOL    HW220937   1.045   7.477  11.023
 6971SOL     OW20938   0.504   7.498  11.050
 6971SOL    HW120939   0.462   7.441  10.980
 6971SOL    HW220940   0.438   7.567  11.082
 6972SOL     OW20941   0.573   8.318  10.339
 6972SOL    HW120942   0.617   8.407  10.330
 6972SOL    HW220943   0.510   8.318  10.416
 6973SOL     OW20944   1.360   8.310  10.355
 6973SOL    HW120945   1.285   8.310  10.289
 6973SOL    HW220946   1.397   8.218  10.364
 6974SOL     OW20947   1.209   7.973   9.585
 6974SOL    HW120948   1.222   7.889   9.639
 6974SOL    HW220949   1.180   8.047   9.645
 6975SOL     OW20950   0.307   7.661  10.541
 6975SOL    HW120951   0.284   7.698  10.631
 6975SOL    HW220952   0.277   7.566  10.535
 6976SOL     OW20953   0.037   8.758  10.592
 6976SOL    HW120954   0.090   8.709  10.660
 6976SOL    HW220955   0.059   8.856  10.597
 6977SOL     OW20956   0.732   8.082  10.374
 6977SOL    HW120957   0.791   8.056  10.298
 6977SOL    HW220958   0.704   8.178  10.363
 6978SOL     OW20959   1.728   8.383  11.164
 6978SOL    HW120960   1.682   8.376  11.075
 6978SOL    HW220961   1.666   8.427  11.230
 6979SOL     OW20962   0.307   7.511   9.928
 6979SOL    HW120963   0.296   7.605   9.961
 6979SOL    HW220964   0.302   7.448  10.005
 6980SOL     OW20965   1.622   7.815   9.684
 6980SOL    HW120966   1.624   7.739   9.748
 6980SOL    HW220967   1.574   7.892   9.724
 6981SOL     OW20968   1.023   8.214  10.276
 6981SOL    HW120969   1.038   8.235  10.372
 6981SOL    HW220970   0.993   8.119  10.267
 6982SOL     OW20971   0.980   9.021  11.010
 6982SOL    HW120972   0.960   9.065  10.922
 6982SOL    HW220973   1.019   8.930  10.994
 6983SOL     OW20974   1.859   8.966  10.915
 6983SOL    HW120975   1.873   8.993  10.820
 6983SOL    HW220976   1.942   8.988  10.968
 6984SOL     OW20977   0.350   8.346  11.114
 6984SOL    HW120978   0.426   8.390  11.162
 6984SOL    HW220979   0.385   8.299  11.032
 6985SOL     OW20980   1.540   7.722   9.435
 6985SOL    HW120981   1.479   7.647   9.458
 6985SOL    HW220982   1.562   7.774   9.518
 6986SOL     OW20983   1.303   8.286   9.352
 6986SOL    HW120984   1.337   8.193   9.367
 6986SOL    HW220985   1.321   8.313   9.257
 6987SOL     OW20986   1.068   8.781  10.159
 6987SOL    HW120987   1.075   8.697  10.104
 6987SOL    HW220988   1.130   8.850  10.123
 6988SOL     OW20989   0.319   8.258  10.259
 6988SOL    HW120990   0.412   8.294  10.264
 6988SOL    HW220991   0.313   8.173  10.311
 6989SOL     OW20992   0.339   7.957  10.316
 6989SOL    HW120993   0.287   7.874  10.299
 6989SOL    HW220994   0.416   7.962  10.252
 6990SOL     OW20995   1.138   7.828  10.988
 6990SOL    HW120996   1.093   7.891  11.052
 6990SOL    HW220997   1.231   7.859  10.971
 6991SOL     OW20998   1.160   7.655  10.787
 6991SOL    HW120999   1.160   7.719  10.864
 6991SOL    HW221000   1.188   7.703  10.704
 6992SOL     OW21001   0.008   8.774   9.510
 6992SOL    HW121002  -0.085   8.795   9.479
 6992SOL    HW221003   0.018   8.675   9.523
 6993SOL     OW21004   0.088   9.249  10.237
 6993SOL    HW121005   0.046   9.163  10.210
 6993SOL    HW221006   0.182   9.252  10.203
 6994SOL     OW21007   0.504   9.016  10.220
 6994SOL    HW121008   0.570   9.090  10.229
 6994SOL    HW221009   0.548   8.937  10.178
 6995SOL     OW21010   1.002   8.244  10.548
 6995SOL    HW121011   1.043   8.212  10.634
 6995SOL    HW221012   0.906   8.217  10.545
 6996SOL     OW21013   0.040   7.992  10.424
 6996SOL    HW121014   0.125   7.959  10.383
 6996SOL    HW221015   0.053   8.007  10.522
 6997SOL     OW21016   0.189   7.968  11.032
 6997SOL    HW121017   0.248   7.928  10.962
 6997SOL    HW221018   0.131   8.039  10.991
 6998SOL     OW21019   1.369   8.398  10.970
 6998SOL    HW121020   1.408   8.487  10.990
 6998SOL    HW221021   1.379   8.378  10.873
 6999SOL     OW21022   0.815   8.020   9.635
 6999SOL    HW121023   0.822   7.931   9.589
 6999SOL    HW221024   0.721   8.054   9.627
 7000SOL     OW21025   1.657   8.052  10.516
 7000SOL    HW121026   1.619   7.983  10.578
 7000SOL    HW221027   1.739   8.016  10.472
 7001SOL     OW21028   0.252   9.012  11.054
 7001SOL    HW121029   0.222   9.069  11.130
 7001SOL    HW221030   0.245   8.915  11.080
 7002SOL     OW21031   0.671   7.912  10.579
 7002SOL    HW121032   0.637   7.823  10.549
 7002SOL    HW221033   0.697   7.966  10.499
 7003SOL     OW21034   0.930   9.126  10.775
 7003SOL    HW121035   0.906   9.108  10.680
 7003SOL    HW221036   0.960   9.220  10.785
 7004SOL     OW21037   0.473   7.948   9.501
 7004SOL    HW121038   0.534   8.028   9.505
 7004SOL    HW221039   0.378   7.979   9.508
 7005SOL     OW21040   0.159   8.585  10.776
 7005SOL    HW121041   0.181   8.524  10.852
 7005SOL    HW221042   0.169   8.536  10.690
 7006SOL     OW21043   1.347   8.507  10.544
 7006SOL    HW121044   1.371   8.444  10.470
 7006SOL    HW221045   1.257   8.547  10.526
 7007SOL     OW21046   1.302   8.303   9.619
 7007SOL    HW121047   1.216   8.272   9.661
 7007SOL    HW221048   1.298   8.289   9.520
 7008SOL     OW21049   1.759   9.195  10.464
 7008SOL    HW121050   1.820   9.225  10.391
 7008SOL    HW221051   1.721   9.106  10.442
 7009SOL     OW21052   1.252   9.179  10.438
 7009SOL    HW121053   1.336   9.184  10.384
 7009SOL    HW221054   1.229   9.083  10.456
 7010SOL     OW21055   0.083   8.706  10.332
 7010SOL    HW121056   0.078   8.705  10.432
 7010SOL    HW221057   0.000   8.665  10.294
 7011SOL     OW21058   0.688   9.110  11.026
 7011SOL    HW121059   0.632   9.191  11.035
 7011SOL    HW221060   0.740   9.114  10.940
 7012SOL     OW21061   1.726   7.583   9.833
 7012SOL    HW121062   1.799   7.566   9.766
 7012SOL    HW221063   1.695   7.496   9.871
 7013SOL     OW21064   1.388   9.021   9.787
 7013SOL    HW121065   1.455   9.033   9.713
 7013SOL    HW221066   1.348   9.110   9.810
 7014SOL     OW21067   0.130   9.242  11.161
 7014SOL    HW121068   0.089   9.168  11.214
 7014SOL    HW221069   0.194   9.293  11.219
 7015SOL     OW21070   1.280   8.375   9.982
 7015SOL    HW121071   1.340   8.294   9.984
 7015SOL    HW221072   1.320   8.444   9.922
 7016SOL     OW21073   0.830   8.721  10.732
 7016SOL    HW121074   0.825   8.754  10.827
 7016SOL    HW221075   0.744   8.740  10.686
 7017SOL     OW21076   0.672   9.064   9.464
 7017SOL    HW121077   0.681   9.074   9.365
 7017SOL    HW221078   0.632   8.975   9.485
 7018SOL     OW21079   1.650   9.168  10.704
 7018SOL    HW121080   1.703   9.178  10.620
 7018SOL    HW221081   1.623   9.258  10.738
 7019SOL     OW21082   1.841   7.623  10.273
 7019SOL    HW121083   1.880   7.538  10.237
 7019SOL    HW221084   1.743   7.625  10.254
 7020SOL     OW21085   0.263   7.774  10.030
 7020SOL    HW121086   0.184   7.825   9.996
 7020SOL    HW221087   0.254   7.759  10.128
 7021SOL     OW21088   1.194   9.060   9.341
 7021SOL    HW121089   1.200   8.967   9.378
 7021SOL    HW221090   1.135   9.060   9.261
 7022SOL     OW21091   0.822   8.450  10.682
 7022SOL    HW121092   0.862   8.449  10.590
 7022SOL    HW221093   0.832   8.542  10.722
 7023SOL     OW21094   0.916   8.358   9.601
 7023SOL    HW121095   0.979   8.396   9.533
 7023SOL    HW221096   0.956   8.275   9.640
 7024SOL     OW21097   1.504   9.055   9.354
 7024SOL    HW121098   1.412   9.092   9.361
 7024SOL    HW221099   1.542   9.075   9.264
 7025SOL     OW21100   0.372   8.736  10.800
 7025SOL    HW121101   0.359   8.829  10.766
 7025SOL    HW221102   0.288   8.684  10.787
 7026SOL     OW21103   1.614   8.740  10.599
 7026SOL    HW121104   1.674   8.743  10.679
 7026SOL    HW221105   1.539   8.804  10.612
 7027SOL     OW21106   1.039   8.546  10.006
 7027SOL    HW121107   0.969   8.499  10.060
 7027SOL    HW221108   1.098   8.478   9.963
 7028SOL     OW21109   1.014   7.684  10.281
 7028SOL    HW121110   1.006   7.648  10.188
 7028SOL    HW221111   1.012   7.608  10.346
 7029SOL     OW21112   0.590   8.935   9.801
 7029SOL    HW121113   0.632   8.877   9.731
 7029SOL    HW221114   0.546   9.014   9.757
 7030SOL     OW21115   1.709   7.833  10.691
 7030SOL    HW121116   1.782   7.902  10.695
 7030SOL    HW221117   1.737   7.758  10.632
 7031SOL     OW21118   0.255   8.796   9.600
 7031SOL    HW121119   0.159   8.797   9.573
 7031SOL    HW221120   0.267   8.849   9.684
 7032SOL     OW21121   0.105   8.461  11.036
 7032SOL    HW121122   0.028   8.428  11.090
 7032SOL    HW221123   0.190   8.431  11.078
 7033SOL     OW21124   0.672   7.651  10.799
 7033SOL    HW121125   0.762   7.635  10.759
 7033SOL    HW221126   0.680   7.656  10.898
 7034SOL     OW21127   0.075   7.793   9.343
 7034SOL    HW121128  -0.017   7.765   9.314
 7034SOL    HW221129   0.106   7.870   9.287
 7035SOL     OW21130   1.440   8.304  10.708
 7035SOL    HW121131   1.383   8.356  10.645
 7035SOL    HW221132   1.536   8.316  10.684
 7036SOL     OW21133   0.072   7.614   9.628
 7036SOL    HW121134   0.055   7.697   9.574
 7036SOL    HW221135   0.162   7.577   9.606
 7037SOL     OW21136   1.183   8.783   9.429
 7037SOL    HW121137   1.084   8.772   9.431
 7037SOL    HW221138   1.217   8.798   9.522
 7038SOL     OW21139   0.613   8.290  10.741
 7038SOL    HW121140   0.669   8.371  10.724
 7038SOL    HW221141   0.672   8.210  10.744
 7039SOL     OW21142   1.493   9.215  10.269
 7039SOL    HW121143   1.526   9.279  10.200
 7039SOL    HW221144   1.559   9.209  10.344
 7040SOL     OW21145   0.716   8.013  11.018
 7040SOL    HW121146   0.735   8.078  11.092
 7040SOL    HW221147   0.776   7.933  11.027
 7041SOL     OW21148   1.450   8.668  10.943
 7041SOL    HW121149   1.441   8.658  11.042
 7041SOL    HW221150   1.546   8.661  10.917
 7042SOL     OW21151   0.390   9.189  10.870
 7042SOL    HW121152   0.299   9.230  10.868
 7042SOL    HW221153   0.383   9.095  10.902
 7043SOL     OW21154   1.674   8.331  10.564
 7043SOL    HW121155   1.647   8.242  10.527
 7043SOL    HW221156   1.675   8.399  10.491
 7044SOL     OW21157   1.225   7.773   9.759
 7044SOL    HW121158   1.290   7.699   9.748
 7044SOL    HW221159   1.245   7.823   9.843
 7045SOL     OW21160   0.594   8.193   9.962
 7045SOL    HW121161   0.644   8.278   9.943
 7045SOL    HW221162   0.506   8.195   9.914
 7046SOL     OW21163   1.777   7.790  10.952
 7046SOL    HW121164   1.760   7.821  10.858
 7046SOL    HW221165   1.693   7.753  10.990
 7047SOL     OW21166   1.730   8.382  10.827
 7047SOL    HW121167   1.768   8.473  10.842
 7047SOL    HW221168   1.722   8.365  10.728
 7048SOL     OW21169   0.859   8.822   9.326
 7048SOL    HW121170   0.813   8.837   9.414
 7048SOL    HW221171   0.903   8.907   9.296
 7049SOL     OW21172   0.661   9.238  10.263
 7049SOL    HW121173   0.615   9.326  10.250
 7049SOL    HW221174   0.760   9.250  10.256
 7050SOL     OW21175   0.859   8.404  10.171
 7050SOL    HW121176   0.913   8.335  10.219
 7050SOL    HW221177   0.827   8.473  10.237
 7051SOL     OW21178   1.083   8.432   9.397
 7051SOL    HW121179   1.060   8.485   9.315
 7051SOL    HW221180   1.164   8.376   9.378
 7052SOL     OW21181   1.861   9.017  10.161
 7052SOL    HW121182   1.790   9.005  10.091
 7052SOL    HW221183   1.862   8.938  10.221
 7053SOL     OW21184   0.221   8.762  11.154
 7053SOL    HW121185   0.156   8.689  11.133
 7053SOL    HW221186   0.225   8.776  11.252
 7054SOL     OW21187   0.079   8.688   9.963
 7054SOL    HW121188   0.078   8.641  10.051
 7054SOL    HW221189   0.161   8.660   9.912
 7055SOL     OW21190   0.672   8.839  10.934
 7055SOL    HW121191   0.594   8.789  10.972
 7055SOL    HW221192   0.669   8.934  10.965
 7056SOL     OW21193   1.824   7.640  10.537
 7056SOL    HW121194   1.820   7.550  10.581
 7056SOL    HW221195   1.827   7.629  10.438
 7057SOL     OW21196   0.428   7.872   9.830
 7057SOL    HW121197   0.458   7.800   9.768
 7057SOL    HW221198   0.389   7.832   9.913
 7058SOL     OW21199   1.705   8.935  10.414
 7058SOL    HW121200   1.612   8.910  10.387
 7058SOL    HW221201   1.731   8.885  10.496
 7059SOL     OW21202   0.317   7.995  10.590
 7059SOL    HW121203   0.355   7.936  10.662
 7059SOL    HW221204   0.357   7.969  10.502
 7060SOL     OW21205   0.812   9.034   9.997
 7060SOL    HW121206   0.844   9.044   9.903
 7060SOL    HW221207   0.733   8.972   9.999
 7061SOL     OW21208   1.424   7.662  10.422
 7061SOL    HW121209   1.476   7.597  10.477
 7061SOL    HW221210   1.375   7.725  10.483
 7062SOL     OW21211   1.001   7.482  10.464
 7062SOL    HW121212   0.938   7.410  10.433
 7062SOL    HW221213   1.094   7.446  10.464
 7063SOL     OW21214   0.770   8.778   9.611
 7063SOL    HW121215   0.724   8.691   9.628
 7063SOL    HW221216   0.861   8.775   9.652
 7064SOL     OW21217   0.618   9.015  10.594
 7064SOL    HW121218   0.613   9.097  10.651
 7064SOL    HW221219   0.707   9.012  10.549
 7065SOL     OW21220   1.352   7.500   9.478
 7065SOL    HW121221   1.387   7.459   9.394
 7065SOL    HW221222   1.262   7.462   9.498
 7066SOL     OW21223   1.300   7.901  10.001
 7066SOL    HW121224   1.241   7.981  10.005
 7066SOL    HW221225   1.315   7.866  10.094
 7067SOL     OW21226   1.593   7.669  10.192
 7067SOL    HW121227   1.509   7.668  10.246
 7067SOL    HW221228   1.595   7.752  10.136
 7068SOL     OW21229   0.039   8.525   9.610
 7068SOL    HW121230   0.138   8.514   9.601
 7068SOL    HW221231  -0.001   8.439   9.642
 7069SOL     OW21232   0.875   9.094   9.647
 7069SOL    HW121233   0.798   9.059   9.593
 7069SOL    HW221234   0.843   9.165   9.709
 7070SOL     OW21235   0.230   8.076  11.285
 7070SOL    HW121236   0.137   8.074  11.322
 7070SOL    HW221237   0.231   8.037  11.193
 7071SOL     OW21238   0.225   7.723  12.168
 7071SOL    HW121239   0.260   7.706  12.260
 7071SOL    HW221240   0.137   7.678  12.156
 7072SOL     OW21241   0.019   7.816  11.819
 7072SOL    HW121242  -0.063   7.859  11.858
 7072SOL    HW221243  -0.009   7.743  11.756
 7073SOL     OW21244   0.569   8.723  12.337
 7073SOL    HW121245   0.476   8.716  12.300
 7073SOL    HW221246   0.580   8.812  12.381
 7074SOL     OW21247   1.555   8.959  11.875
 7074SOL    HW121248   1.498   8.943  11.956
 7074SOL    HW221249   1.496   8.969  11.795
 7075SOL     OW21250   1.135   8.151  11.889
 7075SOL    HW121251   1.192   8.229  11.864
 7075SOL    HW221252   1.075   8.177  11.965
 7076SOL     OW21253   1.755   8.055  11.403
 7076SOL    HW121254   1.743   8.042  11.304
 7076SOL    HW221255   1.725   7.974  11.452
 7077SOL     OW21256   0.768   8.592  12.195
 7077SOL    HW121257   0.690   8.609  12.255
 7077SOL    HW221258   0.802   8.679  12.159
 7078SOL     OW21259   0.685   8.460  11.837
 7078SOL    HW121260   0.754   8.444  11.907
 7078SOL    HW221261   0.612   8.517  11.875
 7079SOL     OW21262   0.335   8.883  12.233
 7079SOL    HW121263   0.257   8.852  12.180
 7079SOL    HW221264   0.393   8.941  12.176
 7080SOL     OW21265   1.460   8.953  12.511
 7080SOL    HW121266   1.484   9.047  12.537
 7080SOL    HW221267   1.444   8.899  12.593
 7081SOL     OW21268   0.438   7.840  12.671
 7081SOL    HW121269   0.520   7.784  12.680
 7081SOL    HW221270   0.357   7.782  12.675
 7082SOL     OW21271   1.603   7.895  11.909
 7082SOL    HW121272   1.529   7.941  11.859
 7082SOL    HW221273   1.654   7.963  11.962
 7083SOL     OW21274   0.231   9.161  11.655
 7083SOL    HW121275   0.265   9.238  11.709
 7083SOL    HW221276   0.275   9.161  11.565
 7084SOL     OW21277   0.230   8.882  11.710
 7084SOL    HW121278   0.204   8.978  11.710
 7084SOL    HW221279   0.159   8.828  11.755
 7085SOL     OW21280   0.240   8.539  12.058
 7085SOL    HW121281   0.254   8.455  12.110
 7085SOL    HW221282   0.185   8.603  12.113
 7086SOL     OW21283   0.620   9.234  12.611
 7086SOL    HW121284   0.528   9.217  12.646
 7086SOL    HW221285   0.648   9.326  12.637
 7087SOL     OW21286   0.606   8.412  11.295
 7087SOL    HW121287   0.613   8.496  11.241
 7087SOL    HW221288   0.652   8.425  11.383
 7088SOL     OW21289   1.594   7.562  12.652
 7088SOL    HW121290   1.576   7.629  12.580
 7088SOL    HW221291   1.591   7.608  12.741
 7089SOL     OW21292   0.122   8.091  11.735
 7089SOL    HW121293   0.077   8.003  11.752
 7089SOL    HW221294   0.121   8.145  11.819
 7090SOL     OW21295   1.842   9.215  11.531
 7090SOL    HW121296   1.896   9.186  11.611
 7090SOL    HW221297   1.872   9.305  11.502
 7091SOL     OW21298   0.027   9.044  11.289
 7091SOL    HW121299   0.008   8.948  11.310
 7091SOL    HW221300  -0.006   9.102  11.364
 7092SOL     OW21301   1.689   8.370  11.784
 7092SOL    HW121302   1.784   8.341  11.792
 7092SOL    HW221303   1.681   8.435  11.709
 7093SOL     OW21304   1.641   8.556  11.604
 7093SOL    HW121305   1.727   8.558  11.552
 7093SOL    HW221306   1.655   8.603  11.692
 7094SOL     OW21307   0.613   8.813  11.898
 7094SOL    HW121308   0.564   8.726  11.907
 7094SOL    HW221309   0.590   8.856  11.811
 7095SOL     OW21310   0.809   7.452  11.674
 7095SOL    HW121311   0.849   7.543  11.665
 7095SOL    HW221312   0.709   7.460  11.680
 7096SOL     OW21313   0.197   8.424  12.436
 7096SOL    HW121314   0.286   8.379  12.422
 7096SOL    HW221315   0.124   8.359  12.417
 7097SOL     OW21316   1.525   8.447  11.362
 7097SOL    HW121317   1.462   8.371  11.375
 7097SOL    HW221318   1.573   8.465  11.448
 7098SOL     OW21319   0.317   7.699  12.973
 7098SOL    HW121320   0.388   7.770  12.979
 7098SOL    HW221321   0.229   7.738  13.001
 7099SOL     OW21322   1.466   8.865  12.125
 7099SOL    HW121323   1.407   8.871  12.205
 7099SOL    HW221324   1.451   8.777  12.079
 7100SOL     OW21325   1.667   9.162  11.744
 7100SOL    HW121326   1.626   9.139  11.656
 7100SOL    HW221327   1.649   9.088  11.809
 7101SOL     OW21328   0.598   8.177  11.442
 7101SOL    HW121329   0.622   8.246  11.374
 7101SOL    HW221330   0.520   8.210  11.496
 7102SOL     OW21331   1.281   7.793  12.116
 7102SOL    HW121332   1.195   7.743  12.103
 7102SOL    HW221333   1.343   7.739  12.172
 7103SOL     OW21334   1.576   9.110  11.479
 7103SOL    HW121335   1.665   9.156  11.482
 7103SOL    HW221336   1.555   9.086  11.384
 7104SOL     OW21337   0.807   8.053  12.637
 7104SOL    HW121338   0.760   8.050  12.726
 7104SOL    HW221339   0.756   7.998  12.571
 7105SOL     OW21340   0.991   7.858  12.414
 7105SOL    HW121341   0.914   7.892  12.468
 7105SOL    HW221342   0.957   7.807  12.335
 7106SOL     OW21343   1.041   8.149  11.601
 7106SOL    HW121344   1.067   8.145  11.697
 7106SOL    HW221345   0.956   8.098  11.587
 7107SOL     OW21346   0.076   8.259  11.961
 7107SOL    HW121347   0.175   8.247  11.970
 7107SOL    HW221348   0.052   8.354  11.982
 7108SOL     OW21349   0.130   9.269  12.743
 7108SOL    HW121350   0.120   9.254  12.842
 7108SOL    HW221351   0.044   9.305  12.707
 7109SOL     OW21352   0.865   7.796  11.367
 7109SOL    HW121353   0.924   7.859  11.318
 7109SOL    HW221354   0.884   7.702  11.338
 7110SOL     OW21355   1.362   8.592  11.717
 7110SOL    HW121356   1.445   8.563  11.669
 7110SOL    HW221357   1.313   8.659  11.661
 7111SOL     OW21358   0.550   7.644  12.057
 7111SOL    HW121359   0.545   7.639  12.157
 7111SOL    HW221360   0.552   7.740  12.028
 7112SOL     OW21361   1.008   8.904  11.649
 7112SOL    HW121362   0.962   8.976  11.597
 7112SOL    HW221363   1.004   8.924  11.747
 7113SOL     OW21364   0.351   9.249  12.025
 7113SOL    HW121365   0.401   9.163  12.031
 7113SOL    HW221366   0.416   9.326  12.022
 7114SOL     OW21367   1.795   8.514  12.045
 7114SOL    HW121368   1.733   8.499  11.969
 7114SOL    HW221369   1.743   8.525  12.130
 7115SOL     OW21370   0.321   8.391  11.414
 7115SOL    HW121371   0.403   8.430  11.372
 7115SOL    HW221372   0.294   8.309  11.365
 7116SOL     OW21373   1.458   8.183  11.900
 7116SOL    HW121374   1.453   8.118  11.975
 7116SOL    HW221375   1.538   8.242  11.913
 7117SOL     OW21376   1.111   9.224  11.409
 7117SOL    HW121377   1.051   9.162  11.459
 7117SOL    HW221378   1.142   9.180  11.324
 7118SOL     OW21379   1.632   8.825  11.253
 7118SOL    HW121380   1.600   8.919  11.243
 7118SOL    HW221381   1.556   8.762  11.241
 7119SOL     OW21382   0.464   9.191  11.495
 7119SOL    HW121383   0.497   9.230  11.581
 7119SOL    HW221384   0.540   9.184  11.430
 7120SOL     OW21385   1.400   7.555  11.598
 7120SOL    HW121386   1.376   7.518  11.508
 7120SOL    HW221387   1.499   7.571  11.602
 7121SOL     OW21388   0.249   9.233  12.413
 7121SOL    HW121389   0.306   9.168  12.463
 7121SOL    HW221390   0.233   9.200  12.320
 7122SOL     OW21391   0.940   9.146  12.076
 7122SOL    HW121392   1.020   9.089  12.097
 7122SOL    HW221393   0.891   9.106  11.999
 7123SOL     OW21394   0.382   8.148  11.652
 7123SOL    HW121395   0.427   8.058  11.649
 7123SOL    HW221396   0.288   8.137  11.685
 7124SOL     OW21397   0.614   7.570  11.289
 7124SOL    HW121398   0.712   7.548  11.296
 7124SOL    HW221399   0.583   7.553  11.196
 7125SOL     OW21400   0.888   8.962  12.367
 7125SOL    HW121401   0.865   8.937  12.273
 7125SOL    HW221402   0.949   8.893  12.406
 7126SOL     OW21403   0.803   8.850  12.096
 7126SOL    HW121404   0.893   8.864  12.054
 7126SOL    HW221405   0.732   8.852  12.025
 7127SOL     OW21406   0.922   7.951  12.071
 7127SOL    HW121407   0.897   7.942  11.975
 7127SOL    HW221408   0.970   7.869  12.102
 7128SOL     OW21409   0.539   7.512  11.684
 7128SOL    HW121410   0.458   7.513  11.742
 7128SOL    HW221411   0.542   7.595  11.629
 7129SOL     OW21412   1.434   8.636  11.213
 7129SOL    HW121413   1.466   8.560  11.270
 7129SOL    HW221414   1.342   8.663  11.243
 7130SOL     OW21415   0.297   7.483  11.343
 7130SOL    HW121416   0.346   7.567  11.322
 7130SOL    HW221417   0.359   7.418  11.388
 7131SOL     OW21418   0.935   7.684  11.652
 7131SOL    HW121419   0.887   7.725  11.574
 7131SOL    HW221420   1.034   7.682  11.633
 7132SOL     OW21421   1.227   9.018  11.965
 7132SOL    HW121422   1.248   9.092  11.900
 7132SOL    HW221423   1.295   9.018  12.038
 7133SOL     OW21424   0.459   8.600  11.913
 7133SOL    HW121425   0.388   8.573  11.978
 7133SOL    HW221426   0.433   8.572  11.820
 7134SOL     OW21427   1.271   9.245  11.763
 7134SOL    HW121428   1.315   9.309  11.699
 7134SOL    HW221429   1.221   9.297  11.833
 7135SOL     OW21430   1.032   7.997  11.188
 7135SOL    HW121431   0.991   8.079  11.149
 7135SOL    HW221432   1.096   8.023  11.261
 7136SOL     OW21433   0.078   8.004  12.558
 7136SOL    HW121434   0.170   8.003  12.517
 7136SOL    HW221435   0.072   8.078  12.625
 7137SOL     OW21436   0.561   7.670  12.319
 7137SOL    HW121437   0.599   7.586  12.356
 7137SOL    HW221438   0.473   7.689  12.363
 7138SOL     OW21439   0.866   7.902  11.814
 7138SOL    HW121440   0.834   7.974  11.752
 7138SOL    HW221441   0.890   7.821  11.761
 7139SOL     OW21442   1.017   7.487  11.925
 7139SOL    HW121443   0.945   7.492  11.856
 7139SOL    HW221444   0.993   7.418  11.994
 7140SOL     OW21445   1.429   8.621  12.039
 7140SOL    HW121446   1.374   8.537  12.032
 7140SOL    HW221447   1.455   8.650  11.947
 7141SOL     OW21448   1.466   8.038  12.164
 7141SOL    HW121449   1.436   7.943  12.171
 7141SOL    HW221450   1.539   8.054  12.230
 7142SOL     OW21451   1.857   8.281  11.549
 7142SOL    HW121452   1.899   8.217  11.613
 7142SOL    HW221453   1.819   8.230  11.471
 7143SOL     OW21454   0.488   8.833  11.346
 7143SOL    HW121455   0.401   8.818  11.393
 7143SOL    HW221456   0.471   8.859  11.251
 7144SOL     OW21457   1.664   8.728  11.829
 7144SOL    HW121458   1.763   8.736  11.843
 7144SOL    HW221459   1.619   8.812  11.860
 7145SOL     OW21460   1.390   8.023  11.250
 7145SOL    HW121461   1.336   8.002  11.331
 7145SOL    HW221462   1.481   7.982  11.259
 7146SOL     OW21463   0.527   7.704  11.500
 7146SOL    HW121464   0.554   7.645  11.425
 7146SOL    HW221465   0.527   7.799  11.469
 7147SOL     OW21466   1.064   8.795  12.512
 7147SOL    HW121467   0.984   8.772  12.567
 7147SOL    HW221468   1.147   8.769  12.561
 7148SOL     OW21469   1.111   8.643  12.272
 7148SOL    HW121470   1.071   8.687  12.353
 7148SOL    HW221471   1.070   8.680  12.189
 7149SOL     OW21472   1.638   8.547  12.251
 7149SOL    HW121473   1.643   8.628  12.310
 7149SOL    HW221474   1.552   8.549  12.200
 7150SOL     OW21475   0.915   7.537  12.574
 7150SOL    HW121476   0.940   7.517  12.479
 7150SOL    HW221477   0.987   7.593  12.616
 7151SOL     OW21478   0.705   8.498  11.540
 7151SOL    HW121479   0.691   8.505  11.639
 7151SOL    HW221480   0.789   8.447  11.522
 7152SOL     OW21481   0.410   8.261  12.423
 7152SOL    HW121482   0.496   8.273  12.473
 7152SOL    HW221483   0.368   8.174  12.450
 7153SOL     OW21484   1.274   7.834  12.434
 7153SOL    HW121485   1.295   7.908  12.498
 7153SOL    HW221486   1.185   7.851  12.391
 7154SOL     OW21487   0.064   9.012  12.503
 7154SOL    HW121488   0.018   9.094  12.469
 7154SOL    HW221489   0.162   9.031  12.512
 7155SOL     OW21490   0.367   8.548  11.673
 7155SOL    HW121491   0.360   8.631  11.617
 7155SOL    HW221492   0.371   8.468  11.613
 7156SOL     OW21493   0.566   7.985  12.037
 7156SOL    HW121494   0.578   8.051  11.963
 7156SOL    HW221495   0.612   8.019  12.120
 7157SOL     OW21496   1.252   8.796  11.560
 7157SOL    HW121497   1.302   8.873  11.600
 7157SOL    HW221498   1.157   8.798  11.592
 7158SOL     OW21499   1.272   8.893  12.314
 7158SOL    HW121500   1.319   8.906  12.401
 7158SOL    HW221501   1.206   8.819  12.323
 7159SOL     OW21502   1.582   8.087  11.644
 7159SOL    HW121503   1.551   8.148  11.717
 7159SOL    HW221504   1.632   8.139  11.575
 7160SOL     OW21505   0.354   8.958  12.501
 7160SOL    HW121506   0.333   8.914  12.414
 7160SOL    HW221507   0.451   8.984  12.504
 7161SOL     OW21508   0.402   8.199  12.770
 7161SOL    HW121509   0.470   8.254  12.723
 7161SOL    HW221510   0.442   8.111  12.797
 7162SOL     OW21511   1.587   8.227  12.842
 7162SOL    HW121512   1.495   8.265  12.837
 7162SOL    HW221513   1.647   8.274  12.777
 7163SOL     OW21514   0.573   8.318  12.201
 7163SOL    HW121515   0.617   8.407  12.192
 7163SOL    HW221516   0.510   8.318  12.278
 7164SOL     OW21517   1.360   8.310  12.217
 7164SOL    HW121518   1.285   8.310  12.151
 7164SOL    HW221519   1.397   8.218  12.226
 7165SOL     OW21520   1.209   7.973  11.447
 7165SOL    HW121521   1.222   7.889  11.501
 7165SOL    HW221522   1.180   8.047  11.507
 7166SOL     OW21523   0.307   7.661  12.403
 7166SOL    HW121524   0.284   7.698  12.493
 7166SOL    HW221525   0.277   7.566  12.397
 7167SOL     OW21526   0.037   8.758  12.454
 7167SOL    HW121527   0.090   8.709  12.522
 7167SOL    HW221528   0.059   8.856  12.459
 7168SOL     OW21529   0.732   8.082  12.236
 7168SOL    HW121530   0.791   8.056  12.160
 7168SOL    HW221531   0.704   8.178  12.225
 7169SOL     OW21532   0.307   7.511  11.790
 7169SOL    HW121533   0.296   7.605  11.823
 7169SOL    HW221534   0.302   7.448  11.867
 7170SOL     OW21535   1.622   7.815  11.546
 7170SOL    HW121536   1.624   7.739  11.610
 7170SOL    HW221537   1.574   7.892  11.586
 7171SOL     OW21538   1.023   8.214  12.138
 7171SOL    HW121539   1.038   8.235  12.234
 7171SOL    HW221540   0.993   8.119  12.129
 7172SOL     OW21541   0.980   9.021  12.872
 7172SOL    HW121542   0.960   9.065  12.784
 7172SOL    HW221543   1.019   8.930  12.856
 7173SOL     OW21544   1.540   7.722  11.297
 7173SOL    HW121545   1.479   7.647  11.320
 7173SOL    HW221546   1.562   7.774  11.380
 7174SOL     OW21547   1.303   8.286  11.214
 7174SOL    HW121548   1.337   8.193  11.229
 7174SOL    HW221549   1.321   8.313  11.119
 7175SOL     OW21550   1.068   8.781  12.021
 7175SOL    HW121551   1.075   8.697  11.966
 7175SOL    HW221552   1.130   8.850  11.985
 7176SOL     OW21553   0.319   8.258  12.121
 7176SOL    HW121554   0.412   8.294  12.126
 7176SOL    HW221555   0.313   8.173  12.173
 7177SOL     OW21556   0.339   7.957  12.178
 7177SOL    HW121557   0.287   7.874  12.161
 7177SOL    HW221558   0.416   7.962  12.114
 7178SOL     OW21559   1.138   7.828  12.850
 7178SOL    HW121560   1.093   7.891  12.914
 7178SOL    HW221561   1.231   7.859  12.833
 7179SOL     OW21562   1.160   7.655  12.649
 7179SOL    HW121563   1.160   7.719  12.726
 7179SOL    HW221564   1.188   7.703  12.566
 7180SOL     OW21565   0.008   8.774  11.372
 7180SOL    HW121566  -0.085   8.795  11.341
 7180SOL    HW221567   0.018   8.675  11.385
 7181SOL     OW21568   0.088   9.249  12.099
 7181SOL    HW121569   0.046   9.163  12.072
 7181SOL    HW221570   0.182   9.252  12.065
 7182SOL     OW21571   0.504   9.016  12.082
 7182SOL    HW121572   0.570   9.090  12.091
 7182SOL    HW221573   0.548   8.937  12.040
 7183SOL     OW21574   1.002   8.244  12.410
 7183SOL    HW121575   1.043   8.212  12.496
 7183SOL    HW221576   0.906   8.217  12.407
 7184SOL     OW21577   0.040   7.992  12.286
 7184SOL    HW121578   0.125   7.959  12.245
 7184SOL    HW221579   0.053   8.007  12.384
 7185SOL     OW21580   0.815   8.020  11.497
 7185SOL    HW121581   0.822   7.931  11.451
 7185SOL    HW221582   0.721   8.054  11.489
 7186SOL     OW21583   1.657   8.052  12.378
 7186SOL    HW121584   1.619   7.983  12.440
 7186SOL    HW221585   1.739   8.016  12.334
 7187SOL     OW21586   0.671   7.912  12.441
 7187SOL    HW121587   0.637   7.823  12.411
 7187SOL    HW221588   0.697   7.966  12.361
 7188SOL     OW21589   0.930   9.126  12.637
 7188SOL    HW121590   0.906   9.108  12.542
 7188SOL    HW221591   0.960   9.220  12.647
 7189SOL     OW21592   0.473   7.948  11.363
 7189SOL    HW121593   0.534   8.028  11.367
 7189SOL    HW221594   0.378   7.979  11.370
 7190SOL     OW21595   0.159   8.585  12.638
 7190SOL    HW121596   0.181   8.524  12.714
 7190SOL    HW221597   0.169   8.536  12.552
 7191SOL     OW21598   1.347   8.507  12.406
 7191SOL    HW121599   1.371   8.444  12.332
 7191SOL    HW221600   1.257   8.547  12.388
 7192SOL     OW21601   1.302   8.303  11.481
 7192SOL    HW121602   1.216   8.272  11.523
 7192SOL    HW221603   1.298   8.289  11.382
 7193SOL     OW21604   1.759   9.195  12.326
 7193SOL    HW121605   1.820   9.225  12.253
 7193SOL    HW221606   1.721   9.106  12.304
 7194SOL     OW21607   1.252   9.179  12.300
 7194SOL    HW121608   1.336   9.184  12.246
 7194SOL    HW221609   1.229   9.083  12.318
 7195SOL     OW21610   0.083   8.706  12.194
 7195SOL    HW121611   0.078   8.705  12.294
 7195SOL    HW221612   0.000   8.665  12.156
 7196SOL     OW21613   1.726   7.583  11.695
 7196SOL    HW121614   1.799   7.566  11.628
 7196SOL    HW221615   1.695   7.496  11.733
 7197SOL     OW21616   1.388   9.021  11.649
 7197SOL    HW121617   1.455   9.033  11.575
 7197SOL    HW221618   1.348   9.110  11.672
 7198SOL     OW21619   1.280   8.375  11.844
 7198SOL    HW121620   1.340   8.294  11.846
 7198SOL    HW221621   1.320   8.444  11.784
 7199SOL     OW21622   0.672   9.064  11.326
 7199SOL    HW121623   0.681   9.074  11.227
 7199SOL    HW221624   0.632   8.975  11.347
 7200SOL     OW21625   1.650   9.168  12.566
 7200SOL    HW121626   1.703   9.178  12.482
 7200SOL    HW221627   1.623   9.258  12.600
 7201SOL     OW21628   1.841   7.623  12.135
 7201SOL    HW121629   1.880   7.538  12.099
 7201SOL    HW221630   1.743   7.625  12.116
 7202SOL     OW21631   0.263   7.774  11.892
 7202SOL    HW121632   0.184   7.825  11.858
 7202SOL    HW221633   0.254   7.759  11.990
 7203SOL     OW21634   1.194   9.060  11.203
 7203SOL    HW121635   1.200   8.967  11.240
 7203SOL    HW221636   1.135   9.060  11.123
 7204SOL     OW21637   0.822   8.450  12.544
 7204SOL    HW121638   0.862   8.449  12.452
 7204SOL    HW221639   0.832   8.542  12.584
 7205SOL     OW21640   0.916   8.358  11.463
 7205SOL    HW121641   0.979   8.396  11.395
 7205SOL    HW221642   0.956   8.275  11.502
 7206SOL     OW21643   1.504   9.055  11.216
 7206SOL    HW121644   1.412   9.092  11.223
 7206SOL    HW221645   1.542   9.075  11.126
 7207SOL     OW21646   0.372   8.736  12.662
 7207SOL    HW121647   0.359   8.829  12.628
 7207SOL    HW221648   0.288   8.684  12.649
 7208SOL     OW21649   1.614   8.740  12.461
 7208SOL    HW121650   1.674   8.743  12.541
 7208SOL    HW221651   1.539   8.804  12.474
 7209SOL     OW21652   1.039   8.546  11.868
 7209SOL    HW121653   0.969   8.499  11.922
 7209SOL    HW221654   1.098   8.478  11.825
 7210SOL     OW21655   1.014   7.684  12.143
 7210SOL    HW121656   1.006   7.648  12.050
 7210SOL    HW221657   1.012   7.608  12.208
 7211SOL     OW21658   0.590   8.935  11.663
 7211SOL    HW121659   0.632   8.877  11.593
 7211SOL    HW221660   0.546   9.014  11.619
 7212SOL     OW21661   1.709   7.833  12.553
 7212SOL    HW121662   1.782   7.902  12.557
 7212SOL    HW221663   1.737   7.758  12.494
 7213SOL     OW21664   0.255   8.796  11.462
 7213SOL    HW121665   0.159   8.797  11.435
 7213SOL    HW221666   0.267   8.849  11.546
 7214SOL     OW21667   0.075   7.793  11.205
 7214SOL    HW121668  -0.017   7.765  11.176
 7214SOL    HW221669   0.106   7.870  11.149
 7215SOL     OW21670   1.440   8.304  12.570
 7215SOL    HW121671   1.383   8.356  12.507
 7215SOL    HW221672   1.536   8.316  12.546
 7216SOL     OW21673   0.072   7.614  11.490
 7216SOL    HW121674   0.055   7.697  11.436
 7216SOL    HW221675   0.162   7.577  11.468
 7217SOL     OW21676   1.183   8.783  11.291
 7217SOL    HW121677   1.084   8.772  11.293
 7217SOL    HW221678   1.217   8.798  11.384
 7218SOL     OW21679   0.613   8.290  12.603
 7218SOL    HW121680   0.669   8.371  12.586
 7218SOL    HW221681   0.672   8.210  12.606
 7219SOL     OW21682   1.493   9.215  12.131
 7219SOL    HW121683   1.526   9.279  12.062
 7219SOL    HW221684   1.559   9.209  12.206
 7220SOL     OW21685   0.390   9.189  12.732
 7220SOL    HW121686   0.299   9.230  12.730
 7220SOL    HW221687   0.383   9.095  12.764
 7221SOL     OW21688   1.674   8.331  12.426
 7221SOL    HW121689   1.647   8.242  12.389
 7221SOL    HW221690   1.675   8.399  12.353
 7222SOL     OW21691   1.225   7.773  11.621
 7222SOL    HW121692   1.290   7.699  11.610
 7222SOL    HW221693   1.245   7.823  11.705
 7223SOL     OW21694   0.594   8.193  11.824
 7223SOL    HW121695   0.644   8.278  11.805
 7223SOL    HW221696   0.506   8.195  11.776
 7224SOL     OW21697   1.777   7.790  12.814
 7224SOL    HW121698   1.760   7.821  12.720
 7224SOL    HW221699   1.693   7.753  12.852
 7225SOL     OW21700   1.730   8.382  12.689
 7225SOL    HW121701   1.768   8.473  12.704
 7225SOL    HW221702   1.722   8.365  12.590
 7226SOL     OW21703   0.859   8.822  11.188
 7226SOL    HW121704   0.813   8.837  11.276
 7226SOL    HW221705   0.903   8.907  11.158
 7227SOL     OW21706   0.661   9.238  12.125
 7227SOL    HW121707   0.615   9.326  12.112
 7227SOL    HW221708   0.760   9.250  12.118
 7228SOL     OW21709   0.859   8.404  12.033
 7228SOL    HW121710   0.913   8.335  12.081
 7228SOL    HW221711   0.827   8.473  12.099
 7229SOL     OW21712   1.083   8.432  11.259
 7229SOL    HW121713   1.060   8.485  11.177
 7229SOL    HW221714   1.164   8.376  11.240
 7230SOL     OW21715   1.861   9.017  12.023
 7230SOL    HW121716   1.790   9.005  11.953
 7230SOL    HW221717   1.862   8.938  12.083
 7231SOL     OW21718   0.079   8.688  11.825
 7231SOL    HW121719   0.078   8.641  11.913
 7231SOL    HW221720   0.161   8.660  11.774
 7232SOL     OW21721   1.824   7.640  12.399
 7232SOL    HW121722   1.820   7.550  12.443
 7232SOL    HW221723   1.827   7.629  12.300
 7233SOL     OW21724   0.428   7.872  11.692
 7233SOL    HW121725   0.458   7.800  11.630
 7233SOL    HW221726   0.389   7.832  11.775
 7234SOL     OW21727   1.705   8.935  12.276
 7234SOL    HW121728   1.612   8.910  12.249
 7234SOL    HW221729   1.731   8.885  12.358
 7235SOL     OW21730   0.317   7.995  12.452
 7235SOL    HW121731   0.355   7.936  12.524
 7235SOL    HW221732   0.357   7.969  12.364
 7236SOL     OW21733   0.812   9.034  11.859
 7236SOL    HW121734   0.844   9.044  11.765
 7236SOL    HW221735   0.733   8.972  11.861
 7237SOL     OW21736   1.424   7.662  12.284
 7237SOL    HW121737   1.476   7.597  12.339
 7237SOL    HW221738   1.375   7.725  12.345
 7238SOL     OW21739   1.001   7.482  12.326
 7238SOL    HW121740   0.938   7.410  12.295
 7238SOL    HW221741   1.094   7.446  12.326
 7239SOL     OW21742   0.770   8.778  11.473
 7239SOL    HW121743   0.724   8.691  11.490
 7239SOL    HW221744   0.861   8.775  11.514
 7240SOL     OW21745   0.618   9.015  12.456
 7240SOL    HW121746   0.613   9.097  12.513
 7240SOL    HW221747   0.707   9.012  12.411
 7241SOL     OW21748   1.352   7.500  11.340
 7241SOL    HW121749   1.387   7.459  11.256
 7241SOL    HW221750   1.262   7.462  11.360
 7242SOL     OW21751   1.300   7.901  11.863
 7242SOL    HW121752   1.241   7.981  11.867
 7242SOL    HW221753   1.315   7.866  11.956
 7243SOL     OW21754   1.593   7.669  12.054
 7243SOL    HW121755   1.509   7.668  12.108
 7243SOL    HW221756   1.595   7.752  11.998
 7244SOL     OW21757   0.039   8.525  11.472
 7244SOL    HW121758   0.138   8.514  11.463
 7244SOL    HW221759  -0.001   8.439  11.504
 7245SOL     OW21760   0.875   9.094  11.509
 7245SOL    HW121761   0.798   9.059  11.455
 7245SOL    HW221762   0.843   9.165  11.571
 7246SOL     OW21763   0.230   9.938   0.113
 7246SOL    HW121764   0.137   9.936   0.150
 7246SOL    HW221765   0.231   9.899   0.021
 7247SOL     OW21766   0.225   9.585   0.996
 7247SOL    HW121767   0.260   9.568   1.088
 7247SOL    HW221768   0.137   9.540   0.984
 7248SOL     OW21769   0.019   9.678   0.647
 7248SOL    HW121770  -0.063   9.721   0.686
 7248SOL    HW221771  -0.009   9.605   0.584
 7249SOL     OW21772   0.569  10.585   1.165
 7249SOL    HW121773   0.476  10.578   1.128
 7249SOL    HW221774   0.580  10.674   1.209
 7250SOL     OW21775   1.555  10.821   0.703
 7250SOL    HW121776   1.498  10.805   0.784
 7250SOL    HW221777   1.496  10.831   0.623
 7251SOL     OW21778   1.135  10.013   0.717
 7251SOL    HW121779   1.192  10.091   0.692
 7251SOL    HW221780   1.075  10.039   0.793
 7252SOL     OW21781   1.755   9.917   0.231
 7252SOL    HW121782   1.743   9.904   0.132
 7252SOL    HW221783   1.725   9.836   0.280
 7253SOL     OW21784   0.768  10.454   1.023
 7253SOL    HW121785   0.690  10.471   1.083
 7253SOL    HW221786   0.802  10.541   0.987
 7254SOL     OW21787   0.850  10.108   1.823
 7254SOL    HW121788   0.846  10.184   1.888
 7254SOL    HW221789   0.872  10.144   1.732
 7255SOL     OW21790   0.685  10.322   0.665
 7255SOL    HW121791   0.754  10.306   0.735
 7255SOL    HW221792   0.612  10.379   0.703
 7256SOL     OW21793   0.686  10.471   1.803
 7256SOL    HW121794   0.746  10.550   1.817
 7256SOL    HW221795   0.600  10.502   1.762
 7257SOL     OW21796   0.335  10.745   1.061
 7257SOL    HW121797   0.257  10.714   1.008
 7257SOL    HW221798   0.393  10.803   1.004
 7258SOL     OW21799   1.460  10.815   1.339
 7258SOL    HW121800   1.484  10.909   1.365
 7258SOL    HW221801   1.444  10.761   1.421
 7259SOL     OW21802   0.438   9.702   1.499
 7259SOL    HW121803   0.520   9.646   1.508
 7259SOL    HW221804   0.357   9.644   1.503
 7260SOL     OW21805   1.603   9.757   0.737
 7260SOL    HW121806   1.529   9.803   0.687
 7260SOL    HW221807   1.654   9.825   0.790
 7261SOL     OW21808   0.231  11.023   0.483
 7261SOL    HW121809   0.265  11.100   0.537
 7261SOL    HW221810   0.275  11.023   0.393
 7262SOL     OW21811   1.127  10.651   1.690
 7262SOL    HW121812   1.174  10.651   1.778
 7262SOL    HW221813   1.079  10.564   1.679
 7263SOL     OW21814   0.230  10.744   0.538
 7263SOL    HW121815   0.204  10.840   0.538
 7263SOL    HW221816   0.159  10.690   0.583
 7264SOL     OW21817   0.240  10.401   0.886
 7264SOL    HW121818   0.254  10.317   0.938
 7264SOL    HW221819   0.185  10.465   0.941
 7265SOL     OW21820   0.620  11.096   1.439
 7265SOL    HW121821   0.528  11.079   1.474
 7265SOL    HW221822   0.648  11.188   1.465
 7266SOL     OW21823   0.606  10.274   0.123
 7266SOL    HW121824   0.613  10.358   0.069
 7266SOL    HW221825   0.652  10.287   0.211
 7267SOL     OW21826   1.594   9.424   1.480
 7267SOL    HW121827   1.576   9.491   1.408
 7267SOL    HW221828   1.591   9.470   1.569
 7268SOL     OW21829   0.122   9.953   0.563
 7268SOL    HW121830   0.077   9.865   0.580
 7268SOL    HW221831   0.121  10.007   0.647
 7269SOL     OW21832   1.842  11.077   0.359
 7269SOL    HW121833   1.896  11.048   0.439
 7269SOL    HW221834   1.872  11.167   0.330
 7270SOL     OW21835   0.027  10.906   0.117
 7270SOL    HW121836   0.008  10.810   0.138
 7270SOL    HW221837  -0.006  10.964   0.192
 7271SOL     OW21838   1.689  10.232   0.612
 7271SOL    HW121839   1.784  10.203   0.620
 7271SOL    HW221840   1.681  10.297   0.537
 7272SOL     OW21841   1.641  10.418   0.432
 7272SOL    HW121842   1.727  10.420   0.380
 7272SOL    HW221843   1.655  10.465   0.520
 7273SOL     OW21844   0.113  10.047   1.597
 7273SOL    HW121845   0.201  10.034   1.642
 7273SOL    HW221846   0.100  10.144   1.575
 7274SOL     OW21847   0.613  10.675   0.726
 7274SOL    HW121848   0.564  10.588   0.735
 7274SOL    HW221849   0.590  10.718   0.639
 7275SOL     OW21850   1.293  10.538   1.423
 7275SOL    HW121851   1.330  10.465   1.365
 7275SOL    HW221852   1.345  10.543   1.508
 7276SOL     OW21853   0.809   9.314   0.502
 7276SOL    HW121854   0.849   9.405   0.493
 7276SOL    HW221855   0.709   9.322   0.508
 7277SOL     OW21856   0.197  10.286   1.264
 7277SOL    HW121857   0.286  10.241   1.250
 7277SOL    HW221858   0.124  10.221   1.245
 7278SOL     OW21859   1.525  10.309   0.190
 7278SOL    HW121860   1.462  10.233   0.203
 7278SOL    HW221861   1.573  10.327   0.276
 7279SOL     OW21862   1.187  11.102   1.616
 7279SOL    HW121863   1.211  11.162   1.540
 7279SOL    HW221864   1.194  11.007   1.586
 7280SOL     OW21865   0.317   9.561   1.801
 7280SOL    HW121866   0.388   9.632   1.807
 7280SOL    HW221867   0.229   9.600   1.829
 7281SOL     OW21868   1.466  10.727   0.953
 7281SOL    HW121869   1.407  10.733   1.033
 7281SOL    HW221870   1.451  10.639   0.907
 7282SOL     OW21871   1.667  11.024   0.572
 7282SOL    HW121872   1.626  11.001   0.484
 7282SOL    HW221873   1.649  10.950   0.637
 7283SOL     OW21874   0.598  10.039   0.270
 7283SOL    HW121875   0.622  10.108   0.202
 7283SOL    HW221876   0.520  10.072   0.324
 7284SOL     OW21877   1.281   9.655   0.944
 7284SOL    HW121878   1.195   9.605   0.931
 7284SOL    HW221879   1.343   9.601   1.000
 7285SOL     OW21880   1.576  10.972   0.307
 7285SOL    HW121881   1.665  11.018   0.310
 7285SOL    HW221882   1.555  10.948   0.212
 7286SOL     OW21883   0.807   9.915   1.465
 7286SOL    HW121884   0.760   9.912   1.554
 7286SOL    HW221885   0.756   9.860   1.399
 7287SOL     OW21886   1.394   9.779   1.674
 7287SOL    HW121887   1.374   9.822   1.762
 7287SOL    HW221888   1.472   9.717   1.683
 7288SOL     OW21889   0.973  10.200   1.572
 7288SOL    HW121890   1.019  10.116   1.543
 7288SOL    HW221891   0.917  10.234   1.497
 7289SOL     OW21892   0.991   9.720   1.242
 7289SOL    HW121893   0.914   9.754   1.296
 7289SOL    HW221894   0.957   9.669   1.163
 7290SOL     OW21895   1.041  10.011   0.429
 7290SOL    HW121896   1.067  10.007   0.525
 7290SOL    HW221897   0.956   9.960   0.415
 7291SOL     OW21898   0.076  10.121   0.789
 7291SOL    HW121899   0.175  10.109   0.798
 7291SOL    HW221900   0.052  10.216   0.810
 7292SOL     OW21901   0.130  11.131   1.571
 7292SOL    HW121902   0.120  11.116   1.670
 7292SOL    HW221903   0.044  11.167   1.535
 7293SOL     OW21904   0.865   9.658   0.195
 7293SOL    HW121905   0.924   9.721   0.146
 7293SOL    HW221906   0.884   9.564   0.166
 7294SOL     OW21907   1.719   9.895   1.831
 7294SOL    HW121908   1.693   9.984   1.795
 7294SOL    HW221909   1.717   9.827   1.758
 7295SOL     OW21910   1.362  10.454   0.545
 7295SOL    HW121911   1.445  10.425   0.497
 7295SOL    HW221912   1.313  10.521   0.489
 7296SOL     OW21913   0.550   9.506   0.885
 7296SOL    HW121914   0.545   9.501   0.985
 7296SOL    HW221915   0.552   9.602   0.856
 7297SOL     OW21916   1.008  10.766   0.477
 7297SOL    HW121917   0.962  10.838   0.425
 7297SOL    HW221918   1.004  10.786   0.575
 7298SOL     OW21919   0.351  11.111   0.853
 7298SOL    HW121920   0.401  11.025   0.859
 7298SOL    HW221921   0.416  11.188   0.850
 7299SOL     OW21922   1.795  10.376   0.873
 7299SOL    HW121923   1.733  10.361   0.797
 7299SOL    HW221924   1.743  10.387   0.958
 7300SOL     OW21925   1.227  10.860   1.506
 7300SOL    HW121926   1.233  10.783   1.570
 7300SOL    HW221927   1.175  10.834   1.426
 7301SOL     OW21928   0.321  10.253   0.242
 7301SOL    HW121929   0.403  10.292   0.200
 7301SOL    HW221930   0.294  10.171   0.193
 7302SOL     OW21931   1.458  10.045   0.728
 7302SOL    HW121932   1.453   9.980   0.803
 7302SOL    HW221933   1.538  10.104   0.741
 7303SOL     OW21934   0.461  10.576   1.727
 7303SOL    HW121935   0.411  10.577   1.641
 7303SOL    HW221936   0.398  10.558   1.803
 7304SOL     OW21937   1.111  11.086   0.237
 7304SOL    HW121938   1.051  11.024   0.287
 7304SOL    HW221939   1.142  11.042   0.152
 7305SOL     OW21940   0.202   9.595   1.498
 7305SOL    HW121941   0.122   9.655   1.485
 7305SOL    HW221942   0.192   9.546   1.584
 7306SOL     OW21943   1.632  10.687   0.081
 7306SOL    HW121944   1.600  10.781   0.071
 7306SOL    HW221945   1.556  10.624   0.069
 7307SOL     OW21946   0.464  11.053   0.323
 7307SOL    HW121947   0.497  11.092   0.409
 7307SOL    HW221948   0.540  11.046   0.258
 7308SOL     OW21949   1.400   9.417   0.426
 7308SOL    HW121950   1.376   9.380   0.336
 7308SOL    HW221951   1.499   9.433   0.430
 7309SOL     OW21952   0.249  11.095   1.241
 7309SOL    HW121953   0.306  11.030   1.291
 7309SOL    HW221954   0.233  11.062   1.148
 7310SOL     OW21955   0.940  11.008   0.904
 7310SOL    HW121956   1.020  10.951   0.925
 7310SOL    HW221957   0.891  10.968   0.827
 7311SOL     OW21958   0.382  10.010   0.480
 7311SOL    HW121959   0.427   9.920   0.477
 7311SOL    HW221960   0.288   9.999   0.513
 7312SOL     OW21961   1.547   9.532   1.729
 7312SOL    HW121962   1.542   9.569   1.821
 7312SOL    HW221963   1.475   9.463   1.717
 7313SOL     OW21964   0.614   9.432   0.117
 7313SOL    HW121965   0.712   9.410   0.124
 7313SOL    HW221966   0.583   9.415   0.024
 7314SOL     OW21967   0.781   9.574   1.749
 7314SOL    HW121968   0.848   9.513   1.792
 7314SOL    HW221969   0.708   9.593   1.814
 7315SOL     OW21970   0.888  10.824   1.195
 7315SOL    HW121971   0.865  10.799   1.101
 7315SOL    HW221972   0.949  10.755   1.234
 7316SOL     OW21973   1.351   9.900   1.433
 7316SOL    HW121974   1.379   9.857   1.518
 7316SOL    HW221975   1.376   9.996   1.434
 7317SOL     OW21976   0.803  10.712   0.924
 7317SOL    HW121977   0.893  10.726   0.882
 7317SOL    HW221978   0.732  10.714   0.853
 7318SOL     OW21979   0.922   9.813   0.899
 7318SOL    HW121980   0.897   9.804   0.803
 7318SOL    HW221981   0.970   9.731   0.930
 7319SOL     OW21982   0.539   9.374   0.512
 7319SOL    HW121983   0.458   9.375   0.570
 7319SOL    HW221984   0.542   9.457   0.457
 7320SOL     OW21985   1.434  10.498   0.041
 7320SOL    HW121986   1.466  10.422   0.098
 7320SOL    HW221987   1.342  10.525   0.071
 7321SOL     OW21988   0.297   9.345   0.171
 7321SOL    HW121989   0.346   9.429   0.150
 7321SOL    HW221990   0.359   9.280   0.216
 7322SOL     OW21991   0.935   9.546   0.480
 7322SOL    HW121992   0.887   9.587   0.402
 7322SOL    HW221993   1.034   9.544   0.461
 7323SOL     OW21994   1.076   9.993   1.464
 7323SOL    HW121995   0.996   9.932   1.467
 7323SOL    HW221996   1.157   9.940   1.440
 7324SOL     OW21997   1.227  10.880   0.793
 7324SOL    HW121998   1.248  10.954   0.728
 7324SOL    HW221999   1.295  10.880   0.866
 7325SOL     OW22000   0.459  10.462   0.741
 7325SOL    HW122001   0.388  10.435   0.806
 7325SOL    HW222002   0.433  10.434   0.648
 7326SOL     OW22003   1.271  11.107   0.591
 7326SOL    HW122004   1.315  11.171   0.527
 7326SOL    HW222005   1.221  11.159   0.661
 7327SOL     OW22006   1.032   9.859   0.016
 7327SOL    HW122007   0.991   9.941  -0.023
 7327SOL    HW222008   1.096   9.885   0.089
 7328SOL     OW22009   0.078   9.866   1.386
 7328SOL    HW122010   0.170   9.865   1.345
 7328SOL    HW222011   0.072   9.940   1.453
 7329SOL     OW22012   0.561   9.532   1.147
 7329SOL    HW122013   0.599   9.448   1.184
 7329SOL    HW222014   0.473   9.551   1.191
 7330SOL     OW22015   0.866   9.764   0.642
 7330SOL    HW122016   0.834   9.836   0.580
 7330SOL    HW222017   0.890   9.683   0.589
 7331SOL     OW22018   1.017   9.349   0.753
 7331SOL    HW122019   0.945   9.354   0.684
 7331SOL    HW222020   0.993   9.280   0.822
 7332SOL     OW22021   1.429  10.483   0.867
 7332SOL    HW122022   1.374  10.399   0.860
 7332SOL    HW222023   1.455  10.512   0.775
 7333SOL     OW22024   1.466   9.900   0.992
 7333SOL    HW122025   1.436   9.805   0.999
 7333SOL    HW222026   1.539   9.916   1.058
 7334SOL     OW22027   1.857  10.143   0.377
 7334SOL    HW122028   1.899  10.079   0.441
 7334SOL    HW222029   1.819  10.092   0.299
 7335SOL     OW22030   0.488  10.695   0.174
 7335SOL    HW122031   0.401  10.680   0.221
 7335SOL    HW222032   0.471  10.721   0.079
 7336SOL     OW22033   1.664  10.590   0.657
 7336SOL    HW122034   1.763  10.598   0.671
 7336SOL    HW222035   1.619  10.674   0.688
 7337SOL     OW22036   1.390   9.885   0.078
 7337SOL    HW122037   1.336   9.864   0.159
 7337SOL    HW222038   1.481   9.844   0.087
 7338SOL     OW22039   0.527   9.566   0.328
 7338SOL    HW122040   0.554   9.507   0.253
 7338SOL    HW222041   0.527   9.661   0.297
 7339SOL     OW22042   1.754  10.533   1.588
 7339SOL    HW122043   1.845  10.494   1.575
 7339SOL    HW222044   1.762  10.629   1.612
 7340SOL     OW22045   1.064  10.657   1.340
 7340SOL    HW122046   0.984  10.634   1.395
 7340SOL    HW222047   1.147  10.631   1.389
 7341SOL     OW22048   1.592  10.939   1.625
 7341SOL    HW122049   1.619  10.973   1.535
 7341SOL    HW222050   1.671  10.901   1.671
 7342SOL     OW22051   1.111  10.505   1.100
 7342SOL    HW122052   1.071  10.549   1.181
 7342SOL    HW222053   1.070  10.542   1.017
 7343SOL     OW22054   1.638  10.409   1.079
 7343SOL    HW122055   1.643  10.490   1.138
 7343SOL    HW222056   1.552  10.411   1.028
 7344SOL     OW22057   0.915   9.399   1.402
 7344SOL    HW122058   0.940   9.379   1.307
 7344SOL    HW222059   0.987   9.455   1.444
 7345SOL     OW22060   0.980  10.426   1.719
 7345SOL    HW122061   0.881  10.432   1.729
 7345SOL    HW222062   1.003  10.346   1.663
 7346SOL     OW22063   0.705  10.360   0.368
 7346SOL    HW122064   0.691  10.367   0.467
 7346SOL    HW222065   0.789  10.309   0.350
 7347SOL     OW22066   0.410  10.123   1.251
 7347SOL    HW122067   0.496  10.135   1.301
 7347SOL    HW222068   0.368  10.036   1.278
 7348SOL     OW22069   1.274   9.696   1.262
 7348SOL    HW122070   1.295   9.770   1.326
 7348SOL    HW222071   1.185   9.713   1.219
 7349SOL     OW22072   0.064  10.874   1.331
 7349SOL    HW122073   0.018  10.956   1.297
 7349SOL    HW222074   0.162  10.893   1.340
 7350SOL     OW22075   0.367  10.410   0.501
 7350SOL    HW122076   0.360  10.493   0.445
 7350SOL    HW222077   0.371  10.330   0.441
 7351SOL     OW22078   0.566   9.847   0.865
 7351SOL    HW122079   0.578   9.913   0.791
 7351SOL    HW222080   0.612   9.881   0.948
 7352SOL     OW22081   1.252  10.658   0.388
 7352SOL    HW122082   1.302  10.735   0.428
 7352SOL    HW222083   1.157  10.660   0.420
 7353SOL     OW22084   1.272  10.755   1.142
 7353SOL    HW122085   1.319  10.768   1.229
 7353SOL    HW222086   1.206  10.681   1.151
 7354SOL     OW22087   1.582   9.949   0.472
 7354SOL    HW122088   1.551  10.010   0.545
 7354SOL    HW222089   1.632  10.001   0.403
 7355SOL     OW22090   0.354  10.820   1.329
 7355SOL    HW122091   0.333  10.776   1.242
 7355SOL    HW222092   0.451  10.846   1.332
 7356SOL     OW22093   0.402  10.061   1.598
 7356SOL    HW122094   0.470  10.116   1.551
 7356SOL    HW222095   0.442   9.973   1.625
 7357SOL     OW22096   1.587  10.089   1.670
 7357SOL    HW122097   1.495  10.127   1.665
 7357SOL    HW222098   1.647  10.136   1.605
 7358SOL     OW22099   1.013   9.415   1.770
 7358SOL    HW122100   1.019   9.500   1.718
 7358SOL    HW222101   1.045   9.339   1.713
 7359SOL     OW22102   0.504   9.360   1.740
 7359SOL    HW122103   0.462   9.303   1.670
 7359SOL    HW222104   0.438   9.429   1.772
 7360SOL     OW22105   0.573  10.180   1.029
 7360SOL    HW122106   0.617  10.269   1.020
 7360SOL    HW222107   0.510  10.180   1.106
 7361SOL     OW22108   1.360  10.172   1.045
 7361SOL    HW122109   1.285  10.172   0.979
 7361SOL    HW222110   1.397  10.080   1.054
 7362SOL     OW22111   1.209   9.835   0.275
 7362SOL    HW122112   1.222   9.751   0.329
 7362SOL    HW222113   1.180   9.909   0.335
 7363SOL     OW22114   0.307   9.523   1.231
 7363SOL    HW122115   0.284   9.560   1.321
 7363SOL    HW222116   0.277   9.428   1.225
 7364SOL     OW22117   0.037  10.620   1.282
 7364SOL    HW122118   0.090  10.571   1.350
 7364SOL    HW222119   0.059  10.718   1.287
 7365SOL     OW22120   0.732   9.944   1.064
 7365SOL    HW122121   0.791   9.918   0.988
 7365SOL    HW222122   0.704  10.040   1.053
 7366SOL     OW22123   1.728  10.245   1.854
 7366SOL    HW122124   1.682  10.238   1.765
 7366SOL    HW222125   1.666  10.289   1.920
 7367SOL     OW22126   0.307   9.373   0.618
 7367SOL    HW122127   0.296   9.467   0.651
 7367SOL    HW222128   0.302   9.310   0.695
 7368SOL     OW22129   1.622   9.677   0.374
 7368SOL    HW122130   1.624   9.601   0.438
 7368SOL    HW222131   1.574   9.754   0.414
 7369SOL     OW22132   1.023  10.076   0.966
 7369SOL    HW122133   1.038  10.097   1.062
 7369SOL    HW222134   0.993   9.981   0.957
 7370SOL     OW22135   0.980  10.883   1.700
 7370SOL    HW122136   0.960  10.927   1.612
 7370SOL    HW222137   1.019  10.792   1.684
 7371SOL     OW22138   1.859  10.828   1.605
 7371SOL    HW122139   1.873  10.855   1.510
 7371SOL    HW222140   1.942  10.850   1.658
 7372SOL     OW22141   0.350  10.208   1.804
 7372SOL    HW122142   0.426  10.252   1.852
 7372SOL    HW222143   0.385  10.161   1.722
 7373SOL     OW22144   1.540   9.584   0.125
 7373SOL    HW122145   1.479   9.509   0.148
 7373SOL    HW222146   1.562   9.636   0.208
 7374SOL     OW22147   1.303  10.148   0.042
 7374SOL    HW122148   1.337  10.055   0.057
 7374SOL    HW222149   1.321  10.175  -0.053
 7375SOL     OW22150   1.068  10.643   0.849
 7375SOL    HW122151   1.075  10.559   0.794
 7375SOL    HW222152   1.130  10.712   0.813
 7376SOL     OW22153   0.319  10.120   0.949
 7376SOL    HW122154   0.412  10.156   0.954
 7376SOL    HW222155   0.313  10.035   1.001
 7377SOL     OW22156   0.339   9.819   1.006
 7377SOL    HW122157   0.287   9.736   0.989
 7377SOL    HW222158   0.416   9.824   0.942
 7378SOL     OW22159   1.138   9.690   1.678
 7378SOL    HW122160   1.093   9.753   1.742
 7378SOL    HW222161   1.231   9.721   1.661
 7379SOL     OW22162   1.160   9.517   1.477
 7379SOL    HW122163   1.160   9.581   1.554
 7379SOL    HW222164   1.188   9.565   1.394
 7380SOL     OW22165   0.008  10.636   0.200
 7380SOL    HW122166  -0.085  10.657   0.169
 7380SOL    HW222167   0.018  10.537   0.213
 7381SOL     OW22168   0.088  11.111   0.927
 7381SOL    HW122169   0.046  11.025   0.900
 7381SOL    HW222170   0.182  11.114   0.893
 7382SOL     OW22171   0.504  10.878   0.910
 7382SOL    HW122172   0.570  10.952   0.919
 7382SOL    HW222173   0.548  10.799   0.868
 7383SOL     OW22174   1.002  10.106   1.238
 7383SOL    HW122175   1.043  10.074   1.324
 7383SOL    HW222176   0.906  10.079   1.235
 7384SOL     OW22177   0.040   9.854   1.114
 7384SOL    HW122178   0.125   9.821   1.073
 7384SOL    HW222179   0.053   9.869   1.212
 7385SOL     OW22180   0.189   9.830   1.722
 7385SOL    HW122181   0.248   9.790   1.652
 7385SOL    HW222182   0.131   9.901   1.681
 7386SOL     OW22183   1.369  10.260   1.660
 7386SOL    HW122184   1.408  10.349   1.680
 7386SOL    HW222185   1.379  10.240   1.563
 7387SOL     OW22186   0.815   9.882   0.325
 7387SOL    HW122187   0.822   9.793   0.279
 7387SOL    HW222188   0.721   9.916   0.317
 7388SOL     OW22189   1.657   9.914   1.206
 7388SOL    HW122190   1.619   9.845   1.268
 7388SOL    HW222191   1.739   9.878   1.162
 7389SOL     OW22192   0.252  10.874   1.744
 7389SOL    HW122193   0.222  10.931   1.820
 7389SOL    HW222194   0.245  10.777   1.770
 7390SOL     OW22195   0.671   9.774   1.269
 7390SOL    HW122196   0.637   9.685   1.239
 7390SOL    HW222197   0.697   9.828   1.189
 7391SOL     OW22198   0.930  10.988   1.465
 7391SOL    HW122199   0.906  10.970   1.370
 7391SOL    HW222200   0.960  11.082   1.475
 7392SOL     OW22201   0.473   9.810   0.191
 7392SOL    HW122202   0.534   9.890   0.195
 7392SOL    HW222203   0.378   9.841   0.198
 7393SOL     OW22204   0.159  10.447   1.466
 7393SOL    HW122205   0.181  10.386   1.542
 7393SOL    HW222206   0.169  10.398   1.380
 7394SOL     OW22207   1.347  10.369   1.234
 7394SOL    HW122208   1.371  10.306   1.160
 7394SOL    HW222209   1.257  10.409   1.216
 7395SOL     OW22210   1.302  10.165   0.309
 7395SOL    HW122211   1.216  10.134   0.351
 7395SOL    HW222212   1.298  10.151   0.210
 7396SOL     OW22213   1.759  11.057   1.154
 7396SOL    HW122214   1.820  11.087   1.081
 7396SOL    HW222215   1.721  10.968   1.132
 7397SOL     OW22216   1.252  11.041   1.128
 7397SOL    HW122217   1.336  11.046   1.074
 7397SOL    HW222218   1.229  10.945   1.146
 7398SOL     OW22219   0.083  10.568   1.022
 7398SOL    HW122220   0.078  10.567   1.122
 7398SOL    HW222221   0.000  10.527   0.984
 7399SOL     OW22222   0.688  10.972   1.716
 7399SOL    HW122223   0.632  11.053   1.725
 7399SOL    HW222224   0.740  10.976   1.630
 7400SOL     OW22225   0.903   9.396   0.133
 7400SOL    HW122226   0.954   9.397   0.047
 7400SOL    HW222227   0.959   9.354   0.204
 7401SOL     OW22228   1.726   9.445   0.523
 7401SOL    HW122229   1.799   9.428   0.456
 7401SOL    HW222230   1.695   9.358   0.561
 7402SOL     OW22231   1.388  10.883   0.477
 7402SOL    HW122232   1.455  10.895   0.403
 7402SOL    HW222233   1.348  10.972   0.500
 7403SOL     OW22234   0.130  11.104   1.851
 7403SOL    HW122235   0.089  11.030   1.904
 7403SOL    HW222236   0.194  11.155   1.909
 7404SOL     OW22237   1.280  10.237   0.672
 7404SOL    HW122238   1.340  10.156   0.674
 7404SOL    HW222239   1.320  10.306   0.612
 7405SOL     OW22240   0.830  10.583   1.422
 7405SOL    HW122241   0.825  10.616   1.517
 7405SOL    HW222242   0.744  10.602   1.376
 7406SOL     OW22243   0.672  10.926   0.154
 7406SOL    HW122244   0.681  10.936   0.055
 7406SOL    HW222245   0.632  10.837   0.175
 7407SOL     OW22246   1.650  11.030   1.394
 7407SOL    HW122247   1.703  11.040   1.310
 7407SOL    HW222248   1.623  11.120   1.428
 7408SOL     OW22249   1.841   9.485   0.963
 7408SOL    HW122250   1.880   9.400   0.927
 7408SOL    HW222251   1.743   9.487   0.944
 7409SOL     OW22252   0.263   9.636   0.720
 7409SOL    HW122253   0.184   9.687   0.686
 7409SOL    HW222254   0.254   9.621   0.818
 7410SOL     OW22255   1.194  10.922   0.031
 7410SOL    HW122256   1.200  10.829   0.068
 7410SOL    HW222257   1.135  10.922  -0.049
 7411SOL     OW22258   0.822  10.312   1.372
 7411SOL    HW122259   0.862  10.311   1.280
 7411SOL    HW222260   0.832  10.404   1.412
 7412SOL     OW22261   0.916  10.220   0.291
 7412SOL    HW122262   0.979  10.258   0.223
 7412SOL    HW222263   0.956  10.137   0.330
 7413SOL     OW22264   1.504  10.917   0.044
 7413SOL    HW122265   1.412  10.954   0.051
 7413SOL    HW222266   1.542  10.937  -0.046
 7414SOL     OW22267   0.372  10.598   1.490
 7414SOL    HW122268   0.359  10.691   1.456
 7414SOL    HW222269   0.288  10.546   1.477
 7415SOL     OW22270   1.614  10.602   1.289
 7415SOL    HW122271   1.674  10.605   1.369
 7415SOL    HW222272   1.539  10.666   1.302
 7416SOL     OW22273   1.039  10.408   0.696
 7416SOL    HW122274   0.969  10.361   0.750
 7416SOL    HW222275   1.098  10.340   0.653
 7417SOL     OW22276   1.014   9.546   0.971
 7417SOL    HW122277   1.006   9.510   0.878
 7417SOL    HW222278   1.012   9.470   1.036
 7418SOL     OW22279   0.590  10.797   0.491
 7418SOL    HW122280   0.632  10.739   0.421
 7418SOL    HW222281   0.546  10.876   0.447
 7419SOL     OW22282   1.709   9.695   1.381
 7419SOL    HW122283   1.782   9.764   1.385
 7419SOL    HW222284   1.737   9.620   1.322
 7420SOL     OW22285   0.255  10.658   0.290
 7420SOL    HW122286   0.159  10.659   0.263
 7420SOL    HW222287   0.267  10.711   0.374
 7421SOL     OW22288   0.105  10.323   1.726
 7421SOL    HW122289   0.028  10.290   1.780
 7421SOL    HW222290   0.190  10.293   1.768
 7422SOL     OW22291   0.672   9.513   1.489
 7422SOL    HW122292   0.762   9.497   1.449
 7422SOL    HW222293   0.680   9.518   1.588
 7423SOL     OW22294   0.075   9.655   0.033
 7423SOL    HW122295  -0.017   9.627   0.004
 7423SOL    HW222296   0.106   9.732  -0.023
 7424SOL     OW22297   1.440  10.166   1.398
 7424SOL    HW122298   1.383  10.218   1.335
 7424SOL    HW222299   1.536  10.178   1.374
 7425SOL     OW22300   0.072   9.476   0.318
 7425SOL    HW122301   0.055   9.559   0.264
 7425SOL    HW222302   0.162   9.439   0.296
 7426SOL     OW22303   1.183  10.645   0.119
 7426SOL    HW122304   1.084  10.634   0.121
 7426SOL    HW222305   1.217  10.660   0.212
 7427SOL     OW22306   0.613  10.152   1.431
 7427SOL    HW122307   0.669  10.233   1.414
 7427SOL    HW222308   0.672  10.072   1.434
 7428SOL     OW22309   1.493  11.077   0.959
 7428SOL    HW122310   1.526  11.141   0.890
 7428SOL    HW222311   1.559  11.071   1.034
 7429SOL     OW22312   0.716   9.875   1.708
 7429SOL    HW122313   0.735   9.940   1.782
 7429SOL    HW222314   0.776   9.795   1.717
 7430SOL     OW22315   1.450  10.530   1.633
 7430SOL    HW122316   1.441  10.520   1.732
 7430SOL    HW222317   1.546  10.523   1.607
 7431SOL     OW22318   0.390  11.051   1.560
 7431SOL    HW122319   0.299  11.092   1.558
 7431SOL    HW222320   0.383  10.957   1.592
 7432SOL     OW22321   1.674  10.193   1.254
 7432SOL    HW122322   1.647  10.104   1.217
 7432SOL    HW222323   1.675  10.261   1.181
 7433SOL     OW22324   1.225   9.635   0.449
 7433SOL    HW122325   1.290   9.561   0.438
 7433SOL    HW222326   1.245   9.685   0.533
 7434SOL     OW22327   0.594  10.055   0.652
 7434SOL    HW122328   0.644  10.140   0.633
 7434SOL    HW222329   0.506  10.057   0.604
 7435SOL     OW22330   1.777   9.652   1.642
 7435SOL    HW122331   1.760   9.683   1.548
 7435SOL    HW222332   1.693   9.615   1.680
 7436SOL     OW22333   1.730  10.244   1.517
 7436SOL    HW122334   1.768  10.335   1.532
 7436SOL    HW222335   1.722  10.227   1.418
 7437SOL     OW22336   0.859  10.684   0.016
 7437SOL    HW122337   0.813  10.699   0.104
 7437SOL    HW222338   0.903  10.769  -0.014
 7438SOL     OW22339   0.661  11.100   0.953
 7438SOL    HW122340   0.615  11.188   0.940
 7438SOL    HW222341   0.760  11.112   0.946
 7439SOL     OW22342   0.859  10.266   0.861
 7439SOL    HW122343   0.913  10.197   0.909
 7439SOL    HW222344   0.827  10.335   0.927
 7440SOL     OW22345   1.083  10.294   0.087
 7440SOL    HW122346   1.060  10.347   0.005
 7440SOL    HW222347   1.164  10.238   0.068
 7441SOL     OW22348   1.861  10.879   0.851
 7441SOL    HW122349   1.790  10.867   0.781
 7441SOL    HW222350   1.862  10.800   0.911
 7442SOL     OW22351   0.221  10.624   1.844
 7442SOL    HW122352   0.156  10.551   1.823
 7442SOL    HW222353   0.225  10.638   1.942
 7443SOL     OW22354   0.079  10.550   0.653
 7443SOL    HW122355   0.078  10.503   0.741
 7443SOL    HW222356   0.161  10.522   0.602
 7444SOL     OW22357   0.672  10.701   1.624
 7444SOL    HW122358   0.594  10.651   1.662
 7444SOL    HW222359   0.669  10.796   1.655
 7445SOL     OW22360   1.824   9.502   1.227
 7445SOL    HW122361   1.820   9.412   1.271
 7445SOL    HW222362   1.827   9.491   1.128
 7446SOL     OW22363   0.428   9.734   0.520
 7446SOL    HW122364   0.458   9.662   0.458
 7446SOL    HW222365   0.389   9.694   0.603
 7447SOL     OW22366   1.705  10.797   1.104
 7447SOL    HW122367   1.612  10.772   1.077
 7447SOL    HW222368   1.731  10.747   1.186
 7448SOL     OW22369   0.317   9.857   1.280
 7448SOL    HW122370   0.355   9.798   1.352
 7448SOL    HW222371   0.357   9.831   1.192
 7449SOL     OW22372   0.812  10.896   0.687
 7449SOL    HW122373   0.844  10.906   0.593
 7449SOL    HW222374   0.733  10.834   0.689
 7450SOL     OW22375   1.424   9.524   1.112
 7450SOL    HW122376   1.476   9.459   1.167
 7450SOL    HW222377   1.375   9.587   1.173
 7451SOL     OW22378   1.001   9.344   1.154
 7451SOL    HW122379   0.938   9.272   1.123
 7451SOL    HW222380   1.094   9.308   1.154
 7452SOL     OW22381   0.770  10.640   0.301
 7452SOL    HW122382   0.724  10.553   0.318
 7452SOL    HW222383   0.861  10.637   0.342
 7453SOL     OW22384   0.618  10.877   1.284
 7453SOL    HW122385   0.613  10.959   1.341
 7453SOL    HW222386   0.707  10.874   1.239
 7454SOL     OW22387   1.352   9.362   0.168
 7454SOL    HW122388   1.387   9.321   0.084
 7454SOL    HW222389   1.262   9.324   0.188
 7455SOL     OW22390   1.300   9.763   0.691
 7455SOL    HW122391   1.241   9.843   0.695
 7455SOL    HW222392   1.315   9.728   0.784
 7456SOL     OW22393   1.593   9.531   0.882
 7456SOL    HW122394   1.509   9.530   0.936
 7456SOL    HW222395   1.595   9.614   0.826
 7457SOL     OW22396   0.039  10.387   0.300
 7457SOL    HW122397   0.138  10.376   0.291
 7457SOL    HW222398  -0.001  10.301   0.332
 7458SOL     OW22399   0.875  10.956   0.337
 7458SOL    HW122400   0.798  10.921   0.283
 7458SOL    HW222401   0.843  11.027   0.399
 7459SOL     OW22402   0.230   9.938   1.975
 7459SOL    HW122403   0.137   9.936   2.012
 7459SOL    HW222404   0.231   9.899   1.883
 7460SOL     OW22405   0.225   9.585   2.858
 7460SOL    HW122406   0.260   9.568   2.950
 7460SOL    HW222407   0.137   9.540   2.846
 7461SOL     OW22408   0.019   9.678   2.509
 7461SOL    HW122409  -0.063   9.721   2.548
 7461SOL    HW222410  -0.009   9.605   2.446
 7462SOL     OW22411   0.569  10.585   3.027
 7462SOL    HW122412   0.476  10.578   2.990
 7462SOL    HW222413   0.580  10.674   3.071
 7463SOL     OW22414   1.555  10.821   2.565
 7463SOL    HW122415   1.498  10.805   2.646
 7463SOL    HW222416   1.496  10.831   2.485
 7464SOL     OW22417   1.135  10.013   2.579
 7464SOL    HW122418   1.192  10.091   2.554
 7464SOL    HW222419   1.075  10.039   2.655
 7465SOL     OW22420   1.755   9.917   2.093
 7465SOL    HW122421   1.743   9.904   1.994
 7465SOL    HW222422   1.725   9.836   2.142
 7466SOL     OW22423   0.768  10.454   2.885
 7466SOL    HW122424   0.690  10.471   2.945
 7466SOL    HW222425   0.802  10.541   2.849
 7467SOL     OW22426   0.850  10.108   3.685
 7467SOL    HW122427   0.846  10.184   3.750
 7467SOL    HW222428   0.872  10.144   3.594
 7468SOL     OW22429   0.685  10.322   2.527
 7468SOL    HW122430   0.754  10.306   2.597
 7468SOL    HW222431   0.612  10.379   2.565
 7469SOL     OW22432   0.686  10.471   3.665
 7469SOL    HW122433   0.746  10.550   3.679
 7469SOL    HW222434   0.600  10.502   3.624
 7470SOL     OW22435   0.335  10.745   2.923
 7470SOL    HW122436   0.257  10.714   2.870
 7470SOL    HW222437   0.393  10.803   2.866
 7471SOL     OW22438   1.460  10.815   3.201
 7471SOL    HW122439   1.484  10.909   3.227
 7471SOL    HW222440   1.444  10.761   3.283
 7472SOL     OW22441   0.438   9.702   3.361
 7472SOL    HW122442   0.520   9.646   3.370
 7472SOL    HW222443   0.357   9.644   3.365
 7473SOL     OW22444   1.603   9.757   2.599
 7473SOL    HW122445   1.529   9.803   2.549
 7473SOL    HW222446   1.654   9.825   2.652
 7474SOL     OW22447   0.231  11.023   2.345
 7474SOL    HW122448   0.265  11.100   2.399
 7474SOL    HW222449   0.275  11.023   2.255
 7475SOL     OW22450   1.127  10.651   3.552
 7475SOL    HW122451   1.174  10.651   3.640
 7475SOL    HW222452   1.079  10.564   3.541
 7476SOL     OW22453   0.230  10.744   2.400
 7476SOL    HW122454   0.204  10.840   2.400
 7476SOL    HW222455   0.159  10.690   2.445
 7477SOL     OW22456   0.240  10.401   2.748
 7477SOL    HW122457   0.254  10.317   2.800
 7477SOL    HW222458   0.185  10.465   2.803
 7478SOL     OW22459   0.620  11.096   3.301
 7478SOL    HW122460   0.528  11.079   3.336
 7478SOL    HW222461   0.648  11.188   3.327
 7479SOL     OW22462   0.606  10.274   1.985
 7479SOL    HW122463   0.613  10.358   1.931
 7479SOL    HW222464   0.652  10.287   2.073
 7480SOL     OW22465   1.594   9.424   3.342
 7480SOL    HW122466   1.576   9.491   3.270
 7480SOL    HW222467   1.591   9.470   3.431
 7481SOL     OW22468   0.122   9.953   2.425
 7481SOL    HW122469   0.077   9.865   2.442
 7481SOL    HW222470   0.121  10.007   2.509
 7482SOL     OW22471   1.842  11.077   2.221
 7482SOL    HW122472   1.896  11.048   2.301
 7482SOL    HW222473   1.872  11.167   2.192
 7483SOL     OW22474   0.027  10.906   1.979
 7483SOL    HW122475   0.008  10.810   2.000
 7483SOL    HW222476  -0.006  10.964   2.054
 7484SOL     OW22477   1.689  10.232   2.474
 7484SOL    HW122478   1.784  10.203   2.482
 7484SOL    HW222479   1.681  10.297   2.399
 7485SOL     OW22480   1.641  10.418   2.294
 7485SOL    HW122481   1.727  10.420   2.242
 7485SOL    HW222482   1.655  10.465   2.382
 7486SOL     OW22483   0.113  10.047   3.459
 7486SOL    HW122484   0.201  10.034   3.504
 7486SOL    HW222485   0.100  10.144   3.437
 7487SOL     OW22486   0.613  10.675   2.588
 7487SOL    HW122487   0.564  10.588   2.597
 7487SOL    HW222488   0.590  10.718   2.501
 7488SOL     OW22489   1.293  10.538   3.285
 7488SOL    HW122490   1.330  10.465   3.227
 7488SOL    HW222491   1.345  10.543   3.370
 7489SOL     OW22492   0.809   9.314   2.364
 7489SOL    HW122493   0.849   9.405   2.355
 7489SOL    HW222494   0.709   9.322   2.370
 7490SOL     OW22495   0.197  10.286   3.126
 7490SOL    HW122496   0.286  10.241   3.112
 7490SOL    HW222497   0.124  10.221   3.107
 7491SOL     OW22498   1.525  10.309   2.052
 7491SOL    HW122499   1.462  10.233   2.065
 7491SOL    HW222500   1.573  10.327   2.138
 7492SOL     OW22501   1.187  11.102   3.478
 7492SOL    HW122502   1.211  11.162   3.402
 7492SOL    HW222503   1.194  11.007   3.448
 7493SOL     OW22504   0.317   9.561   3.663
 7493SOL    HW122505   0.388   9.632   3.669
 7493SOL    HW222506   0.229   9.600   3.691
 7494SOL     OW22507   1.466  10.727   2.815
 7494SOL    HW122508   1.407  10.733   2.895
 7494SOL    HW222509   1.451  10.639   2.769
 7495SOL     OW22510   1.667  11.024   2.434
 7495SOL    HW122511   1.626  11.001   2.346
 7495SOL    HW222512   1.649  10.950   2.499
 7496SOL     OW22513   0.598  10.039   2.132
 7496SOL    HW122514   0.622  10.108   2.064
 7496SOL    HW222515   0.520  10.072   2.186
 7497SOL     OW22516   1.281   9.655   2.806
 7497SOL    HW122517   1.195   9.605   2.793
 7497SOL    HW222518   1.343   9.601   2.862
 7498SOL     OW22519   1.576  10.972   2.169
 7498SOL    HW122520   1.665  11.018   2.172
 7498SOL    HW222521   1.555  10.948   2.074
 7499SOL     OW22522   0.807   9.915   3.327
 7499SOL    HW122523   0.760   9.912   3.416
 7499SOL    HW222524   0.756   9.860   3.261
 7500SOL     OW22525   1.394   9.779   3.536
 7500SOL    HW122526   1.374   9.822   3.624
 7500SOL    HW222527   1.472   9.717   3.545
 7501SOL     OW22528   0.973  10.200   3.434
 7501SOL    HW122529   1.019  10.116   3.405
 7501SOL    HW222530   0.917  10.234   3.359
 7502SOL     OW22531   0.991   9.720   3.104
 7502SOL    HW122532   0.914   9.754   3.158
 7502SOL    HW222533   0.957   9.669   3.025
 7503SOL     OW22534   1.041  10.011   2.291
 7503SOL    HW122535   1.067  10.007   2.387
 7503SOL    HW222536   0.956   9.960   2.277
 7504SOL     OW22537   0.076  10.121   2.651
 7504SOL    HW122538   0.175  10.109   2.660
 7504SOL    HW222539   0.052  10.216   2.672
 7505SOL     OW22540   0.130  11.131   3.433
 7505SOL    HW122541   0.120  11.116   3.532
 7505SOL    HW222542   0.044  11.167   3.397
 7506SOL     OW22543   0.865   9.658   2.057
 7506SOL    HW122544   0.924   9.721   2.008
 7506SOL    HW222545   0.884   9.564   2.028
 7507SOL     OW22546   1.719   9.895   3.693
 7507SOL    HW122547   1.693   9.984   3.657
 7507SOL    HW222548   1.717   9.827   3.620
 7508SOL     OW22549   1.362  10.454   2.407
 7508SOL    HW122550   1.445  10.425   2.359
 7508SOL    HW222551   1.313  10.521   2.351
 7509SOL     OW22552   0.550   9.506   2.747
 7509SOL    HW122553   0.545   9.501   2.847
 7509SOL    HW222554   0.552   9.602   2.718
 7510SOL     OW22555   1.008  10.766   2.339
 7510SOL    HW122556   0.962  10.838   2.287
 7510SOL    HW222557   1.004  10.786   2.437
 7511SOL     OW22558   0.351  11.111   2.715
 7511SOL    HW122559   0.401  11.025   2.721
 7511SOL    HW222560   0.416  11.188   2.712
 7512SOL     OW22561   1.795  10.376   2.735
 7512SOL    HW122562   1.733  10.361   2.659
 7512SOL    HW222563   1.743  10.387   2.820
 7513SOL     OW22564   1.227  10.860   3.368
 7513SOL    HW122565   1.233  10.783   3.432
 7513SOL    HW222566   1.175  10.834   3.288
 7514SOL     OW22567   0.321  10.253   2.104
 7514SOL    HW122568   0.403  10.292   2.062
 7514SOL    HW222569   0.294  10.171   2.055
 7515SOL     OW22570   1.458  10.045   2.590
 7515SOL    HW122571   1.453   9.980   2.665
 7515SOL    HW222572   1.538  10.104   2.603
 7516SOL     OW22573   0.461  10.576   3.589
 7516SOL    HW122574   0.411  10.577   3.503
 7516SOL    HW222575   0.398  10.558   3.665
 7517SOL     OW22576   1.111  11.086   2.099
 7517SOL    HW122577   1.051  11.024   2.149
 7517SOL    HW222578   1.142  11.042   2.014
 7518SOL     OW22579   0.202   9.595   3.360
 7518SOL    HW122580   0.122   9.655   3.347
 7518SOL    HW222581   0.192   9.546   3.446
 7519SOL     OW22582   1.632  10.687   1.943
 7519SOL    HW122583   1.600  10.781   1.933
 7519SOL    HW222584   1.556  10.624   1.931
 7520SOL     OW22585   0.464  11.053   2.185
 7520SOL    HW122586   0.497  11.092   2.271
 7520SOL    HW222587   0.540  11.046   2.120
 7521SOL     OW22588   1.400   9.417   2.288
 7521SOL    HW122589   1.376   9.380   2.198
 7521SOL    HW222590   1.499   9.433   2.292
 7522SOL     OW22591   0.249  11.095   3.103
 7522SOL    HW122592   0.306  11.030   3.153
 7522SOL    HW222593   0.233  11.062   3.010
 7523SOL     OW22594   0.940  11.008   2.766
 7523SOL    HW122595   1.020  10.951   2.787
 7523SOL    HW222596   0.891  10.968   2.689
 7524SOL     OW22597   0.382  10.010   2.342
 7524SOL    HW122598   0.427   9.920   2.339
 7524SOL    HW222599   0.288   9.999   2.375
 7525SOL     OW22600   1.547   9.532   3.591
 7525SOL    HW122601   1.542   9.569   3.683
 7525SOL    HW222602   1.475   9.463   3.579
 7526SOL     OW22603   0.614   9.432   1.979
 7526SOL    HW122604   0.712   9.410   1.986
 7526SOL    HW222605   0.583   9.415   1.886
 7527SOL     OW22606   0.781   9.574   3.611
 7527SOL    HW122607   0.848   9.513   3.654
 7527SOL    HW222608   0.708   9.593   3.676
 7528SOL     OW22609   0.888  10.824   3.057
 7528SOL    HW122610   0.865  10.799   2.963
 7528SOL    HW222611   0.949  10.755   3.096
 7529SOL     OW22612   1.351   9.900   3.295
 7529SOL    HW122613   1.379   9.857   3.380
 7529SOL    HW222614   1.376   9.996   3.296
 7530SOL     OW22615   0.803  10.712   2.786
 7530SOL    HW122616   0.893  10.726   2.744
 7530SOL    HW222617   0.732  10.714   2.715
 7531SOL     OW22618   0.922   9.813   2.761
 7531SOL    HW122619   0.897   9.804   2.665
 7531SOL    HW222620   0.970   9.731   2.792
 7532SOL     OW22621   0.539   9.374   2.374
 7532SOL    HW122622   0.458   9.375   2.432
 7532SOL    HW222623   0.542   9.457   2.319
 7533SOL     OW22624   1.434  10.498   1.903
 7533SOL    HW122625   1.466  10.422   1.960
 7533SOL    HW222626   1.342  10.525   1.933
 7534SOL     OW22627   0.297   9.345   2.033
 7534SOL    HW122628   0.346   9.429   2.012
 7534SOL    HW222629   0.359   9.280   2.078
 7535SOL     OW22630   0.935   9.546   2.342
 7535SOL    HW122631   0.887   9.587   2.264
 7535SOL    HW222632   1.034   9.544   2.323
 7536SOL     OW22633   1.076   9.993   3.326
 7536SOL    HW122634   0.996   9.932   3.329
 7536SOL    HW222635   1.157   9.940   3.302
 7537SOL     OW22636   1.227  10.880   2.655
 7537SOL    HW122637   1.248  10.954   2.590
 7537SOL    HW222638   1.295  10.880   2.728
 7538SOL     OW22639   0.459  10.462   2.603
 7538SOL    HW122640   0.388  10.435   2.668
 7538SOL    HW222641   0.433  10.434   2.510
 7539SOL     OW22642   1.271  11.107   2.453
 7539SOL    HW122643   1.315  11.171   2.389
 7539SOL    HW222644   1.221  11.159   2.523
 7540SOL     OW22645   1.032   9.859   1.878
 7540SOL    HW122646   0.991   9.941   1.839
 7540SOL    HW222647   1.096   9.885   1.951
 7541SOL     OW22648   0.078   9.866   3.248
 7541SOL    HW122649   0.170   9.865   3.207
 7541SOL    HW222650   0.072   9.940   3.315
 7542SOL     OW22651   0.561   9.532   3.009
 7542SOL    HW122652   0.599   9.448   3.046
 7542SOL    HW222653   0.473   9.551   3.053
 7543SOL     OW22654   0.866   9.764   2.504
 7543SOL    HW122655   0.834   9.836   2.442
 7543SOL    HW222656   0.890   9.683   2.451
 7544SOL     OW22657   1.017   9.349   2.615
 7544SOL    HW122658   0.945   9.354   2.546
 7544SOL    HW222659   0.993   9.280   2.684
 7545SOL     OW22660   1.429  10.483   2.729
 7545SOL    HW122661   1.374  10.399   2.722
 7545SOL    HW222662   1.455  10.512   2.637
 7546SOL     OW22663   1.466   9.900   2.854
 7546SOL    HW122664   1.436   9.805   2.861
 7546SOL    HW222665   1.539   9.916   2.920
 7547SOL     OW22666   1.857  10.143   2.239
 7547SOL    HW122667   1.899  10.079   2.303
 7547SOL    HW222668   1.819  10.092   2.161
 7548SOL     OW22669   0.488  10.695   2.036
 7548SOL    HW122670   0.401  10.680   2.083
 7548SOL    HW222671   0.471  10.721   1.941
 7549SOL     OW22672   1.664  10.590   2.519
 7549SOL    HW122673   1.763  10.598   2.533
 7549SOL    HW222674   1.619  10.674   2.550
 7550SOL     OW22675   1.390   9.885   1.940
 7550SOL    HW122676   1.336   9.864   2.021
 7550SOL    HW222677   1.481   9.844   1.949
 7551SOL     OW22678   0.527   9.566   2.190
 7551SOL    HW122679   0.554   9.507   2.115
 7551SOL    HW222680   0.527   9.661   2.159
 7552SOL     OW22681   1.754  10.533   3.450
 7552SOL    HW122682   1.845  10.494   3.437
 7552SOL    HW222683   1.762  10.629   3.474
 7553SOL     OW22684   1.064  10.657   3.202
 7553SOL    HW122685   0.984  10.634   3.257
 7553SOL    HW222686   1.147  10.631   3.251
 7554SOL     OW22687   1.592  10.939   3.487
 7554SOL    HW122688   1.619  10.973   3.397
 7554SOL    HW222689   1.671  10.901   3.533
 7555SOL     OW22690   1.111  10.505   2.962
 7555SOL    HW122691   1.071  10.549   3.043
 7555SOL    HW222692   1.070  10.542   2.879
 7556SOL     OW22693   1.638  10.409   2.941
 7556SOL    HW122694   1.643  10.490   3.000
 7556SOL    HW222695   1.552  10.411   2.890
 7557SOL     OW22696   0.915   9.399   3.264
 7557SOL    HW122697   0.940   9.379   3.169
 7557SOL    HW222698   0.987   9.455   3.306
 7558SOL     OW22699   0.980  10.426   3.581
 7558SOL    HW122700   0.881  10.432   3.591
 7558SOL    HW222701   1.003  10.346   3.525
 7559SOL     OW22702   0.705  10.360   2.230
 7559SOL    HW122703   0.691  10.367   2.329
 7559SOL    HW222704   0.789  10.309   2.212
 7560SOL     OW22705   0.410  10.123   3.113
 7560SOL    HW122706   0.496  10.135   3.163
 7560SOL    HW222707   0.368  10.036   3.140
 7561SOL     OW22708   1.274   9.696   3.124
 7561SOL    HW122709   1.295   9.770   3.188
 7561SOL    HW222710   1.185   9.713   3.081
 7562SOL     OW22711   0.064  10.874   3.193
 7562SOL    HW122712   0.018  10.956   3.159
 7562SOL    HW222713   0.162  10.893   3.202
 7563SOL     OW22714   0.367  10.410   2.363
 7563SOL    HW122715   0.360  10.493   2.307
 7563SOL    HW222716   0.371  10.330   2.303
 7564SOL     OW22717   0.566   9.847   2.727
 7564SOL    HW122718   0.578   9.913   2.653
 7564SOL    HW222719   0.612   9.881   2.810
 7565SOL     OW22720   1.252  10.658   2.250
 7565SOL    HW122721   1.302  10.735   2.290
 7565SOL    HW222722   1.157  10.660   2.282
 7566SOL     OW22723   1.272  10.755   3.004
 7566SOL    HW122724   1.319  10.768   3.091
 7566SOL    HW222725   1.206  10.681   3.013
 7567SOL     OW22726   1.582   9.949   2.334
 7567SOL    HW122727   1.551  10.010   2.407
 7567SOL    HW222728   1.632  10.001   2.265
 7568SOL     OW22729   0.354  10.820   3.191
 7568SOL    HW122730   0.333  10.776   3.104
 7568SOL    HW222731   0.451  10.846   3.194
 7569SOL     OW22732   0.402  10.061   3.460
 7569SOL    HW122733   0.470  10.116   3.413
 7569SOL    HW222734   0.442   9.973   3.487
 7570SOL     OW22735   1.587  10.089   3.532
 7570SOL    HW122736   1.495  10.127   3.527
 7570SOL    HW222737   1.647  10.136   3.467
 7571SOL     OW22738   1.013   9.415   3.632
 7571SOL    HW122739   1.019   9.500   3.580
 7571SOL    HW222740   1.045   9.339   3.575
 7572SOL     OW22741   0.504   9.360   3.602
 7572SOL    HW122742   0.462   9.303   3.532
 7572SOL    HW222743   0.438   9.429   3.634
 7573SOL     OW22744   0.573  10.180   2.891
 7573SOL    HW122745   0.617  10.269   2.882
 7573SOL    HW222746   0.510  10.180   2.968
 7574SOL     OW22747   1.360  10.172   2.907
 7574SOL    HW122748   1.285  10.172   2.841
 7574SOL    HW222749   1.397  10.080   2.916
 7575SOL     OW22750   1.209   9.835   2.137
 7575SOL    HW122751   1.222   9.751   2.191
 7575SOL    HW222752   1.180   9.909   2.197
 7576SOL     OW22753   0.307   9.523   3.093
 7576SOL    HW122754   0.284   9.560   3.183
 7576SOL    HW222755   0.277   9.428   3.087
 7577SOL     OW22756   0.037  10.620   3.144
 7577SOL    HW122757   0.090  10.571   3.212
 7577SOL    HW222758   0.059  10.718   3.149
 7578SOL     OW22759   0.732   9.944   2.926
 7578SOL    HW122760   0.791   9.918   2.850
 7578SOL    HW222761   0.704  10.040   2.915
 7579SOL     OW22762   1.728  10.245   3.716
 7579SOL    HW122763   1.682  10.238   3.627
 7579SOL    HW222764   1.666  10.289   3.782
 7580SOL     OW22765   0.307   9.373   2.480
 7580SOL    HW122766   0.296   9.467   2.513
 7580SOL    HW222767   0.302   9.310   2.557
 7581SOL     OW22768   1.622   9.677   2.236
 7581SOL    HW122769   1.624   9.601   2.300
 7581SOL    HW222770   1.574   9.754   2.276
 7582SOL     OW22771   1.023  10.076   2.828
 7582SOL    HW122772   1.038  10.097   2.924
 7582SOL    HW222773   0.993   9.981   2.819
 7583SOL     OW22774   0.980  10.883   3.562
 7583SOL    HW122775   0.960  10.927   3.474
 7583SOL    HW222776   1.019  10.792   3.546
 7584SOL     OW22777   1.859  10.828   3.467
 7584SOL    HW122778   1.873  10.855   3.372
 7584SOL    HW222779   1.942  10.850   3.520
 7585SOL     OW22780   0.350  10.208   3.666
 7585SOL    HW122781   0.426  10.252   3.714
 7585SOL    HW222782   0.385  10.161   3.584
 7586SOL     OW22783   1.540   9.584   1.987
 7586SOL    HW122784   1.479   9.509   2.010
 7586SOL    HW222785   1.562   9.636   2.070
 7587SOL     OW22786   1.303  10.148   1.904
 7587SOL    HW122787   1.337  10.055   1.919
 7587SOL    HW222788   1.321  10.175   1.809
 7588SOL     OW22789   1.068  10.643   2.711
 7588SOL    HW122790   1.075  10.559   2.656
 7588SOL    HW222791   1.130  10.712   2.675
 7589SOL     OW22792   0.319  10.120   2.811
 7589SOL    HW122793   0.412  10.156   2.816
 7589SOL    HW222794   0.313  10.035   2.863
 7590SOL     OW22795   0.339   9.819   2.868
 7590SOL    HW122796   0.287   9.736   2.851
 7590SOL    HW222797   0.416   9.824   2.804
 7591SOL     OW22798   1.138   9.690   3.540
 7591SOL    HW122799   1.093   9.753   3.604
 7591SOL    HW222800   1.231   9.721   3.523
 7592SOL     OW22801   1.160   9.517   3.339
 7592SOL    HW122802   1.160   9.581   3.416
 7592SOL    HW222803   1.188   9.565   3.256
 7593SOL     OW22804   0.008  10.636   2.062
 7593SOL    HW122805  -0.085  10.657   2.031
 7593SOL    HW222806   0.018  10.537   2.075
 7594SOL     OW22807   0.088  11.111   2.789
 7594SOL    HW122808   0.046  11.025   2.762
 7594SOL    HW222809   0.182  11.114   2.755
 7595SOL     OW22810   0.504  10.878   2.772
 7595SOL    HW122811   0.570  10.952   2.781
 7595SOL    HW222812   0.548  10.799   2.730
 7596SOL     OW22813   1.002  10.106   3.100
 7596SOL    HW122814   1.043  10.074   3.186
 7596SOL    HW222815   0.906  10.079   3.097
 7597SOL     OW22816   0.040   9.854   2.976
 7597SOL    HW122817   0.125   9.821   2.935
 7597SOL    HW222818   0.053   9.869   3.074
 7598SOL     OW22819   0.189   9.830   3.584
 7598SOL    HW122820   0.248   9.790   3.514
 7598SOL    HW222821   0.131   9.901   3.543
 7599SOL     OW22822   1.369  10.260   3.522
 7599SOL    HW122823   1.408  10.349   3.542
 7599SOL    HW222824   1.379  10.240   3.425
 7600SOL     OW22825   0.815   9.882   2.187
 7600SOL    HW122826   0.822   9.793   2.141
 7600SOL    HW222827   0.721   9.916   2.179
 7601SOL     OW22828   1.657   9.914   3.068
 7601SOL    HW122829   1.619   9.845   3.130
 7601SOL    HW222830   1.739   9.878   3.024
 7602SOL     OW22831   0.252  10.874   3.606
 7602SOL    HW122832   0.222  10.931   3.682
 7602SOL    HW222833   0.245  10.777   3.632
 7603SOL     OW22834   0.671   9.774   3.131
 7603SOL    HW122835   0.637   9.685   3.101
 7603SOL    HW222836   0.697   9.828   3.051
 7604SOL     OW22837   0.930  10.988   3.327
 7604SOL    HW122838   0.906  10.970   3.232
 7604SOL    HW222839   0.960  11.082   3.337
 7605SOL     OW22840   0.473   9.810   2.053
 7605SOL    HW122841   0.534   9.890   2.057
 7605SOL    HW222842   0.378   9.841   2.060
 7606SOL     OW22843   0.159  10.447   3.328
 7606SOL    HW122844   0.181  10.386   3.404
 7606SOL    HW222845   0.169  10.398   3.242
 7607SOL     OW22846   1.347  10.369   3.096
 7607SOL    HW122847   1.371  10.306   3.022
 7607SOL    HW222848   1.257  10.409   3.078
 7608SOL     OW22849   1.302  10.165   2.171
 7608SOL    HW122850   1.216  10.134   2.213
 7608SOL    HW222851   1.298  10.151   2.072
 7609SOL     OW22852   1.759  11.057   3.016
 7609SOL    HW122853   1.820  11.087   2.943
 7609SOL    HW222854   1.721  10.968   2.994
 7610SOL     OW22855   1.252  11.041   2.990
 7610SOL    HW122856   1.336  11.046   2.936
 7610SOL    HW222857   1.229  10.945   3.008
 7611SOL     OW22858   0.083  10.568   2.884
 7611SOL    HW122859   0.078  10.567   2.984
 7611SOL    HW222860   0.000  10.527   2.846
 7612SOL     OW22861   0.688  10.972   3.578
 7612SOL    HW122862   0.632  11.053   3.587
 7612SOL    HW222863   0.740  10.976   3.492
 7613SOL     OW22864   1.726   9.445   2.385
 7613SOL    HW122865   1.799   9.428   2.318
 7613SOL    HW222866   1.695   9.358   2.423
 7614SOL     OW22867   1.388  10.883   2.339
 7614SOL    HW122868   1.455  10.895   2.265
 7614SOL    HW222869   1.348  10.972   2.362
 7615SOL     OW22870   0.130  11.104   3.713
 7615SOL    HW122871   0.089  11.030   3.766
 7615SOL    HW222872   0.194  11.155   3.771
 7616SOL     OW22873   1.280  10.237   2.534
 7616SOL    HW122874   1.340  10.156   2.536
 7616SOL    HW222875   1.320  10.306   2.474
 7617SOL     OW22876   0.830  10.583   3.284
 7617SOL    HW122877   0.825  10.616   3.379
 7617SOL    HW222878   0.744  10.602   3.238
 7618SOL     OW22879   0.672  10.926   2.016
 7618SOL    HW122880   0.681  10.936   1.917
 7618SOL    HW222881   0.632  10.837   2.037
 7619SOL     OW22882   1.650  11.030   3.256
 7619SOL    HW122883   1.703  11.040   3.172
 7619SOL    HW222884   1.623  11.120   3.290
 7620SOL     OW22885   1.841   9.485   2.825
 7620SOL    HW122886   1.880   9.400   2.789
 7620SOL    HW222887   1.743   9.487   2.806
 7621SOL     OW22888   0.263   9.636   2.582
 7621SOL    HW122889   0.184   9.687   2.548
 7621SOL    HW222890   0.254   9.621   2.680
 7622SOL     OW22891   1.194  10.922   1.893
 7622SOL    HW122892   1.200  10.829   1.930
 7622SOL    HW222893   1.135  10.922   1.813
 7623SOL     OW22894   0.822  10.312   3.234
 7623SOL    HW122895   0.862  10.311   3.142
 7623SOL    HW222896   0.832  10.404   3.274
 7624SOL     OW22897   0.916  10.220   2.153
 7624SOL    HW122898   0.979  10.258   2.085
 7624SOL    HW222899   0.956  10.137   2.192
 7625SOL     OW22900   1.504  10.917   1.906
 7625SOL    HW122901   1.412  10.954   1.913
 7625SOL    HW222902   1.542  10.937   1.816
 7626SOL     OW22903   0.372  10.598   3.352
 7626SOL    HW122904   0.359  10.691   3.318
 7626SOL    HW222905   0.288  10.546   3.339
 7627SOL     OW22906   1.614  10.602   3.151
 7627SOL    HW122907   1.674  10.605   3.231
 7627SOL    HW222908   1.539  10.666   3.164
 7628SOL     OW22909   1.039  10.408   2.558
 7628SOL    HW122910   0.969  10.361   2.612
 7628SOL    HW222911   1.098  10.340   2.515
 7629SOL     OW22912   1.014   9.546   2.833
 7629SOL    HW122913   1.006   9.510   2.740
 7629SOL    HW222914   1.012   9.470   2.898
 7630SOL     OW22915   0.590  10.797   2.353
 7630SOL    HW122916   0.632  10.739   2.283
 7630SOL    HW222917   0.546  10.876   2.309
 7631SOL     OW22918   1.709   9.695   3.243
 7631SOL    HW122919   1.782   9.764   3.247
 7631SOL    HW222920   1.737   9.620   3.184
 7632SOL     OW22921   0.255  10.658   2.152
 7632SOL    HW122922   0.159  10.659   2.125
 7632SOL    HW222923   0.267  10.711   2.236
 7633SOL     OW22924   0.105  10.323   3.588
 7633SOL    HW122925   0.028  10.290   3.642
 7633SOL    HW222926   0.190  10.293   3.630
 7634SOL     OW22927   0.672   9.513   3.351
 7634SOL    HW122928   0.762   9.497   3.311
 7634SOL    HW222929   0.680   9.518   3.450
 7635SOL     OW22930   0.075   9.655   1.895
 7635SOL    HW122931  -0.017   9.627   1.866
 7635SOL    HW222932   0.106   9.732   1.839
 7636SOL     OW22933   1.440  10.166   3.260
 7636SOL    HW122934   1.383  10.218   3.197
 7636SOL    HW222935   1.536  10.178   3.236
 7637SOL     OW22936   0.072   9.476   2.180
 7637SOL    HW122937   0.055   9.559   2.126
 7637SOL    HW222938   0.162   9.439   2.158
 7638SOL     OW22939   1.183  10.645   1.981
 7638SOL    HW122940   1.084  10.634   1.983
 7638SOL    HW222941   1.217  10.660   2.074
 7639SOL     OW22942   0.613  10.152   3.293
 7639SOL    HW122943   0.669  10.233   3.276
 7639SOL    HW222944   0.672  10.072   3.296
 7640SOL     OW22945   1.493  11.077   2.821
 7640SOL    HW122946   1.526  11.141   2.752
 7640SOL    HW222947   1.559  11.071   2.896
 7641SOL     OW22948   0.716   9.875   3.570
 7641SOL    HW122949   0.735   9.940   3.644
 7641SOL    HW222950   0.776   9.795   3.579
 7642SOL     OW22951   1.450  10.530   3.495
 7642SOL    HW122952   1.441  10.520   3.594
 7642SOL    HW222953   1.546  10.523   3.469
 7643SOL     OW22954   0.390  11.051   3.422
 7643SOL    HW122955   0.299  11.092   3.420
 7643SOL    HW222956   0.383  10.957   3.454
 7644SOL     OW22957   1.674  10.193   3.116
 7644SOL    HW122958   1.647  10.104   3.079
 7644SOL    HW222959   1.675  10.261   3.043
 7645SOL     OW22960   1.225   9.635   2.311
 7645SOL    HW122961   1.290   9.561   2.300
 7645SOL    HW222962   1.245   9.685   2.395
 7646SOL     OW22963   0.594  10.055   2.514
 7646SOL    HW122964   0.644  10.140   2.495
 7646SOL    HW222965   0.506  10.057   2.466
 7647SOL     OW22966   1.777   9.652   3.504
 7647SOL    HW122967   1.760   9.683   3.410
 7647SOL    HW222968   1.693   9.615   3.542
 7648SOL     OW22969   1.730  10.244   3.379
 7648SOL    HW122970   1.768  10.335   3.394
 7648SOL    HW222971   1.722  10.227   3.280
 7649SOL     OW22972   0.859  10.684   1.878
 7649SOL    HW122973   0.813  10.699   1.966
 7649SOL    HW222974   0.903  10.769   1.848
 7650SOL     OW22975   0.661  11.100   2.815
 7650SOL    HW122976   0.615  11.188   2.802
 7650SOL    HW222977   0.760  11.112   2.808
 7651SOL     OW22978   0.859  10.266   2.723
 7651SOL    HW122979   0.913  10.197   2.771
 7651SOL    HW222980   0.827  10.335   2.789
 7652SOL     OW22981   1.083  10.294   1.949
 7652SOL    HW122982   1.060  10.347   1.867
 7652SOL    HW222983   1.164  10.238   1.930
 7653SOL     OW22984   1.861  10.879   2.713
 7653SOL    HW122985   1.790  10.867   2.643
 7653SOL    HW222986   1.862  10.800   2.773
 7654SOL     OW22987   0.221  10.624   3.706
 7654SOL    HW122988   0.156  10.551   3.685
 7654SOL    HW222989   0.225  10.638   3.804
 7655SOL     OW22990   0.079  10.550   2.515
 7655SOL    HW122991   0.078  10.503   2.603
 7655SOL    HW222992   0.161  10.522   2.464
 7656SOL     OW22993   0.672  10.701   3.486
 7656SOL    HW122994   0.594  10.651   3.524
 7656SOL    HW222995   0.669  10.796   3.517
 7657SOL     OW22996   1.824   9.502   3.089
 7657SOL    HW122997   1.820   9.412   3.133
 7657SOL    HW222998   1.827   9.491   2.990
 7658SOL     OW22999   0.428   9.734   2.382
 7658SOL    HW123000   0.458   9.662   2.320
 7658SOL    HW223001   0.389   9.694   2.465
 7659SOL     OW23002   1.705  10.797   2.966
 7659SOL    HW123003   1.612  10.772   2.939
 7659SOL    HW223004   1.731  10.747   3.048
 7660SOL     OW23005   0.317   9.857   3.142
 7660SOL    HW123006   0.355   9.798   3.214
 7660SOL    HW223007   0.357   9.831   3.054
 7661SOL     OW23008   0.812  10.896   2.549
 7661SOL    HW123009   0.844  10.906   2.455
 7661SOL    HW223010   0.733  10.834   2.551
 7662SOL     OW23011   1.424   9.524   2.974
 7662SOL    HW123012   1.476   9.459   3.029
 7662SOL    HW223013   1.375   9.587   3.035
 7663SOL     OW23014   1.001   9.344   3.016
 7663SOL    HW123015   0.938   9.272   2.985
 7663SOL    HW223016   1.094   9.308   3.016
 7664SOL     OW23017   0.770  10.640   2.163
 7664SOL    HW123018   0.724  10.553   2.180
 7664SOL    HW223019   0.861  10.637   2.204
 7665SOL     OW23020   0.618  10.877   3.146
 7665SOL    HW123021   0.613  10.959   3.203
 7665SOL    HW223022   0.707  10.874   3.101
 7666SOL     OW23023   1.352   9.362   2.030
 7666SOL    HW123024   1.387   9.321   1.946
 7666SOL    HW223025   1.262   9.324   2.050
 7667SOL     OW23026   1.300   9.763   2.553
 7667SOL    HW123027   1.241   9.843   2.557
 7667SOL    HW223028   1.315   9.728   2.646
 7668SOL     OW23029   1.593   9.531   2.744
 7668SOL    HW123030   1.509   9.530   2.798
 7668SOL    HW223031   1.595   9.614   2.688
 7669SOL     OW23032   0.039  10.387   2.162
 7669SOL    HW123033   0.138  10.376   2.153
 7669SOL    HW223034  -0.001  10.301   2.194
 7670SOL     OW23035   0.875  10.956   2.199
 7670SOL    HW123036   0.798  10.921   2.145
 7670SOL    HW223037   0.843  11.027   2.261
 7671SOL     OW23038   0.230   9.938   3.837
 7671SOL    HW123039   0.137   9.936   3.874
 7671SOL    HW223040   0.231   9.899   3.745
 7672SOL     OW23041   0.225   9.585   4.720
 7672SOL    HW123042   0.260   9.568   4.812
 7672SOL    HW223043   0.137   9.540   4.708
 7673SOL     OW23044   0.019   9.678   4.371
 7673SOL    HW123045  -0.063   9.721   4.410
 7673SOL    HW223046  -0.009   9.605   4.308
 7674SOL     OW23047   0.569  10.585   4.889
 7674SOL    HW123048   0.476  10.578   4.852
 7674SOL    HW223049   0.580  10.674   4.933
 7675SOL     OW23050   1.555  10.821   4.427
 7675SOL    HW123051   1.498  10.805   4.508
 7675SOL    HW223052   1.496  10.831   4.347
 7676SOL     OW23053   1.135  10.013   4.441
 7676SOL    HW123054   1.192  10.091   4.416
 7676SOL    HW223055   1.075  10.039   4.517
 7677SOL     OW23056   1.755   9.917   3.955
 7677SOL    HW123057   1.743   9.904   3.856
 7677SOL    HW223058   1.725   9.836   4.004
 7678SOL     OW23059   0.768  10.454   4.747
 7678SOL    HW123060   0.690  10.471   4.807
 7678SOL    HW223061   0.802  10.541   4.711
 7679SOL     OW23062   0.850  10.108   5.547
 7679SOL    HW123063   0.846  10.184   5.612
 7679SOL    HW223064   0.872  10.144   5.456
 7680SOL     OW23065   0.685  10.322   4.389
 7680SOL    HW123066   0.754  10.306   4.459
 7680SOL    HW223067   0.612  10.379   4.427
 7681SOL     OW23068   0.686  10.471   5.527
 7681SOL    HW123069   0.746  10.550   5.541
 7681SOL    HW223070   0.600  10.502   5.486
 7682SOL     OW23071   0.335  10.745   4.785
 7682SOL    HW123072   0.257  10.714   4.732
 7682SOL    HW223073   0.393  10.803   4.728
 7683SOL     OW23074   1.460  10.815   5.063
 7683SOL    HW123075   1.484  10.909   5.089
 7683SOL    HW223076   1.444  10.761   5.145
 7684SOL     OW23077   0.438   9.702   5.223
 7684SOL    HW123078   0.520   9.646   5.232
 7684SOL    HW223079   0.357   9.644   5.227
 7685SOL     OW23080   1.603   9.757   4.461
 7685SOL    HW123081   1.529   9.803   4.411
 7685SOL    HW223082   1.654   9.825   4.514
 7686SOL     OW23083   0.231  11.023   4.207
 7686SOL    HW123084   0.265  11.100   4.261
 7686SOL    HW223085   0.275  11.023   4.117
 7687SOL     OW23086   1.127  10.651   5.414
 7687SOL    HW123087   1.174  10.651   5.502
 7687SOL    HW223088   1.079  10.564   5.403
 7688SOL     OW23089   0.230  10.744   4.262
 7688SOL    HW123090   0.204  10.840   4.262
 7688SOL    HW223091   0.159  10.690   4.307
 7689SOL     OW23092   0.240  10.401   4.610
 7689SOL    HW123093   0.254  10.317   4.662
 7689SOL    HW223094   0.185  10.465   4.665
 7690SOL     OW23095   0.620  11.096   5.163
 7690SOL    HW123096   0.528  11.079   5.198
 7690SOL    HW223097   0.648  11.188   5.189
 7691SOL     OW23098   0.606  10.274   3.847
 7691SOL    HW123099   0.613  10.358   3.793
 7691SOL    HW223100   0.652  10.287   3.935
 7692SOL     OW23101   1.594   9.424   5.204
 7692SOL    HW123102   1.576   9.491   5.132
 7692SOL    HW223103   1.591   9.470   5.293
 7693SOL     OW23104   0.122   9.953   4.287
 7693SOL    HW123105   0.077   9.865   4.304
 7693SOL    HW223106   0.121  10.007   4.371
 7694SOL     OW23107   1.842  11.077   4.083
 7694SOL    HW123108   1.896  11.048   4.163
 7694SOL    HW223109   1.872  11.167   4.054
 7695SOL     OW23110   0.027  10.906   3.841
 7695SOL    HW123111   0.008  10.810   3.862
 7695SOL    HW223112  -0.006  10.964   3.916
 7696SOL     OW23113   1.689  10.232   4.336
 7696SOL    HW123114   1.784  10.203   4.344
 7696SOL    HW223115   1.681  10.297   4.261
 7697SOL     OW23116   1.641  10.418   4.156
 7697SOL    HW123117   1.727  10.420   4.104
 7697SOL    HW223118   1.655  10.465   4.244
 7698SOL     OW23119   0.113  10.047   5.321
 7698SOL    HW123120   0.201  10.034   5.366
 7698SOL    HW223121   0.100  10.144   5.299
 7699SOL     OW23122   0.613  10.675   4.450
 7699SOL    HW123123   0.564  10.588   4.459
 7699SOL    HW223124   0.590  10.718   4.363
 7700SOL     OW23125   1.293  10.538   5.147
 7700SOL    HW123126   1.330  10.465   5.089
 7700SOL    HW223127   1.345  10.543   5.232
 7701SOL     OW23128   0.809   9.314   4.226
 7701SOL    HW123129   0.849   9.405   4.217
 7701SOL    HW223130   0.709   9.322   4.232
 7702SOL     OW23131   0.197  10.286   4.988
 7702SOL    HW123132   0.286  10.241   4.974
 7702SOL    HW223133   0.124  10.221   4.969
 7703SOL     OW23134   1.525  10.309   3.914
 7703SOL    HW123135   1.462  10.233   3.927
 7703SOL    HW223136   1.573  10.327   4.000
 7704SOL     OW23137   1.187  11.102   5.340
 7704SOL    HW123138   1.211  11.162   5.264
 7704SOL    HW223139   1.194  11.007   5.310
 7705SOL     OW23140   0.317   9.561   5.525
 7705SOL    HW123141   0.388   9.632   5.531
 7705SOL    HW223142   0.229   9.600   5.553
 7706SOL     OW23143   1.466  10.727   4.677
 7706SOL    HW123144   1.407  10.733   4.757
 7706SOL    HW223145   1.451  10.639   4.631
 7707SOL     OW23146   1.667  11.024   4.296
 7707SOL    HW123147   1.626  11.001   4.208
 7707SOL    HW223148   1.649  10.950   4.361
 7708SOL     OW23149   0.598  10.039   3.994
 7708SOL    HW123150   0.622  10.108   3.926
 7708SOL    HW223151   0.520  10.072   4.048
 7709SOL     OW23152   1.281   9.655   4.668
 7709SOL    HW123153   1.195   9.605   4.655
 7709SOL    HW223154   1.343   9.601   4.724
 7710SOL     OW23155   1.576  10.972   4.031
 7710SOL    HW123156   1.665  11.018   4.034
 7710SOL    HW223157   1.555  10.948   3.936
 7711SOL     OW23158   0.807   9.915   5.189
 7711SOL    HW123159   0.760   9.912   5.278
 7711SOL    HW223160   0.756   9.860   5.123
 7712SOL     OW23161   1.394   9.779   5.398
 7712SOL    HW123162   1.374   9.822   5.486
 7712SOL    HW223163   1.472   9.717   5.407
 7713SOL     OW23164   0.973  10.200   5.296
 7713SOL    HW123165   1.019  10.116   5.267
 7713SOL    HW223166   0.917  10.234   5.221
 7714SOL     OW23167   0.991   9.720   4.966
 7714SOL    HW123168   0.914   9.754   5.020
 7714SOL    HW223169   0.957   9.669   4.887
 7715SOL     OW23170   1.041  10.011   4.153
 7715SOL    HW123171   1.067  10.007   4.249
 7715SOL    HW223172   0.956   9.960   4.139
 7716SOL     OW23173   0.076  10.121   4.513
 7716SOL    HW123174   0.175  10.109   4.522
 7716SOL    HW223175   0.052  10.216   4.534
 7717SOL     OW23176   0.130  11.131   5.295
 7717SOL    HW123177   0.120  11.116   5.394
 7717SOL    HW223178   0.044  11.167   5.259
 7718SOL     OW23179   0.865   9.658   3.919
 7718SOL    HW123180   0.924   9.721   3.870
 7718SOL    HW223181   0.884   9.564   3.890
 7719SOL     OW23182   1.719   9.895   5.555
 7719SOL    HW123183   1.693   9.984   5.519
 7719SOL    HW223184   1.717   9.827   5.482
 7720SOL     OW23185   1.362  10.454   4.269
 7720SOL    HW123186   1.445  10.425   4.221
 7720SOL    HW223187   1.313  10.521   4.213
 7721SOL     OW23188   0.550   9.506   4.609
 7721SOL    HW123189   0.545   9.501   4.709
 7721SOL    HW223190   0.552   9.602   4.580
 7722SOL     OW23191   1.008  10.766   4.201
 7722SOL    HW123192   0.962  10.838   4.149
 7722SOL    HW223193   1.004  10.786   4.299
 7723SOL     OW23194   0.351  11.111   4.577
 7723SOL    HW123195   0.401  11.025   4.583
 7723SOL    HW223196   0.416  11.188   4.574
 7724SOL     OW23197   1.795  10.376   4.597
 7724SOL    HW123198   1.733  10.361   4.521
 7724SOL    HW223199   1.743  10.387   4.682
 7725SOL     OW23200   1.227  10.860   5.230
 7725SOL    HW123201   1.233  10.783   5.294
 7725SOL    HW223202   1.175  10.834   5.150
 7726SOL     OW23203   0.321  10.253   3.966
 7726SOL    HW123204   0.403  10.292   3.924
 7726SOL    HW223205   0.294  10.171   3.917
 7727SOL     OW23206   1.458  10.045   4.452
 7727SOL    HW123207   1.453   9.980   4.527
 7727SOL    HW223208   1.538  10.104   4.465
 7728SOL     OW23209   0.461  10.576   5.451
 7728SOL    HW123210   0.411  10.577   5.365
 7728SOL    HW223211   0.398  10.558   5.527
 7729SOL     OW23212   1.111  11.086   3.961
 7729SOL    HW123213   1.051  11.024   4.011
 7729SOL    HW223214   1.142  11.042   3.876
 7730SOL     OW23215   0.202   9.595   5.222
 7730SOL    HW123216   0.122   9.655   5.209
 7730SOL    HW223217   0.192   9.546   5.308
 7731SOL     OW23218   1.632  10.687   3.805
 7731SOL    HW123219   1.600  10.781   3.795
 7731SOL    HW223220   1.556  10.624   3.793
 7732SOL     OW23221   0.464  11.053   4.047
 7732SOL    HW123222   0.497  11.092   4.133
 7732SOL    HW223223   0.540  11.046   3.982
 7733SOL     OW23224   1.400   9.417   4.150
 7733SOL    HW123225   1.376   9.380   4.060
 7733SOL    HW223226   1.499   9.433   4.154
 7734SOL     OW23227   0.249  11.095   4.965
 7734SOL    HW123228   0.306  11.030   5.015
 7734SOL    HW223229   0.233  11.062   4.872
 7735SOL     OW23230   0.940  11.008   4.628
 7735SOL    HW123231   1.020  10.951   4.649
 7735SOL    HW223232   0.891  10.968   4.551
 7736SOL     OW23233   0.382  10.010   4.204
 7736SOL    HW123234   0.427   9.920   4.201
 7736SOL    HW223235   0.288   9.999   4.237
 7737SOL     OW23236   1.547   9.532   5.453
 7737SOL    HW123237   1.542   9.569   5.545
 7737SOL    HW223238   1.475   9.463   5.441
 7738SOL     OW23239   0.614   9.432   3.841
 7738SOL    HW123240   0.712   9.410   3.848
 7738SOL    HW223241   0.583   9.415   3.748
 7739SOL     OW23242   0.781   9.574   5.473
 7739SOL    HW123243   0.848   9.513   5.516
 7739SOL    HW223244   0.708   9.593   5.538
 7740SOL     OW23245   0.888  10.824   4.919
 7740SOL    HW123246   0.865  10.799   4.825
 7740SOL    HW223247   0.949  10.755   4.958
 7741SOL     OW23248   1.351   9.900   5.157
 7741SOL    HW123249   1.379   9.857   5.242
 7741SOL    HW223250   1.376   9.996   5.158
 7742SOL     OW23251   0.803  10.712   4.648
 7742SOL    HW123252   0.893  10.726   4.606
 7742SOL    HW223253   0.732  10.714   4.577
 7743SOL     OW23254   0.922   9.813   4.623
 7743SOL    HW123255   0.897   9.804   4.527
 7743SOL    HW223256   0.970   9.731   4.654
 7744SOL     OW23257   0.539   9.374   4.236
 7744SOL    HW123258   0.458   9.375   4.294
 7744SOL    HW223259   0.542   9.457   4.181
 7745SOL     OW23260   1.434  10.498   3.765
 7745SOL    HW123261   1.466  10.422   3.822
 7745SOL    HW223262   1.342  10.525   3.795
 7746SOL     OW23263   0.297   9.345   3.895
 7746SOL    HW123264   0.346   9.429   3.874
 7746SOL    HW223265   0.359   9.280   3.940
 7747SOL     OW23266   0.935   9.546   4.204
 7747SOL    HW123267   0.887   9.587   4.126
 7747SOL    HW223268   1.034   9.544   4.185
 7748SOL     OW23269   1.076   9.993   5.188
 7748SOL    HW123270   0.996   9.932   5.191
 7748SOL    HW223271   1.157   9.940   5.164
 7749SOL     OW23272   1.227  10.880   4.517
 7749SOL    HW123273   1.248  10.954   4.452
 7749SOL    HW223274   1.295  10.880   4.590
 7750SOL     OW23275   0.459  10.462   4.465
 7750SOL    HW123276   0.388  10.435   4.530
 7750SOL    HW223277   0.433  10.434   4.372
 7751SOL     OW23278   1.271  11.107   4.315
 7751SOL    HW123279   1.315  11.171   4.251
 7751SOL    HW223280   1.221  11.159   4.385
 7752SOL     OW23281   1.032   9.859   3.740
 7752SOL    HW123282   0.991   9.941   3.701
 7752SOL    HW223283   1.096   9.885   3.813
 7753SOL     OW23284   0.078   9.866   5.110
 7753SOL    HW123285   0.170   9.865   5.069
 7753SOL    HW223286   0.072   9.940   5.177
 7754SOL     OW23287   0.561   9.532   4.871
 7754SOL    HW123288   0.599   9.448   4.908
 7754SOL    HW223289   0.473   9.551   4.915
 7755SOL     OW23290   0.866   9.764   4.366
 7755SOL    HW123291   0.834   9.836   4.304
 7755SOL    HW223292   0.890   9.683   4.313
 7756SOL     OW23293   1.017   9.349   4.477
 7756SOL    HW123294   0.945   9.354   4.408
 7756SOL    HW223295   0.993   9.280   4.546
 7757SOL     OW23296   1.429  10.483   4.591
 7757SOL    HW123297   1.374  10.399   4.584
 7757SOL    HW223298   1.455  10.512   4.499
 7758SOL     OW23299   1.466   9.900   4.716
 7758SOL    HW123300   1.436   9.805   4.723
 7758SOL    HW223301   1.539   9.916   4.782
 7759SOL     OW23302   1.857  10.143   4.101
 7759SOL    HW123303   1.899  10.079   4.165
 7759SOL    HW223304   1.819  10.092   4.023
 7760SOL     OW23305   0.488  10.695   3.898
 7760SOL    HW123306   0.401  10.680   3.945
 7760SOL    HW223307   0.471  10.721   3.803
 7761SOL     OW23308   1.664  10.590   4.381
 7761SOL    HW123309   1.763  10.598   4.395
 7761SOL    HW223310   1.619  10.674   4.412
 7762SOL     OW23311   1.390   9.885   3.802
 7762SOL    HW123312   1.336   9.864   3.883
 7762SOL    HW223313   1.481   9.844   3.811
 7763SOL     OW23314   0.527   9.566   4.052
 7763SOL    HW123315   0.554   9.507   3.977
 7763SOL    HW223316   0.527   9.661   4.021
 7764SOL     OW23317   1.754  10.533   5.312
 7764SOL    HW123318   1.845  10.494   5.299
 7764SOL    HW223319   1.762  10.629   5.336
 7765SOL     OW23320   1.064  10.657   5.064
 7765SOL    HW123321   0.984  10.634   5.119
 7765SOL    HW223322   1.147  10.631   5.113
 7766SOL     OW23323   1.592  10.939   5.349
 7766SOL    HW123324   1.619  10.973   5.259
 7766SOL    HW223325   1.671  10.901   5.395
 7767SOL     OW23326   1.111  10.505   4.824
 7767SOL    HW123327   1.071  10.549   4.905
 7767SOL    HW223328   1.070  10.542   4.741
 7768SOL     OW23329   1.638  10.409   4.803
 7768SOL    HW123330   1.643  10.490   4.862
 7768SOL    HW223331   1.552  10.411   4.752
 7769SOL     OW23332   0.915   9.399   5.126
 7769SOL    HW123333   0.940   9.379   5.031
 7769SOL    HW223334   0.987   9.455   5.168
 7770SOL     OW23335   0.980  10.426   5.443
 7770SOL    HW123336   0.881  10.432   5.453
 7770SOL    HW223337   1.003  10.346   5.387
 7771SOL     OW23338   0.705  10.360   4.092
 7771SOL    HW123339   0.691  10.367   4.191
 7771SOL    HW223340   0.789  10.309   4.074
 7772SOL     OW23341   0.410  10.123   4.975
 7772SOL    HW123342   0.496  10.135   5.025
 7772SOL    HW223343   0.368  10.036   5.002
 7773SOL     OW23344   1.274   9.696   4.986
 7773SOL    HW123345   1.295   9.770   5.050
 7773SOL    HW223346   1.185   9.713   4.943
 7774SOL     OW23347   0.064  10.874   5.055
 7774SOL    HW123348   0.018  10.956   5.021
 7774SOL    HW223349   0.162  10.893   5.064
 7775SOL     OW23350   0.367  10.410   4.225
 7775SOL    HW123351   0.360  10.493   4.169
 7775SOL    HW223352   0.371  10.330   4.165
 7776SOL     OW23353   0.566   9.847   4.589
 7776SOL    HW123354   0.578   9.913   4.515
 7776SOL    HW223355   0.612   9.881   4.672
 7777SOL     OW23356   1.252  10.658   4.112
 7777SOL    HW123357   1.302  10.735   4.152
 7777SOL    HW223358   1.157  10.660   4.144
 7778SOL     OW23359   1.272  10.755   4.866
 7778SOL    HW123360   1.319  10.768   4.953
 7778SOL    HW223361   1.206  10.681   4.875
 7779SOL     OW23362   1.582   9.949   4.196
 7779SOL    HW123363   1.551  10.010   4.269
 7779SOL    HW223364   1.632  10.001   4.127
 7780SOL     OW23365   0.354  10.820   5.053
 7780SOL    HW123366   0.333  10.776   4.966
 7780SOL    HW223367   0.451  10.846   5.056
 7781SOL     OW23368   0.402  10.061   5.322
 7781SOL    HW123369   0.470  10.116   5.275
 7781SOL    HW223370   0.442   9.973   5.349
 7782SOL     OW23371   1.587  10.089   5.394
 7782SOL    HW123372   1.495  10.127   5.389
 7782SOL    HW223373   1.647  10.136   5.329
 7783SOL     OW23374   1.013   9.415   5.494
 7783SOL    HW123375   1.019   9.500   5.442
 7783SOL    HW223376   1.045   9.339   5.437
 7784SOL     OW23377   0.504   9.360   5.464
 7784SOL    HW123378   0.462   9.303   5.394
 7784SOL    HW223379   0.438   9.429   5.496
 7785SOL     OW23380   0.573  10.180   4.753
 7785SOL    HW123381   0.617  10.269   4.744
 7785SOL    HW223382   0.510  10.180   4.830
 7786SOL     OW23383   1.360  10.172   4.769
 7786SOL    HW123384   1.285  10.172   4.703
 7786SOL    HW223385   1.397  10.080   4.778
 7787SOL     OW23386   1.209   9.835   3.999
 7787SOL    HW123387   1.222   9.751   4.053
 7787SOL    HW223388   1.180   9.909   4.059
 7788SOL     OW23389   0.307   9.523   4.955
 7788SOL    HW123390   0.284   9.560   5.045
 7788SOL    HW223391   0.277   9.428   4.949
 7789SOL     OW23392   0.037  10.620   5.006
 7789SOL    HW123393   0.090  10.571   5.074
 7789SOL    HW223394   0.059  10.718   5.011
 7790SOL     OW23395   0.732   9.944   4.788
 7790SOL    HW123396   0.791   9.918   4.712
 7790SOL    HW223397   0.704  10.040   4.777
 7791SOL     OW23398   1.728  10.245   5.578
 7791SOL    HW123399   1.682  10.238   5.489
 7791SOL    HW223400   1.666  10.289   5.644
 7792SOL     OW23401   0.307   9.373   4.342
 7792SOL    HW123402   0.296   9.467   4.375
 7792SOL    HW223403   0.302   9.310   4.419
 7793SOL     OW23404   1.622   9.677   4.098
 7793SOL    HW123405   1.624   9.601   4.162
 7793SOL    HW223406   1.574   9.754   4.138
 7794SOL     OW23407   1.023  10.076   4.690
 7794SOL    HW123408   1.038  10.097   4.786
 7794SOL    HW223409   0.993   9.981   4.681
 7795SOL     OW23410   0.980  10.883   5.424
 7795SOL    HW123411   0.960  10.927   5.336
 7795SOL    HW223412   1.019  10.792   5.408
 7796SOL     OW23413   1.859  10.828   5.329
 7796SOL    HW123414   1.873  10.855   5.234
 7796SOL    HW223415   1.942  10.850   5.382
 7797SOL     OW23416   0.350  10.208   5.528
 7797SOL    HW123417   0.426  10.252   5.576
 7797SOL    HW223418   0.385  10.161   5.446
 7798SOL     OW23419   1.540   9.584   3.849
 7798SOL    HW123420   1.479   9.509   3.872
 7798SOL    HW223421   1.562   9.636   3.932
 7799SOL     OW23422   1.303  10.148   3.766
 7799SOL    HW123423   1.337  10.055   3.781
 7799SOL    HW223424   1.321  10.175   3.671
 7800SOL     OW23425   1.068  10.643   4.573
 7800SOL    HW123426   1.075  10.559   4.518
 7800SOL    HW223427   1.130  10.712   4.537
 7801SOL     OW23428   0.319  10.120   4.673
 7801SOL    HW123429   0.412  10.156   4.678
 7801SOL    HW223430   0.313  10.035   4.725
 7802SOL     OW23431   0.339   9.819   4.730
 7802SOL    HW123432   0.287   9.736   4.713
 7802SOL    HW223433   0.416   9.824   4.666
 7803SOL     OW23434   1.138   9.690   5.402
 7803SOL    HW123435   1.093   9.753   5.466
 7803SOL    HW223436   1.231   9.721   5.385
 7804SOL     OW23437   1.160   9.517   5.201
 7804SOL    HW123438   1.160   9.581   5.278
 7804SOL    HW223439   1.188   9.565   5.118
 7805SOL     OW23440   0.008  10.636   3.924
 7805SOL    HW123441  -0.085  10.657   3.893
 7805SOL    HW223442   0.018  10.537   3.937
 7806SOL     OW23443   0.088  11.111   4.651
 7806SOL    HW123444   0.046  11.025   4.624
 7806SOL    HW223445   0.182  11.114   4.617
 7807SOL     OW23446   0.504  10.878   4.634
 7807SOL    HW123447   0.570  10.952   4.643
 7807SOL    HW223448   0.548  10.799   4.592
 7808SOL     OW23449   1.002  10.106   4.962
 7808SOL    HW123450   1.043  10.074   5.048
 7808SOL    HW223451   0.906  10.079   4.959
 7809SOL     OW23452   0.040   9.854   4.838
 7809SOL    HW123453   0.125   9.821   4.797
 7809SOL    HW223454   0.053   9.869   4.936
 7810SOL     OW23455   0.189   9.830   5.446
 7810SOL    HW123456   0.248   9.790   5.376
 7810SOL    HW223457   0.131   9.901   5.405
 7811SOL     OW23458   1.369  10.260   5.384
 7811SOL    HW123459   1.408  10.349   5.404
 7811SOL    HW223460   1.379  10.240   5.287
 7812SOL     OW23461   0.815   9.882   4.049
 7812SOL    HW123462   0.822   9.793   4.003
 7812SOL    HW223463   0.721   9.916   4.041
 7813SOL     OW23464   1.657   9.914   4.930
 7813SOL    HW123465   1.619   9.845   4.992
 7813SOL    HW223466   1.739   9.878   4.886
 7814SOL     OW23467   0.252  10.874   5.468
 7814SOL    HW123468   0.222  10.931   5.544
 7814SOL    HW223469   0.245  10.777   5.494
 7815SOL     OW23470   0.671   9.774   4.993
 7815SOL    HW123471   0.637   9.685   4.963
 7815SOL    HW223472   0.697   9.828   4.913
 7816SOL     OW23473   0.930  10.988   5.189
 7816SOL    HW123474   0.906  10.970   5.094
 7816SOL    HW223475   0.960  11.082   5.199
 7817SOL     OW23476   0.473   9.810   3.915
 7817SOL    HW123477   0.534   9.890   3.919
 7817SOL    HW223478   0.378   9.841   3.922
 7818SOL     OW23479   0.159  10.447   5.190
 7818SOL    HW123480   0.181  10.386   5.266
 7818SOL    HW223481   0.169  10.398   5.104
 7819SOL     OW23482   1.347  10.369   4.958
 7819SOL    HW123483   1.371  10.306   4.884
 7819SOL    HW223484   1.257  10.409   4.940
 7820SOL     OW23485   1.302  10.165   4.033
 7820SOL    HW123486   1.216  10.134   4.075
 7820SOL    HW223487   1.298  10.151   3.934
 7821SOL     OW23488   1.759  11.057   4.878
 7821SOL    HW123489   1.820  11.087   4.805
 7821SOL    HW223490   1.721  10.968   4.856
 7822SOL     OW23491   1.252  11.041   4.852
 7822SOL    HW123492   1.336  11.046   4.798
 7822SOL    HW223493   1.229  10.945   4.870
 7823SOL     OW23494   0.083  10.568   4.746
 7823SOL    HW123495   0.078  10.567   4.846
 7823SOL    HW223496   0.000  10.527   4.708
 7824SOL     OW23497   0.688  10.972   5.440
 7824SOL    HW123498   0.632  11.053   5.449
 7824SOL    HW223499   0.740  10.976   5.354
 7825SOL     OW23500   1.726   9.445   4.247
 7825SOL    HW123501   1.799   9.428   4.180
 7825SOL    HW223502   1.695   9.358   4.285
 7826SOL     OW23503   1.388  10.883   4.201
 7826SOL    HW123504   1.455  10.895   4.127
 7826SOL    HW223505   1.348  10.972   4.224
 7827SOL     OW23506   0.130  11.104   5.575
 7827SOL    HW123507   0.089  11.030   5.628
 7827SOL    HW223508   0.194  11.155   5.633
 7828SOL     OW23509   1.280  10.237   4.396
 7828SOL    HW123510   1.340  10.156   4.398
 7828SOL    HW223511   1.320  10.306   4.336
 7829SOL     OW23512   0.830  10.583   5.146
 7829SOL    HW123513   0.825  10.616   5.241
 7829SOL    HW223514   0.744  10.602   5.100
 7830SOL     OW23515   0.672  10.926   3.878
 7830SOL    HW123516   0.681  10.936   3.779
 7830SOL    HW223517   0.632  10.837   3.899
 7831SOL     OW23518   1.650  11.030   5.118
 7831SOL    HW123519   1.703  11.040   5.034
 7831SOL    HW223520   1.623  11.120   5.152
 7832SOL     OW23521   1.841   9.485   4.687
 7832SOL    HW123522   1.880   9.400   4.651
 7832SOL    HW223523   1.743   9.487   4.668
 7833SOL     OW23524   0.263   9.636   4.444
 7833SOL    HW123525   0.184   9.687   4.410
 7833SOL    HW223526   0.254   9.621   4.542
 7834SOL     OW23527   1.194  10.922   3.755
 7834SOL    HW123528   1.200  10.829   3.792
 7834SOL    HW223529   1.135  10.922   3.675
 7835SOL     OW23530   0.822  10.312   5.096
 7835SOL    HW123531   0.862  10.311   5.004
 7835SOL    HW223532   0.832  10.404   5.136
 7836SOL     OW23533   0.916  10.220   4.015
 7836SOL    HW123534   0.979  10.258   3.947
 7836SOL    HW223535   0.956  10.137   4.054
 7837SOL     OW23536   1.504  10.917   3.768
 7837SOL    HW123537   1.412  10.954   3.775
 7837SOL    HW223538   1.542  10.937   3.678
 7838SOL     OW23539   0.372  10.598   5.214
 7838SOL    HW123540   0.359  10.691   5.180
 7838SOL    HW223541   0.288  10.546   5.201
 7839SOL     OW23542   1.614  10.602   5.013
 7839SOL    HW123543   1.674  10.605   5.093
 7839SOL    HW223544   1.539  10.666   5.026
 7840SOL     OW23545   1.039  10.408   4.420
 7840SOL    HW123546   0.969  10.361   4.474
 7840SOL    HW223547   1.098  10.340   4.377
 7841SOL     OW23548   1.014   9.546   4.695
 7841SOL    HW123549   1.006   9.510   4.602
 7841SOL    HW223550   1.012   9.470   4.760
 7842SOL     OW23551   0.590  10.797   4.215
 7842SOL    HW123552   0.632  10.739   4.145
 7842SOL    HW223553   0.546  10.876   4.171
 7843SOL     OW23554   1.709   9.695   5.105
 7843SOL    HW123555   1.782   9.764   5.109
 7843SOL    HW223556   1.737   9.620   5.046
 7844SOL     OW23557   0.255  10.658   4.014
 7844SOL    HW123558   0.159  10.659   3.987
 7844SOL    HW223559   0.267  10.711   4.098
 7845SOL     OW23560   0.105  10.323   5.450
 7845SOL    HW123561   0.028  10.290   5.504
 7845SOL    HW223562   0.190  10.293   5.492
 7846SOL     OW23563   0.672   9.513   5.213
 7846SOL    HW123564   0.762   9.497   5.173
 7846SOL    HW223565   0.680   9.518   5.312
 7847SOL     OW23566   0.075   9.655   3.757
 7847SOL    HW123567  -0.017   9.627   3.728
 7847SOL    HW223568   0.106   9.732   3.701
 7848SOL     OW23569   1.440  10.166   5.122
 7848SOL    HW123570   1.383  10.218   5.059
 7848SOL    HW223571   1.536  10.178   5.098
 7849SOL     OW23572   0.072   9.476   4.042
 7849SOL    HW123573   0.055   9.559   3.988
 7849SOL    HW223574   0.162   9.439   4.020
 7850SOL     OW23575   1.183  10.645   3.843
 7850SOL    HW123576   1.084  10.634   3.845
 7850SOL    HW223577   1.217  10.660   3.936
 7851SOL     OW23578   0.613  10.152   5.155
 7851SOL    HW123579   0.669  10.233   5.138
 7851SOL    HW223580   0.672  10.072   5.158
 7852SOL     OW23581   1.493  11.077   4.683
 7852SOL    HW123582   1.526  11.141   4.614
 7852SOL    HW223583   1.559  11.071   4.758
 7853SOL     OW23584   0.716   9.875   5.432
 7853SOL    HW123585   0.735   9.940   5.506
 7853SOL    HW223586   0.776   9.795   5.441
 7854SOL     OW23587   1.450  10.530   5.357
 7854SOL    HW123588   1.441  10.520   5.456
 7854SOL    HW223589   1.546  10.523   5.331
 7855SOL     OW23590   0.390  11.051   5.284
 7855SOL    HW123591   0.299  11.092   5.282
 7855SOL    HW223592   0.383  10.957   5.316
 7856SOL     OW23593   1.674  10.193   4.978
 7856SOL    HW123594   1.647  10.104   4.941
 7856SOL    HW223595   1.675  10.261   4.905
 7857SOL     OW23596   1.225   9.635   4.173
 7857SOL    HW123597   1.290   9.561   4.162
 7857SOL    HW223598   1.245   9.685   4.257
 7858SOL     OW23599   0.594  10.055   4.376
 7858SOL    HW123600   0.644  10.140   4.357
 7858SOL    HW223601   0.506  10.057   4.328
 7859SOL     OW23602   1.777   9.652   5.366
 7859SOL    HW123603   1.760   9.683   5.272
 7859SOL    HW223604   1.693   9.615   5.404
 7860SOL     OW23605   1.730  10.244   5.241
 7860SOL    HW123606   1.768  10.335   5.256
 7860SOL    HW223607   1.722  10.227   5.142
 7861SOL     OW23608   0.859  10.684   3.740
 7861SOL    HW123609   0.813  10.699   3.828
 7861SOL    HW223610   0.903  10.769   3.710
 7862SOL     OW23611   0.661  11.100   4.677
 7862SOL    HW123612   0.615  11.188   4.664
 7862SOL    HW223613   0.760  11.112   4.670
 7863SOL     OW23614   0.859  10.266   4.585
 7863SOL    HW123615   0.913  10.197   4.633
 7863SOL    HW223616   0.827  10.335   4.651
 7864SOL     OW23617   1.083  10.294   3.811
 7864SOL    HW123618   1.060  10.347   3.729
 7864SOL    HW223619   1.164  10.238   3.792
 7865SOL     OW23620   1.861  10.879   4.575
 7865SOL    HW123621   1.790  10.867   4.505
 7865SOL    HW223622   1.862  10.800   4.635
 7866SOL     OW23623   0.221  10.624   5.568
 7866SOL    HW123624   0.156  10.551   5.547
 7866SOL    HW223625   0.225  10.638   5.666
 7867SOL     OW23626   0.079  10.550   4.377
 7867SOL    HW123627   0.078  10.503   4.465
 7867SOL    HW223628   0.161  10.522   4.326
 7868SOL     OW23629   0.672  10.701   5.348
 7868SOL    HW123630   0.594  10.651   5.386
 7868SOL    HW223631   0.669  10.796   5.379
 7869SOL     OW23632   1.824   9.502   4.951
 7869SOL    HW123633   1.820   9.412   4.995
 7869SOL    HW223634   1.827   9.491   4.852
 7870SOL     OW23635   0.428   9.734   4.244
 7870SOL    HW123636   0.458   9.662   4.182
 7870SOL    HW223637   0.389   9.694   4.327
 7871SOL     OW23638   1.705  10.797   4.828
 7871SOL    HW123639   1.612  10.772   4.801
 7871SOL    HW223640   1.731  10.747   4.910
 7872SOL     OW23641   0.317   9.857   5.004
 7872SOL    HW123642   0.355   9.798   5.076
 7872SOL    HW223643   0.357   9.831   4.916
 7873SOL     OW23644   0.812  10.896   4.411
 7873SOL    HW123645   0.844  10.906   4.317
 7873SOL    HW223646   0.733  10.834   4.413
 7874SOL     OW23647   1.424   9.524   4.836
 7874SOL    HW123648   1.476   9.459   4.891
 7874SOL    HW223649   1.375   9.587   4.897
 7875SOL     OW23650   1.001   9.344   4.878
 7875SOL    HW123651   0.938   9.272   4.847
 7875SOL    HW223652   1.094   9.308   4.878
 7876SOL     OW23653   0.770  10.640   4.025
 7876SOL    HW123654   0.724  10.553   4.042
 7876SOL    HW223655   0.861  10.637   4.066
 7877SOL     OW23656   0.618  10.877   5.008
 7877SOL    HW123657   0.613  10.959   5.065
 7877SOL    HW223658   0.707  10.874   4.963
 7878SOL     OW23659   1.352   9.362   3.892
 7878SOL    HW123660   1.387   9.321   3.808
 7878SOL    HW223661   1.262   9.324   3.912
 7879SOL     OW23662   1.300   9.763   4.415
 7879SOL    HW123663   1.241   9.843   4.419
 7879SOL    HW223664   1.315   9.728   4.508
 7880SOL     OW23665   1.593   9.531   4.606
 7880SOL    HW123666   1.509   9.530   4.660
 7880SOL    HW223667   1.595   9.614   4.550
 7881SOL     OW23668   0.039  10.387   4.024
 7881SOL    HW123669   0.138  10.376   4.015
 7881SOL    HW223670  -0.001  10.301   4.056
 7882SOL     OW23671   0.875  10.956   4.061
 7882SOL    HW123672   0.798  10.921   4.007
 7882SOL    HW223673   0.843  11.027   4.123
 7883SOL     OW23674   0.230   9.938   5.699
 7883SOL    HW123675   0.137   9.936   5.736
 7883SOL    HW223676   0.231   9.899   5.607
 7884SOL     OW23677   0.225   9.585   6.582
 7884SOL    HW123678   0.260   9.568   6.674
 7884SOL    HW223679   0.137   9.540   6.570
 7885SOL     OW23680   0.019   9.678   6.233
 7885SOL    HW123681  -0.063   9.721   6.272
 7885SOL    HW223682  -0.009   9.605   6.170
 7886SOL     OW23683   0.569  10.585   6.751
 7886SOL    HW123684   0.476  10.578   6.714
 7886SOL    HW223685   0.580  10.674   6.795
 7887SOL     OW23686   1.555  10.821   6.289
 7887SOL    HW123687   1.498  10.805   6.370
 7887SOL    HW223688   1.496  10.831   6.209
 7888SOL     OW23689   1.135  10.013   6.303
 7888SOL    HW123690   1.192  10.091   6.278
 7888SOL    HW223691   1.075  10.039   6.379
 7889SOL     OW23692   1.755   9.917   5.817
 7889SOL    HW123693   1.743   9.904   5.718
 7889SOL    HW223694   1.725   9.836   5.866
 7890SOL     OW23695   0.768  10.454   6.609
 7890SOL    HW123696   0.690  10.471   6.669
 7890SOL    HW223697   0.802  10.541   6.573
 7891SOL     OW23698   0.850  10.108   7.409
 7891SOL    HW123699   0.846  10.184   7.474
 7891SOL    HW223700   0.872  10.144   7.318
 7892SOL     OW23701   0.685  10.322   6.251
 7892SOL    HW123702   0.754  10.306   6.321
 7892SOL    HW223703   0.612  10.379   6.289
 7893SOL     OW23704   0.686  10.471   7.389
 7893SOL    HW123705   0.746  10.550   7.403
 7893SOL    HW223706   0.600  10.502   7.348
 7894SOL     OW23707   0.335  10.745   6.647
 7894SOL    HW123708   0.257  10.714   6.594
 7894SOL    HW223709   0.393  10.803   6.590
 7895SOL     OW23710   1.460  10.815   6.925
 7895SOL    HW123711   1.484  10.909   6.951
 7895SOL    HW223712   1.444  10.761   7.007
 7896SOL     OW23713   0.438   9.702   7.085
 7896SOL    HW123714   0.520   9.646   7.094
 7896SOL    HW223715   0.357   9.644   7.089
 7897SOL     OW23716   1.603   9.757   6.323
 7897SOL    HW123717   1.529   9.803   6.273
 7897SOL    HW223718   1.654   9.825   6.376
 7898SOL     OW23719   0.231  11.023   6.069
 7898SOL    HW123720   0.265  11.100   6.123
 7898SOL    HW223721   0.275  11.023   5.979
 7899SOL     OW23722   1.127  10.651   7.276
 7899SOL    HW123723   1.174  10.651   7.364
 7899SOL    HW223724   1.079  10.564   7.265
 7900SOL     OW23725   0.230  10.744   6.124
 7900SOL    HW123726   0.204  10.840   6.124
 7900SOL    HW223727   0.159  10.690   6.169
 7901SOL     OW23728   0.240  10.401   6.472
 7901SOL    HW123729   0.254  10.317   6.524
 7901SOL    HW223730   0.185  10.465   6.527
 7902SOL     OW23731   0.620  11.096   7.025
 7902SOL    HW123732   0.528  11.079   7.060
 7902SOL    HW223733   0.648  11.188   7.051
 7903SOL     OW23734   0.606  10.274   5.709
 7903SOL    HW123735   0.613  10.358   5.655
 7903SOL    HW223736   0.652  10.287   5.797
 7904SOL     OW23737   1.594   9.424   7.066
 7904SOL    HW123738   1.576   9.491   6.994
 7904SOL    HW223739   1.591   9.470   7.155
 7905SOL     OW23740   0.122   9.953   6.149
 7905SOL    HW123741   0.077   9.865   6.166
 7905SOL    HW223742   0.121  10.007   6.233
 7906SOL     OW23743   1.842  11.077   5.945
 7906SOL    HW123744   1.896  11.048   6.025
 7906SOL    HW223745   1.872  11.167   5.916
 7907SOL     OW23746   0.027  10.906   5.703
 7907SOL    HW123747   0.008  10.810   5.724
 7907SOL    HW223748  -0.006  10.964   5.778
 7908SOL     OW23749   1.689  10.232   6.198
 7908SOL    HW123750   1.784  10.203   6.206
 7908SOL    HW223751   1.681  10.297   6.123
 7909SOL     OW23752   1.641  10.418   6.018
 7909SOL    HW123753   1.727  10.420   5.966
 7909SOL    HW223754   1.655  10.465   6.106
 7910SOL     OW23755   0.113  10.047   7.183
 7910SOL    HW123756   0.201  10.034   7.228
 7910SOL    HW223757   0.100  10.144   7.161
 7911SOL     OW23758   0.613  10.675   6.312
 7911SOL    HW123759   0.564  10.588   6.321
 7911SOL    HW223760   0.590  10.718   6.225
 7912SOL     OW23761   1.293  10.538   7.009
 7912SOL    HW123762   1.330  10.465   6.951
 7912SOL    HW223763   1.345  10.543   7.094
 7913SOL     OW23764   0.809   9.314   6.088
 7913SOL    HW123765   0.849   9.405   6.079
 7913SOL    HW223766   0.709   9.322   6.094
 7914SOL     OW23767   0.197  10.286   6.850
 7914SOL    HW123768   0.286  10.241   6.836
 7914SOL    HW223769   0.124  10.221   6.831
 7915SOL     OW23770   1.525  10.309   5.776
 7915SOL    HW123771   1.462  10.233   5.789
 7915SOL    HW223772   1.573  10.327   5.862
 7916SOL     OW23773   1.187  11.102   7.202
 7916SOL    HW123774   1.211  11.162   7.126
 7916SOL    HW223775   1.194  11.007   7.172
 7917SOL     OW23776   0.317   9.561   7.387
 7917SOL    HW123777   0.388   9.632   7.393
 7917SOL    HW223778   0.229   9.600   7.415
 7918SOL     OW23779   1.466  10.727   6.539
 7918SOL    HW123780   1.407  10.733   6.619
 7918SOL    HW223781   1.451  10.639   6.493
 7919SOL     OW23782   1.667  11.024   6.158
 7919SOL    HW123783   1.626  11.001   6.070
 7919SOL    HW223784   1.649  10.950   6.223
 7920SOL     OW23785   0.598  10.039   5.856
 7920SOL    HW123786   0.622  10.108   5.788
 7920SOL    HW223787   0.520  10.072   5.910
 7921SOL     OW23788   1.281   9.655   6.530
 7921SOL    HW123789   1.195   9.605   6.517
 7921SOL    HW223790   1.343   9.601   6.586
 7922SOL     OW23791   1.576  10.972   5.893
 7922SOL    HW123792   1.665  11.018   5.896
 7922SOL    HW223793   1.555  10.948   5.798
 7923SOL     OW23794   0.807   9.915   7.051
 7923SOL    HW123795   0.760   9.912   7.140
 7923SOL    HW223796   0.756   9.860   6.985
 7924SOL     OW23797   1.394   9.779   7.260
 7924SOL    HW123798   1.374   9.822   7.348
 7924SOL    HW223799   1.472   9.717   7.269
 7925SOL     OW23800   0.973  10.200   7.158
 7925SOL    HW123801   1.019  10.116   7.129
 7925SOL    HW223802   0.917  10.234   7.083
 7926SOL     OW23803   0.991   9.720   6.828
 7926SOL    HW123804   0.914   9.754   6.882
 7926SOL    HW223805   0.957   9.669   6.749
 7927SOL     OW23806   1.041  10.011   6.015
 7927SOL    HW123807   1.067  10.007   6.111
 7927SOL    HW223808   0.956   9.960   6.001
 7928SOL     OW23809   0.076  10.121   6.375
 7928SOL    HW123810   0.175  10.109   6.384
 7928SOL    HW223811   0.052  10.216   6.396
 7929SOL     OW23812   0.130  11.131   7.157
 7929SOL    HW123813   0.120  11.116   7.256
 7929SOL    HW223814   0.044  11.167   7.121
 7930SOL     OW23815   0.865   9.658   5.781
 7930SOL    HW123816   0.924   9.721   5.732
 7930SOL    HW223817   0.884   9.564   5.752
 7931SOL     OW23818   1.719   9.895   7.417
 7931SOL    HW123819   1.693   9.984   7.381
 7931SOL    HW223820   1.717   9.827   7.344
 7932SOL     OW23821   1.362  10.454   6.131
 7932SOL    HW123822   1.445  10.425   6.083
 7932SOL    HW223823   1.313  10.521   6.075
 7933SOL     OW23824   0.550   9.506   6.471
 7933SOL    HW123825   0.545   9.501   6.571
 7933SOL    HW223826   0.552   9.602   6.442
 7934SOL     OW23827   1.008  10.766   6.063
 7934SOL    HW123828   0.962  10.838   6.011
 7934SOL    HW223829   1.004  10.786   6.161
 7935SOL     OW23830   0.351  11.111   6.439
 7935SOL    HW123831   0.401  11.025   6.445
 7935SOL    HW223832   0.416  11.188   6.436
 7936SOL     OW23833   1.795  10.376   6.459
 7936SOL    HW123834   1.733  10.361   6.383
 7936SOL    HW223835   1.743  10.387   6.544
 7937SOL     OW23836   1.227  10.860   7.092
 7937SOL    HW123837   1.233  10.783   7.156
 7937SOL    HW223838   1.175  10.834   7.012
 7938SOL     OW23839   0.321  10.253   5.828
 7938SOL    HW123840   0.403  10.292   5.786
 7938SOL    HW223841   0.294  10.171   5.779
 7939SOL     OW23842   1.458  10.045   6.314
 7939SOL    HW123843   1.453   9.980   6.389
 7939SOL    HW223844   1.538  10.104   6.327
 7940SOL     OW23845   0.461  10.576   7.313
 7940SOL    HW123846   0.411  10.577   7.227
 7940SOL    HW223847   0.398  10.558   7.389
 7941SOL     OW23848   1.111  11.086   5.823
 7941SOL    HW123849   1.051  11.024   5.873
 7941SOL    HW223850   1.142  11.042   5.738
 7942SOL     OW23851   0.202   9.595   7.084
 7942SOL    HW123852   0.122   9.655   7.071
 7942SOL    HW223853   0.192   9.546   7.170
 7943SOL     OW23854   1.632  10.687   5.667
 7943SOL    HW123855   1.600  10.781   5.657
 7943SOL    HW223856   1.556  10.624   5.655
 7944SOL     OW23857   0.464  11.053   5.909
 7944SOL    HW123858   0.497  11.092   5.995
 7944SOL    HW223859   0.540  11.046   5.844
 7945SOL     OW23860   1.400   9.417   6.012
 7945SOL    HW123861   1.376   9.380   5.922
 7945SOL    HW223862   1.499   9.433   6.016
 7946SOL     OW23863   0.249  11.095   6.827
 7946SOL    HW123864   0.306  11.030   6.877
 7946SOL    HW223865   0.233  11.062   6.734
 7947SOL     OW23866   0.940  11.008   6.490
 7947SOL    HW123867   1.020  10.951   6.511
 7947SOL    HW223868   0.891  10.968   6.413
 7948SOL     OW23869   0.382  10.010   6.066
 7948SOL    HW123870   0.427   9.920   6.063
 7948SOL    HW223871   0.288   9.999   6.099
 7949SOL     OW23872   1.547   9.532   7.315
 7949SOL    HW123873   1.542   9.569   7.407
 7949SOL    HW223874   1.475   9.463   7.303
 7950SOL     OW23875   0.614   9.432   5.703
 7950SOL    HW123876   0.712   9.410   5.710
 7950SOL    HW223877   0.583   9.415   5.610
 7951SOL     OW23878   0.781   9.574   7.335
 7951SOL    HW123879   0.848   9.513   7.378
 7951SOL    HW223880   0.708   9.593   7.400
 7952SOL     OW23881   0.888  10.824   6.781
 7952SOL    HW123882   0.865  10.799   6.687
 7952SOL    HW223883   0.949  10.755   6.820
 7953SOL     OW23884   1.351   9.900   7.019
 7953SOL    HW123885   1.379   9.857   7.104
 7953SOL    HW223886   1.376   9.996   7.020
 7954SOL     OW23887   0.803  10.712   6.510
 7954SOL    HW123888   0.893  10.726   6.468
 7954SOL    HW223889   0.732  10.714   6.439
 7955SOL     OW23890   0.922   9.813   6.485
 7955SOL    HW123891   0.897   9.804   6.389
 7955SOL    HW223892   0.970   9.731   6.516
 7956SOL     OW23893   0.539   9.374   6.098
 7956SOL    HW123894   0.458   9.375   6.156
 7956SOL    HW223895   0.542   9.457   6.043
 7957SOL     OW23896   1.434  10.498   5.627
 7957SOL    HW123897   1.466  10.422   5.684
 7957SOL    HW223898   1.342  10.525   5.657
 7958SOL     OW23899   0.297   9.345   5.757
 7958SOL    HW123900   0.346   9.429   5.736
 7958SOL    HW223901   0.359   9.280   5.802
 7959SOL     OW23902   0.935   9.546   6.066
 7959SOL    HW123903   0.887   9.587   5.988
 7959SOL    HW223904   1.034   9.544   6.047
 7960SOL     OW23905   1.076   9.993   7.050
 7960SOL    HW123906   0.996   9.932   7.053
 7960SOL    HW223907   1.157   9.940   7.026
 7961SOL     OW23908   1.227  10.880   6.379
 7961SOL    HW123909   1.248  10.954   6.314
 7961SOL    HW223910   1.295  10.880   6.452
 7962SOL     OW23911   0.459  10.462   6.327
 7962SOL    HW123912   0.388  10.435   6.392
 7962SOL    HW223913   0.433  10.434   6.234
 7963SOL     OW23914   1.271  11.107   6.177
 7963SOL    HW123915   1.315  11.171   6.113
 7963SOL    HW223916   1.221  11.159   6.247
 7964SOL     OW23917   1.032   9.859   5.602
 7964SOL    HW123918   0.991   9.941   5.563
 7964SOL    HW223919   1.096   9.885   5.675
 7965SOL     OW23920   0.078   9.866   6.972
 7965SOL    HW123921   0.170   9.865   6.931
 7965SOL    HW223922   0.072   9.940   7.039
 7966SOL     OW23923   0.561   9.532   6.733
 7966SOL    HW123924   0.599   9.448   6.770
 7966SOL    HW223925   0.473   9.551   6.777
 7967SOL     OW23926   0.866   9.764   6.228
 7967SOL    HW123927   0.834   9.836   6.166
 7967SOL    HW223928   0.890   9.683   6.175
 7968SOL     OW23929   1.017   9.349   6.339
 7968SOL    HW123930   0.945   9.354   6.270
 7968SOL    HW223931   0.993   9.280   6.408
 7969SOL     OW23932   1.429  10.483   6.453
 7969SOL    HW123933   1.374  10.399   6.446
 7969SOL    HW223934   1.455  10.512   6.361
 7970SOL     OW23935   1.466   9.900   6.578
 7970SOL    HW123936   1.436   9.805   6.585
 7970SOL    HW223937   1.539   9.916   6.644
 7971SOL     OW23938   1.857  10.143   5.963
 7971SOL    HW123939   1.899  10.079   6.027
 7971SOL    HW223940   1.819  10.092   5.885
 7972SOL     OW23941   0.488  10.695   5.760
 7972SOL    HW123942   0.401  10.680   5.807
 7972SOL    HW223943   0.471  10.721   5.665
 7973SOL     OW23944   1.664  10.590   6.243
 7973SOL    HW123945   1.763  10.598   6.257
 7973SOL    HW223946   1.619  10.674   6.274
 7974SOL     OW23947   1.390   9.885   5.664
 7974SOL    HW123948   1.336   9.864   5.745
 7974SOL    HW223949   1.481   9.844   5.673
 7975SOL     OW23950   0.527   9.566   5.914
 7975SOL    HW123951   0.554   9.507   5.839
 7975SOL    HW223952   0.527   9.661   5.883
 7976SOL     OW23953   1.754  10.533   7.174
 7976SOL    HW123954   1.845  10.494   7.161
 7976SOL    HW223955   1.762  10.629   7.198
 7977SOL     OW23956   1.064  10.657   6.926
 7977SOL    HW123957   0.984  10.634   6.981
 7977SOL    HW223958   1.147  10.631   6.975
 7978SOL     OW23959   1.592  10.939   7.211
 7978SOL    HW123960   1.619  10.973   7.121
 7978SOL    HW223961   1.671  10.901   7.257
 7979SOL     OW23962   1.111  10.505   6.686
 7979SOL    HW123963   1.071  10.549   6.767
 7979SOL    HW223964   1.070  10.542   6.603
 7980SOL     OW23965   1.638  10.409   6.665
 7980SOL    HW123966   1.643  10.490   6.724
 7980SOL    HW223967   1.552  10.411   6.614
 7981SOL     OW23968   0.915   9.399   6.988
 7981SOL    HW123969   0.940   9.379   6.893
 7981SOL    HW223970   0.987   9.455   7.030
 7982SOL     OW23971   0.980  10.426   7.305
 7982SOL    HW123972   0.881  10.432   7.315
 7982SOL    HW223973   1.003  10.346   7.249
 7983SOL     OW23974   0.705  10.360   5.954
 7983SOL    HW123975   0.691  10.367   6.053
 7983SOL    HW223976   0.789  10.309   5.936
 7984SOL     OW23977   0.410  10.123   6.837
 7984SOL    HW123978   0.496  10.135   6.887
 7984SOL    HW223979   0.368  10.036   6.864
 7985SOL     OW23980   1.274   9.696   6.848
 7985SOL    HW123981   1.295   9.770   6.912
 7985SOL    HW223982   1.185   9.713   6.805
 7986SOL     OW23983   0.064  10.874   6.917
 7986SOL    HW123984   0.018  10.956   6.883
 7986SOL    HW223985   0.162  10.893   6.926
 7987SOL     OW23986   0.367  10.410   6.087
 7987SOL    HW123987   0.360  10.493   6.031
 7987SOL    HW223988   0.371  10.330   6.027
 7988SOL     OW23989   0.566   9.847   6.451
 7988SOL    HW123990   0.578   9.913   6.377
 7988SOL    HW223991   0.612   9.881   6.534
 7989SOL     OW23992   1.252  10.658   5.974
 7989SOL    HW123993   1.302  10.735   6.014
 7989SOL    HW223994   1.157  10.660   6.006
 7990SOL     OW23995   1.272  10.755   6.728
 7990SOL    HW123996   1.319  10.768   6.815
 7990SOL    HW223997   1.206  10.681   6.737
 7991SOL     OW23998   1.582   9.949   6.058
 7991SOL    HW123999   1.551  10.010   6.131
 7991SOL    HW224000   1.632  10.001   5.989
 7992SOL     OW24001   0.354  10.820   6.915
 7992SOL    HW124002   0.333  10.776   6.828
 7992SOL    HW224003   0.451  10.846   6.918
 7993SOL     OW24004   0.402  10.061   7.184
 7993SOL    HW124005   0.470  10.116   7.137
 7993SOL    HW224006   0.442   9.973   7.211
 7994SOL     OW24007   1.587  10.089   7.256
 7994SOL    HW124008   1.495  10.127   7.251
 7994SOL    HW224009   1.647  10.136   7.191
 7995SOL     OW24010   1.013   9.415   7.356
 7995SOL    HW124011   1.019   9.500   7.304
 7995SOL    HW224012   1.045   9.339   7.299
 7996SOL     OW24013   0.504   9.360   7.326
 7996SOL    HW124014   0.462   9.303   7.256
 7996SOL    HW224015   0.438   9.429   7.358
 7997SOL     OW24016   0.573  10.180   6.615
 7997SOL    HW124017   0.617  10.269   6.606
 7997SOL    HW224018   0.510  10.180   6.692
 7998SOL     OW24019   1.360  10.172   6.631
 7998SOL    HW124020   1.285  10.172   6.565
 7998SOL    HW224021   1.397  10.080   6.640
 7999SOL     OW24022   1.209   9.835   5.861
 7999SOL    HW124023   1.222   9.751   5.915
 7999SOL    HW224024   1.180   9.909   5.921
 8000SOL     OW24025   0.307   9.523   6.817
 8000SOL    HW124026   0.284   9.560   6.907
 8000SOL    HW224027   0.277   9.428   6.811
 8001SOL     OW24028   0.037  10.620   6.868
 8001SOL    HW124029   0.090  10.571   6.936
 8001SOL    HW224030   0.059  10.718   6.873
 8002SOL     OW24031   0.732   9.944   6.650
 8002SOL    HW124032   0.791   9.918   6.574
 8002SOL    HW224033   0.704  10.040   6.639
 8003SOL     OW24034   1.728  10.245   7.440
 8003SOL    HW124035   1.682  10.238   7.351
 8003SOL    HW224036   1.666  10.289   7.506
 8004SOL     OW24037   0.307   9.373   6.204
 8004SOL    HW124038   0.296   9.467   6.237
 8004SOL    HW224039   0.302   9.310   6.281
 8005SOL     OW24040   1.622   9.677   5.960
 8005SOL    HW124041   1.624   9.601   6.024
 8005SOL    HW224042   1.574   9.754   6.000
 8006SOL     OW24043   1.023  10.076   6.552
 8006SOL    HW124044   1.038  10.097   6.648
 8006SOL    HW224045   0.993   9.981   6.543
 8007SOL     OW24046   0.980  10.883   7.286
 8007SOL    HW124047   0.960  10.927   7.198
 8007SOL    HW224048   1.019  10.792   7.270
 8008SOL     OW24049   1.859  10.828   7.191
 8008SOL    HW124050   1.873  10.855   7.096
 8008SOL    HW224051   1.942  10.850   7.244
 8009SOL     OW24052   0.350  10.208   7.390
 8009SOL    HW124053   0.426  10.252   7.438
 8009SOL    HW224054   0.385  10.161   7.308
 8010SOL     OW24055   1.540   9.584   5.711
 8010SOL    HW124056   1.479   9.509   5.734
 8010SOL    HW224057   1.562   9.636   5.794
 8011SOL     OW24058   1.303  10.148   5.628
 8011SOL    HW124059   1.337  10.055   5.643
 8011SOL    HW224060   1.321  10.175   5.533
 8012SOL     OW24061   1.068  10.643   6.435
 8012SOL    HW124062   1.075  10.559   6.380
 8012SOL    HW224063   1.130  10.712   6.399
 8013SOL     OW24064   0.319  10.120   6.535
 8013SOL    HW124065   0.412  10.156   6.540
 8013SOL    HW224066   0.313  10.035   6.587
 8014SOL     OW24067   0.339   9.819   6.592
 8014SOL    HW124068   0.287   9.736   6.575
 8014SOL    HW224069   0.416   9.824   6.528
 8015SOL     OW24070   1.138   9.690   7.264
 8015SOL    HW124071   1.093   9.753   7.328
 8015SOL    HW224072   1.231   9.721   7.247
 8016SOL     OW24073   1.160   9.517   7.063
 8016SOL    HW124074   1.160   9.581   7.140
 8016SOL    HW224075   1.188   9.565   6.980
 8017SOL     OW24076   0.008  10.636   5.786
 8017SOL    HW124077  -0.085  10.657   5.755
 8017SOL    HW224078   0.018  10.537   5.799
 8018SOL     OW24079   0.088  11.111   6.513
 8018SOL    HW124080   0.046  11.025   6.486
 8018SOL    HW224081   0.182  11.114   6.479
 8019SOL     OW24082   0.504  10.878   6.496
 8019SOL    HW124083   0.570  10.952   6.505
 8019SOL    HW224084   0.548  10.799   6.454
 8020SOL     OW24085   1.002  10.106   6.824
 8020SOL    HW124086   1.043  10.074   6.910
 8020SOL    HW224087   0.906  10.079   6.821
 8021SOL     OW24088   0.040   9.854   6.700
 8021SOL    HW124089   0.125   9.821   6.659
 8021SOL    HW224090   0.053   9.869   6.798
 8022SOL     OW24091   0.189   9.830   7.308
 8022SOL    HW124092   0.248   9.790   7.238
 8022SOL    HW224093   0.131   9.901   7.267
 8023SOL     OW24094   1.369  10.260   7.246
 8023SOL    HW124095   1.408  10.349   7.266
 8023SOL    HW224096   1.379  10.240   7.149
 8024SOL     OW24097   0.815   9.882   5.911
 8024SOL    HW124098   0.822   9.793   5.865
 8024SOL    HW224099   0.721   9.916   5.903
 8025SOL     OW24100   1.657   9.914   6.792
 8025SOL    HW124101   1.619   9.845   6.854
 8025SOL    HW224102   1.739   9.878   6.748
 8026SOL     OW24103   0.252  10.874   7.330
 8026SOL    HW124104   0.222  10.931   7.406
 8026SOL    HW224105   0.245  10.777   7.356
 8027SOL     OW24106   0.671   9.774   6.855
 8027SOL    HW124107   0.637   9.685   6.825
 8027SOL    HW224108   0.697   9.828   6.775
 8028SOL     OW24109   0.930  10.988   7.051
 8028SOL    HW124110   0.906  10.970   6.956
 8028SOL    HW224111   0.960  11.082   7.061
 8029SOL     OW24112   0.473   9.810   5.777
 8029SOL    HW124113   0.534   9.890   5.781
 8029SOL    HW224114   0.378   9.841   5.784
 8030SOL     OW24115   0.159  10.447   7.052
 8030SOL    HW124116   0.181  10.386   7.128
 8030SOL    HW224117   0.169  10.398   6.966
 8031SOL     OW24118   1.347  10.369   6.820
 8031SOL    HW124119   1.371  10.306   6.746
 8031SOL    HW224120   1.257  10.409   6.802
 8032SOL     OW24121   1.302  10.165   5.895
 8032SOL    HW124122   1.216  10.134   5.937
 8032SOL    HW224123   1.298  10.151   5.796
 8033SOL     OW24124   1.759  11.057   6.740
 8033SOL    HW124125   1.820  11.087   6.667
 8033SOL    HW224126   1.721  10.968   6.718
 8034SOL     OW24127   1.252  11.041   6.714
 8034SOL    HW124128   1.336  11.046   6.660
 8034SOL    HW224129   1.229  10.945   6.732
 8035SOL     OW24130   0.083  10.568   6.608
 8035SOL    HW124131   0.078  10.567   6.708
 8035SOL    HW224132   0.000  10.527   6.570
 8036SOL     OW24133   0.688  10.972   7.302
 8036SOL    HW124134   0.632  11.053   7.311
 8036SOL    HW224135   0.740  10.976   7.216
 8037SOL     OW24136   1.726   9.445   6.109
 8037SOL    HW124137   1.799   9.428   6.042
 8037SOL    HW224138   1.695   9.358   6.147
 8038SOL     OW24139   1.388  10.883   6.063
 8038SOL    HW124140   1.455  10.895   5.989
 8038SOL    HW224141   1.348  10.972   6.086
 8039SOL     OW24142   0.130  11.104   7.437
 8039SOL    HW124143   0.089  11.030   7.490
 8039SOL    HW224144   0.194  11.155   7.495
 8040SOL     OW24145   1.280  10.237   6.258
 8040SOL    HW124146   1.340  10.156   6.260
 8040SOL    HW224147   1.320  10.306   6.198
 8041SOL     OW24148   0.830  10.583   7.008
 8041SOL    HW124149   0.825  10.616   7.103
 8041SOL    HW224150   0.744  10.602   6.962
 8042SOL     OW24151   0.672  10.926   5.740
 8042SOL    HW124152   0.681  10.936   5.641
 8042SOL    HW224153   0.632  10.837   5.761
 8043SOL     OW24154   1.650  11.030   6.980
 8043SOL    HW124155   1.703  11.040   6.896
 8043SOL    HW224156   1.623  11.120   7.014
 8044SOL     OW24157   1.841   9.485   6.549
 8044SOL    HW124158   1.880   9.400   6.513
 8044SOL    HW224159   1.743   9.487   6.530
 8045SOL     OW24160   0.263   9.636   6.306
 8045SOL    HW124161   0.184   9.687   6.272
 8045SOL    HW224162   0.254   9.621   6.404
 8046SOL     OW24163   1.194  10.922   5.617
 8046SOL    HW124164   1.200  10.829   5.654
 8046SOL    HW224165   1.135  10.922   5.537
 8047SOL     OW24166   0.822  10.312   6.958
 8047SOL    HW124167   0.862  10.311   6.866
 8047SOL    HW224168   0.832  10.404   6.998
 8048SOL     OW24169   0.916  10.220   5.877
 8048SOL    HW124170   0.979  10.258   5.809
 8048SOL    HW224171   0.956  10.137   5.916
 8049SOL     OW24172   1.504  10.917   5.630
 8049SOL    HW124173   1.412  10.954   5.637
 8049SOL    HW224174   1.542  10.937   5.540
 8050SOL     OW24175   0.372  10.598   7.076
 8050SOL    HW124176   0.359  10.691   7.042
 8050SOL    HW224177   0.288  10.546   7.063
 8051SOL     OW24178   1.614  10.602   6.875
 8051SOL    HW124179   1.674  10.605   6.955
 8051SOL    HW224180   1.539  10.666   6.888
 8052SOL     OW24181   1.039  10.408   6.282
 8052SOL    HW124182   0.969  10.361   6.336
 8052SOL    HW224183   1.098  10.340   6.239
 8053SOL     OW24184   1.014   9.546   6.557
 8053SOL    HW124185   1.006   9.510   6.464
 8053SOL    HW224186   1.012   9.470   6.622
 8054SOL     OW24187   0.590  10.797   6.077
 8054SOL    HW124188   0.632  10.739   6.007
 8054SOL    HW224189   0.546  10.876   6.033
 8055SOL     OW24190   1.709   9.695   6.967
 8055SOL    HW124191   1.782   9.764   6.971
 8055SOL    HW224192   1.737   9.620   6.908
 8056SOL     OW24193   0.255  10.658   5.876
 8056SOL    HW124194   0.159  10.659   5.849
 8056SOL    HW224195   0.267  10.711   5.960
 8057SOL     OW24196   0.105  10.323   7.312
 8057SOL    HW124197   0.028  10.290   7.366
 8057SOL    HW224198   0.190  10.293   7.354
 8058SOL     OW24199   0.672   9.513   7.075
 8058SOL    HW124200   0.762   9.497   7.035
 8058SOL    HW224201   0.680   9.518   7.174
 8059SOL     OW24202   0.075   9.655   5.619
 8059SOL    HW124203  -0.017   9.627   5.590
 8059SOL    HW224204   0.106   9.732   5.563
 8060SOL     OW24205   1.440  10.166   6.984
 8060SOL    HW124206   1.383  10.218   6.921
 8060SOL    HW224207   1.536  10.178   6.960
 8061SOL     OW24208   0.072   9.476   5.904
 8061SOL    HW124209   0.055   9.559   5.850
 8061SOL    HW224210   0.162   9.439   5.882
 8062SOL     OW24211   1.183  10.645   5.705
 8062SOL    HW124212   1.084  10.634   5.707
 8062SOL    HW224213   1.217  10.660   5.798
 8063SOL     OW24214   0.613  10.152   7.017
 8063SOL    HW124215   0.669  10.233   7.000
 8063SOL    HW224216   0.672  10.072   7.020
 8064SOL     OW24217   1.493  11.077   6.545
 8064SOL    HW124218   1.526  11.141   6.476
 8064SOL    HW224219   1.559  11.071   6.620
 8065SOL     OW24220   0.716   9.875   7.294
 8065SOL    HW124221   0.735   9.940   7.368
 8065SOL    HW224222   0.776   9.795   7.303
 8066SOL     OW24223   1.450  10.530   7.219
 8066SOL    HW124224   1.441  10.520   7.318
 8066SOL    HW224225   1.546  10.523   7.193
 8067SOL     OW24226   0.390  11.051   7.146
 8067SOL    HW124227   0.299  11.092   7.144
 8067SOL    HW224228   0.383  10.957   7.178
 8068SOL     OW24229   1.674  10.193   6.840
 8068SOL    HW124230   1.647  10.104   6.803
 8068SOL    HW224231   1.675  10.261   6.767
 8069SOL     OW24232   1.225   9.635   6.035
 8069SOL    HW124233   1.290   9.561   6.024
 8069SOL    HW224234   1.245   9.685   6.119
 8070SOL     OW24235   0.594  10.055   6.238
 8070SOL    HW124236   0.644  10.140   6.219
 8070SOL    HW224237   0.506  10.057   6.190
 8071SOL     OW24238   1.777   9.652   7.228
 8071SOL    HW124239   1.760   9.683   7.134
 8071SOL    HW224240   1.693   9.615   7.266
 8072SOL     OW24241   1.730  10.244   7.103
 8072SOL    HW124242   1.768  10.335   7.118
 8072SOL    HW224243   1.722  10.227   7.004
 8073SOL     OW24244   0.859  10.684   5.602
 8073SOL    HW124245   0.813  10.699   5.690
 8073SOL    HW224246   0.903  10.769   5.572
 8074SOL     OW24247   0.661  11.100   6.539
 8074SOL    HW124248   0.615  11.188   6.526
 8074SOL    HW224249   0.760  11.112   6.532
 8075SOL     OW24250   0.859  10.266   6.447
 8075SOL    HW124251   0.913  10.197   6.495
 8075SOL    HW224252   0.827  10.335   6.513
 8076SOL     OW24253   1.083  10.294   5.673
 8076SOL    HW124254   1.060  10.347   5.591
 8076SOL    HW224255   1.164  10.238   5.654
 8077SOL     OW24256   1.861  10.879   6.437
 8077SOL    HW124257   1.790  10.867   6.367
 8077SOL    HW224258   1.862  10.800   6.497
 8078SOL     OW24259   0.221  10.624   7.430
 8078SOL    HW124260   0.156  10.551   7.409
 8078SOL    HW224261   0.225  10.638   7.528
 8079SOL     OW24262   0.079  10.550   6.239
 8079SOL    HW124263   0.078  10.503   6.327
 8079SOL    HW224264   0.161  10.522   6.188
 8080SOL     OW24265   0.672  10.701   7.210
 8080SOL    HW124266   0.594  10.651   7.248
 8080SOL    HW224267   0.669  10.796   7.241
 8081SOL     OW24268   1.824   9.502   6.813
 8081SOL    HW124269   1.820   9.412   6.857
 8081SOL    HW224270   1.827   9.491   6.714
 8082SOL     OW24271   0.428   9.734   6.106
 8082SOL    HW124272   0.458   9.662   6.044
 8082SOL    HW224273   0.389   9.694   6.189
 8083SOL     OW24274   1.705  10.797   6.690
 8083SOL    HW124275   1.612  10.772   6.663
 8083SOL    HW224276   1.731  10.747   6.772
 8084SOL     OW24277   0.317   9.857   6.866
 8084SOL    HW124278   0.355   9.798   6.938
 8084SOL    HW224279   0.357   9.831   6.778
 8085SOL     OW24280   0.812  10.896   6.273
 8085SOL    HW124281   0.844  10.906   6.179
 8085SOL    HW224282   0.733  10.834   6.275
 8086SOL     OW24283   1.424   9.524   6.698
 8086SOL    HW124284   1.476   9.459   6.753
 8086SOL    HW224285   1.375   9.587   6.759
 8087SOL     OW24286   1.001   9.344   6.740
 8087SOL    HW124287   0.938   9.272   6.709
 8087SOL    HW224288   1.094   9.308   6.740
 8088SOL     OW24289   0.770  10.640   5.887
 8088SOL    HW124290   0.724  10.553   5.904
 8088SOL    HW224291   0.861  10.637   5.928
 8089SOL     OW24292   0.618  10.877   6.870
 8089SOL    HW124293   0.613  10.959   6.927
 8089SOL    HW224294   0.707  10.874   6.825
 8090SOL     OW24295   1.352   9.362   5.754
 8090SOL    HW124296   1.387   9.321   5.670
 8090SOL    HW224297   1.262   9.324   5.774
 8091SOL     OW24298   1.300   9.763   6.277
 8091SOL    HW124299   1.241   9.843   6.281
 8091SOL    HW224300   1.315   9.728   6.370
 8092SOL     OW24301   1.593   9.531   6.468
 8092SOL    HW124302   1.509   9.530   6.522
 8092SOL    HW224303   1.595   9.614   6.412
 8093SOL     OW24304   0.039  10.387   5.886
 8093SOL    HW124305   0.138  10.376   5.877
 8093SOL    HW224306  -0.001  10.301   5.918
 8094SOL     OW24307   0.875  10.956   5.923
 8094SOL    HW124308   0.798  10.921   5.869
 8094SOL    HW224309   0.843  11.027   5.985
 8095SOL     OW24310   0.230   9.938   7.561
 8095SOL    HW124311   0.137   9.936   7.598
 8095SOL    HW224312   0.231   9.899   7.469
 8096SOL     OW24313   0.225   9.585   8.444
 8096SOL    HW124314   0.260   9.568   8.536
 8096SOL    HW224315   0.137   9.540   8.432
 8097SOL     OW24316   0.019   9.678   8.095
 8097SOL    HW124317  -0.063   9.721   8.134
 8097SOL    HW224318  -0.009   9.605   8.032
 8098SOL     OW24319   0.569  10.585   8.613
 8098SOL    HW124320   0.476  10.578   8.576
 8098SOL    HW224321   0.580  10.674   8.657
 8099SOL     OW24322   1.555  10.821   8.151
 8099SOL    HW124323   1.498  10.805   8.232
 8099SOL    HW224324   1.496  10.831   8.071
 8100SOL     OW24325   1.135  10.013   8.165
 8100SOL    HW124326   1.192  10.091   8.140
 8100SOL    HW224327   1.075  10.039   8.241
 8101SOL     OW24328   1.755   9.917   7.679
 8101SOL    HW124329   1.743   9.904   7.580
 8101SOL    HW224330   1.725   9.836   7.728
 8102SOL     OW24331   0.768  10.454   8.471
 8102SOL    HW124332   0.690  10.471   8.531
 8102SOL    HW224333   0.802  10.541   8.435
 8103SOL     OW24334   0.850  10.108   9.271
 8103SOL    HW124335   0.846  10.184   9.336
 8103SOL    HW224336   0.872  10.144   9.180
 8104SOL     OW24337   0.685  10.322   8.113
 8104SOL    HW124338   0.754  10.306   8.183
 8104SOL    HW224339   0.612  10.379   8.151
 8105SOL     OW24340   0.686  10.471   9.251
 8105SOL    HW124341   0.746  10.550   9.265
 8105SOL    HW224342   0.600  10.502   9.210
 8106SOL     OW24343   0.335  10.745   8.509
 8106SOL    HW124344   0.257  10.714   8.456
 8106SOL    HW224345   0.393  10.803   8.452
 8107SOL     OW24346   1.460  10.815   8.787
 8107SOL    HW124347   1.484  10.909   8.813
 8107SOL    HW224348   1.444  10.761   8.869
 8108SOL     OW24349   0.438   9.702   8.947
 8108SOL    HW124350   0.520   9.646   8.956
 8108SOL    HW224351   0.357   9.644   8.951
 8109SOL     OW24352   1.603   9.757   8.185
 8109SOL    HW124353   1.529   9.803   8.135
 8109SOL    HW224354   1.654   9.825   8.238
 8110SOL     OW24355   0.231  11.023   7.931
 8110SOL    HW124356   0.265  11.100   7.985
 8110SOL    HW224357   0.275  11.023   7.841
 8111SOL     OW24358   1.127  10.651   9.138
 8111SOL    HW124359   1.174  10.651   9.226
 8111SOL    HW224360   1.079  10.564   9.127
 8112SOL     OW24361   0.230  10.744   7.986
 8112SOL    HW124362   0.204  10.840   7.986
 8112SOL    HW224363   0.159  10.690   8.031
 8113SOL     OW24364   0.240  10.401   8.334
 8113SOL    HW124365   0.254  10.317   8.386
 8113SOL    HW224366   0.185  10.465   8.389
 8114SOL     OW24367   0.620  11.096   8.887
 8114SOL    HW124368   0.528  11.079   8.922
 8114SOL    HW224369   0.648  11.188   8.913
 8115SOL     OW24370   0.606  10.274   7.571
 8115SOL    HW124371   0.613  10.358   7.517
 8115SOL    HW224372   0.652  10.287   7.659
 8116SOL     OW24373   1.594   9.424   8.928
 8116SOL    HW124374   1.576   9.491   8.856
 8116SOL    HW224375   1.591   9.470   9.017
 8117SOL     OW24376   0.122   9.953   8.011
 8117SOL    HW124377   0.077   9.865   8.028
 8117SOL    HW224378   0.121  10.007   8.095
 8118SOL     OW24379   1.842  11.077   7.807
 8118SOL    HW124380   1.896  11.048   7.887
 8118SOL    HW224381   1.872  11.167   7.778
 8119SOL     OW24382   0.027  10.906   7.565
 8119SOL    HW124383   0.008  10.810   7.586
 8119SOL    HW224384  -0.006  10.964   7.640
 8120SOL     OW24385   1.689  10.232   8.060
 8120SOL    HW124386   1.784  10.203   8.068
 8120SOL    HW224387   1.681  10.297   7.985
 8121SOL     OW24388   1.641  10.418   7.880
 8121SOL    HW124389   1.727  10.420   7.828
 8121SOL    HW224390   1.655  10.465   7.968
 8122SOL     OW24391   0.113  10.047   9.045
 8122SOL    HW124392   0.201  10.034   9.090
 8122SOL    HW224393   0.100  10.144   9.023
 8123SOL     OW24394   0.613  10.675   8.174
 8123SOL    HW124395   0.564  10.588   8.183
 8123SOL    HW224396   0.590  10.718   8.087
 8124SOL     OW24397   1.293  10.538   8.871
 8124SOL    HW124398   1.330  10.465   8.813
 8124SOL    HW224399   1.345  10.543   8.956
 8125SOL     OW24400   0.809   9.314   7.950
 8125SOL    HW124401   0.849   9.405   7.941
 8125SOL    HW224402   0.709   9.322   7.956
 8126SOL     OW24403   0.197  10.286   8.712
 8126SOL    HW124404   0.286  10.241   8.698
 8126SOL    HW224405   0.124  10.221   8.693
 8127SOL     OW24406   1.525  10.309   7.638
 8127SOL    HW124407   1.462  10.233   7.651
 8127SOL    HW224408   1.573  10.327   7.724
 8128SOL     OW24409   1.187  11.102   9.064
 8128SOL    HW124410   1.211  11.162   8.988
 8128SOL    HW224411   1.194  11.007   9.034
 8129SOL     OW24412   0.317   9.561   9.249
 8129SOL    HW124413   0.388   9.632   9.255
 8129SOL    HW224414   0.229   9.600   9.277
 8130SOL     OW24415   1.466  10.727   8.401
 8130SOL    HW124416   1.407  10.733   8.481
 8130SOL    HW224417   1.451  10.639   8.355
 8131SOL     OW24418   1.667  11.024   8.020
 8131SOL    HW124419   1.626  11.001   7.932
 8131SOL    HW224420   1.649  10.950   8.085
 8132SOL     OW24421   0.598  10.039   7.718
 8132SOL    HW124422   0.622  10.108   7.650
 8132SOL    HW224423   0.520  10.072   7.772
 8133SOL     OW24424   1.281   9.655   8.392
 8133SOL    HW124425   1.195   9.605   8.379
 8133SOL    HW224426   1.343   9.601   8.448
 8134SOL     OW24427   1.576  10.972   7.755
 8134SOL    HW124428   1.665  11.018   7.758
 8134SOL    HW224429   1.555  10.948   7.660
 8135SOL     OW24430   0.807   9.915   8.913
 8135SOL    HW124431   0.760   9.912   9.002
 8135SOL    HW224432   0.756   9.860   8.847
 8136SOL     OW24433   1.394   9.779   9.122
 8136SOL    HW124434   1.374   9.822   9.210
 8136SOL    HW224435   1.472   9.717   9.131
 8137SOL     OW24436   0.973  10.200   9.020
 8137SOL    HW124437   1.019  10.116   8.991
 8137SOL    HW224438   0.917  10.234   8.945
 8138SOL     OW24439   0.991   9.720   8.690
 8138SOL    HW124440   0.914   9.754   8.744
 8138SOL    HW224441   0.957   9.669   8.611
 8139SOL     OW24442   1.041  10.011   7.877
 8139SOL    HW124443   1.067  10.007   7.973
 8139SOL    HW224444   0.956   9.960   7.863
 8140SOL     OW24445   0.076  10.121   8.237
 8140SOL    HW124446   0.175  10.109   8.246
 8140SOL    HW224447   0.052  10.216   8.258
 8141SOL     OW24448   0.130  11.131   9.019
 8141SOL    HW124449   0.120  11.116   9.118
 8141SOL    HW224450   0.044  11.167   8.983
 8142SOL     OW24451   0.865   9.658   7.643
 8142SOL    HW124452   0.924   9.721   7.594
 8142SOL    HW224453   0.884   9.564   7.614
 8143SOL     OW24454   1.719   9.895   9.279
 8143SOL    HW124455   1.693   9.984   9.243
 8143SOL    HW224456   1.717   9.827   9.206
 8144SOL     OW24457   1.362  10.454   7.993
 8144SOL    HW124458   1.445  10.425   7.945
 8144SOL    HW224459   1.313  10.521   7.937
 8145SOL     OW24460   0.550   9.506   8.333
 8145SOL    HW124461   0.545   9.501   8.433
 8145SOL    HW224462   0.552   9.602   8.304
 8146SOL     OW24463   1.008  10.766   7.925
 8146SOL    HW124464   0.962  10.838   7.873
 8146SOL    HW224465   1.004  10.786   8.023
 8147SOL     OW24466   0.351  11.111   8.301
 8147SOL    HW124467   0.401  11.025   8.307
 8147SOL    HW224468   0.416  11.188   8.298
 8148SOL     OW24469   1.795  10.376   8.321
 8148SOL    HW124470   1.733  10.361   8.245
 8148SOL    HW224471   1.743  10.387   8.406
 8149SOL     OW24472   1.227  10.860   8.954
 8149SOL    HW124473   1.233  10.783   9.018
 8149SOL    HW224474   1.175  10.834   8.874
 8150SOL     OW24475   0.321  10.253   7.690
 8150SOL    HW124476   0.403  10.292   7.648
 8150SOL    HW224477   0.294  10.171   7.641
 8151SOL     OW24478   1.458  10.045   8.176
 8151SOL    HW124479   1.453   9.980   8.251
 8151SOL    HW224480   1.538  10.104   8.189
 8152SOL     OW24481   0.461  10.576   9.175
 8152SOL    HW124482   0.411  10.577   9.089
 8152SOL    HW224483   0.398  10.558   9.251
 8153SOL     OW24484   1.111  11.086   7.685
 8153SOL    HW124485   1.051  11.024   7.735
 8153SOL    HW224486   1.142  11.042   7.600
 8154SOL     OW24487   0.202   9.595   8.946
 8154SOL    HW124488   0.122   9.655   8.933
 8154SOL    HW224489   0.192   9.546   9.032
 8155SOL     OW24490   1.632  10.687   7.529
 8155SOL    HW124491   1.600  10.781   7.519
 8155SOL    HW224492   1.556  10.624   7.517
 8156SOL     OW24493   0.464  11.053   7.771
 8156SOL    HW124494   0.497  11.092   7.857
 8156SOL    HW224495   0.540  11.046   7.706
 8157SOL     OW24496   1.400   9.417   7.874
 8157SOL    HW124497   1.376   9.380   7.784
 8157SOL    HW224498   1.499   9.433   7.878
 8158SOL     OW24499   0.249  11.095   8.689
 8158SOL    HW124500   0.306  11.030   8.739
 8158SOL    HW224501   0.233  11.062   8.596
 8159SOL     OW24502   0.940  11.008   8.352
 8159SOL    HW124503   1.020  10.951   8.373
 8159SOL    HW224504   0.891  10.968   8.275
 8160SOL     OW24505   0.382  10.010   7.928
 8160SOL    HW124506   0.427   9.920   7.925
 8160SOL    HW224507   0.288   9.999   7.961
 8161SOL     OW24508   1.547   9.532   9.177
 8161SOL    HW124509   1.542   9.569   9.269
 8161SOL    HW224510   1.475   9.463   9.165
 8162SOL     OW24511   0.614   9.432   7.565
 8162SOL    HW124512   0.712   9.410   7.572
 8162SOL    HW224513   0.583   9.415   7.472
 8163SOL     OW24514   0.781   9.574   9.197
 8163SOL    HW124515   0.848   9.513   9.240
 8163SOL    HW224516   0.708   9.593   9.262
 8164SOL     OW24517   0.888  10.824   8.643
 8164SOL    HW124518   0.865  10.799   8.549
 8164SOL    HW224519   0.949  10.755   8.682
 8165SOL     OW24520   1.351   9.900   8.881
 8165SOL    HW124521   1.379   9.857   8.966
 8165SOL    HW224522   1.376   9.996   8.882
 8166SOL     OW24523   0.803  10.712   8.372
 8166SOL    HW124524   0.893  10.726   8.330
 8166SOL    HW224525   0.732  10.714   8.301
 8167SOL     OW24526   0.922   9.813   8.347
 8167SOL    HW124527   0.897   9.804   8.251
 8167SOL    HW224528   0.970   9.731   8.378
 8168SOL     OW24529   0.539   9.374   7.960
 8168SOL    HW124530   0.458   9.375   8.018
 8168SOL    HW224531   0.542   9.457   7.905
 8169SOL     OW24532   1.434  10.498   7.489
 8169SOL    HW124533   1.466  10.422   7.546
 8169SOL    HW224534   1.342  10.525   7.519
 8170SOL     OW24535   0.297   9.345   7.619
 8170SOL    HW124536   0.346   9.429   7.598
 8170SOL    HW224537   0.359   9.280   7.664
 8171SOL     OW24538   0.935   9.546   7.928
 8171SOL    HW124539   0.887   9.587   7.850
 8171SOL    HW224540   1.034   9.544   7.909
 8172SOL     OW24541   1.076   9.993   8.912
 8172SOL    HW124542   0.996   9.932   8.915
 8172SOL    HW224543   1.157   9.940   8.888
 8173SOL     OW24544   1.227  10.880   8.241
 8173SOL    HW124545   1.248  10.954   8.176
 8173SOL    HW224546   1.295  10.880   8.314
 8174SOL     OW24547   0.459  10.462   8.189
 8174SOL    HW124548   0.388  10.435   8.254
 8174SOL    HW224549   0.433  10.434   8.096
 8175SOL     OW24550   1.271  11.107   8.039
 8175SOL    HW124551   1.315  11.171   7.975
 8175SOL    HW224552   1.221  11.159   8.109
 8176SOL     OW24553   1.032   9.859   7.464
 8176SOL    HW124554   0.991   9.941   7.425
 8176SOL    HW224555   1.096   9.885   7.537
 8177SOL     OW24556   0.078   9.866   8.834
 8177SOL    HW124557   0.170   9.865   8.793
 8177SOL    HW224558   0.072   9.940   8.901
 8178SOL     OW24559   0.561   9.532   8.595
 8178SOL    HW124560   0.599   9.448   8.632
 8178SOL    HW224561   0.473   9.551   8.639
 8179SOL     OW24562   0.866   9.764   8.090
 8179SOL    HW124563   0.834   9.836   8.028
 8179SOL    HW224564   0.890   9.683   8.037
 8180SOL     OW24565   1.017   9.349   8.201
 8180SOL    HW124566   0.945   9.354   8.132
 8180SOL    HW224567   0.993   9.280   8.270
 8181SOL     OW24568   1.429  10.483   8.315
 8181SOL    HW124569   1.374  10.399   8.308
 8181SOL    HW224570   1.455  10.512   8.223
 8182SOL     OW24571   1.466   9.900   8.440
 8182SOL    HW124572   1.436   9.805   8.447
 8182SOL    HW224573   1.539   9.916   8.506
 8183SOL     OW24574   1.857  10.143   7.825
 8183SOL    HW124575   1.899  10.079   7.889
 8183SOL    HW224576   1.819  10.092   7.747
 8184SOL     OW24577   0.488  10.695   7.622
 8184SOL    HW124578   0.401  10.680   7.669
 8184SOL    HW224579   0.471  10.721   7.527
 8185SOL     OW24580   1.664  10.590   8.105
 8185SOL    HW124581   1.763  10.598   8.119
 8185SOL    HW224582   1.619  10.674   8.136
 8186SOL     OW24583   1.390   9.885   7.526
 8186SOL    HW124584   1.336   9.864   7.607
 8186SOL    HW224585   1.481   9.844   7.535
 8187SOL     OW24586   0.527   9.566   7.776
 8187SOL    HW124587   0.554   9.507   7.701
 8187SOL    HW224588   0.527   9.661   7.745
 8188SOL     OW24589   1.754  10.533   9.036
 8188SOL    HW124590   1.845  10.494   9.023
 8188SOL    HW224591   1.762  10.629   9.060
 8189SOL     OW24592   1.064  10.657   8.788
 8189SOL    HW124593   0.984  10.634   8.843
 8189SOL    HW224594   1.147  10.631   8.837
 8190SOL     OW24595   1.592  10.939   9.073
 8190SOL    HW124596   1.619  10.973   8.983
 8190SOL    HW224597   1.671  10.901   9.119
 8191SOL     OW24598   1.111  10.505   8.548
 8191SOL    HW124599   1.071  10.549   8.629
 8191SOL    HW224600   1.070  10.542   8.465
 8192SOL     OW24601   1.638  10.409   8.527
 8192SOL    HW124602   1.643  10.490   8.586
 8192SOL    HW224603   1.552  10.411   8.476
 8193SOL     OW24604   0.915   9.399   8.850
 8193SOL    HW124605   0.940   9.379   8.755
 8193SOL    HW224606   0.987   9.455   8.892
 8194SOL     OW24607   0.980  10.426   9.167
 8194SOL    HW124608   0.881  10.432   9.177
 8194SOL    HW224609   1.003  10.346   9.111
 8195SOL     OW24610   0.705  10.360   7.816
 8195SOL    HW124611   0.691  10.367   7.915
 8195SOL    HW224612   0.789  10.309   7.798
 8196SOL     OW24613   0.410  10.123   8.699
 8196SOL    HW124614   0.496  10.135   8.749
 8196SOL    HW224615   0.368  10.036   8.726
 8197SOL     OW24616   1.274   9.696   8.710
 8197SOL    HW124617   1.295   9.770   8.774
 8197SOL    HW224618   1.185   9.713   8.667
 8198SOL     OW24619   0.064  10.874   8.779
 8198SOL    HW124620   0.018  10.956   8.745
 8198SOL    HW224621   0.162  10.893   8.788
 8199SOL     OW24622   0.367  10.410   7.949
 8199SOL    HW124623   0.360  10.493   7.893
 8199SOL    HW224624   0.371  10.330   7.889
 8200SOL     OW24625   0.566   9.847   8.313
 8200SOL    HW124626   0.578   9.913   8.239
 8200SOL    HW224627   0.612   9.881   8.396
 8201SOL     OW24628   1.252  10.658   7.836
 8201SOL    HW124629   1.302  10.735   7.876
 8201SOL    HW224630   1.157  10.660   7.868
 8202SOL     OW24631   1.272  10.755   8.590
 8202SOL    HW124632   1.319  10.768   8.677
 8202SOL    HW224633   1.206  10.681   8.599
 8203SOL     OW24634   1.582   9.949   7.920
 8203SOL    HW124635   1.551  10.010   7.993
 8203SOL    HW224636   1.632  10.001   7.851
 8204SOL     OW24637   0.354  10.820   8.777
 8204SOL    HW124638   0.333  10.776   8.690
 8204SOL    HW224639   0.451  10.846   8.780
 8205SOL     OW24640   0.402  10.061   9.046
 8205SOL    HW124641   0.470  10.116   8.999
 8205SOL    HW224642   0.442   9.973   9.073
 8206SOL     OW24643   1.587  10.089   9.118
 8206SOL    HW124644   1.495  10.127   9.113
 8206SOL    HW224645   1.647  10.136   9.053
 8207SOL     OW24646   1.013   9.415   9.218
 8207SOL    HW124647   1.019   9.500   9.166
 8207SOL    HW224648   1.045   9.339   9.161
 8208SOL     OW24649   0.504   9.360   9.188
 8208SOL    HW124650   0.462   9.303   9.118
 8208SOL    HW224651   0.438   9.429   9.220
 8209SOL     OW24652   0.573  10.180   8.477
 8209SOL    HW124653   0.617  10.269   8.468
 8209SOL    HW224654   0.510  10.180   8.554
 8210SOL     OW24655   1.360  10.172   8.493
 8210SOL    HW124656   1.285  10.172   8.427
 8210SOL    HW224657   1.397  10.080   8.502
 8211SOL     OW24658   1.209   9.835   7.723
 8211SOL    HW124659   1.222   9.751   7.777
 8211SOL    HW224660   1.180   9.909   7.783
 8212SOL     OW24661   0.307   9.523   8.679
 8212SOL    HW124662   0.284   9.560   8.769
 8212SOL    HW224663   0.277   9.428   8.673
 8213SOL     OW24664   0.037  10.620   8.730
 8213SOL    HW124665   0.090  10.571   8.798
 8213SOL    HW224666   0.059  10.718   8.735
 8214SOL     OW24667   0.732   9.944   8.512
 8214SOL    HW124668   0.791   9.918   8.436
 8214SOL    HW224669   0.704  10.040   8.501
 8215SOL     OW24670   1.728  10.245   9.302
 8215SOL    HW124671   1.682  10.238   9.213
 8215SOL    HW224672   1.666  10.289   9.368
 8216SOL     OW24673   0.307   9.373   8.066
 8216SOL    HW124674   0.296   9.467   8.099
 8216SOL    HW224675   0.302   9.310   8.143
 8217SOL     OW24676   1.622   9.677   7.822
 8217SOL    HW124677   1.624   9.601   7.886
 8217SOL    HW224678   1.574   9.754   7.862
 8218SOL     OW24679   1.023  10.076   8.414
 8218SOL    HW124680   1.038  10.097   8.510
 8218SOL    HW224681   0.993   9.981   8.405
 8219SOL     OW24682   0.980  10.883   9.148
 8219SOL    HW124683   0.960  10.927   9.060
 8219SOL    HW224684   1.019  10.792   9.132
 8220SOL     OW24685   1.859  10.828   9.053
 8220SOL    HW124686   1.873  10.855   8.958
 8220SOL    HW224687   1.942  10.850   9.106
 8221SOL     OW24688   0.350  10.208   9.252
 8221SOL    HW124689   0.426  10.252   9.300
 8221SOL    HW224690   0.385  10.161   9.170
 8222SOL     OW24691   1.540   9.584   7.573
 8222SOL    HW124692   1.479   9.509   7.596
 8222SOL    HW224693   1.562   9.636   7.656
 8223SOL     OW24694   1.303  10.148   7.490
 8223SOL    HW124695   1.337  10.055   7.505
 8223SOL    HW224696   1.321  10.175   7.395
 8224SOL     OW24697   1.068  10.643   8.297
 8224SOL    HW124698   1.075  10.559   8.242
 8224SOL    HW224699   1.130  10.712   8.261
 8225SOL     OW24700   0.319  10.120   8.397
 8225SOL    HW124701   0.412  10.156   8.402
 8225SOL    HW224702   0.313  10.035   8.449
 8226SOL     OW24703   0.339   9.819   8.454
 8226SOL    HW124704   0.287   9.736   8.437
 8226SOL    HW224705   0.416   9.824   8.390
 8227SOL     OW24706   1.138   9.690   9.126
 8227SOL    HW124707   1.093   9.753   9.190
 8227SOL    HW224708   1.231   9.721   9.109
 8228SOL     OW24709   1.160   9.517   8.925
 8228SOL    HW124710   1.160   9.581   9.002
 8228SOL    HW224711   1.188   9.565   8.842
 8229SOL     OW24712   0.008  10.636   7.648
 8229SOL    HW124713  -0.085  10.657   7.617
 8229SOL    HW224714   0.018  10.537   7.661
 8230SOL     OW24715   0.088  11.111   8.375
 8230SOL    HW124716   0.046  11.025   8.348
 8230SOL    HW224717   0.182  11.114   8.341
 8231SOL     OW24718   0.504  10.878   8.358
 8231SOL    HW124719   0.570  10.952   8.367
 8231SOL    HW224720   0.548  10.799   8.316
 8232SOL     OW24721   1.002  10.106   8.686
 8232SOL    HW124722   1.043  10.074   8.772
 8232SOL    HW224723   0.906  10.079   8.683
 8233SOL     OW24724   0.040   9.854   8.562
 8233SOL    HW124725   0.125   9.821   8.521
 8233SOL    HW224726   0.053   9.869   8.660
 8234SOL     OW24727   0.189   9.830   9.170
 8234SOL    HW124728   0.248   9.790   9.100
 8234SOL    HW224729   0.131   9.901   9.129
 8235SOL     OW24730   1.369  10.260   9.108
 8235SOL    HW124731   1.408  10.349   9.128
 8235SOL    HW224732   1.379  10.240   9.011
 8236SOL     OW24733   0.815   9.882   7.773
 8236SOL    HW124734   0.822   9.793   7.727
 8236SOL    HW224735   0.721   9.916   7.765
 8237SOL     OW24736   1.657   9.914   8.654
 8237SOL    HW124737   1.619   9.845   8.716
 8237SOL    HW224738   1.739   9.878   8.610
 8238SOL     OW24739   0.252  10.874   9.192
 8238SOL    HW124740   0.222  10.931   9.268
 8238SOL    HW224741   0.245  10.777   9.218
 8239SOL     OW24742   0.671   9.774   8.717
 8239SOL    HW124743   0.637   9.685   8.687
 8239SOL    HW224744   0.697   9.828   8.637
 8240SOL     OW24745   0.930  10.988   8.913
 8240SOL    HW124746   0.906  10.970   8.818
 8240SOL    HW224747   0.960  11.082   8.923
 8241SOL     OW24748   0.473   9.810   7.639
 8241SOL    HW124749   0.534   9.890   7.643
 8241SOL    HW224750   0.378   9.841   7.646
 8242SOL     OW24751   0.159  10.447   8.914
 8242SOL    HW124752   0.181  10.386   8.990
 8242SOL    HW224753   0.169  10.398   8.828
 8243SOL     OW24754   1.347  10.369   8.682
 8243SOL    HW124755   1.371  10.306   8.608
 8243SOL    HW224756   1.257  10.409   8.664
 8244SOL     OW24757   1.302  10.165   7.757
 8244SOL    HW124758   1.216  10.134   7.799
 8244SOL    HW224759   1.298  10.151   7.658
 8245SOL     OW24760   1.759  11.057   8.602
 8245SOL    HW124761   1.820  11.087   8.529
 8245SOL    HW224762   1.721  10.968   8.580
 8246SOL     OW24763   1.252  11.041   8.576
 8246SOL    HW124764   1.336  11.046   8.522
 8246SOL    HW224765   1.229  10.945   8.594
 8247SOL     OW24766   0.083  10.568   8.470
 8247SOL    HW124767   0.078  10.567   8.570
 8247SOL    HW224768   0.000  10.527   8.432
 8248SOL     OW24769   0.688  10.972   9.164
 8248SOL    HW124770   0.632  11.053   9.173
 8248SOL    HW224771   0.740  10.976   9.078
 8249SOL     OW24772   1.726   9.445   7.971
 8249SOL    HW124773   1.799   9.428   7.904
 8249SOL    HW224774   1.695   9.358   8.009
 8250SOL     OW24775   1.388  10.883   7.925
 8250SOL    HW124776   1.455  10.895   7.851
 8250SOL    HW224777   1.348  10.972   7.948
 8251SOL     OW24778   0.130  11.104   9.299
 8251SOL    HW124779   0.089  11.030   9.352
 8251SOL    HW224780   0.194  11.155   9.357
 8252SOL     OW24781   1.280  10.237   8.120
 8252SOL    HW124782   1.340  10.156   8.122
 8252SOL    HW224783   1.320  10.306   8.060
 8253SOL     OW24784   0.830  10.583   8.870
 8253SOL    HW124785   0.825  10.616   8.965
 8253SOL    HW224786   0.744  10.602   8.824
 8254SOL     OW24787   0.672  10.926   7.602
 8254SOL    HW124788   0.681  10.936   7.503
 8254SOL    HW224789   0.632  10.837   7.623
 8255SOL     OW24790   1.650  11.030   8.842
 8255SOL    HW124791   1.703  11.040   8.758
 8255SOL    HW224792   1.623  11.120   8.876
 8256SOL     OW24793   1.841   9.485   8.411
 8256SOL    HW124794   1.880   9.400   8.375
 8256SOL    HW224795   1.743   9.487   8.392
 8257SOL     OW24796   0.263   9.636   8.168
 8257SOL    HW124797   0.184   9.687   8.134
 8257SOL    HW224798   0.254   9.621   8.266
 8258SOL     OW24799   1.194  10.922   7.479
 8258SOL    HW124800   1.200  10.829   7.516
 8258SOL    HW224801   1.135  10.922   7.399
 8259SOL     OW24802   0.822  10.312   8.820
 8259SOL    HW124803   0.862  10.311   8.728
 8259SOL    HW224804   0.832  10.404   8.860
 8260SOL     OW24805   0.916  10.220   7.739
 8260SOL    HW124806   0.979  10.258   7.671
 8260SOL    HW224807   0.956  10.137   7.778
 8261SOL     OW24808   1.504  10.917   7.492
 8261SOL    HW124809   1.412  10.954   7.499
 8261SOL    HW224810   1.542  10.937   7.402
 8262SOL     OW24811   0.372  10.598   8.938
 8262SOL    HW124812   0.359  10.691   8.904
 8262SOL    HW224813   0.288  10.546   8.925
 8263SOL     OW24814   1.614  10.602   8.737
 8263SOL    HW124815   1.674  10.605   8.817
 8263SOL    HW224816   1.539  10.666   8.750
 8264SOL     OW24817   1.039  10.408   8.144
 8264SOL    HW124818   0.969  10.361   8.198
 8264SOL    HW224819   1.098  10.340   8.101
 8265SOL     OW24820   1.014   9.546   8.419
 8265SOL    HW124821   1.006   9.510   8.326
 8265SOL    HW224822   1.012   9.470   8.484
 8266SOL     OW24823   0.590  10.797   7.939
 8266SOL    HW124824   0.632  10.739   7.869
 8266SOL    HW224825   0.546  10.876   7.895
 8267SOL     OW24826   1.709   9.695   8.829
 8267SOL    HW124827   1.782   9.764   8.833
 8267SOL    HW224828   1.737   9.620   8.770
 8268SOL     OW24829   0.255  10.658   7.738
 8268SOL    HW124830   0.159  10.659   7.711
 8268SOL    HW224831   0.267  10.711   7.822
 8269SOL     OW24832   0.105  10.323   9.174
 8269SOL    HW124833   0.028  10.290   9.228
 8269SOL    HW224834   0.190  10.293   9.216
 8270SOL     OW24835   0.672   9.513   8.937
 8270SOL    HW124836   0.762   9.497   8.897
 8270SOL    HW224837   0.680   9.518   9.036
 8271SOL     OW24838   0.075   9.655   7.481
 8271SOL    HW124839  -0.017   9.627   7.452
 8271SOL    HW224840   0.106   9.732   7.425
 8272SOL     OW24841   1.440  10.166   8.846
 8272SOL    HW124842   1.383  10.218   8.783
 8272SOL    HW224843   1.536  10.178   8.822
 8273SOL     OW24844   0.072   9.476   7.766
 8273SOL    HW124845   0.055   9.559   7.712
 8273SOL    HW224846   0.162   9.439   7.744
 8274SOL     OW24847   1.183  10.645   7.567
 8274SOL    HW124848   1.084  10.634   7.569
 8274SOL    HW224849   1.217  10.660   7.660
 8275SOL     OW24850   0.613  10.152   8.879
 8275SOL    HW124851   0.669  10.233   8.862
 8275SOL    HW224852   0.672  10.072   8.882
 8276SOL     OW24853   1.493  11.077   8.407
 8276SOL    HW124854   1.526  11.141   8.338
 8276SOL    HW224855   1.559  11.071   8.482
 8277SOL     OW24856   0.716   9.875   9.156
 8277SOL    HW124857   0.735   9.940   9.230
 8277SOL    HW224858   0.776   9.795   9.165
 8278SOL     OW24859   1.450  10.530   9.081
 8278SOL    HW124860   1.441  10.520   9.180
 8278SOL    HW224861   1.546  10.523   9.055
 8279SOL     OW24862   0.390  11.051   9.008
 8279SOL    HW124863   0.299  11.092   9.006
 8279SOL    HW224864   0.383  10.957   9.040
 8280SOL     OW24865   1.674  10.193   8.702
 8280SOL    HW124866   1.647  10.104   8.665
 8280SOL    HW224867   1.675  10.261   8.629
 8281SOL     OW24868   1.225   9.635   7.897
 8281SOL    HW124869   1.290   9.561   7.886
 8281SOL    HW224870   1.245   9.685   7.981
 8282SOL     OW24871   0.594  10.055   8.100
 8282SOL    HW124872   0.644  10.140   8.081
 8282SOL    HW224873   0.506  10.057   8.052
 8283SOL     OW24874   1.777   9.652   9.090
 8283SOL    HW124875   1.760   9.683   8.996
 8283SOL    HW224876   1.693   9.615   9.128
 8284SOL     OW24877   1.730  10.244   8.965
 8284SOL    HW124878   1.768  10.335   8.980
 8284SOL    HW224879   1.722  10.227   8.866
 8285SOL     OW24880   0.859  10.684   7.464
 8285SOL    HW124881   0.813  10.699   7.552
 8285SOL    HW224882   0.903  10.769   7.434
 8286SOL     OW24883   0.661  11.100   8.401
 8286SOL    HW124884   0.615  11.188   8.388
 8286SOL    HW224885   0.760  11.112   8.394
 8287SOL     OW24886   0.859  10.266   8.309
 8287SOL    HW124887   0.913  10.197   8.357
 8287SOL    HW224888   0.827  10.335   8.375
 8288SOL     OW24889   1.083  10.294   7.535
 8288SOL    HW124890   1.060  10.347   7.453
 8288SOL    HW224891   1.164  10.238   7.516
 8289SOL     OW24892   1.861  10.879   8.299
 8289SOL    HW124893   1.790  10.867   8.229
 8289SOL    HW224894   1.862  10.800   8.359
 8290SOL     OW24895   0.221  10.624   9.292
 8290SOL    HW124896   0.156  10.551   9.271
 8290SOL    HW224897   0.225  10.638   9.390
 8291SOL     OW24898   0.079  10.550   8.101
 8291SOL    HW124899   0.078  10.503   8.189
 8291SOL    HW224900   0.161  10.522   8.050
 8292SOL     OW24901   0.672  10.701   9.072
 8292SOL    HW124902   0.594  10.651   9.110
 8292SOL    HW224903   0.669  10.796   9.103
 8293SOL     OW24904   1.824   9.502   8.675
 8293SOL    HW124905   1.820   9.412   8.719
 8293SOL    HW224906   1.827   9.491   8.576
 8294SOL     OW24907   0.428   9.734   7.968
 8294SOL    HW124908   0.458   9.662   7.906
 8294SOL    HW224909   0.389   9.694   8.051
 8295SOL     OW24910   1.705  10.797   8.552
 8295SOL    HW124911   1.612  10.772   8.525
 8295SOL    HW224912   1.731  10.747   8.634
 8296SOL     OW24913   0.317   9.857   8.728
 8296SOL    HW124914   0.355   9.798   8.800
 8296SOL    HW224915   0.357   9.831   8.640
 8297SOL     OW24916   0.812  10.896   8.135
 8297SOL    HW124917   0.844  10.906   8.041
 8297SOL    HW224918   0.733  10.834   8.137
 8298SOL     OW24919   1.424   9.524   8.560
 8298SOL    HW124920   1.476   9.459   8.615
 8298SOL    HW224921   1.375   9.587   8.621
 8299SOL     OW24922   1.001   9.344   8.602
 8299SOL    HW124923   0.938   9.272   8.571
 8299SOL    HW224924   1.094   9.308   8.602
 8300SOL     OW24925   0.770  10.640   7.749
 8300SOL    HW124926   0.724  10.553   7.766
 8300SOL    HW224927   0.861  10.637   7.790
 8301SOL     OW24928   0.618  10.877   8.732
 8301SOL    HW124929   0.613  10.959   8.789
 8301SOL    HW224930   0.707  10.874   8.687
 8302SOL     OW24931   1.352   9.362   7.616
 8302SOL    HW124932   1.387   9.321   7.532
 8302SOL    HW224933   1.262   9.324   7.636
 8303SOL     OW24934   1.300   9.763   8.139
 8303SOL    HW124935   1.241   9.843   8.143
 8303SOL    HW224936   1.315   9.728   8.232
 8304SOL     OW24937   1.593   9.531   8.330
 8304SOL    HW124938   1.509   9.530   8.384
 8304SOL    HW224939   1.595   9.614   8.274
 8305SOL     OW24940   0.039  10.387   7.748
 8305SOL    HW124941   0.138  10.376   7.739
 8305SOL    HW224942  -0.001  10.301   7.780
 8306SOL     OW24943   0.875  10.956   7.785
 8306SOL    HW124944   0.798  10.921   7.731
 8306SOL    HW224945   0.843  11.027   7.847
 8307SOL     OW24946   0.230   9.938   9.423
 8307SOL    HW124947   0.137   9.936   9.460
 8307SOL    HW224948   0.231   9.899   9.331
 8308SOL     OW24949   0.225   9.585  10.306
 8308SOL    HW124950   0.260   9.568  10.398
 8308SOL    HW224951   0.137   9.540  10.294
 8309SOL     OW24952   0.019   9.678   9.957
 8309SOL    HW124953  -0.063   9.721   9.996
 8309SOL    HW224954  -0.009   9.605   9.894
 8310SOL     OW24955   0.569  10.585  10.475
 8310SOL    HW124956   0.476  10.578  10.438
 8310SOL    HW224957   0.580  10.674  10.519
 8311SOL     OW24958   1.555  10.821  10.013
 8311SOL    HW124959   1.498  10.805  10.094
 8311SOL    HW224960   1.496  10.831   9.933
 8312SOL     OW24961   1.135  10.013  10.027
 8312SOL    HW124962   1.192  10.091  10.002
 8312SOL    HW224963   1.075  10.039  10.103
 8313SOL     OW24964   1.755   9.917   9.541
 8313SOL    HW124965   1.743   9.904   9.442
 8313SOL    HW224966   1.725   9.836   9.590
 8314SOL     OW24967   0.768  10.454  10.333
 8314SOL    HW124968   0.690  10.471  10.393
 8314SOL    HW224969   0.802  10.541  10.297
 8315SOL     OW24970   0.850  10.108  11.133
 8315SOL    HW124971   0.846  10.184  11.198
 8315SOL    HW224972   0.872  10.144  11.042
 8316SOL     OW24973   0.685  10.322   9.975
 8316SOL    HW124974   0.754  10.306  10.045
 8316SOL    HW224975   0.612  10.379  10.013
 8317SOL     OW24976   0.686  10.471  11.113
 8317SOL    HW124977   0.746  10.550  11.127
 8317SOL    HW224978   0.600  10.502  11.072
 8318SOL     OW24979   0.335  10.745  10.371
 8318SOL    HW124980   0.257  10.714  10.318
 8318SOL    HW224981   0.393  10.803  10.314
 8319SOL     OW24982   1.460  10.815  10.649
 8319SOL    HW124983   1.484  10.909  10.675
 8319SOL    HW224984   1.444  10.761  10.731
 8320SOL     OW24985   0.438   9.702  10.809
 8320SOL    HW124986   0.520   9.646  10.818
 8320SOL    HW224987   0.357   9.644  10.813
 8321SOL     OW24988   1.603   9.757  10.047
 8321SOL    HW124989   1.529   9.803   9.997
 8321SOL    HW224990   1.654   9.825  10.100
 8322SOL     OW24991   0.231  11.023   9.793
 8322SOL    HW124992   0.265  11.100   9.847
 8322SOL    HW224993   0.275  11.023   9.703
 8323SOL     OW24994   1.127  10.651  11.000
 8323SOL    HW124995   1.174  10.651  11.088
 8323SOL    HW224996   1.079  10.564  10.989
 8324SOL     OW24997   0.230  10.744   9.848
 8324SOL    HW124998   0.204  10.840   9.848
 8324SOL    HW224999   0.159  10.690   9.893
 8325SOL     OW25000   0.240  10.401  10.196
 8325SOL    HW125001   0.254  10.317  10.248
 8325SOL    HW225002   0.185  10.465  10.251
 8326SOL     OW25003   0.620  11.096  10.749
 8326SOL    HW125004   0.528  11.079  10.784
 8326SOL    HW225005   0.648  11.188  10.775
 8327SOL     OW25006   0.606  10.274   9.433
 8327SOL    HW125007   0.613  10.358   9.379
 8327SOL    HW225008   0.652  10.287   9.521
 8328SOL     OW25009   1.594   9.424  10.790
 8328SOL    HW125010   1.576   9.491  10.718
 8328SOL    HW225011   1.591   9.470  10.879
 8329SOL     OW25012   0.122   9.953   9.873
 8329SOL    HW125013   0.077   9.865   9.890
 8329SOL    HW225014   0.121  10.007   9.957
 8330SOL     OW25015   1.842  11.077   9.669
 8330SOL    HW125016   1.896  11.048   9.749
 8330SOL    HW225017   1.872  11.167   9.640
 8331SOL     OW25018   0.027  10.906   9.427
 8331SOL    HW125019   0.008  10.810   9.448
 8331SOL    HW225020  -0.006  10.964   9.502
 8332SOL     OW25021   1.689  10.232   9.922
 8332SOL    HW125022   1.784  10.203   9.930
 8332SOL    HW225023   1.681  10.297   9.847
 8333SOL     OW25024   1.641  10.418   9.742
 8333SOL    HW125025   1.727  10.420   9.690
 8333SOL    HW225026   1.655  10.465   9.830
 8334SOL     OW25027   0.113  10.047  10.907
 8334SOL    HW125028   0.201  10.034  10.952
 8334SOL    HW225029   0.100  10.144  10.885
 8335SOL     OW25030   0.613  10.675  10.036
 8335SOL    HW125031   0.564  10.588  10.045
 8335SOL    HW225032   0.590  10.718   9.949
 8336SOL     OW25033   1.293  10.538  10.733
 8336SOL    HW125034   1.330  10.465  10.675
 8336SOL    HW225035   1.345  10.543  10.818
 8337SOL     OW25036   0.809   9.314   9.812
 8337SOL    HW125037   0.849   9.405   9.803
 8337SOL    HW225038   0.709   9.322   9.818
 8338SOL     OW25039   0.197  10.286  10.574
 8338SOL    HW125040   0.286  10.241  10.560
 8338SOL    HW225041   0.124  10.221  10.555
 8339SOL     OW25042   1.525  10.309   9.500
 8339SOL    HW125043   1.462  10.233   9.513
 8339SOL    HW225044   1.573  10.327   9.586
 8340SOL     OW25045   1.187  11.102  10.926
 8340SOL    HW125046   1.211  11.162  10.850
 8340SOL    HW225047   1.194  11.007  10.896
 8341SOL     OW25048   0.317   9.561  11.111
 8341SOL    HW125049   0.388   9.632  11.117
 8341SOL    HW225050   0.229   9.600  11.139
 8342SOL     OW25051   1.466  10.727  10.263
 8342SOL    HW125052   1.407  10.733  10.343
 8342SOL    HW225053   1.451  10.639  10.217
 8343SOL     OW25054   1.667  11.024   9.882
 8343SOL    HW125055   1.626  11.001   9.794
 8343SOL    HW225056   1.649  10.950   9.947
 8344SOL     OW25057   0.598  10.039   9.580
 8344SOL    HW125058   0.622  10.108   9.512
 8344SOL    HW225059   0.520  10.072   9.634
 8345SOL     OW25060   1.281   9.655  10.254
 8345SOL    HW125061   1.195   9.605  10.241
 8345SOL    HW225062   1.343   9.601  10.310
 8346SOL     OW25063   1.576  10.972   9.617
 8346SOL    HW125064   1.665  11.018   9.620
 8346SOL    HW225065   1.555  10.948   9.522
 8347SOL     OW25066   0.807   9.915  10.775
 8347SOL    HW125067   0.760   9.912  10.864
 8347SOL    HW225068   0.756   9.860  10.709
 8348SOL     OW25069   1.394   9.779  10.984
 8348SOL    HW125070   1.374   9.822  11.072
 8348SOL    HW225071   1.472   9.717  10.993
 8349SOL     OW25072   0.973  10.200  10.882
 8349SOL    HW125073   1.019  10.116  10.853
 8349SOL    HW225074   0.917  10.234  10.807
 8350SOL     OW25075   0.991   9.720  10.552
 8350SOL    HW125076   0.914   9.754  10.606
 8350SOL    HW225077   0.957   9.669  10.473
 8351SOL     OW25078   1.041  10.011   9.739
 8351SOL    HW125079   1.067  10.007   9.835
 8351SOL    HW225080   0.956   9.960   9.725
 8352SOL     OW25081   0.076  10.121  10.099
 8352SOL    HW125082   0.175  10.109  10.108
 8352SOL    HW225083   0.052  10.216  10.120
 8353SOL     OW25084   0.130  11.131  10.881
 8353SOL    HW125085   0.120  11.116  10.980
 8353SOL    HW225086   0.044  11.167  10.845
 8354SOL     OW25087   0.865   9.658   9.505
 8354SOL    HW125088   0.924   9.721   9.456
 8354SOL    HW225089   0.884   9.564   9.476
 8355SOL     OW25090   1.719   9.895  11.141
 8355SOL    HW125091   1.693   9.984  11.105
 8355SOL    HW225092   1.717   9.827  11.068
 8356SOL     OW25093   1.362  10.454   9.855
 8356SOL    HW125094   1.445  10.425   9.807
 8356SOL    HW225095   1.313  10.521   9.799
 8357SOL     OW25096   0.550   9.506  10.195
 8357SOL    HW125097   0.545   9.501  10.295
 8357SOL    HW225098   0.552   9.602  10.166
 8358SOL     OW25099   1.008  10.766   9.787
 8358SOL    HW125100   0.962  10.838   9.735
 8358SOL    HW225101   1.004  10.786   9.885
 8359SOL     OW25102   0.351  11.111  10.163
 8359SOL    HW125103   0.401  11.025  10.169
 8359SOL    HW225104   0.416  11.188  10.160
 8360SOL     OW25105   1.795  10.376  10.183
 8360SOL    HW125106   1.733  10.361  10.107
 8360SOL    HW225107   1.743  10.387  10.268
 8361SOL     OW25108   1.227  10.860  10.816
 8361SOL    HW125109   1.233  10.783  10.880
 8361SOL    HW225110   1.175  10.834  10.736
 8362SOL     OW25111   0.321  10.253   9.552
 8362SOL    HW125112   0.403  10.292   9.510
 8362SOL    HW225113   0.294  10.171   9.503
 8363SOL     OW25114   1.458  10.045  10.038
 8363SOL    HW125115   1.453   9.980  10.113
 8363SOL    HW225116   1.538  10.104  10.051
 8364SOL     OW25117   0.461  10.576  11.037
 8364SOL    HW125118   0.411  10.577  10.951
 8364SOL    HW225119   0.398  10.558  11.113
 8365SOL     OW25120   1.111  11.086   9.547
 8365SOL    HW125121   1.051  11.024   9.597
 8365SOL    HW225122   1.142  11.042   9.462
 8366SOL     OW25123   0.202   9.595  10.808
 8366SOL    HW125124   0.122   9.655  10.795
 8366SOL    HW225125   0.192   9.546  10.894
 8367SOL     OW25126   1.632  10.687   9.391
 8367SOL    HW125127   1.600  10.781   9.381
 8367SOL    HW225128   1.556  10.624   9.379
 8368SOL     OW25129   0.464  11.053   9.633
 8368SOL    HW125130   0.497  11.092   9.719
 8368SOL    HW225131   0.540  11.046   9.568
 8369SOL     OW25132   1.400   9.417   9.736
 8369SOL    HW125133   1.376   9.380   9.646
 8369SOL    HW225134   1.499   9.433   9.740
 8370SOL     OW25135   0.249  11.095  10.551
 8370SOL    HW125136   0.306  11.030  10.601
 8370SOL    HW225137   0.233  11.062  10.458
 8371SOL     OW25138   0.940  11.008  10.214
 8371SOL    HW125139   1.020  10.951  10.235
 8371SOL    HW225140   0.891  10.968  10.137
 8372SOL     OW25141   0.382  10.010   9.790
 8372SOL    HW125142   0.427   9.920   9.787
 8372SOL    HW225143   0.288   9.999   9.823
 8373SOL     OW25144   1.547   9.532  11.039
 8373SOL    HW125145   1.542   9.569  11.131
 8373SOL    HW225146   1.475   9.463  11.027
 8374SOL     OW25147   0.614   9.432   9.427
 8374SOL    HW125148   0.712   9.410   9.434
 8374SOL    HW225149   0.583   9.415   9.334
 8375SOL     OW25150   0.781   9.574  11.059
 8375SOL    HW125151   0.848   9.513  11.102
 8375SOL    HW225152   0.708   9.593  11.124
 8376SOL     OW25153   0.888  10.824  10.505
 8376SOL    HW125154   0.865  10.799  10.411
 8376SOL    HW225155   0.949  10.755  10.544
 8377SOL     OW25156   1.351   9.900  10.743
 8377SOL    HW125157   1.379   9.857  10.828
 8377SOL    HW225158   1.376   9.996  10.744
 8378SOL     OW25159   0.803  10.712  10.234
 8378SOL    HW125160   0.893  10.726  10.192
 8378SOL    HW225161   0.732  10.714  10.163
 8379SOL     OW25162   0.922   9.813  10.209
 8379SOL    HW125163   0.897   9.804  10.113
 8379SOL    HW225164   0.970   9.731  10.240
 8380SOL     OW25165   0.539   9.374   9.822
 8380SOL    HW125166   0.458   9.375   9.880
 8380SOL    HW225167   0.542   9.457   9.767
 8381SOL     OW25168   1.434  10.498   9.351
 8381SOL    HW125169   1.466  10.422   9.408
 8381SOL    HW225170   1.342  10.525   9.381
 8382SOL     OW25171   0.297   9.345   9.481
 8382SOL    HW125172   0.346   9.429   9.460
 8382SOL    HW225173   0.359   9.280   9.526
 8383SOL     OW25174   0.935   9.546   9.790
 8383SOL    HW125175   0.887   9.587   9.712
 8383SOL    HW225176   1.034   9.544   9.771
 8384SOL     OW25177   1.076   9.993  10.774
 8384SOL    HW125178   0.996   9.932  10.777
 8384SOL    HW225179   1.157   9.940  10.750
 8385SOL     OW25180   1.227  10.880  10.103
 8385SOL    HW125181   1.248  10.954  10.038
 8385SOL    HW225182   1.295  10.880  10.176
 8386SOL     OW25183   0.459  10.462  10.051
 8386SOL    HW125184   0.388  10.435  10.116
 8386SOL    HW225185   0.433  10.434   9.958
 8387SOL     OW25186   1.271  11.107   9.901
 8387SOL    HW125187   1.315  11.171   9.837
 8387SOL    HW225188   1.221  11.159   9.971
 8388SOL     OW25189   1.032   9.859   9.326
 8388SOL    HW125190   0.991   9.941   9.287
 8388SOL    HW225191   1.096   9.885   9.399
 8389SOL     OW25192   0.078   9.866  10.696
 8389SOL    HW125193   0.170   9.865  10.655
 8389SOL    HW225194   0.072   9.940  10.763
 8390SOL     OW25195   0.561   9.532  10.457
 8390SOL    HW125196   0.599   9.448  10.494
 8390SOL    HW225197   0.473   9.551  10.501
 8391SOL     OW25198   0.866   9.764   9.952
 8391SOL    HW125199   0.834   9.836   9.890
 8391SOL    HW225200   0.890   9.683   9.899
 8392SOL     OW25201   1.017   9.349  10.063
 8392SOL    HW125202   0.945   9.354   9.994
 8392SOL    HW225203   0.993   9.280  10.132
 8393SOL     OW25204   1.429  10.483  10.177
 8393SOL    HW125205   1.374  10.399  10.170
 8393SOL    HW225206   1.455  10.512  10.085
 8394SOL     OW25207   1.466   9.900  10.302
 8394SOL    HW125208   1.436   9.805  10.309
 8394SOL    HW225209   1.539   9.916  10.368
 8395SOL     OW25210   1.857  10.143   9.687
 8395SOL    HW125211   1.899  10.079   9.751
 8395SOL    HW225212   1.819  10.092   9.609
 8396SOL     OW25213   0.488  10.695   9.484
 8396SOL    HW125214   0.401  10.680   9.531
 8396SOL    HW225215   0.471  10.721   9.389
 8397SOL     OW25216   1.664  10.590   9.967
 8397SOL    HW125217   1.763  10.598   9.981
 8397SOL    HW225218   1.619  10.674   9.998
 8398SOL     OW25219   1.390   9.885   9.388
 8398SOL    HW125220   1.336   9.864   9.469
 8398SOL    HW225221   1.481   9.844   9.397
 8399SOL     OW25222   0.527   9.566   9.638
 8399SOL    HW125223   0.554   9.507   9.563
 8399SOL    HW225224   0.527   9.661   9.607
 8400SOL     OW25225   1.754  10.533  10.898
 8400SOL    HW125226   1.845  10.494  10.885
 8400SOL    HW225227   1.762  10.629  10.922
 8401SOL     OW25228   1.064  10.657  10.650
 8401SOL    HW125229   0.984  10.634  10.705
 8401SOL    HW225230   1.147  10.631  10.699
 8402SOL     OW25231   1.592  10.939  10.935
 8402SOL    HW125232   1.619  10.973  10.845
 8402SOL    HW225233   1.671  10.901  10.981
 8403SOL     OW25234   1.111  10.505  10.410
 8403SOL    HW125235   1.071  10.549  10.491
 8403SOL    HW225236   1.070  10.542  10.327
 8404SOL     OW25237   1.638  10.409  10.389
 8404SOL    HW125238   1.643  10.490  10.448
 8404SOL    HW225239   1.552  10.411  10.338
 8405SOL     OW25240   0.915   9.399  10.712
 8405SOL    HW125241   0.940   9.379  10.617
 8405SOL    HW225242   0.987   9.455  10.754
 8406SOL     OW25243   0.980  10.426  11.029
 8406SOL    HW125244   0.881  10.432  11.039
 8406SOL    HW225245   1.003  10.346  10.973
 8407SOL     OW25246   0.705  10.360   9.678
 8407SOL    HW125247   0.691  10.367   9.777
 8407SOL    HW225248   0.789  10.309   9.660
 8408SOL     OW25249   0.410  10.123  10.561
 8408SOL    HW125250   0.496  10.135  10.611
 8408SOL    HW225251   0.368  10.036  10.588
 8409SOL     OW25252   1.274   9.696  10.572
 8409SOL    HW125253   1.295   9.770  10.636
 8409SOL    HW225254   1.185   9.713  10.529
 8410SOL     OW25255   0.064  10.874  10.641
 8410SOL    HW125256   0.018  10.956  10.607
 8410SOL    HW225257   0.162  10.893  10.650
 8411SOL     OW25258   0.367  10.410   9.811
 8411SOL    HW125259   0.360  10.493   9.755
 8411SOL    HW225260   0.371  10.330   9.751
 8412SOL     OW25261   0.566   9.847  10.175
 8412SOL    HW125262   0.578   9.913  10.101
 8412SOL    HW225263   0.612   9.881  10.258
 8413SOL     OW25264   1.252  10.658   9.698
 8413SOL    HW125265   1.302  10.735   9.738
 8413SOL    HW225266   1.157  10.660   9.730
 8414SOL     OW25267   1.272  10.755  10.452
 8414SOL    HW125268   1.319  10.768  10.539
 8414SOL    HW225269   1.206  10.681  10.461
 8415SOL     OW25270   1.582   9.949   9.782
 8415SOL    HW125271   1.551  10.010   9.855
 8415SOL    HW225272   1.632  10.001   9.713
 8416SOL     OW25273   0.354  10.820  10.639
 8416SOL    HW125274   0.333  10.776  10.552
 8416SOL    HW225275   0.451  10.846  10.642
 8417SOL     OW25276   0.402  10.061  10.908
 8417SOL    HW125277   0.470  10.116  10.861
 8417SOL    HW225278   0.442   9.973  10.935
 8418SOL     OW25279   1.587  10.089  10.980
 8418SOL    HW125280   1.495  10.127  10.975
 8418SOL    HW225281   1.647  10.136  10.915
 8419SOL     OW25282   1.013   9.415  11.080
 8419SOL    HW125283   1.019   9.500  11.028
 8419SOL    HW225284   1.045   9.339  11.023
 8420SOL     OW25285   0.504   9.360  11.050
 8420SOL    HW125286   0.462   9.303  10.980
 8420SOL    HW225287   0.438   9.429  11.082
 8421SOL     OW25288   0.573  10.180  10.339
 8421SOL    HW125289   0.617  10.269  10.330
 8421SOL    HW225290   0.510  10.180  10.416
 8422SOL     OW25291   1.360  10.172  10.355
 8422SOL    HW125292   1.285  10.172  10.289
 8422SOL    HW225293   1.397  10.080  10.364
 8423SOL     OW25294   1.209   9.835   9.585
 8423SOL    HW125295   1.222   9.751   9.639
 8423SOL    HW225296   1.180   9.909   9.645
 8424SOL     OW25297   0.307   9.523  10.541
 8424SOL    HW125298   0.284   9.560  10.631
 8424SOL    HW225299   0.277   9.428  10.535
 8425SOL     OW25300   0.037  10.620  10.592
 8425SOL    HW125301   0.090  10.571  10.660
 8425SOL    HW225302   0.059  10.718  10.597
 8426SOL     OW25303   0.732   9.944  10.374
 8426SOL    HW125304   0.791   9.918  10.298
 8426SOL    HW225305   0.704  10.040  10.363
 8427SOL     OW25306   1.728  10.245  11.164
 8427SOL    HW125307   1.682  10.238  11.075
 8427SOL    HW225308   1.666  10.289  11.230
 8428SOL     OW25309   0.307   9.373   9.928
 8428SOL    HW125310   0.296   9.467   9.961
 8428SOL    HW225311   0.302   9.310  10.005
 8429SOL     OW25312   1.622   9.677   9.684
 8429SOL    HW125313   1.624   9.601   9.748
 8429SOL    HW225314   1.574   9.754   9.724
 8430SOL     OW25315   1.023  10.076  10.276
 8430SOL    HW125316   1.038  10.097  10.372
 8430SOL    HW225317   0.993   9.981  10.267
 8431SOL     OW25318   0.980  10.883  11.010
 8431SOL    HW125319   0.960  10.927  10.922
 8431SOL    HW225320   1.019  10.792  10.994
 8432SOL     OW25321   1.859  10.828  10.915
 8432SOL    HW125322   1.873  10.855  10.820
 8432SOL    HW225323   1.942  10.850  10.968
 8433SOL     OW25324   0.350  10.208  11.114
 8433SOL    HW125325   0.426  10.252  11.162
 8433SOL    HW225326   0.385  10.161  11.032
 8434SOL     OW25327   1.540   9.584   9.435
 8434SOL    HW125328   1.479   9.509   9.458
 8434SOL    HW225329   1.562   9.636   9.518
 8435SOL     OW25330   1.303  10.148   9.352
 8435SOL    HW125331   1.337  10.055   9.367
 8435SOL    HW225332   1.321  10.175   9.257
 8436SOL     OW25333   1.068  10.643  10.159
 8436SOL    HW125334   1.075  10.559  10.104
 8436SOL    HW225335   1.130  10.712  10.123
 8437SOL     OW25336   0.319  10.120  10.259
 8437SOL    HW125337   0.412  10.156  10.264
 8437SOL    HW225338   0.313  10.035  10.311
 8438SOL     OW25339   0.339   9.819  10.316
 8438SOL    HW125340   0.287   9.736  10.299
 8438SOL    HW225341   0.416   9.824  10.252
 8439SOL     OW25342   1.138   9.690  10.988
 8439SOL    HW125343   1.093   9.753  11.052
 8439SOL    HW225344   1.231   9.721  10.971
 8440SOL     OW25345   1.160   9.517  10.787
 8440SOL    HW125346   1.160   9.581  10.864
 8440SOL    HW225347   1.188   9.565  10.704
 8441SOL     OW25348   0.008  10.636   9.510
 8441SOL    HW125349  -0.085  10.657   9.479
 8441SOL    HW225350   0.018  10.537   9.523
 8442SOL     OW25351   0.088  11.111  10.237
 8442SOL    HW125352   0.046  11.025  10.210
 8442SOL    HW225353   0.182  11.114  10.203
 8443SOL     OW25354   0.504  10.878  10.220
 8443SOL    HW125355   0.570  10.952  10.229
 8443SOL    HW225356   0.548  10.799  10.178
 8444SOL     OW25357   1.002  10.106  10.548
 8444SOL    HW125358   1.043  10.074  10.634
 8444SOL    HW225359   0.906  10.079  10.545
 8445SOL     OW25360   0.040   9.854  10.424
 8445SOL    HW125361   0.125   9.821  10.383
 8445SOL    HW225362   0.053   9.869  10.522
 8446SOL     OW25363   0.189   9.830  11.032
 8446SOL    HW125364   0.248   9.790  10.962
 8446SOL    HW225365   0.131   9.901  10.991
 8447SOL     OW25366   1.369  10.260  10.970
 8447SOL    HW125367   1.408  10.349  10.990
 8447SOL    HW225368   1.379  10.240  10.873
 8448SOL     OW25369   0.815   9.882   9.635
 8448SOL    HW125370   0.822   9.793   9.589
 8448SOL    HW225371   0.721   9.916   9.627
 8449SOL     OW25372   1.657   9.914  10.516
 8449SOL    HW125373   1.619   9.845  10.578
 8449SOL    HW225374   1.739   9.878  10.472
 8450SOL     OW25375   0.252  10.874  11.054
 8450SOL    HW125376   0.222  10.931  11.130
 8450SOL    HW225377   0.245  10.777  11.080
 8451SOL     OW25378   0.671   9.774  10.579
 8451SOL    HW125379   0.637   9.685  10.549
 8451SOL    HW225380   0.697   9.828  10.499
 8452SOL     OW25381   0.930  10.988  10.775
 8452SOL    HW125382   0.906  10.970  10.680
 8452SOL    HW225383   0.960  11.082  10.785
 8453SOL     OW25384   0.473   9.810   9.501
 8453SOL    HW125385   0.534   9.890   9.505
 8453SOL    HW225386   0.378   9.841   9.508
 8454SOL     OW25387   0.159  10.447  10.776
 8454SOL    HW125388   0.181  10.386  10.852
 8454SOL    HW225389   0.169  10.398  10.690
 8455SOL     OW25390   1.347  10.369  10.544
 8455SOL    HW125391   1.371  10.306  10.470
 8455SOL    HW225392   1.257  10.409  10.526
 8456SOL     OW25393   1.302  10.165   9.619
 8456SOL    HW125394   1.216  10.134   9.661
 8456SOL    HW225395   1.298  10.151   9.520
 8457SOL     OW25396   1.759  11.057  10.464
 8457SOL    HW125397   1.820  11.087  10.391
 8457SOL    HW225398   1.721  10.968  10.442
 8458SOL     OW25399   1.252  11.041  10.438
 8458SOL    HW125400   1.336  11.046  10.384
 8458SOL    HW225401   1.229  10.945  10.456
 8459SOL     OW25402   0.083  10.568  10.332
 8459SOL    HW125403   0.078  10.567  10.432
 8459SOL    HW225404   0.000  10.527  10.294
 8460SOL     OW25405   0.688  10.972  11.026
 8460SOL    HW125406   0.632  11.053  11.035
 8460SOL    HW225407   0.740  10.976  10.940
 8461SOL     OW25408   1.726   9.445   9.833
 8461SOL    HW125409   1.799   9.428   9.766
 8461SOL    HW225410   1.695   9.358   9.871
 8462SOL     OW25411   1.388  10.883   9.787
 8462SOL    HW125412   1.455  10.895   9.713
 8462SOL    HW225413   1.348  10.972   9.810
 8463SOL     OW25414   0.130  11.104  11.161
 8463SOL    HW125415   0.089  11.030  11.214
 8463SOL    HW225416   0.194  11.155  11.219
 8464SOL     OW25417   1.280  10.237   9.982
 8464SOL    HW125418   1.340  10.156   9.984
 8464SOL    HW225419   1.320  10.306   9.922
 8465SOL     OW25420   0.830  10.583  10.732
 8465SOL    HW125421   0.825  10.616  10.827
 8465SOL    HW225422   0.744  10.602  10.686
 8466SOL     OW25423   0.672  10.926   9.464
 8466SOL    HW125424   0.681  10.936   9.365
 8466SOL    HW225425   0.632  10.837   9.485
 8467SOL     OW25426   1.650  11.030  10.704
 8467SOL    HW125427   1.703  11.040  10.620
 8467SOL    HW225428   1.623  11.120  10.738
 8468SOL     OW25429   1.841   9.485  10.273
 8468SOL    HW125430   1.880   9.400  10.237
 8468SOL    HW225431   1.743   9.487  10.254
 8469SOL     OW25432   0.263   9.636  10.030
 8469SOL    HW125433   0.184   9.687   9.996
 8469SOL    HW225434   0.254   9.621  10.128
 8470SOL     OW25435   1.194  10.922   9.341
 8470SOL    HW125436   1.200  10.829   9.378
 8470SOL    HW225437   1.135  10.922   9.261
 8471SOL     OW25438   0.822  10.312  10.682
 8471SOL    HW125439   0.862  10.311  10.590
 8471SOL    HW225440   0.832  10.404  10.722
 8472SOL     OW25441   0.916  10.220   9.601
 8472SOL    HW125442   0.979  10.258   9.533
 8472SOL    HW225443   0.956  10.137   9.640
 8473SOL     OW25444   1.504  10.917   9.354
 8473SOL    HW125445   1.412  10.954   9.361
 8473SOL    HW225446   1.542  10.937   9.264
 8474SOL     OW25447   0.372  10.598  10.800
 8474SOL    HW125448   0.359  10.691  10.766
 8474SOL    HW225449   0.288  10.546  10.787
 8475SOL     OW25450   1.614  10.602  10.599
 8475SOL    HW125451   1.674  10.605  10.679
 8475SOL    HW225452   1.539  10.666  10.612
 8476SOL     OW25453   1.039  10.408  10.006
 8476SOL    HW125454   0.969  10.361  10.060
 8476SOL    HW225455   1.098  10.340   9.963
 8477SOL     OW25456   1.014   9.546  10.281
 8477SOL    HW125457   1.006   9.510  10.188
 8477SOL    HW225458   1.012   9.470  10.346
 8478SOL     OW25459   0.590  10.797   9.801
 8478SOL    HW125460   0.632  10.739   9.731
 8478SOL    HW225461   0.546  10.876   9.757
 8479SOL     OW25462   1.709   9.695  10.691
 8479SOL    HW125463   1.782   9.764  10.695
 8479SOL    HW225464   1.737   9.620  10.632
 8480SOL     OW25465   0.255  10.658   9.600
 8480SOL    HW125466   0.159  10.659   9.573
 8480SOL    HW225467   0.267  10.711   9.684
 8481SOL     OW25468   0.105  10.323  11.036
 8481SOL    HW125469   0.028  10.290  11.090
 8481SOL    HW225470   0.190  10.293  11.078
 8482SOL     OW25471   0.672   9.513  10.799
 8482SOL    HW125472   0.762   9.497  10.759
 8482SOL    HW225473   0.680   9.518  10.898
 8483SOL     OW25474   0.075   9.655   9.343
 8483SOL    HW125475  -0.017   9.627   9.314
 8483SOL    HW225476   0.106   9.732   9.287
 8484SOL     OW25477   1.440  10.166  10.708
 8484SOL    HW125478   1.383  10.218  10.645
 8484SOL    HW225479   1.536  10.178  10.684
 8485SOL     OW25480   0.072   9.476   9.628
 8485SOL    HW125481   0.055   9.559   9.574
 8485SOL    HW225482   0.162   9.439   9.606
 8486SOL     OW25483   1.183  10.645   9.429
 8486SOL    HW125484   1.084  10.634   9.431
 8486SOL    HW225485   1.217  10.660   9.522
 8487SOL     OW25486   0.613  10.152  10.741
 8487SOL    HW125487   0.669  10.233  10.724
 8487SOL    HW225488   0.672  10.072  10.744
 8488SOL     OW25489   1.493  11.077  10.269
 8488SOL    HW125490   1.526  11.141  10.200
 8488SOL    HW225491   1.559  11.071  10.344
 8489SOL     OW25492   0.716   9.875  11.018
 8489SOL    HW125493   0.735   9.940  11.092
 8489SOL    HW225494   0.776   9.795  11.027
 8490SOL     OW25495   1.450  10.530  10.943
 8490SOL    HW125496   1.441  10.520  11.042
 8490SOL    HW225497   1.546  10.523  10.917
 8491SOL     OW25498   0.390  11.051  10.870
 8491SOL    HW125499   0.299  11.092  10.868
 8491SOL    HW225500   0.383  10.957  10.902
 8492SOL     OW25501   1.674  10.193  10.564
 8492SOL    HW125502   1.647  10.104  10.527
 8492SOL    HW225503   1.675  10.261  10.491
 8493SOL     OW25504   1.225   9.635   9.759
 8493SOL    HW125505   1.290   9.561   9.748
 8493SOL    HW225506   1.245   9.685   9.843
 8494SOL     OW25507   0.594  10.055   9.962
 8494SOL    HW125508   0.644  10.140   9.943
 8494SOL    HW225509   0.506  10.057   9.914
 8495SOL     OW25510   1.777   9.652  10.952
 8495SOL    HW125511   1.760   9.683  10.858
 8495SOL    HW225512   1.693   9.615  10.990
 8496SOL     OW25513   1.730  10.244  10.827
 8496SOL    HW125514   1.768  10.335  10.842
 8496SOL    HW225515   1.722  10.227  10.728
 8497SOL     OW25516   0.859  10.684   9.326
 8497SOL    HW125517   0.813  10.699   9.414
 8497SOL    HW225518   0.903  10.769   9.296
 8498SOL     OW25519   0.661  11.100  10.263
 8498SOL    HW125520   0.615  11.188  10.250
 8498SOL    HW225521   0.760  11.112  10.256
 8499SOL     OW25522   0.859  10.266  10.171
 8499SOL    HW125523   0.913  10.197  10.219
 8499SOL    HW225524   0.827  10.335  10.237
 8500SOL     OW25525   1.083  10.294   9.397
 8500SOL    HW125526   1.060  10.347   9.315
 8500SOL    HW225527   1.164  10.238   9.378
 8501SOL     OW25528   1.861  10.879  10.161
 8501SOL    HW125529   1.790  10.867  10.091
 8501SOL    HW225530   1.862  10.800  10.221
 8502SOL     OW25531   0.221  10.624  11.154
 8502SOL    HW125532   0.156  10.551  11.133
 8502SOL    HW225533   0.225  10.638  11.252
 8503SOL     OW25534   0.079  10.550   9.963
 8503SOL    HW125535   0.078  10.503  10.051
 8503SOL    HW225536   0.161  10.522   9.912
 8504SOL     OW25537   0.672  10.701  10.934
 8504SOL    HW125538   0.594  10.651  10.972
 8504SOL    HW225539   0.669  10.796  10.965
 8505SOL     OW25540   1.824   9.502  10.537
 8505SOL    HW125541   1.820   9.412  10.581
 8505SOL    HW225542   1.827   9.491  10.438
 8506SOL     OW25543   0.428   9.734   9.830
 8506SOL    HW125544   0.458   9.662   9.768
 8506SOL    HW225545   0.389   9.694   9.913
 8507SOL     OW25546   1.705  10.797  10.414
 8507SOL    HW125547   1.612  10.772  10.387
 8507SOL    HW225548   1.731  10.747  10.496
 8508SOL     OW25549   0.317   9.857  10.590
 8508SOL    HW125550   0.355   9.798  10.662
 8508SOL    HW225551   0.357   9.831  10.502
 8509SOL     OW25552   0.812  10.896   9.997
 8509SOL    HW125553   0.844  10.906   9.903
 8509SOL    HW225554   0.733  10.834   9.999
 8510SOL     OW25555   1.424   9.524  10.422
 8510SOL    HW125556   1.476   9.459  10.477
 8510SOL    HW225557   1.375   9.587  10.483
 8511SOL     OW25558   1.001   9.344  10.464
 8511SOL    HW125559   0.938   9.272  10.433
 8511SOL    HW225560   1.094   9.308  10.464
 8512SOL     OW25561   0.770  10.640   9.611
 8512SOL    HW125562   0.724  10.553   9.628
 8512SOL    HW225563   0.861  10.637   9.652
 8513SOL     OW25564   0.618  10.877  10.594
 8513SOL    HW125565   0.613  10.959  10.651
 8513SOL    HW225566   0.707  10.874  10.549
 8514SOL     OW25567   1.352   9.362   9.478
 8514SOL    HW125568   1.387   9.321   9.394
 8514SOL    HW225569   1.262   9.324   9.498
 8515SOL     OW25570   1.300   9.763  10.001
 8515SOL    HW125571   1.241   9.843  10.005
 8515SOL    HW225572   1.315   9.728  10.094
 8516SOL     OW25573   1.593   9.531  10.192
 8516SOL    HW125574   1.509   9.530  10.246
 8516SOL    HW225575   1.595   9.614  10.136
 8517SOL     OW25576   0.039  10.387   9.610
 8517SOL    HW125577   0.138  10.376   9.601
 8517SOL    HW225578  -0.001  10.301   9.642
 8518SOL     OW25579   0.875  10.956   9.647
 8518SOL    HW125580   0.798  10.921   9.593
 8518SOL    HW225581   0.843  11.027   9.709
 8519SOL     OW25582   0.230   9.938  11.285
 8519SOL    HW125583   0.137   9.936  11.322
 8519SOL    HW225584   0.231   9.899  11.193
 8520SOL     OW25585   0.225   9.585  12.168
 8520SOL    HW125586   0.260   9.568  12.260
 8520SOL    HW225587   0.137   9.540  12.156
 8521SOL     OW25588   0.019   9.678  11.819
 8521SOL    HW125589  -0.063   9.721  11.858
 8521SOL    HW225590  -0.009   9.605  11.756
 8522SOL     OW25591   0.569  10.585  12.337
 8522SOL    HW125592   0.476  10.578  12.300
 8522SOL    HW225593   0.580  10.674  12.381
 8523SOL     OW25594   1.555  10.821  11.875
 8523SOL    HW125595   1.498  10.805  11.956
 8523SOL    HW225596   1.496  10.831  11.795
 8524SOL     OW25597   1.135  10.013  11.889
 8524SOL    HW125598   1.192  10.091  11.864
 8524SOL    HW225599   1.075  10.039  11.965
 8525SOL     OW25600   1.755   9.917  11.403
 8525SOL    HW125601   1.743   9.904  11.304
 8525SOL    HW225602   1.725   9.836  11.452
 8526SOL     OW25603   0.768  10.454  12.195
 8526SOL    HW125604   0.690  10.471  12.255
 8526SOL    HW225605   0.802  10.541  12.159
 8527SOL     OW25606   0.685  10.322  11.837
 8527SOL    HW125607   0.754  10.306  11.907
 8527SOL    HW225608   0.612  10.379  11.875
 8528SOL     OW25609   0.335  10.745  12.233
 8528SOL    HW125610   0.257  10.714  12.180
 8528SOL    HW225611   0.393  10.803  12.176
 8529SOL     OW25612   1.460  10.815  12.511
 8529SOL    HW125613   1.484  10.909  12.537
 8529SOL    HW225614   1.444  10.761  12.593
 8530SOL     OW25615   0.438   9.702  12.671
 8530SOL    HW125616   0.520   9.646  12.680
 8530SOL    HW225617   0.357   9.644  12.675
 8531SOL     OW25618   1.603   9.757  11.909
 8531SOL    HW125619   1.529   9.803  11.859
 8531SOL    HW225620   1.654   9.825  11.962
 8532SOL     OW25621   0.231  11.023  11.655
 8532SOL    HW125622   0.265  11.100  11.709
 8532SOL    HW225623   0.275  11.023  11.565
 8533SOL     OW25624   0.230  10.744  11.710
 8533SOL    HW125625   0.204  10.840  11.710
 8533SOL    HW225626   0.159  10.690  11.755
 8534SOL     OW25627   0.240  10.401  12.058
 8534SOL    HW125628   0.254  10.317  12.110
 8534SOL    HW225629   0.185  10.465  12.113
 8535SOL     OW25630   0.620  11.096  12.611
 8535SOL    HW125631   0.528  11.079  12.646
 8535SOL    HW225632   0.648  11.188  12.637
 8536SOL     OW25633   0.606  10.274  11.295
 8536SOL    HW125634   0.613  10.358  11.241
 8536SOL    HW225635   0.652  10.287  11.383
 8537SOL     OW25636   1.594   9.424  12.652
 8537SOL    HW125637   1.576   9.491  12.580
 8537SOL    HW225638   1.591   9.470  12.741
 8538SOL     OW25639   0.122   9.953  11.735
 8538SOL    HW125640   0.077   9.865  11.752
 8538SOL    HW225641   0.121  10.007  11.819
 8539SOL     OW25642   1.842  11.077  11.531
 8539SOL    HW125643   1.896  11.048  11.611
 8539SOL    HW225644   1.872  11.167  11.502
 8540SOL     OW25645   0.027  10.906  11.289
 8540SOL    HW125646   0.008  10.810  11.310
 8540SOL    HW225647  -0.006  10.964  11.364
 8541SOL     OW25648   1.689  10.232  11.784
 8541SOL    HW125649   1.784  10.203  11.792
 8541SOL    HW225650   1.681  10.297  11.709
 8542SOL     OW25651   1.641  10.418  11.604
 8542SOL    HW125652   1.727  10.420  11.552
 8542SOL    HW225653   1.655  10.465  11.692
 8543SOL     OW25654   0.613  10.675  11.898
 8543SOL    HW125655   0.564  10.588  11.907
 8543SOL    HW225656   0.590  10.718  11.811
 8544SOL     OW25657   0.809   9.314  11.674
 8544SOL    HW125658   0.849   9.405  11.665
 8544SOL    HW225659   0.709   9.322  11.680
 8545SOL     OW25660   0.197  10.286  12.436
 8545SOL    HW125661   0.286  10.241  12.422
 8545SOL    HW225662   0.124  10.221  12.417
 8546SOL     OW25663   1.525  10.309  11.362
 8546SOL    HW125664   1.462  10.233  11.375
 8546SOL    HW225665   1.573  10.327  11.448
 8547SOL     OW25666   0.317   9.561  12.973
 8547SOL    HW125667   0.388   9.632  12.979
 8547SOL    HW225668   0.229   9.600  13.001
 8548SOL     OW25669   1.466  10.727  12.125
 8548SOL    HW125670   1.407  10.733  12.205
 8548SOL    HW225671   1.451  10.639  12.079
 8549SOL     OW25672   1.667  11.024  11.744
 8549SOL    HW125673   1.626  11.001  11.656
 8549SOL    HW225674   1.649  10.950  11.809
 8550SOL     OW25675   0.598  10.039  11.442
 8550SOL    HW125676   0.622  10.108  11.374
 8550SOL    HW225677   0.520  10.072  11.496
 8551SOL     OW25678   1.281   9.655  12.116
 8551SOL    HW125679   1.195   9.605  12.103
 8551SOL    HW225680   1.343   9.601  12.172
 8552SOL     OW25681   1.576  10.972  11.479
 8552SOL    HW125682   1.665  11.018  11.482
 8552SOL    HW225683   1.555  10.948  11.384
 8553SOL     OW25684   0.807   9.915  12.637
 8553SOL    HW125685   0.760   9.912  12.726
 8553SOL    HW225686   0.756   9.860  12.571
 8554SOL     OW25687   0.991   9.720  12.414
 8554SOL    HW125688   0.914   9.754  12.468
 8554SOL    HW225689   0.957   9.669  12.335
 8555SOL     OW25690   1.041  10.011  11.601
 8555SOL    HW125691   1.067  10.007  11.697
 8555SOL    HW225692   0.956   9.960  11.587
 8556SOL     OW25693   0.076  10.121  11.961
 8556SOL    HW125694   0.175  10.109  11.970
 8556SOL    HW225695   0.052  10.216  11.982
 8557SOL     OW25696   0.130  11.131  12.743
 8557SOL    HW125697   0.120  11.116  12.842
 8557SOL    HW225698   0.044  11.167  12.707
 8558SOL     OW25699   0.865   9.658  11.367
 8558SOL    HW125700   0.924   9.721  11.318
 8558SOL    HW225701   0.884   9.564  11.338
 8559SOL     OW25702   1.362  10.454  11.717
 8559SOL    HW125703   1.445  10.425  11.669
 8559SOL    HW225704   1.313  10.521  11.661
 8560SOL     OW25705   0.550   9.506  12.057
 8560SOL    HW125706   0.545   9.501  12.157
 8560SOL    HW225707   0.552   9.602  12.028
 8561SOL     OW25708   1.008  10.766  11.649
 8561SOL    HW125709   0.962  10.838  11.597
 8561SOL    HW225710   1.004  10.786  11.747
 8562SOL     OW25711   0.351  11.111  12.025
 8562SOL    HW125712   0.401  11.025  12.031
 8562SOL    HW225713   0.416  11.188  12.022
 8563SOL     OW25714   1.795  10.376  12.045
 8563SOL    HW125715   1.733  10.361  11.969
 8563SOL    HW225716   1.743  10.387  12.130
 8564SOL     OW25717   0.321  10.253  11.414
 8564SOL    HW125718   0.403  10.292  11.372
 8564SOL    HW225719   0.294  10.171  11.365
 8565SOL     OW25720   1.458  10.045  11.900
 8565SOL    HW125721   1.453   9.980  11.975
 8565SOL    HW225722   1.538  10.104  11.913
 8566SOL     OW25723   1.111  11.086  11.409
 8566SOL    HW125724   1.051  11.024  11.459
 8566SOL    HW225725   1.142  11.042  11.324
 8567SOL     OW25726   1.632  10.687  11.253
 8567SOL    HW125727   1.600  10.781  11.243
 8567SOL    HW225728   1.556  10.624  11.241
 8568SOL     OW25729   0.464  11.053  11.495
 8568SOL    HW125730   0.497  11.092  11.581
 8568SOL    HW225731   0.540  11.046  11.430
 8569SOL     OW25732   1.400   9.417  11.598
 8569SOL    HW125733   1.376   9.380  11.508
 8569SOL    HW225734   1.499   9.433  11.602
 8570SOL     OW25735   0.249  11.095  12.413
 8570SOL    HW125736   0.306  11.030  12.463
 8570SOL    HW225737   0.233  11.062  12.320
 8571SOL     OW25738   0.940  11.008  12.076
 8571SOL    HW125739   1.020  10.951  12.097
 8571SOL    HW225740   0.891  10.968  11.999
 8572SOL     OW25741   0.382  10.010  11.652
 8572SOL    HW125742   0.427   9.920  11.649
 8572SOL    HW225743   0.288   9.999  11.685
 8573SOL     OW25744   0.614   9.432  11.289
 8573SOL    HW125745   0.712   9.410  11.296
 8573SOL    HW225746   0.583   9.415  11.196
 8574SOL     OW25747   0.888  10.824  12.367
 8574SOL    HW125748   0.865  10.799  12.273
 8574SOL    HW225749   0.949  10.755  12.406
 8575SOL     OW25750   0.803  10.712  12.096
 8575SOL    HW125751   0.893  10.726  12.054
 8575SOL    HW225752   0.732  10.714  12.025
 8576SOL     OW25753   0.922   9.813  12.071
 8576SOL    HW125754   0.897   9.804  11.975
 8576SOL    HW225755   0.970   9.731  12.102
 8577SOL     OW25756   0.539   9.374  11.684
 8577SOL    HW125757   0.458   9.375  11.742
 8577SOL    HW225758   0.542   9.457  11.629
 8578SOL     OW25759   1.434  10.498  11.213
 8578SOL    HW125760   1.466  10.422  11.270
 8578SOL    HW225761   1.342  10.525  11.243
 8579SOL     OW25762   0.297   9.345  11.343
 8579SOL    HW125763   0.346   9.429  11.322
 8579SOL    HW225764   0.359   9.280  11.388
 8580SOL     OW25765   0.935   9.546  11.652
 8580SOL    HW125766   0.887   9.587  11.574
 8580SOL    HW225767   1.034   9.544  11.633
 8581SOL     OW25768   1.227  10.880  11.965
 8581SOL    HW125769   1.248  10.954  11.900
 8581SOL    HW225770   1.295  10.880  12.038
 8582SOL     OW25771   0.459  10.462  11.913
 8582SOL    HW125772   0.388  10.435  11.978
 8582SOL    HW225773   0.433  10.434  11.820
 8583SOL     OW25774   1.271  11.107  11.763
 8583SOL    HW125775   1.315  11.171  11.699
 8583SOL    HW225776   1.221  11.159  11.833
 8584SOL     OW25777   1.032   9.859  11.188
 8584SOL    HW125778   0.991   9.941  11.149
 8584SOL    HW225779   1.096   9.885  11.261
 8585SOL     OW25780   0.078   9.866  12.558
 8585SOL    HW125781   0.170   9.865  12.517
 8585SOL    HW225782   0.072   9.940  12.625
 8586SOL     OW25783   0.561   9.532  12.319
 8586SOL    HW125784   0.599   9.448  12.356
 8586SOL    HW225785   0.473   9.551  12.363
 8587SOL     OW25786   0.866   9.764  11.814
 8587SOL    HW125787   0.834   9.836  11.752
 8587SOL    HW225788   0.890   9.683  11.761
 8588SOL     OW25789   1.017   9.349  11.925
 8588SOL    HW125790   0.945   9.354  11.856
 8588SOL    HW225791   0.993   9.280  11.994
 8589SOL     OW25792   1.429  10.483  12.039
 8589SOL    HW125793   1.374  10.399  12.032
 8589SOL    HW225794   1.455  10.512  11.947
 8590SOL     OW25795   1.466   9.900  12.164
 8590SOL    HW125796   1.436   9.805  12.171
 8590SOL    HW225797   1.539   9.916  12.230
 8591SOL     OW25798   1.857  10.143  11.549
 8591SOL    HW125799   1.899  10.079  11.613
 8591SOL    HW225800   1.819  10.092  11.471
 8592SOL     OW25801   0.488  10.695  11.346
 8592SOL    HW125802   0.401  10.680  11.393
 8592SOL    HW225803   0.471  10.721  11.251
 8593SOL     OW25804   1.664  10.590  11.829
 8593SOL    HW125805   1.763  10.598  11.843
 8593SOL    HW225806   1.619  10.674  11.860
 8594SOL     OW25807   1.390   9.885  11.250
 8594SOL    HW125808   1.336   9.864  11.331
 8594SOL    HW225809   1.481   9.844  11.259
 8595SOL     OW25810   0.527   9.566  11.500
 8595SOL    HW125811   0.554   9.507  11.425
 8595SOL    HW225812   0.527   9.661  11.469
 8596SOL     OW25813   1.064  10.657  12.512
 8596SOL    HW125814   0.984  10.634  12.567
 8596SOL    HW225815   1.147  10.631  12.561
 8597SOL     OW25816   1.111  10.505  12.272
 8597SOL    HW125817   1.071  10.549  12.353
 8597SOL    HW225818   1.070  10.542  12.189
 8598SOL     OW25819   1.638  10.409  12.251
 8598SOL    HW125820   1.643  10.490  12.310
 8598SOL    HW225821   1.552  10.411  12.200
 8599SOL     OW25822   0.915   9.399  12.574
 8599SOL    HW125823   0.940   9.379  12.479
 8599SOL    HW225824   0.987   9.455  12.616
 8600SOL     OW25825   0.705  10.360  11.540
 8600SOL    HW125826   0.691  10.367  11.639
 8600SOL    HW225827   0.789  10.309  11.522
 8601SOL     OW25828   0.410  10.123  12.423
 8601SOL    HW125829   0.496  10.135  12.473
 8601SOL    HW225830   0.368  10.036  12.450
 8602SOL     OW25831   1.274   9.696  12.434
 8602SOL    HW125832   1.295   9.770  12.498
 8602SOL    HW225833   1.185   9.713  12.391
 8603SOL     OW25834   0.064  10.874  12.503
 8603SOL    HW125835   0.018  10.956  12.469
 8603SOL    HW225836   0.162  10.893  12.512
 8604SOL     OW25837   0.367  10.410  11.673
 8604SOL    HW125838   0.360  10.493  11.617
 8604SOL    HW225839   0.371  10.330  11.613
 8605SOL     OW25840   0.566   9.847  12.037
 8605SOL    HW125841   0.578   9.913  11.963
 8605SOL    HW225842   0.612   9.881  12.120
 8606SOL     OW25843   1.252  10.658  11.560
 8606SOL    HW125844   1.302  10.735  11.600
 8606SOL    HW225845   1.157  10.660  11.592
 8607SOL     OW25846   1.272  10.755  12.314
 8607SOL    HW125847   1.319  10.768  12.401
 8607SOL    HW225848   1.206  10.681  12.323
 8608SOL     OW25849   1.582   9.949  11.644
 8608SOL    HW125850   1.551  10.010  11.717
 8608SOL    HW225851   1.632  10.001  11.575
 8609SOL     OW25852   0.354  10.820  12.501
 8609SOL    HW125853   0.333  10.776  12.414
 8609SOL    HW225854   0.451  10.846  12.504
 8610SOL     OW25855   0.402  10.061  12.770
 8610SOL    HW125856   0.470  10.116  12.723
 8610SOL    HW225857   0.442   9.973  12.797
 8611SOL     OW25858   1.587  10.089  12.842
 8611SOL    HW125859   1.495  10.127  12.837
 8611SOL    HW225860   1.647  10.136  12.777
 8612SOL     OW25861   0.573  10.180  12.201
 8612SOL    HW125862   0.617  10.269  12.192
 8612SOL    HW225863   0.510  10.180  12.278
 8613SOL     OW25864   1.360  10.172  12.217
 8613SOL    HW125865   1.285  10.172  12.151
 8613SOL    HW225866   1.397  10.080  12.226
 8614SOL     OW25867   1.209   9.835  11.447
 8614SOL    HW125868   1.222   9.751  11.501
 8614SOL    HW225869   1.180   9.909  11.507
 8615SOL     OW25870   0.307   9.523  12.403
 8615SOL    HW125871   0.284   9.560  12.493
 8615SOL    HW225872   0.277   9.428  12.397
 8616SOL     OW25873   0.037  10.620  12.454
 8616SOL    HW125874   0.090  10.571  12.522
 8616SOL    HW225875   0.059  10.718  12.459
 8617SOL     OW25876   0.732   9.944  12.236
 8617SOL    HW125877   0.791   9.918  12.160
 8617SOL    HW225878   0.704  10.040  12.225
 8618SOL     OW25879   0.307   9.373  11.790
 8618SOL    HW125880   0.296   9.467  11.823
 8618SOL    HW225881   0.302   9.310  11.867
 8619SOL     OW25882   1.622   9.677  11.546
 8619SOL    HW125883   1.624   9.601  11.610
 8619SOL    HW225884   1.574   9.754  11.586
 8620SOL     OW25885   1.023  10.076  12.138
 8620SOL    HW125886   1.038  10.097  12.234
 8620SOL    HW225887   0.993   9.981  12.129
 8621SOL     OW25888   0.980  10.883  12.872
 8621SOL    HW125889   0.960  10.927  12.784
 8621SOL    HW225890   1.019  10.792  12.856
 8622SOL     OW25891   1.540   9.584  11.297
 8622SOL    HW125892   1.479   9.509  11.320
 8622SOL    HW225893   1.562   9.636  11.380
 8623SOL     OW25894   1.303  10.148  11.214
 8623SOL    HW125895   1.337  10.055  11.229
 8623SOL    HW225896   1.321  10.175  11.119
 8624SOL     OW25897   1.068  10.643  12.021
 8624SOL    HW125898   1.075  10.559  11.966
 8624SOL    HW225899   1.130  10.712  11.985
 8625SOL     OW25900   0.319  10.120  12.121
 8625SOL    HW125901   0.412  10.156  12.126
 8625SOL    HW225902   0.313  10.035  12.173
 8626SOL     OW25903   0.339   9.819  12.178
 8626SOL    HW125904   0.287   9.736  12.161
 8626SOL    HW225905   0.416   9.824  12.114
 8627SOL     OW25906   1.138   9.690  12.850
 8627SOL    HW125907   1.093   9.753  12.914
 8627SOL    HW225908   1.231   9.721  12.833
 8628SOL     OW25909   1.160   9.517  12.649
 8628SOL    HW125910   1.160   9.581  12.726
 8628SOL    HW225911   1.188   9.565  12.566
 8629SOL     OW25912   0.008  10.636  11.372
 8629SOL    HW125913  -0.085  10.657  11.341
 8629SOL    HW225914   0.018  10.537  11.385
 8630SOL     OW25915   0.088  11.111  12.099
 8630SOL    HW125916   0.046  11.025  12.072
 8630SOL    HW225917   0.182  11.114  12.065
 8631SOL     OW25918   0.504  10.878  12.082
 8631SOL    HW125919   0.570  10.952  12.091
 8631SOL    HW225920   0.548  10.799  12.040
 8632SOL     OW25921   1.002  10.106  12.410
 8632SOL    HW125922   1.043  10.074  12.496
 8632SOL    HW225923   0.906  10.079  12.407
 8633SOL     OW25924   0.040   9.854  12.286
 8633SOL    HW125925   0.125   9.821  12.245
 8633SOL    HW225926   0.053   9.869  12.384
 8634SOL     OW25927   0.815   9.882  11.497
 8634SOL    HW125928   0.822   9.793  11.451
 8634SOL    HW225929   0.721   9.916  11.489
 8635SOL     OW25930   1.657   9.914  12.378
 8635SOL    HW125931   1.619   9.845  12.440
 8635SOL    HW225932   1.739   9.878  12.334
 8636SOL     OW25933   0.671   9.774  12.441
 8636SOL    HW125934   0.637   9.685  12.411
 8636SOL    HW225935   0.697   9.828  12.361
 8637SOL     OW25936   0.930  10.988  12.637
 8637SOL    HW125937   0.906  10.970  12.542
 8637SOL    HW225938   0.960  11.082  12.647
 8638SOL     OW25939   0.473   9.810  11.363
 8638SOL    HW125940   0.534   9.890  11.367
 8638SOL    HW225941   0.378   9.841  11.370
 8639SOL     OW25942   0.159  10.447  12.638
 8639SOL    HW125943   0.181  10.386  12.714
 8639SOL    HW225944   0.169  10.398  12.552
 8640SOL     OW25945   1.347  10.369  12.406
 8640SOL    HW125946   1.371  10.306  12.332
 8640SOL    HW225947   1.257  10.409  12.388
 8641SOL     OW25948   1.302  10.165  11.481
 8641SOL    HW125949   1.216  10.134  11.523
 8641SOL    HW225950   1.298  10.151  11.382
 8642SOL     OW25951   1.759  11.057  12.326
 8642SOL    HW125952   1.820  11.087  12.253
 8642SOL    HW225953   1.721  10.968  12.304
 8643SOL     OW25954   1.252  11.041  12.300
 8643SOL    HW125955   1.336  11.046  12.246
 8643SOL    HW225956   1.229  10.945  12.318
 8644SOL     OW25957   0.083  10.568  12.194
 8644SOL    HW125958   0.078  10.567  12.294
 8644SOL    HW225959   0.000  10.527  12.156
 8645SOL     OW25960   1.726   9.445  11.695
 8645SOL    HW125961   1.799   9.428  11.628
 8645SOL    HW225962   1.695   9.358  11.733
 8646SOL     OW25963   1.388  10.883  11.649
 8646SOL    HW125964   1.455  10.895  11.575
 8646SOL    HW225965   1.348  10.972  11.672
 8647SOL     OW25966   1.280  10.237  11.844
 8647SOL    HW125967   1.340  10.156  11.846
 8647SOL    HW225968   1.320  10.306  11.784
 8648SOL     OW25969   0.672  10.926  11.326
 8648SOL    HW125970   0.681  10.936  11.227
 8648SOL    HW225971   0.632  10.837  11.347
 8649SOL     OW25972   1.650  11.030  12.566
 8649SOL    HW125973   1.703  11.040  12.482
 8649SOL    HW225974   1.623  11.120  12.600
 8650SOL     OW25975   1.841   9.485  12.135
 8650SOL    HW125976   1.880   9.400  12.099
 8650SOL    HW225977   1.743   9.487  12.116
 8651SOL     OW25978   0.263   9.636  11.892
 8651SOL    HW125979   0.184   9.687  11.858
 8651SOL    HW225980   0.254   9.621  11.990
 8652SOL     OW25981   1.194  10.922  11.203
 8652SOL    HW125982   1.200  10.829  11.240
 8652SOL    HW225983   1.135  10.922  11.123
 8653SOL     OW25984   0.822  10.312  12.544
 8653SOL    HW125985   0.862  10.311  12.452
 8653SOL    HW225986   0.832  10.404  12.584
 8654SOL     OW25987   0.916  10.220  11.463
 8654SOL    HW125988   0.979  10.258  11.395
 8654SOL    HW225989   0.956  10.137  11.502
 8655SOL     OW25990   1.504  10.917  11.216
 8655SOL    HW125991   1.412  10.954  11.223
 8655SOL    HW225992   1.542  10.937  11.126
 8656SOL     OW25993   0.372  10.598  12.662
 8656SOL    HW125994   0.359  10.691  12.628
 8656SOL    HW225995   0.288  10.546  12.649
 8657SOL     OW25996   1.614  10.602  12.461
 8657SOL    HW125997   1.674  10.605  12.541
 8657SOL    HW225998   1.539  10.666  12.474
 8658SOL     OW25999   1.039  10.408  11.868
 8658SOL    HW126000   0.969  10.361  11.922
 8658SOL    HW226001   1.098  10.340  11.825
 8659SOL     OW26002   1.014   9.546  12.143
 8659SOL    HW126003   1.006   9.510  12.050
 8659SOL    HW226004   1.012   9.470  12.208
 8660SOL     OW26005   0.590  10.797  11.663
 8660SOL    HW126006   0.632  10.739  11.593
 8660SOL    HW226007   0.546  10.876  11.619
 8661SOL     OW26008   1.709   9.695  12.553
 8661SOL    HW126009   1.782   9.764  12.557
 8661SOL    HW226010   1.737   9.620  12.494
 8662SOL     OW26011   0.255  10.658  11.462
 8662SOL    HW126012   0.159  10.659  11.435
 8662SOL    HW226013   0.267  10.711  11.546
 8663SOL     OW26014   0.075   9.655  11.205
 8663SOL    HW126015  -0.017   9.627  11.176
 8663SOL    HW226016   0.106   9.732  11.149
 8664SOL     OW26017   1.440  10.166  12.570
 8664SOL    HW126018   1.383  10.218  12.507
 8664SOL    HW226019   1.536  10.178  12.546
 8665SOL     OW26020   0.072   9.476  11.490
 8665SOL    HW126021   0.055   9.559  11.436
 8665SOL    HW226022   0.162   9.439  11.468
 8666SOL     OW26023   1.183  10.645  11.291
 8666SOL    HW126024   1.084  10.634  11.293
 8666SOL    HW226025   1.217  10.660  11.384
 8667SOL     OW26026   0.613  10.152  12.603
 8667SOL    HW126027   0.669  10.233  12.586
 8667SOL    HW226028   0.672  10.072  12.606
 8668SOL     OW26029   1.493  11.077  12.131
 8668SOL    HW126030   1.526  11.141  12.062
 8668SOL    HW226031   1.559  11.071  12.206
 8669SOL     OW26032   0.390  11.051  12.732
 8669SOL    HW126033   0.299  11.092  12.730
 8669SOL    HW226034   0.383  10.957  12.764
 8670SOL     OW26035   1.674  10.193  12.426
 8670SOL    HW126036   1.647  10.104  12.389
 8670SOL    HW226037   1.675  10.261  12.353
 8671SOL     OW26038   1.225   9.635  11.621
 8671SOL    HW126039   1.290   9.561  11.610
 8671SOL    HW226040   1.245   9.685  11.705
 8672SOL     OW26041   0.594  10.055  11.824
 8672SOL    HW126042   0.644  10.140  11.805
 8672SOL    HW226043   0.506  10.057  11.776
 8673SOL     OW26044   1.777   9.652  12.814
 8673SOL    HW126045   1.760   9.683  12.720
 8673SOL    HW226046   1.693   9.615  12.852
 8674SOL     OW26047   1.730  10.244  12.689
 8674SOL    HW126048   1.768  10.335  12.704
 8674SOL    HW226049   1.722  10.227  12.590
 8675SOL     OW26050   0.859  10.684  11.188
 8675SOL    HW126051   0.813  10.699  11.276
 8675SOL    HW226052   0.903  10.769  11.158
 8676SOL     OW26053   0.661  11.100  12.125
 8676SOL    HW126054   0.615  11.188  12.112
 8676SOL    HW226055   0.760  11.112  12.118
 8677SOL     OW26056   0.859  10.266  12.033
 8677SOL    HW126057   0.913  10.197  12.081
 8677SOL    HW226058   0.827  10.335  12.099
 8678SOL     OW26059   1.083  10.294  11.259
 8678SOL    HW126060   1.060  10.347  11.177
 8678SOL    HW226061   1.164  10.238  11.240
 8679SOL     OW26062   1.861  10.879  12.023
 8679SOL    HW126063   1.790  10.867  11.953
 8679SOL    HW226064   1.862  10.800  12.083
 8680SOL     OW26065   0.079  10.550  11.825
 8680SOL    HW126066   0.078  10.503  11.913
 8680SOL    HW226067   0.161  10.522  11.774
 8681SOL     OW26068   1.824   9.502  12.399
 8681SOL    HW126069   1.820   9.412  12.443
 8681SOL    HW226070   1.827   9.491  12.300
 8682SOL     OW26071   0.428   9.734  11.692
 8682SOL    HW126072   0.458   9.662  11.630
 8682SOL    HW226073   0.389   9.694  11.775
 8683SOL     OW26074   1.705  10.797  12.276
 8683SOL    HW126075   1.612  10.772  12.249
 8683SOL    HW226076   1.731  10.747  12.358
 8684SOL     OW26077   0.317   9.857  12.452
 8684SOL    HW126078   0.355   9.798  12.524
 8684SOL    HW226079   0.357   9.831  12.364
 8685SOL     OW26080   0.812  10.896  11.859
 8685SOL    HW126081   0.844  10.906  11.765
 8685SOL    HW226082   0.733  10.834  11.861
 8686SOL     OW26083   1.424   9.524  12.284
 8686SOL    HW126084   1.476   9.459  12.339
 8686SOL    HW226085   1.375   9.587  12.345
 8687SOL     OW26086   1.001   9.344  12.326
 8687SOL    HW126087   0.938   9.272  12.295
 8687SOL    HW226088   1.094   9.308  12.326
 8688SOL     OW26089   0.770  10.640  11.473
 8688SOL    HW126090   0.724  10.553  11.490
 8688SOL    HW226091   0.861  10.637  11.514
 8689SOL     OW26092   0.618  10.877  12.456
 8689SOL    HW126093   0.613  10.959  12.513
 8689SOL    HW226094   0.707  10.874  12.411
 8690SOL     OW26095   1.352   9.362  11.340
 8690SOL    HW126096   1.387   9.321  11.256
 8690SOL    HW226097   1.262   9.324  11.360
 8691SOL     OW26098   1.300   9.763  11.863
 8691SOL    HW126099   1.241   9.843  11.867
 8691SOL    HW226100   1.315   9.728  11.956
 8692SOL     OW26101   1.593   9.531  12.054
 8692SOL    HW126102   1.509   9.530  12.108
 8692SOL    HW226103   1.595   9.614  11.998
 8693SOL     OW26104   0.039  10.387  11.472
 8693SOL    HW126105   0.138  10.376  11.463
 8693SOL    HW226106  -0.001  10.301  11.504
 8694SOL     OW26107   0.875  10.956  11.509
 8694SOL    HW126108   0.798  10.921  11.455
 8694SOL    HW226109   0.843  11.027  11.571
 8695SOL     OW26110   0.230  11.800   0.113
 8695SOL    HW126111   0.137  11.798   0.150
 8695SOL    HW226112   0.231  11.761   0.021
 8696SOL     OW26113   0.225  11.447   0.996
 8696SOL    HW126114   0.260  11.430   1.088
 8696SOL    HW226115   0.137  11.402   0.984
 8697SOL     OW26116   0.019  11.540   0.647
 8697SOL    HW126117  -0.063  11.583   0.686
 8697SOL    HW226118  -0.009  11.467   0.584
 8698SOL     OW26119   0.569  12.447   1.165
 8698SOL    HW126120   0.476  12.440   1.128
 8698SOL    HW226121   0.580  12.536   1.209
 8699SOL     OW26122   1.555  12.683   0.703
 8699SOL    HW126123   1.498  12.667   0.784
 8699SOL    HW226124   1.496  12.693   0.623
 8700SOL     OW26125   1.135  11.875   0.717
 8700SOL    HW126126   1.192  11.953   0.692
 8700SOL    HW226127   1.075  11.901   0.793
 8701SOL     OW26128   1.755  11.779   0.231
 8701SOL    HW126129   1.743  11.766   0.132
 8701SOL    HW226130   1.725  11.698   0.280
 8702SOL     OW26131   0.768  12.316   1.023
 8702SOL    HW126132   0.690  12.333   1.083
 8702SOL    HW226133   0.802  12.403   0.987
 8703SOL     OW26134   0.850  11.970   1.823
 8703SOL    HW126135   0.846  12.046   1.888
 8703SOL    HW226136   0.872  12.006   1.732
 8704SOL     OW26137   0.685  12.184   0.665
 8704SOL    HW126138   0.754  12.168   0.735
 8704SOL    HW226139   0.612  12.241   0.703
 8705SOL     OW26140   0.686  12.333   1.803
 8705SOL    HW126141   0.746  12.412   1.817
 8705SOL    HW226142   0.600  12.364   1.762
 8706SOL     OW26143   0.335  12.607   1.061
 8706SOL    HW126144   0.257  12.576   1.008
 8706SOL    HW226145   0.393  12.665   1.004
 8707SOL     OW26146   1.460  12.677   1.339
 8707SOL    HW126147   1.484  12.771   1.365
 8707SOL    HW226148   1.444  12.623   1.421
 8708SOL     OW26149   0.438  11.564   1.499
 8708SOL    HW126150   0.520  11.508   1.508
 8708SOL    HW226151   0.357  11.506   1.503
 8709SOL     OW26152   1.603  11.619   0.737
 8709SOL    HW126153   1.529  11.665   0.687
 8709SOL    HW226154   1.654  11.687   0.790
 8710SOL     OW26155   0.231  12.885   0.483
 8710SOL    HW126156   0.265  12.962   0.537
 8710SOL    HW226157   0.275  12.885   0.393
 8711SOL     OW26158   1.127  12.513   1.690
 8711SOL    HW126159   1.174  12.513   1.778
 8711SOL    HW226160   1.079  12.426   1.679
 8712SOL     OW26161   0.230  12.606   0.538
 8712SOL    HW126162   0.204  12.702   0.538
 8712SOL    HW226163   0.159  12.552   0.583
 8713SOL     OW26164   0.240  12.263   0.886
 8713SOL    HW126165   0.254  12.179   0.938
 8713SOL    HW226166   0.185  12.327   0.941
 8714SOL     OW26167   0.606  12.136   0.123
 8714SOL    HW126168   0.613  12.220   0.069
 8714SOL    HW226169   0.652  12.149   0.211
 8715SOL     OW26170   1.594  11.286   1.480
 8715SOL    HW126171   1.576  11.353   1.408
 8715SOL    HW226172   1.591  11.332   1.569
 8716SOL     OW26173   0.122  11.815   0.563
 8716SOL    HW126174   0.077  11.727   0.580
 8716SOL    HW226175   0.121  11.869   0.647
 8717SOL     OW26176   0.027  12.768   0.117
 8717SOL    HW126177   0.008  12.672   0.138
 8717SOL    HW226178  -0.006  12.826   0.192
 8718SOL     OW26179   1.689  12.094   0.612
 8718SOL    HW126180   1.784  12.065   0.620
 8718SOL    HW226181   1.681  12.159   0.537
 8719SOL     OW26182   1.641  12.280   0.432
 8719SOL    HW126183   1.727  12.282   0.380
 8719SOL    HW226184   1.655  12.327   0.520
 8720SOL     OW26185   0.113  11.909   1.597
 8720SOL    HW126186   0.201  11.896   1.642
 8720SOL    HW226187   0.100  12.006   1.575
 8721SOL     OW26188   0.613  12.537   0.726
 8721SOL    HW126189   0.564  12.450   0.735
 8721SOL    HW226190   0.590  12.580   0.639
 8722SOL     OW26191   1.293  12.400   1.423
 8722SOL    HW126192   1.330  12.327   1.365
 8722SOL    HW226193   1.345  12.405   1.508
 8723SOL     OW26194   0.809  11.176   0.502
 8723SOL    HW126195   0.849  11.267   0.493
 8723SOL    HW226196   0.709  11.184   0.508
 8724SOL     OW26197   0.197  12.148   1.264
 8724SOL    HW126198   0.286  12.103   1.250
 8724SOL    HW226199   0.124  12.083   1.245
 8725SOL     OW26200   1.525  12.171   0.190
 8725SOL    HW126201   1.462  12.095   0.203
 8725SOL    HW226202   1.573  12.189   0.276
 8726SOL     OW26203   0.317  11.423   1.801
 8726SOL    HW126204   0.388  11.494   1.807
 8726SOL    HW226205   0.229  11.462   1.829
 8727SOL     OW26206   1.466  12.589   0.953
 8727SOL    HW126207   1.407  12.595   1.033
 8727SOL    HW226208   1.451  12.501   0.907
 8728SOL     OW26209   0.598  11.901   0.270
 8728SOL    HW126210   0.622  11.970   0.202
 8728SOL    HW226211   0.520  11.934   0.324
 8729SOL     OW26212   1.281  11.517   0.944
 8729SOL    HW126213   1.195  11.467   0.931
 8729SOL    HW226214   1.343  11.463   1.000
 8730SOL     OW26215   0.807  11.777   1.465
 8730SOL    HW126216   0.760  11.774   1.554
 8730SOL    HW226217   0.756  11.722   1.399
 8731SOL     OW26218   1.394  11.641   1.674
 8731SOL    HW126219   1.374  11.684   1.762
 8731SOL    HW226220   1.472  11.579   1.683
 8732SOL     OW26221   0.973  12.062   1.572
 8732SOL    HW126222   1.019  11.978   1.543
 8732SOL    HW226223   0.917  12.096   1.497
 8733SOL     OW26224   0.991  11.582   1.242
 8733SOL    HW126225   0.914  11.616   1.296
 8733SOL    HW226226   0.957  11.531   1.163
 8734SOL     OW26227   1.041  11.873   0.429
 8734SOL    HW126228   1.067  11.869   0.525
 8734SOL    HW226229   0.956  11.822   0.415
 8735SOL     OW26230   0.076  11.983   0.789
 8735SOL    HW126231   0.175  11.971   0.798
 8735SOL    HW226232   0.052  12.078   0.810
 8736SOL     OW26233   0.865  11.520   0.195
 8736SOL    HW126234   0.924  11.583   0.146
 8736SOL    HW226235   0.884  11.426   0.166
 8737SOL     OW26236   1.719  11.757   1.831
 8737SOL    HW126237   1.693  11.846   1.795
 8737SOL    HW226238   1.717  11.689   1.758
 8738SOL     OW26239   1.362  12.316   0.545
 8738SOL    HW126240   1.445  12.287   0.497
 8738SOL    HW226241   1.313  12.383   0.489
 8739SOL     OW26242   0.550  11.368   0.885
 8739SOL    HW126243   0.545  11.363   0.985
 8739SOL    HW226244   0.552  11.464   0.856
 8740SOL     OW26245   1.008  12.628   0.477
 8740SOL    HW126246   0.962  12.700   0.425
 8740SOL    HW226247   1.004  12.648   0.575
 8741SOL     OW26248   1.795  12.238   0.873
 8741SOL    HW126249   1.733  12.223   0.797
 8741SOL    HW226250   1.743  12.249   0.958
 8742SOL     OW26251   1.227  12.722   1.506
 8742SOL    HW126252   1.233  12.645   1.570
 8742SOL    HW226253   1.175  12.696   1.426
 8743SOL     OW26254   0.321  12.115   0.242
 8743SOL    HW126255   0.403  12.154   0.200
 8743SOL    HW226256   0.294  12.033   0.193
 8744SOL     OW26257   1.458  11.907   0.728
 8744SOL    HW126258   1.453  11.842   0.803
 8744SOL    HW226259   1.538  11.966   0.741
 8745SOL     OW26260   0.461  12.438   1.727
 8745SOL    HW126261   0.411  12.439   1.641
 8745SOL    HW226262   0.398  12.420   1.803
 8746SOL     OW26263   1.111  12.948   0.237
 8746SOL    HW126264   1.051  12.886   0.287
 8746SOL    HW226265   1.142  12.904   0.152
 8747SOL     OW26266   0.202  11.457   1.498
 8747SOL    HW126267   0.122  11.517   1.485
 8747SOL    HW226268   0.192  11.408   1.584
 8748SOL     OW26269   1.632  12.549   0.081
 8748SOL    HW126270   1.600  12.643   0.071
 8748SOL    HW226271   1.556  12.486   0.069
 8749SOL     OW26272   1.400  11.279   0.426
 8749SOL    HW126273   1.376  11.242   0.336
 8749SOL    HW226274   1.499  11.295   0.430
 8750SOL     OW26275   0.382  11.872   0.480
 8750SOL    HW126276   0.427  11.782   0.477
 8750SOL    HW226277   0.288  11.861   0.513
 8751SOL     OW26278   1.547  11.394   1.729
 8751SOL    HW126279   1.542  11.431   1.821
 8751SOL    HW226280   1.475  11.325   1.717
 8752SOL     OW26281   0.614  11.294   0.117
 8752SOL    HW126282   0.712  11.272   0.124
 8752SOL    HW226283   0.583  11.277   0.024
 8753SOL     OW26284   0.781  11.436   1.749
 8753SOL    HW126285   0.848  11.375   1.792
 8753SOL    HW226286   0.708  11.455   1.814
 8754SOL     OW26287   1.351  11.762   1.433
 8754SOL    HW126288   1.379  11.719   1.518
 8754SOL    HW226289   1.376  11.858   1.434
 8755SOL     OW26290   0.803  12.574   0.924
 8755SOL    HW126291   0.893  12.588   0.882
 8755SOL    HW226292   0.732  12.576   0.853
 8756SOL     OW26293   0.922  11.675   0.899
 8756SOL    HW126294   0.897  11.666   0.803
 8756SOL    HW226295   0.970  11.593   0.930
 8757SOL     OW26296   0.539  11.236   0.512
 8757SOL    HW126297   0.458  11.237   0.570
 8757SOL    HW226298   0.542  11.319   0.457
 8758SOL     OW26299   1.434  12.360   0.041
 8758SOL    HW126300   1.466  12.284   0.098
 8758SOL    HW226301   1.342  12.387   0.071
 8759SOL     OW26302   0.297  11.207   0.171
 8759SOL    HW126303   0.346  11.291   0.150
 8759SOL    HW226304   0.359  11.142   0.216
 8760SOL     OW26305   0.935  11.408   0.480
 8760SOL    HW126306   0.887  11.449   0.402
 8760SOL    HW226307   1.034  11.406   0.461
 8761SOL     OW26308   1.076  11.855   1.464
 8761SOL    HW126309   0.996  11.794   1.467
 8761SOL    HW226310   1.157  11.802   1.440
 8762SOL     OW26311   1.227  12.742   0.793
 8762SOL    HW126312   1.248  12.816   0.728
 8762SOL    HW226313   1.295  12.742   0.866
 8763SOL     OW26314   0.459  12.324   0.741
 8763SOL    HW126315   0.388  12.297   0.806
 8763SOL    HW226316   0.433  12.296   0.648
 8764SOL     OW26317   1.032  11.721   0.016
 8764SOL    HW126318   0.991  11.803  -0.023
 8764SOL    HW226319   1.096  11.747   0.089
 8765SOL     OW26320   0.078  11.728   1.386
 8765SOL    HW126321   0.170  11.727   1.345
 8765SOL    HW226322   0.072  11.802   1.453
 8766SOL     OW26323   0.561  11.394   1.147
 8766SOL    HW126324   0.599  11.310   1.184
 8766SOL    HW226325   0.473  11.413   1.191
 8767SOL     OW26326   0.866  11.626   0.642
 8767SOL    HW126327   0.834  11.698   0.580
 8767SOL    HW226328   0.890  11.545   0.589
 8768SOL     OW26329   1.017  11.211   0.753
 8768SOL    HW126330   0.945  11.216   0.684
 8768SOL    HW226331   0.993  11.142   0.822
 8769SOL     OW26332   1.429  12.345   0.867
 8769SOL    HW126333   1.374  12.261   0.860
 8769SOL    HW226334   1.455  12.374   0.775
 8770SOL     OW26335   1.466  11.762   0.992
 8770SOL    HW126336   1.436  11.667   0.999
 8770SOL    HW226337   1.539  11.778   1.058
 8771SOL     OW26338   1.857  12.005   0.377
 8771SOL    HW126339   1.899  11.941   0.441
 8771SOL    HW226340   1.819  11.954   0.299
 8772SOL     OW26341   0.488  12.557   0.174
 8772SOL    HW126342   0.401  12.542   0.221
 8772SOL    HW226343   0.471  12.583   0.079
 8773SOL     OW26344   1.664  12.452   0.657
 8773SOL    HW126345   1.763  12.460   0.671
 8773SOL    HW226346   1.619  12.536   0.688
 8774SOL     OW26347   1.390  11.747   0.078
 8774SOL    HW126348   1.336  11.726   0.159
 8774SOL    HW226349   1.481  11.706   0.087
 8775SOL     OW26350   0.527  11.428   0.328
 8775SOL    HW126351   0.554  11.369   0.253
 8775SOL    HW226352   0.527  11.523   0.297
 8776SOL     OW26353   1.754  12.395   1.588
 8776SOL    HW126354   1.845  12.356   1.575
 8776SOL    HW226355   1.762  12.491   1.612
 8777SOL     OW26356   1.064  12.519   1.340
 8777SOL    HW126357   0.984  12.496   1.395
 8777SOL    HW226358   1.147  12.493   1.389
 8778SOL     OW26359   1.111  12.367   1.100
 8778SOL    HW126360   1.071  12.411   1.181
 8778SOL    HW226361   1.070  12.404   1.017
 8779SOL     OW26362   1.638  12.271   1.079
 8779SOL    HW126363   1.643  12.352   1.138
 8779SOL    HW226364   1.552  12.273   1.028
 8780SOL     OW26365   0.915  11.261   1.402
 8780SOL    HW126366   0.940  11.241   1.307
 8780SOL    HW226367   0.987  11.317   1.444
 8781SOL     OW26368   0.980  12.288   1.719
 8781SOL    HW126369   0.881  12.294   1.729
 8781SOL    HW226370   1.003  12.208   1.663
 8782SOL     OW26371   0.705  12.222   0.368
 8782SOL    HW126372   0.691  12.229   0.467
 8782SOL    HW226373   0.789  12.171   0.350
 8783SOL     OW26374   0.410  11.985   1.251
 8783SOL    HW126375   0.496  11.997   1.301
 8783SOL    HW226376   0.368  11.898   1.278
 8784SOL     OW26377   1.274  11.558   1.262
 8784SOL    HW126378   1.295  11.632   1.326
 8784SOL    HW226379   1.185  11.575   1.219
 8785SOL     OW26380   0.064  12.736   1.331
 8785SOL    HW126381   0.018  12.818   1.297
 8785SOL    HW226382   0.162  12.755   1.340
 8786SOL     OW26383   0.367  12.272   0.501
 8786SOL    HW126384   0.360  12.355   0.445
 8786SOL    HW226385   0.371  12.192   0.441
 8787SOL     OW26386   0.566  11.709   0.865
 8787SOL    HW126387   0.578  11.775   0.791
 8787SOL    HW226388   0.612  11.743   0.948
 8788SOL     OW26389   1.252  12.520   0.388
 8788SOL    HW126390   1.302  12.597   0.428
 8788SOL    HW226391   1.157  12.522   0.420
 8789SOL     OW26392   1.272  12.617   1.142
 8789SOL    HW126393   1.319  12.630   1.229
 8789SOL    HW226394   1.206  12.543   1.151
 8790SOL     OW26395   1.582  11.811   0.472
 8790SOL    HW126396   1.551  11.872   0.545
 8790SOL    HW226397   1.632  11.863   0.403
 8791SOL     OW26398   0.354  12.682   1.329
 8791SOL    HW126399   0.333  12.638   1.242
 8791SOL    HW226400   0.451  12.708   1.332
 8792SOL     OW26401   0.402  11.923   1.598
 8792SOL    HW126402   0.470  11.978   1.551
 8792SOL    HW226403   0.442  11.835   1.625
 8793SOL     OW26404   1.587  11.951   1.670
 8793SOL    HW126405   1.495  11.989   1.665
 8793SOL    HW226406   1.647  11.998   1.605
 8794SOL     OW26407   1.013  11.277   1.770
 8794SOL    HW126408   1.019  11.362   1.718
 8794SOL    HW226409   1.045  11.201   1.713
 8795SOL     OW26410   0.504  11.222   1.740
 8795SOL    HW126411   0.462  11.165   1.670
 8795SOL    HW226412   0.438  11.291   1.772
 8796SOL     OW26413   0.573  12.042   1.029
 8796SOL    HW126414   0.617  12.131   1.020
 8796SOL    HW226415   0.510  12.042   1.106
 8797SOL     OW26416   1.360  12.034   1.045
 8797SOL    HW126417   1.285  12.034   0.979
 8797SOL    HW226418   1.397  11.942   1.054
 8798SOL     OW26419   1.209  11.697   0.275
 8798SOL    HW126420   1.222  11.613   0.329
 8798SOL    HW226421   1.180  11.771   0.335
 8799SOL     OW26422   0.307  11.385   1.231
 8799SOL    HW126423   0.284  11.422   1.321
 8799SOL    HW226424   0.277  11.290   1.225
 8800SOL     OW26425   0.037  12.482   1.282
 8800SOL    HW126426   0.090  12.433   1.350
 8800SOL    HW226427   0.059  12.580   1.287
 8801SOL     OW26428   0.732  11.806   1.064
 8801SOL    HW126429   0.791  11.780   0.988
 8801SOL    HW226430   0.704  11.902   1.053
 8802SOL     OW26431   1.728  12.107   1.854
 8802SOL    HW126432   1.682  12.100   1.765
 8802SOL    HW226433   1.666  12.151   1.920
 8803SOL     OW26434   0.307  11.235   0.618
 8803SOL    HW126435   0.296  11.329   0.651
 8803SOL    HW226436   0.302  11.172   0.695
 8804SOL     OW26437   1.622  11.539   0.374
 8804SOL    HW126438   1.624  11.463   0.438
 8804SOL    HW226439   1.574  11.616   0.414
 8805SOL     OW26440   1.023  11.938   0.966
 8805SOL    HW126441   1.038  11.959   1.062
 8805SOL    HW226442   0.993  11.843   0.957
 8806SOL     OW26443   1.859  12.690   1.605
 8806SOL    HW126444   1.873  12.717   1.510
 8806SOL    HW226445   1.942  12.712   1.658
 8807SOL     OW26446   0.350  12.070   1.804
 8807SOL    HW126447   0.426  12.114   1.852
 8807SOL    HW226448   0.385  12.023   1.722
 8808SOL     OW26449   1.540  11.446   0.125
 8808SOL    HW126450   1.479  11.371   0.148
 8808SOL    HW226451   1.562  11.498   0.208
 8809SOL     OW26452   1.303  12.010   0.042
 8809SOL    HW126453   1.337  11.917   0.057
 8809SOL    HW226454   1.321  12.037  -0.053
 8810SOL     OW26455   1.068  12.505   0.849
 8810SOL    HW126456   1.075  12.421   0.794
 8810SOL    HW226457   1.130  12.574   0.813
 8811SOL     OW26458   0.319  11.982   0.949
 8811SOL    HW126459   0.412  12.018   0.954
 8811SOL    HW226460   0.313  11.897   1.001
 8812SOL     OW26461   0.339  11.681   1.006
 8812SOL    HW126462   0.287  11.598   0.989
 8812SOL    HW226463   0.416  11.686   0.942
 8813SOL     OW26464   1.138  11.552   1.678
 8813SOL    HW126465   1.093  11.615   1.742
 8813SOL    HW226466   1.231  11.583   1.661
 8814SOL     OW26467   1.160  11.379   1.477
 8814SOL    HW126468   1.160  11.443   1.554
 8814SOL    HW226469   1.188  11.427   1.394
 8815SOL     OW26470   0.008  12.498   0.200
 8815SOL    HW126471  -0.085  12.519   0.169
 8815SOL    HW226472   0.018  12.399   0.213
 8816SOL     OW26473   1.002  11.968   1.238
 8816SOL    HW126474   1.043  11.936   1.324
 8816SOL    HW226475   0.906  11.941   1.235
 8817SOL     OW26476   0.040  11.716   1.114
 8817SOL    HW126477   0.125  11.683   1.073
 8817SOL    HW226478   0.053  11.731   1.212
 8818SOL     OW26479   0.189  11.692   1.722
 8818SOL    HW126480   0.248  11.652   1.652
 8818SOL    HW226481   0.131  11.763   1.681
 8819SOL     OW26482   1.369  12.122   1.660
 8819SOL    HW126483   1.408  12.211   1.680
 8819SOL    HW226484   1.379  12.102   1.563
 8820SOL     OW26485   0.815  11.744   0.325
 8820SOL    HW126486   0.822  11.655   0.279
 8820SOL    HW226487   0.721  11.778   0.317
 8821SOL     OW26488   1.657  11.776   1.206
 8821SOL    HW126489   1.619  11.707   1.268
 8821SOL    HW226490   1.739  11.740   1.162
 8822SOL     OW26491   0.252  12.736   1.744
 8822SOL    HW126492   0.222  12.793   1.820
 8822SOL    HW226493   0.245  12.639   1.770
 8823SOL     OW26494   0.671  11.636   1.269
 8823SOL    HW126495   0.637  11.547   1.239
 8823SOL    HW226496   0.697  11.690   1.189
 8824SOL     OW26497   0.473  11.672   0.191
 8824SOL    HW126498   0.534  11.752   0.195
 8824SOL    HW226499   0.378  11.703   0.198
 8825SOL     OW26500   0.159  12.309   1.466
 8825SOL    HW126501   0.181  12.248   1.542
 8825SOL    HW226502   0.169  12.260   1.380
 8826SOL     OW26503   1.347  12.231   1.234
 8826SOL    HW126504   1.371  12.168   1.160
 8826SOL    HW226505   1.257  12.271   1.216
 8827SOL     OW26506   1.302  12.027   0.309
 8827SOL    HW126507   1.216  11.996   0.351
 8827SOL    HW226508   1.298  12.013   0.210
 8828SOL     OW26509   0.083  12.430   1.022
 8828SOL    HW126510   0.078  12.429   1.122
 8828SOL    HW226511   0.000  12.389   0.984
 8829SOL     OW26512   0.903  11.258   0.133
 8829SOL    HW126513   0.954  11.259   0.047
 8829SOL    HW226514   0.959  11.216   0.204
 8830SOL     OW26515   1.726  11.307   0.523
 8830SOL    HW126516   1.799  11.290   0.456
 8830SOL    HW226517   1.695  11.220   0.561
 8831SOL     OW26518   1.280  12.099   0.672
 8831SOL    HW126519   1.340  12.018   0.674
 8831SOL    HW226520   1.320  12.168   0.612
 8832SOL     OW26521   0.830  12.445   1.422
 8832SOL    HW126522   0.825  12.478   1.517
 8832SOL    HW226523   0.744  12.464   1.376
 8833SOL     OW26524   1.841  11.347   0.963
 8833SOL    HW126525   1.880  11.262   0.927
 8833SOL    HW226526   1.743  11.349   0.944
 8834SOL     OW26527   0.263  11.498   0.720
 8834SOL    HW126528   0.184  11.549   0.686
 8834SOL    HW226529   0.254  11.483   0.818
 8835SOL     OW26530   1.194  12.784   0.031
 8835SOL    HW126531   1.200  12.691   0.068
 8835SOL    HW226532   1.135  12.784  -0.049
 8836SOL     OW26533   0.822  12.174   1.372
 8836SOL    HW126534   0.862  12.173   1.280
 8836SOL    HW226535   0.832  12.266   1.412
 8837SOL     OW26536   0.916  12.082   0.291
 8837SOL    HW126537   0.979  12.120   0.223
 8837SOL    HW226538   0.956  11.999   0.330
 8838SOL     OW26539   0.372  12.460   1.490
 8838SOL    HW126540   0.359  12.553   1.456
 8838SOL    HW226541   0.288  12.408   1.477
 8839SOL     OW26542   1.614  12.464   1.289
 8839SOL    HW126543   1.674  12.467   1.369
 8839SOL    HW226544   1.539  12.528   1.302
 8840SOL     OW26545   1.039  12.270   0.696
 8840SOL    HW126546   0.969  12.223   0.750
 8840SOL    HW226547   1.098  12.202   0.653
 8841SOL     OW26548   1.014  11.408   0.971
 8841SOL    HW126549   1.006  11.372   0.878
 8841SOL    HW226550   1.012  11.332   1.036
 8842SOL     OW26551   1.709  11.557   1.381
 8842SOL    HW126552   1.782  11.626   1.385
 8842SOL    HW226553   1.737  11.482   1.322
 8843SOL     OW26554   0.255  12.520   0.290
 8843SOL    HW126555   0.159  12.521   0.263
 8843SOL    HW226556   0.267  12.573   0.374
 8844SOL     OW26557   0.105  12.185   1.726
 8844SOL    HW126558   0.028  12.152   1.780
 8844SOL    HW226559   0.190  12.155   1.768
 8845SOL     OW26560   0.672  11.375   1.489
 8845SOL    HW126561   0.762  11.359   1.449
 8845SOL    HW226562   0.680  11.380   1.588
 8846SOL     OW26563   0.075  11.517   0.033
 8846SOL    HW126564  -0.017  11.489   0.004
 8846SOL    HW226565   0.106  11.594  -0.023
 8847SOL     OW26566   1.440  12.028   1.398
 8847SOL    HW126567   1.383  12.080   1.335
 8847SOL    HW226568   1.536  12.040   1.374
 8848SOL     OW26569   0.072  11.338   0.318
 8848SOL    HW126570   0.055  11.421   0.264
 8848SOL    HW226571   0.162  11.301   0.296
 8849SOL     OW26572   1.183  12.507   0.119
 8849SOL    HW126573   1.084  12.496   0.121
 8849SOL    HW226574   1.217  12.522   0.212
 8850SOL     OW26575   0.613  12.014   1.431
 8850SOL    HW126576   0.669  12.095   1.414
 8850SOL    HW226577   0.672  11.934   1.434
 8851SOL     OW26578   0.716  11.737   1.708
 8851SOL    HW126579   0.735  11.802   1.782
 8851SOL    HW226580   0.776  11.657   1.717
 8852SOL     OW26581   1.450  12.392   1.633
 8852SOL    HW126582   1.441  12.382   1.732
 8852SOL    HW226583   1.546  12.385   1.607
 8853SOL     OW26584   1.674  12.055   1.254
 8853SOL    HW126585   1.647  11.966   1.217
 8853SOL    HW226586   1.675  12.123   1.181
 8854SOL     OW26587   1.225  11.497   0.449
 8854SOL    HW126588   1.290  11.423   0.438
 8854SOL    HW226589   1.245  11.547   0.533
 8855SOL     OW26590   0.594  11.917   0.652
 8855SOL    HW126591   0.644  12.002   0.633
 8855SOL    HW226592   0.506  11.919   0.604
 8856SOL     OW26593   1.777  11.514   1.642
 8856SOL    HW126594   1.760  11.545   1.548
 8856SOL    HW226595   1.693  11.477   1.680
 8857SOL     OW26596   1.730  12.106   1.517
 8857SOL    HW126597   1.768  12.197   1.532
 8857SOL    HW226598   1.722  12.089   1.418
 8858SOL     OW26599   0.859  12.546   0.016
 8858SOL    HW126600   0.813  12.561   0.104
 8858SOL    HW226601   0.903  12.631  -0.014
 8859SOL     OW26602   0.859  12.128   0.861
 8859SOL    HW126603   0.913  12.059   0.909
 8859SOL    HW226604   0.827  12.197   0.927
 8860SOL     OW26605   1.083  12.156   0.087
 8860SOL    HW126606   1.060  12.209   0.005
 8860SOL    HW226607   1.164  12.100   0.068
 8861SOL     OW26608   0.221  12.486   1.844
 8861SOL    HW126609   0.156  12.413   1.823
 8861SOL    HW226610   0.225  12.500   1.942
 8862SOL     OW26611   0.079  12.412   0.653
 8862SOL    HW126612   0.078  12.365   0.741
 8862SOL    HW226613   0.161  12.384   0.602
 8863SOL     OW26614   0.672  12.563   1.624
 8863SOL    HW126615   0.594  12.513   1.662
 8863SOL    HW226616   0.669  12.658   1.655
 8864SOL     OW26617   1.824  11.364   1.227
 8864SOL    HW126618   1.820  11.274   1.271
 8864SOL    HW226619   1.827  11.353   1.128
 8865SOL     OW26620   0.428  11.596   0.520
 8865SOL    HW126621   0.458  11.524   0.458
 8865SOL    HW226622   0.389  11.556   0.603
 8866SOL     OW26623   1.705  12.659   1.104
 8866SOL    HW126624   1.612  12.634   1.077
 8866SOL    HW226625   1.731  12.609   1.186
 8867SOL     OW26626   0.317  11.719   1.280
 8867SOL    HW126627   0.355  11.660   1.352
 8867SOL    HW226628   0.357  11.693   1.192
 8868SOL     OW26629   1.424  11.386   1.112
 8868SOL    HW126630   1.476  11.321   1.167
 8868SOL    HW226631   1.375  11.449   1.173
 8869SOL     OW26632   1.001  11.206   1.154
 8869SOL    HW126633   0.938  11.134   1.123
 8869SOL    HW226634   1.094  11.170   1.154
 8870SOL     OW26635   0.770  12.502   0.301
 8870SOL    HW126636   0.724  12.415   0.318
 8870SOL    HW226637   0.861  12.499   0.342
 8871SOL     OW26638   0.618  12.739   1.284
 8871SOL    HW126639   0.613  12.821   1.341
 8871SOL    HW226640   0.707  12.736   1.239
 8872SOL     OW26641   1.352  11.224   0.168
 8872SOL    HW126642   1.387  11.183   0.084
 8872SOL    HW226643   1.262  11.186   0.188
 8873SOL     OW26644   1.300  11.625   0.691
 8873SOL    HW126645   1.241  11.705   0.695
 8873SOL    HW226646   1.315  11.590   0.784
 8874SOL     OW26647   1.593  11.393   0.882
 8874SOL    HW126648   1.509  11.392   0.936
 8874SOL    HW226649   1.595  11.476   0.826
 8875SOL     OW26650   0.039  12.249   0.300
 8875SOL    HW126651   0.138  12.238   0.291
 8875SOL    HW226652  -0.001  12.163   0.332
 8876SOL     OW26653   0.230  11.800   1.975
 8876SOL    HW126654   0.137  11.798   2.012
 8876SOL    HW226655   0.231  11.761   1.883
 8877SOL     OW26656   0.225  11.447   2.858
 8877SOL    HW126657   0.260  11.430   2.950
 8877SOL    HW226658   0.137  11.402   2.846
 8878SOL     OW26659   0.019  11.540   2.509
 8878SOL    HW126660  -0.063  11.583   2.548
 8878SOL    HW226661  -0.009  11.467   2.446
 8879SOL     OW26662   0.569  12.447   3.027
 8879SOL    HW126663   0.476  12.440   2.990
 8879SOL    HW226664   0.580  12.536   3.071
 8880SOL     OW26665   1.555  12.683   2.565
 8880SOL    HW126666   1.498  12.667   2.646
 8880SOL    HW226667   1.496  12.693   2.485
 8881SOL     OW26668   1.135  11.875   2.579
 8881SOL    HW126669   1.192  11.953   2.554
 8881SOL    HW226670   1.075  11.901   2.655
 8882SOL     OW26671   1.755  11.779   2.093
 8882SOL    HW126672   1.743  11.766   1.994
 8882SOL    HW226673   1.725  11.698   2.142
 8883SOL     OW26674   0.768  12.316   2.885
 8883SOL    HW126675   0.690  12.333   2.945
 8883SOL    HW226676   0.802  12.403   2.849
 8884SOL     OW26677   0.850  11.970   3.685
 8884SOL    HW126678   0.846  12.046   3.750
 8884SOL    HW226679   0.872  12.006   3.594
 8885SOL     OW26680   0.685  12.184   2.527
 8885SOL    HW126681   0.754  12.168   2.597
 8885SOL    HW226682   0.612  12.241   2.565
 8886SOL     OW26683   0.686  12.333   3.665
 8886SOL    HW126684   0.746  12.412   3.679
 8886SOL    HW226685   0.600  12.364   3.624
 8887SOL     OW26686   0.335  12.607   2.923
 8887SOL    HW126687   0.257  12.576   2.870
 8887SOL    HW226688   0.393  12.665   2.866
 8888SOL     OW26689   1.460  12.677   3.201
 8888SOL    HW126690   1.484  12.771   3.227
 8888SOL    HW226691   1.444  12.623   3.283
 8889SOL     OW26692   0.438  11.564   3.361
 8889SOL    HW126693   0.520  11.508   3.370
 8889SOL    HW226694   0.357  11.506   3.365
 8890SOL     OW26695   1.603  11.619   2.599
 8890SOL    HW126696   1.529  11.665   2.549
 8890SOL    HW226697   1.654  11.687   2.652
 8891SOL     OW26698   0.231  12.885   2.345
 8891SOL    HW126699   0.265  12.962   2.399
 8891SOL    HW226700   0.275  12.885   2.255
 8892SOL     OW26701   1.127  12.513   3.552
 8892SOL    HW126702   1.174  12.513   3.640
 8892SOL    HW226703   1.079  12.426   3.541
 8893SOL     OW26704   0.230  12.606   2.400
 8893SOL    HW126705   0.204  12.702   2.400
 8893SOL    HW226706   0.159  12.552   2.445
 8894SOL     OW26707   0.240  12.263   2.748
 8894SOL    HW126708   0.254  12.179   2.800
 8894SOL    HW226709   0.185  12.327   2.803
 8895SOL     OW26710   0.606  12.136   1.985
 8895SOL    HW126711   0.613  12.220   1.931
 8895SOL    HW226712   0.652  12.149   2.073
 8896SOL     OW26713   1.594  11.286   3.342
 8896SOL    HW126714   1.576  11.353   3.270
 8896SOL    HW226715   1.591  11.332   3.431
 8897SOL     OW26716   0.122  11.815   2.425
 8897SOL    HW126717   0.077  11.727   2.442
 8897SOL    HW226718   0.121  11.869   2.509
 8898SOL     OW26719   0.027  12.768   1.979
 8898SOL    HW126720   0.008  12.672   2.000
 8898SOL    HW226721  -0.006  12.826   2.054
 8899SOL     OW26722   1.689  12.094   2.474
 8899SOL    HW126723   1.784  12.065   2.482
 8899SOL    HW226724   1.681  12.159   2.399
 8900SOL     OW26725   1.641  12.280   2.294
 8900SOL    HW126726   1.727  12.282   2.242
 8900SOL    HW226727   1.655  12.327   2.382
 8901SOL     OW26728   0.113  11.909   3.459
 8901SOL    HW126729   0.201  11.896   3.504
 8901SOL    HW226730   0.100  12.006   3.437
 8902SOL     OW26731   0.613  12.537   2.588
 8902SOL    HW126732   0.564  12.450   2.597
 8902SOL    HW226733   0.590  12.580   2.501
 8903SOL     OW26734   1.293  12.400   3.285
 8903SOL    HW126735   1.330  12.327   3.227
 8903SOL    HW226736   1.345  12.405   3.370
 8904SOL     OW26737   0.809  11.176   2.364
 8904SOL    HW126738   0.849  11.267   2.355
 8904SOL    HW226739   0.709  11.184   2.370
 8905SOL     OW26740   0.197  12.148   3.126
 8905SOL    HW126741   0.286  12.103   3.112
 8905SOL    HW226742   0.124  12.083   3.107
 8906SOL     OW26743   1.525  12.171   2.052
 8906SOL    HW126744   1.462  12.095   2.065
 8906SOL    HW226745   1.573  12.189   2.138
 8907SOL     OW26746   0.317  11.423   3.663
 8907SOL    HW126747   0.388  11.494   3.669
 8907SOL    HW226748   0.229  11.462   3.691
 8908SOL     OW26749   1.466  12.589   2.815
 8908SOL    HW126750   1.407  12.595   2.895
 8908SOL    HW226751   1.451  12.501   2.769
 8909SOL     OW26752   0.598  11.901   2.132
 8909SOL    HW126753   0.622  11.970   2.064
 8909SOL    HW226754   0.520  11.934   2.186
 8910SOL     OW26755   1.281  11.517   2.806
 8910SOL    HW126756   1.195  11.467   2.793
 8910SOL    HW226757   1.343  11.463   2.862
 8911SOL     OW26758   0.807  11.777   3.327
 8911SOL    HW126759   0.760  11.774   3.416
 8911SOL    HW226760   0.756  11.722   3.261
 8912SOL     OW26761   1.394  11.641   3.536
 8912SOL    HW126762   1.374  11.684   3.624
 8912SOL    HW226763   1.472  11.579   3.545
 8913SOL     OW26764   0.973  12.062   3.434
 8913SOL    HW126765   1.019  11.978   3.405
 8913SOL    HW226766   0.917  12.096   3.359
 8914SOL     OW26767   0.991  11.582   3.104
 8914SOL    HW126768   0.914  11.616   3.158
 8914SOL    HW226769   0.957  11.531   3.025
 8915SOL     OW26770   1.041  11.873   2.291
 8915SOL    HW126771   1.067  11.869   2.387
 8915SOL    HW226772   0.956  11.822   2.277
 8916SOL     OW26773   0.076  11.983   2.651
 8916SOL    HW126774   0.175  11.971   2.660
 8916SOL    HW226775   0.052  12.078   2.672
 8917SOL     OW26776   0.865  11.520   2.057
 8917SOL    HW126777   0.924  11.583   2.008
 8917SOL    HW226778   0.884  11.426   2.028
 8918SOL     OW26779   1.719  11.757   3.693
 8918SOL    HW126780   1.693  11.846   3.657
 8918SOL    HW226781   1.717  11.689   3.620
 8919SOL     OW26782   1.362  12.316   2.407
 8919SOL    HW126783   1.445  12.287   2.359
 8919SOL    HW226784   1.313  12.383   2.351
 8920SOL     OW26785   0.550  11.368   2.747
 8920SOL    HW126786   0.545  11.363   2.847
 8920SOL    HW226787   0.552  11.464   2.718
 8921SOL     OW26788   1.008  12.628   2.339
 8921SOL    HW126789   0.962  12.700   2.287
 8921SOL    HW226790   1.004  12.648   2.437
 8922SOL     OW26791   1.795  12.238   2.735
 8922SOL    HW126792   1.733  12.223   2.659
 8922SOL    HW226793   1.743  12.249   2.820
 8923SOL     OW26794   1.227  12.722   3.368
 8923SOL    HW126795   1.233  12.645   3.432
 8923SOL    HW226796   1.175  12.696   3.288
 8924SOL     OW26797   0.321  12.115   2.104
 8924SOL    HW126798   0.403  12.154   2.062
 8924SOL    HW226799   0.294  12.033   2.055
 8925SOL     OW26800   1.458  11.907   2.590
 8925SOL    HW126801   1.453  11.842   2.665
 8925SOL    HW226802   1.538  11.966   2.603
 8926SOL     OW26803   0.461  12.438   3.589
 8926SOL    HW126804   0.411  12.439   3.503
 8926SOL    HW226805   0.398  12.420   3.665
 8927SOL     OW26806   1.111  12.948   2.099
 8927SOL    HW126807   1.051  12.886   2.149
 8927SOL    HW226808   1.142  12.904   2.014
 8928SOL     OW26809   0.202  11.457   3.360
 8928SOL    HW126810   0.122  11.517   3.347
 8928SOL    HW226811   0.192  11.408   3.446
 8929SOL     OW26812   1.632  12.549   1.943
 8929SOL    HW126813   1.600  12.643   1.933
 8929SOL    HW226814   1.556  12.486   1.931
 8930SOL     OW26815   1.400  11.279   2.288
 8930SOL    HW126816   1.376  11.242   2.198
 8930SOL    HW226817   1.499  11.295   2.292
 8931SOL     OW26818   0.382  11.872   2.342
 8931SOL    HW126819   0.427  11.782   2.339
 8931SOL    HW226820   0.288  11.861   2.375
 8932SOL     OW26821   1.547  11.394   3.591
 8932SOL    HW126822   1.542  11.431   3.683
 8932SOL    HW226823   1.475  11.325   3.579
 8933SOL     OW26824   0.614  11.294   1.979
 8933SOL    HW126825   0.712  11.272   1.986
 8933SOL    HW226826   0.583  11.277   1.886
 8934SOL     OW26827   0.781  11.436   3.611
 8934SOL    HW126828   0.848  11.375   3.654
 8934SOL    HW226829   0.708  11.455   3.676
 8935SOL     OW26830   1.351  11.762   3.295
 8935SOL    HW126831   1.379  11.719   3.380
 8935SOL    HW226832   1.376  11.858   3.296
 8936SOL     OW26833   0.803  12.574   2.786
 8936SOL    HW126834   0.893  12.588   2.744
 8936SOL    HW226835   0.732  12.576   2.715
 8937SOL     OW26836   0.922  11.675   2.761
 8937SOL    HW126837   0.897  11.666   2.665
 8937SOL    HW226838   0.970  11.593   2.792
 8938SOL     OW26839   0.539  11.236   2.374
 8938SOL    HW126840   0.458  11.237   2.432
 8938SOL    HW226841   0.542  11.319   2.319
 8939SOL     OW26842   1.434  12.360   1.903
 8939SOL    HW126843   1.466  12.284   1.960
 8939SOL    HW226844   1.342  12.387   1.933
 8940SOL     OW26845   0.297  11.207   2.033
 8940SOL    HW126846   0.346  11.291   2.012
 8940SOL    HW226847   0.359  11.142   2.078
 8941SOL     OW26848   0.935  11.408   2.342
 8941SOL    HW126849   0.887  11.449   2.264
 8941SOL    HW226850   1.034  11.406   2.323
 8942SOL     OW26851   1.076  11.855   3.326
 8942SOL    HW126852   0.996  11.794   3.329
 8942SOL    HW226853   1.157  11.802   3.302
 8943SOL     OW26854   1.227  12.742   2.655
 8943SOL    HW126855   1.248  12.816   2.590
 8943SOL    HW226856   1.295  12.742   2.728
 8944SOL     OW26857   0.459  12.324   2.603
 8944SOL    HW126858   0.388  12.297   2.668
 8944SOL    HW226859   0.433  12.296   2.510
 8945SOL     OW26860   1.032  11.721   1.878
 8945SOL    HW126861   0.991  11.803   1.839
 8945SOL    HW226862   1.096  11.747   1.951
 8946SOL     OW26863   0.078  11.728   3.248
 8946SOL    HW126864   0.170  11.727   3.207
 8946SOL    HW226865   0.072  11.802   3.315
 8947SOL     OW26866   0.561  11.394   3.009
 8947SOL    HW126867   0.599  11.310   3.046
 8947SOL    HW226868   0.473  11.413   3.053
 8948SOL     OW26869   0.866  11.626   2.504
 8948SOL    HW126870   0.834  11.698   2.442
 8948SOL    HW226871   0.890  11.545   2.451
 8949SOL     OW26872   1.017  11.211   2.615
 8949SOL    HW126873   0.945  11.216   2.546
 8949SOL    HW226874   0.993  11.142   2.684
 8950SOL     OW26875   1.429  12.345   2.729
 8950SOL    HW126876   1.374  12.261   2.722
 8950SOL    HW226877   1.455  12.374   2.637
 8951SOL     OW26878   1.466  11.762   2.854
 8951SOL    HW126879   1.436  11.667   2.861
 8951SOL    HW226880   1.539  11.778   2.920
 8952SOL     OW26881   1.857  12.005   2.239
 8952SOL    HW126882   1.899  11.941   2.303
 8952SOL    HW226883   1.819  11.954   2.161
 8953SOL     OW26884   0.488  12.557   2.036
 8953SOL    HW126885   0.401  12.542   2.083
 8953SOL    HW226886   0.471  12.583   1.941
 8954SOL     OW26887   1.664  12.452   2.519
 8954SOL    HW126888   1.763  12.460   2.533
 8954SOL    HW226889   1.619  12.536   2.550
 8955SOL     OW26890   1.390  11.747   1.940
 8955SOL    HW126891   1.336  11.726   2.021
 8955SOL    HW226892   1.481  11.706   1.949
 8956SOL     OW26893   0.527  11.428   2.190
 8956SOL    HW126894   0.554  11.369   2.115
 8956SOL    HW226895   0.527  11.523   2.159
 8957SOL     OW26896   1.754  12.395   3.450
 8957SOL    HW126897   1.845  12.356   3.437
 8957SOL    HW226898   1.762  12.491   3.474
 8958SOL     OW26899   1.064  12.519   3.202
 8958SOL    HW126900   0.984  12.496   3.257
 8958SOL    HW226901   1.147  12.493   3.251
 8959SOL     OW26902   1.111  12.367   2.962
 8959SOL    HW126903   1.071  12.411   3.043
 8959SOL    HW226904   1.070  12.404   2.879
 8960SOL     OW26905   1.638  12.271   2.941
 8960SOL    HW126906   1.643  12.352   3.000
 8960SOL    HW226907   1.552  12.273   2.890
 8961SOL     OW26908   0.915  11.261   3.264
 8961SOL    HW126909   0.940  11.241   3.169
 8961SOL    HW226910   0.987  11.317   3.306
 8962SOL     OW26911   0.980  12.288   3.581
 8962SOL    HW126912   0.881  12.294   3.591
 8962SOL    HW226913   1.003  12.208   3.525
 8963SOL     OW26914   0.705  12.222   2.230
 8963SOL    HW126915   0.691  12.229   2.329
 8963SOL    HW226916   0.789  12.171   2.212
 8964SOL     OW26917   0.410  11.985   3.113
 8964SOL    HW126918   0.496  11.997   3.163
 8964SOL    HW226919   0.368  11.898   3.140
 8965SOL     OW26920   1.274  11.558   3.124
 8965SOL    HW126921   1.295  11.632   3.188
 8965SOL    HW226922   1.185  11.575   3.081
 8966SOL     OW26923   0.064  12.736   3.193
 8966SOL    HW126924   0.018  12.818   3.159
 8966SOL    HW226925   0.162  12.755   3.202
 8967SOL     OW26926   0.367  12.272   2.363
 8967SOL    HW126927   0.360  12.355   2.307
 8967SOL    HW226928   0.371  12.192   2.303
 8968SOL     OW26929   0.566  11.709   2.727
 8968SOL    HW126930   0.578  11.775   2.653
 8968SOL    HW226931   0.612  11.743   2.810
 8969SOL     OW26932   1.252  12.520   2.250
 8969SOL    HW126933   1.302  12.597   2.290
 8969SOL    HW226934   1.157  12.522   2.282
 8970SOL     OW26935   1.272  12.617   3.004
 8970SOL    HW126936   1.319  12.630   3.091
 8970SOL    HW226937   1.206  12.543   3.013
 8971SOL     OW26938   1.582  11.811   2.334
 8971SOL    HW126939   1.551  11.872   2.407
 8971SOL    HW226940   1.632  11.863   2.265
 8972SOL     OW26941   0.354  12.682   3.191
 8972SOL    HW126942   0.333  12.638   3.104
 8972SOL    HW226943   0.451  12.708   3.194
 8973SOL     OW26944   0.402  11.923   3.460
 8973SOL    HW126945   0.470  11.978   3.413
 8973SOL    HW226946   0.442  11.835   3.487
 8974SOL     OW26947   1.587  11.951   3.532
 8974SOL    HW126948   1.495  11.989   3.527
 8974SOL    HW226949   1.647  11.998   3.467
 8975SOL     OW26950   1.013  11.277   3.632
 8975SOL    HW126951   1.019  11.362   3.580
 8975SOL    HW226952   1.045  11.201   3.575
 8976SOL     OW26953   0.504  11.222   3.602
 8976SOL    HW126954   0.462  11.165   3.532
 8976SOL    HW226955   0.438  11.291   3.634
 8977SOL     OW26956   0.573  12.042   2.891
 8977SOL    HW126957   0.617  12.131   2.882
 8977SOL    HW226958   0.510  12.042   2.968
 8978SOL     OW26959   1.360  12.034   2.907
 8978SOL    HW126960   1.285  12.034   2.841
 8978SOL    HW226961   1.397  11.942   2.916
 8979SOL     OW26962   1.209  11.697   2.137
 8979SOL    HW126963   1.222  11.613   2.191
 8979SOL    HW226964   1.180  11.771   2.197
 8980SOL     OW26965   0.307  11.385   3.093
 8980SOL    HW126966   0.284  11.422   3.183
 8980SOL    HW226967   0.277  11.290   3.087
 8981SOL     OW26968   0.037  12.482   3.144
 8981SOL    HW126969   0.090  12.433   3.212
 8981SOL    HW226970   0.059  12.580   3.149
 8982SOL     OW26971   0.732  11.806   2.926
 8982SOL    HW126972   0.791  11.780   2.850
 8982SOL    HW226973   0.704  11.902   2.915
 8983SOL     OW26974   1.728  12.107   3.716
 8983SOL    HW126975   1.682  12.100   3.627
 8983SOL    HW226976   1.666  12.151   3.782
 8984SOL     OW26977   0.307  11.235   2.480
 8984SOL    HW126978   0.296  11.329   2.513
 8984SOL    HW226979   0.302  11.172   2.557
 8985SOL     OW26980   1.622  11.539   2.236
 8985SOL    HW126981   1.624  11.463   2.300
 8985SOL    HW226982   1.574  11.616   2.276
 8986SOL     OW26983   1.023  11.938   2.828
 8986SOL    HW126984   1.038  11.959   2.924
 8986SOL    HW226985   0.993  11.843   2.819
 8987SOL     OW26986   1.859  12.690   3.467
 8987SOL    HW126987   1.873  12.717   3.372
 8987SOL    HW226988   1.942  12.712   3.520
 8988SOL     OW26989   0.350  12.070   3.666
 8988SOL    HW126990   0.426  12.114   3.714
 8988SOL    HW226991   0.385  12.023   3.584
 8989SOL     OW26992   1.540  11.446   1.987
 8989SOL    HW126993   1.479  11.371   2.010
 8989SOL    HW226994   1.562  11.498   2.070
 8990SOL     OW26995   1.303  12.010   1.904
 8990SOL    HW126996   1.337  11.917   1.919
 8990SOL    HW226997   1.321  12.037   1.809
 8991SOL     OW26998   1.068  12.505   2.711
 8991SOL    HW126999   1.075  12.421   2.656
 8991SOL    HW227000   1.130  12.574   2.675
 8992SOL     OW27001   0.319  11.982   2.811
 8992SOL    HW127002   0.412  12.018   2.816
 8992SOL    HW227003   0.313  11.897   2.863
 8993SOL     OW27004   0.339  11.681   2.868
 8993SOL    HW127005   0.287  11.598   2.851
 8993SOL    HW227006   0.416  11.686   2.804
 8994SOL     OW27007   1.138  11.552   3.540
 8994SOL    HW127008   1.093  11.615   3.604
 8994SOL    HW227009   1.231  11.583   3.523
 8995SOL     OW27010   1.160  11.379   3.339
 8995SOL    HW127011   1.160  11.443   3.416
 8995SOL    HW227012   1.188  11.427   3.256
 8996SOL     OW27013   0.008  12.498   2.062
 8996SOL    HW127014  -0.085  12.519   2.031
 8996SOL    HW227015   0.018  12.399   2.075
 8997SOL     OW27016   1.002  11.968   3.100
 8997SOL    HW127017   1.043  11.936   3.186
 8997SOL    HW227018   0.906  11.941   3.097
 8998SOL     OW27019   0.040  11.716   2.976
 8998SOL    HW127020   0.125  11.683   2.935
 8998SOL    HW227021   0.053  11.731   3.074
 8999SOL     OW27022   0.189  11.692   3.584
 8999SOL    HW127023   0.248  11.652   3.514
 8999SOL    HW227024   0.131  11.763   3.543
 9000SOL     OW27025   1.369  12.122   3.522
 9000SOL    HW127026   1.408  12.211   3.542
 9000SOL    HW227027   1.379  12.102   3.425
 9001SOL     OW27028   0.815  11.744   2.187
 9001SOL    HW127029   0.822  11.655   2.141
 9001SOL    HW227030   0.721  11.778   2.179
 9002SOL     OW27031   1.657  11.776   3.068
 9002SOL    HW127032   1.619  11.707   3.130
 9002SOL    HW227033   1.739  11.740   3.024
 9003SOL     OW27034   0.252  12.736   3.606
 9003SOL    HW127035   0.222  12.793   3.682
 9003SOL    HW227036   0.245  12.639   3.632
 9004SOL     OW27037   0.671  11.636   3.131
 9004SOL    HW127038   0.637  11.547   3.101
 9004SOL    HW227039   0.697  11.690   3.051
 9005SOL     OW27040   0.473  11.672   2.053
 9005SOL    HW127041   0.534  11.752   2.057
 9005SOL    HW227042   0.378  11.703   2.060
 9006SOL     OW27043   0.159  12.309   3.328
 9006SOL    HW127044   0.181  12.248   3.404
 9006SOL    HW227045   0.169  12.260   3.242
 9007SOL     OW27046   1.347  12.231   3.096
 9007SOL    HW127047   1.371  12.168   3.022
 9007SOL    HW227048   1.257  12.271   3.078
 9008SOL     OW27049   1.302  12.027   2.171
 9008SOL    HW127050   1.216  11.996   2.213
 9008SOL    HW227051   1.298  12.013   2.072
 9009SOL     OW27052   0.083  12.430   2.884
 9009SOL    HW127053   0.078  12.429   2.984
 9009SOL    HW227054   0.000  12.389   2.846
 9010SOL     OW27055   1.726  11.307   2.385
 9010SOL    HW127056   1.799  11.290   2.318
 9010SOL    HW227057   1.695  11.220   2.423
 9011SOL     OW27058   1.280  12.099   2.534
 9011SOL    HW127059   1.340  12.018   2.536
 9011SOL    HW227060   1.320  12.168   2.474
 9012SOL     OW27061   0.830  12.445   3.284
 9012SOL    HW127062   0.825  12.478   3.379
 9012SOL    HW227063   0.744  12.464   3.238
 9013SOL     OW27064   1.841  11.347   2.825
 9013SOL    HW127065   1.880  11.262   2.789
 9013SOL    HW227066   1.743  11.349   2.806
 9014SOL     OW27067   0.263  11.498   2.582
 9014SOL    HW127068   0.184  11.549   2.548
 9014SOL    HW227069   0.254  11.483   2.680
 9015SOL     OW27070   0.822  12.174   3.234
 9015SOL    HW127071   0.862  12.173   3.142
 9015SOL    HW227072   0.832  12.266   3.274
 9016SOL     OW27073   0.916  12.082   2.153
 9016SOL    HW127074   0.979  12.120   2.085
 9016SOL    HW227075   0.956  11.999   2.192
 9017SOL     OW27076   0.372  12.460   3.352
 9017SOL    HW127077   0.359  12.553   3.318
 9017SOL    HW227078   0.288  12.408   3.339
 9018SOL     OW27079   1.614  12.464   3.151
 9018SOL    HW127080   1.674  12.467   3.231
 9018SOL    HW227081   1.539  12.528   3.164
 9019SOL     OW27082   1.039  12.270   2.558
 9019SOL    HW127083   0.969  12.223   2.612
 9019SOL    HW227084   1.098  12.202   2.515
 9020SOL     OW27085   1.014  11.408   2.833
 9020SOL    HW127086   1.006  11.372   2.740
 9020SOL    HW227087   1.012  11.332   2.898
 9021SOL     OW27088   1.709  11.557   3.243
 9021SOL    HW127089   1.782  11.626   3.247
 9021SOL    HW227090   1.737  11.482   3.184
 9022SOL     OW27091   0.255  12.520   2.152
 9022SOL    HW127092   0.159  12.521   2.125
 9022SOL    HW227093   0.267  12.573   2.236
 9023SOL     OW27094   0.105  12.185   3.588
 9023SOL    HW127095   0.028  12.152   3.642
 9023SOL    HW227096   0.190  12.155   3.630
 9024SOL     OW27097   0.672  11.375   3.351
 9024SOL    HW127098   0.762  11.359   3.311
 9024SOL    HW227099   0.680  11.380   3.450
 9025SOL     OW27100   0.075  11.517   1.895
 9025SOL    HW127101  -0.017  11.489   1.866
 9025SOL    HW227102   0.106  11.594   1.839
 9026SOL     OW27103   1.440  12.028   3.260
 9026SOL    HW127104   1.383  12.080   3.197
 9026SOL    HW227105   1.536  12.040   3.236
 9027SOL     OW27106   0.072  11.338   2.180
 9027SOL    HW127107   0.055  11.421   2.126
 9027SOL    HW227108   0.162  11.301   2.158
 9028SOL     OW27109   1.183  12.507   1.981
 9028SOL    HW127110   1.084  12.496   1.983
 9028SOL    HW227111   1.217  12.522   2.074
 9029SOL     OW27112   0.613  12.014   3.293
 9029SOL    HW127113   0.669  12.095   3.276
 9029SOL    HW227114   0.672  11.934   3.296
 9030SOL     OW27115   0.716  11.737   3.570
 9030SOL    HW127116   0.735  11.802   3.644
 9030SOL    HW227117   0.776  11.657   3.579
 9031SOL     OW27118   1.450  12.392   3.495
 9031SOL    HW127119   1.441  12.382   3.594
 9031SOL    HW227120   1.546  12.385   3.469
 9032SOL     OW27121   1.674  12.055   3.116
 9032SOL    HW127122   1.647  11.966   3.079
 9032SOL    HW227123   1.675  12.123   3.043
 9033SOL     OW27124   1.225  11.497   2.311
 9033SOL    HW127125   1.290  11.423   2.300
 9033SOL    HW227126   1.245  11.547   2.395
 9034SOL     OW27127   0.594  11.917   2.514
 9034SOL    HW127128   0.644  12.002   2.495
 9034SOL    HW227129   0.506  11.919   2.466
 9035SOL     OW27130   1.777  11.514   3.504
 9035SOL    HW127131   1.760  11.545   3.410
 9035SOL    HW227132   1.693  11.477   3.542
 9036SOL     OW27133   1.730  12.106   3.379
 9036SOL    HW127134   1.768  12.197   3.394
 9036SOL    HW227135   1.722  12.089   3.280
 9037SOL     OW27136   0.859  12.546   1.878
 9037SOL    HW127137   0.813  12.561   1.966
 9037SOL    HW227138   0.903  12.631   1.848
 9038SOL     OW27139   0.859  12.128   2.723
 9038SOL    HW127140   0.913  12.059   2.771
 9038SOL    HW227141   0.827  12.197   2.789
 9039SOL     OW27142   1.083  12.156   1.949
 9039SOL    HW127143   1.060  12.209   1.867
 9039SOL    HW227144   1.164  12.100   1.930
 9040SOL     OW27145   0.221  12.486   3.706
 9040SOL    HW127146   0.156  12.413   3.685
 9040SOL    HW227147   0.225  12.500   3.804
 9041SOL     OW27148   0.079  12.412   2.515
 9041SOL    HW127149   0.078  12.365   2.603
 9041SOL    HW227150   0.161  12.384   2.464
 9042SOL     OW27151   0.672  12.563   3.486
 9042SOL    HW127152   0.594  12.513   3.524
 9042SOL    HW227153   0.669  12.658   3.517
 9043SOL     OW27154   1.824  11.364   3.089
 9043SOL    HW127155   1.820  11.274   3.133
 9043SOL    HW227156   1.827  11.353   2.990
 9044SOL     OW27157   0.428  11.596   2.382
 9044SOL    HW127158   0.458  11.524   2.320
 9044SOL    HW227159   0.389  11.556   2.465
 9045SOL     OW27160   1.705  12.659   2.966
 9045SOL    HW127161   1.612  12.634   2.939
 9045SOL    HW227162   1.731  12.609   3.048
 9046SOL     OW27163   0.317  11.719   3.142
 9046SOL    HW127164   0.355  11.660   3.214
 9046SOL    HW227165   0.357  11.693   3.054
 9047SOL     OW27166   1.424  11.386   2.974
 9047SOL    HW127167   1.476  11.321   3.029
 9047SOL    HW227168   1.375  11.449   3.035
 9048SOL     OW27169   1.001  11.206   3.016
 9048SOL    HW127170   0.938  11.134   2.985
 9048SOL    HW227171   1.094  11.170   3.016
 9049SOL     OW27172   0.770  12.502   2.163
 9049SOL    HW127173   0.724  12.415   2.180
 9049SOL    HW227174   0.861  12.499   2.204
 9050SOL     OW27175   0.618  12.739   3.146
 9050SOL    HW127176   0.613  12.821   3.203
 9050SOL    HW227177   0.707  12.736   3.101
 9051SOL     OW27178   1.352  11.224   2.030
 9051SOL    HW127179   1.387  11.183   1.946
 9051SOL    HW227180   1.262  11.186   2.050
 9052SOL     OW27181   1.300  11.625   2.553
 9052SOL    HW127182   1.241  11.705   2.557
 9052SOL    HW227183   1.315  11.590   2.646
 9053SOL     OW27184   1.593  11.393   2.744
 9053SOL    HW127185   1.509  11.392   2.798
 9053SOL    HW227186   1.595  11.476   2.688
 9054SOL     OW27187   0.039  12.249   2.162
 9054SOL    HW127188   0.138  12.238   2.153
 9054SOL    HW227189  -0.001  12.163   2.194
 9055SOL     OW27190   0.230  11.800   3.837
 9055SOL    HW127191   0.137  11.798   3.874
 9055SOL    HW227192   0.231  11.761   3.745
 9056SOL     OW27193   0.225  11.447   4.720
 9056SOL    HW127194   0.260  11.430   4.812
 9056SOL    HW227195   0.137  11.402   4.708
 9057SOL     OW27196   0.019  11.540   4.371
 9057SOL    HW127197  -0.063  11.583   4.410
 9057SOL    HW227198  -0.009  11.467   4.308
 9058SOL     OW27199   0.569  12.447   4.889
 9058SOL    HW127200   0.476  12.440   4.852
 9058SOL    HW227201   0.580  12.536   4.933
 9059SOL     OW27202   1.555  12.683   4.427
 9059SOL    HW127203   1.498  12.667   4.508
 9059SOL    HW227204   1.496  12.693   4.347
 9060SOL     OW27205   1.135  11.875   4.441
 9060SOL    HW127206   1.192  11.953   4.416
 9060SOL    HW227207   1.075  11.901   4.517
 9061SOL     OW27208   1.755  11.779   3.955
 9061SOL    HW127209   1.743  11.766   3.856
 9061SOL    HW227210   1.725  11.698   4.004
 9062SOL     OW27211   0.768  12.316   4.747
 9062SOL    HW127212   0.690  12.333   4.807
 9062SOL    HW227213   0.802  12.403   4.711
 9063SOL     OW27214   0.850  11.970   5.547
 9063SOL    HW127215   0.846  12.046   5.612
 9063SOL    HW227216   0.872  12.006   5.456
 9064SOL     OW27217   0.685  12.184   4.389
 9064SOL    HW127218   0.754  12.168   4.459
 9064SOL    HW227219   0.612  12.241   4.427
 9065SOL     OW27220   0.686  12.333   5.527
 9065SOL    HW127221   0.746  12.412   5.541
 9065SOL    HW227222   0.600  12.364   5.486
 9066SOL     OW27223   0.335  12.607   4.785
 9066SOL    HW127224   0.257  12.576   4.732
 9066SOL    HW227225   0.393  12.665   4.728
 9067SOL     OW27226   1.460  12.677   5.063
 9067SOL    HW127227   1.484  12.771   5.089
 9067SOL    HW227228   1.444  12.623   5.145
 9068SOL     OW27229   0.438  11.564   5.223
 9068SOL    HW127230   0.520  11.508   5.232
 9068SOL    HW227231   0.357  11.506   5.227
 9069SOL     OW27232   1.603  11.619   4.461
 9069SOL    HW127233   1.529  11.665   4.411
 9069SOL    HW227234   1.654  11.687   4.514
 9070SOL     OW27235   0.231  12.885   4.207
 9070SOL    HW127236   0.265  12.962   4.261
 9070SOL    HW227237   0.275  12.885   4.117
 9071SOL     OW27238   1.127  12.513   5.414
 9071SOL    HW127239   1.174  12.513   5.502
 9071SOL    HW227240   1.079  12.426   5.403
 9072SOL     OW27241   0.230  12.606   4.262
 9072SOL    HW127242   0.204  12.702   4.262
 9072SOL    HW227243   0.159  12.552   4.307
 9073SOL     OW27244   0.240  12.263   4.610
 9073SOL    HW127245   0.254  12.179   4.662
 9073SOL    HW227246   0.185  12.327   4.665
 9074SOL     OW27247   0.606  12.136   3.847
 9074SOL    HW127248   0.613  12.220   3.793
 9074SOL    HW227249   0.652  12.149   3.935
 9075SOL     OW27250   1.594  11.286   5.204
 9075SOL    HW127251   1.576  11.353   5.132
 9075SOL    HW227252   1.591  11.332   5.293
 9076SOL     OW27253   0.122  11.815   4.287
 9076SOL    HW127254   0.077  11.727   4.304
 9076SOL    HW227255   0.121  11.869   4.371
 9077SOL     OW27256   0.027  12.768   3.841
 9077SOL    HW127257   0.008  12.672   3.862
 9077SOL    HW227258  -0.006  12.826   3.916
 9078SOL     OW27259   1.689  12.094   4.336
 9078SOL    HW127260   1.784  12.065   4.344
 9078SOL    HW227261   1.681  12.159   4.261
 9079SOL     OW27262   1.641  12.280   4.156
 9079SOL    HW127263   1.727  12.282   4.104
 9079SOL    HW227264   1.655  12.327   4.244
 9080SOL     OW27265   0.113  11.909   5.321
 9080SOL    HW127266   0.201  11.896   5.366
 9080SOL    HW227267   0.100  12.006   5.299
 9081SOL     OW27268   0.613  12.537   4.450
 9081SOL    HW127269   0.564  12.450   4.459
 9081SOL    HW227270   0.590  12.580   4.363
 9082SOL     OW27271   1.293  12.400   5.147
 9082SOL    HW127272   1.330  12.327   5.089
 9082SOL    HW227273   1.345  12.405   5.232
 9083SOL     OW27274   0.809  11.176   4.226
 9083SOL    HW127275   0.849  11.267   4.217
 9083SOL    HW227276   0.709  11.184   4.232
 9084SOL     OW27277   0.197  12.148   4.988
 9084SOL    HW127278   0.286  12.103   4.974
 9084SOL    HW227279   0.124  12.083   4.969
 9085SOL     OW27280   1.525  12.171   3.914
 9085SOL    HW127281   1.462  12.095   3.927
 9085SOL    HW227282   1.573  12.189   4.000
 9086SOL     OW27283   0.317  11.423   5.525
 9086SOL    HW127284   0.388  11.494   5.531
 9086SOL    HW227285   0.229  11.462   5.553
 9087SOL     OW27286   1.466  12.589   4.677
 9087SOL    HW127287   1.407  12.595   4.757
 9087SOL    HW227288   1.451  12.501   4.631
 9088SOL     OW27289   0.598  11.901   3.994
 9088SOL    HW127290   0.622  11.970   3.926
 9088SOL    HW227291   0.520  11.934   4.048
 9089SOL     OW27292   1.281  11.517   4.668
 9089SOL    HW127293   1.195  11.467   4.655
 9089SOL    HW227294   1.343  11.463   4.724
 9090SOL     OW27295   0.807  11.777   5.189
 9090SOL    HW127296   0.760  11.774   5.278
 9090SOL    HW227297   0.756  11.722   5.123
 9091SOL     OW27298   1.394  11.641   5.398
 9091SOL    HW127299   1.374  11.684   5.486
 9091SOL    HW227300   1.472  11.579   5.407
 9092SOL     OW27301   0.973  12.062   5.296
 9092SOL    HW127302   1.019  11.978   5.267
 9092SOL    HW227303   0.917  12.096   5.221
 9093SOL     OW27304   0.991  11.582   4.966
 9093SOL    HW127305   0.914  11.616   5.020
 9093SOL    HW227306   0.957  11.531   4.887
 9094SOL     OW27307   1.041  11.873   4.153
 9094SOL    HW127308   1.067  11.869   4.249
 9094SOL    HW227309   0.956  11.822   4.139
 9095SOL     OW27310   0.076  11.983   4.513
 9095SOL    HW127311   0.175  11.971   4.522
 9095SOL    HW227312   0.052  12.078   4.534
 9096SOL     OW27313   0.865  11.520   3.919
 9096SOL    HW127314   0.924  11.583   3.870
 9096SOL    HW227315   0.884  11.426   3.890
 9097SOL     OW27316   1.719  11.757   5.555
 9097SOL    HW127317   1.693  11.846   5.519
 9097SOL    HW227318   1.717  11.689   5.482
 9098SOL     OW27319   1.362  12.316   4.269
 9098SOL    HW127320   1.445  12.287   4.221
 9098SOL    HW227321   1.313  12.383   4.213
 9099SOL     OW27322   0.550  11.368   4.609
 9099SOL    HW127323   0.545  11.363   4.709
 9099SOL    HW227324   0.552  11.464   4.580
 9100SOL     OW27325   1.008  12.628   4.201
 9100SOL    HW127326   0.962  12.700   4.149
 9100SOL    HW227327   1.004  12.648   4.299
 9101SOL     OW27328   1.795  12.238   4.597
 9101SOL    HW127329   1.733  12.223   4.521
 9101SOL    HW227330   1.743  12.249   4.682
 9102SOL     OW27331   1.227  12.722   5.230
 9102SOL    HW127332   1.233  12.645   5.294
 9102SOL    HW227333   1.175  12.696   5.150
 9103SOL     OW27334   0.321  12.115   3.966
 9103SOL    HW127335   0.403  12.154   3.924
 9103SOL    HW227336   0.294  12.033   3.917
 9104SOL     OW27337   1.458  11.907   4.452
 9104SOL    HW127338   1.453  11.842   4.527
 9104SOL    HW227339   1.538  11.966   4.465
 9105SOL     OW27340   0.461  12.438   5.451
 9105SOL    HW127341   0.411  12.439   5.365
 9105SOL    HW227342   0.398  12.420   5.527
 9106SOL     OW27343   1.111  12.948   3.961
 9106SOL    HW127344   1.051  12.886   4.011
 9106SOL    HW227345   1.142  12.904   3.876
 9107SOL     OW27346   0.202  11.457   5.222
 9107SOL    HW127347   0.122  11.517   5.209
 9107SOL    HW227348   0.192  11.408   5.308
 9108SOL     OW27349   1.632  12.549   3.805
 9108SOL    HW127350   1.600  12.643   3.795
 9108SOL    HW227351   1.556  12.486   3.793
 9109SOL     OW27352   1.400  11.279   4.150
 9109SOL    HW127353   1.376  11.242   4.060
 9109SOL    HW227354   1.499  11.295   4.154
 9110SOL     OW27355   0.382  11.872   4.204
 9110SOL    HW127356   0.427  11.782   4.201
 9110SOL    HW227357   0.288  11.861   4.237
 9111SOL     OW27358   1.547  11.394   5.453
 9111SOL    HW127359   1.542  11.431   5.545
 9111SOL    HW227360   1.475  11.325   5.441
 9112SOL     OW27361   0.614  11.294   3.841
 9112SOL    HW127362   0.712  11.272   3.848
 9112SOL    HW227363   0.583  11.277   3.748
 9113SOL     OW27364   0.781  11.436   5.473
 9113SOL    HW127365   0.848  11.375   5.516
 9113SOL    HW227366   0.708  11.455   5.538
 9114SOL     OW27367   1.351  11.762   5.157
 9114SOL    HW127368   1.379  11.719   5.242
 9114SOL    HW227369   1.376  11.858   5.158
 9115SOL     OW27370   0.803  12.574   4.648
 9115SOL    HW127371   0.893  12.588   4.606
 9115SOL    HW227372   0.732  12.576   4.577
 9116SOL     OW27373   0.922  11.675   4.623
 9116SOL    HW127374   0.897  11.666   4.527
 9116SOL    HW227375   0.970  11.593   4.654
 9117SOL     OW27376   0.539  11.236   4.236
 9117SOL    HW127377   0.458  11.237   4.294
 9117SOL    HW227378   0.542  11.319   4.181
 9118SOL     OW27379   1.434  12.360   3.765
 9118SOL    HW127380   1.466  12.284   3.822
 9118SOL    HW227381   1.342  12.387   3.795
 9119SOL     OW27382   0.297  11.207   3.895
 9119SOL    HW127383   0.346  11.291   3.874
 9119SOL    HW227384   0.359  11.142   3.940
 9120SOL     OW27385   0.935  11.408   4.204
 9120SOL    HW127386   0.887  11.449   4.126
 9120SOL    HW227387   1.034  11.406   4.185
 9121SOL     OW27388   1.076  11.855   5.188
 9121SOL    HW127389   0.996  11.794   5.191
 9121SOL    HW227390   1.157  11.802   5.164
 9122SOL     OW27391   1.227  12.742   4.517
 9122SOL    HW127392   1.248  12.816   4.452
 9122SOL    HW227393   1.295  12.742   4.590
 9123SOL     OW27394   0.459  12.324   4.465
 9123SOL    HW127395   0.388  12.297   4.530
 9123SOL    HW227396   0.433  12.296   4.372
 9124SOL     OW27397   1.032  11.721   3.740
 9124SOL    HW127398   0.991  11.803   3.701
 9124SOL    HW227399   1.096  11.747   3.813
 9125SOL     OW27400   0.078  11.728   5.110
 9125SOL    HW127401   0.170  11.727   5.069
 9125SOL    HW227402   0.072  11.802   5.177
 9126SOL     OW27403   0.561  11.394   4.871
 9126SOL    HW127404   0.599  11.310   4.908
 9126SOL    HW227405   0.473  11.413   4.915
 9127SOL     OW27406   0.866  11.626   4.366
 9127SOL    HW127407   0.834  11.698   4.304
 9127SOL    HW227408   0.890  11.545   4.313
 9128SOL     OW27409   1.017  11.211   4.477
 9128SOL    HW127410   0.945  11.216   4.408
 9128SOL    HW227411   0.993  11.142   4.546
 9129SOL     OW27412   1.429  12.345   4.591
 9129SOL    HW127413   1.374  12.261   4.584
 9129SOL    HW227414   1.455  12.374   4.499
 9130SOL     OW27415   1.466  11.762   4.716
 9130SOL    HW127416   1.436  11.667   4.723
 9130SOL    HW227417   1.539  11.778   4.782
 9131SOL     OW27418   1.857  12.005   4.101
 9131SOL    HW127419   1.899  11.941   4.165
 9131SOL    HW227420   1.819  11.954   4.023
 9132SOL     OW27421   0.488  12.557   3.898
 9132SOL    HW127422   0.401  12.542   3.945
 9132SOL    HW227423   0.471  12.583   3.803
 9133SOL     OW27424   1.664  12.452   4.381
 9133SOL    HW127425   1.763  12.460   4.395
 9133SOL    HW227426   1.619  12.536   4.412
 9134SOL     OW27427   1.390  11.747   3.802
 9134SOL    HW127428   1.336  11.726   3.883
 9134SOL    HW227429   1.481  11.706   3.811
 9135SOL     OW27430   0.527  11.428   4.052
 9135SOL    HW127431   0.554  11.369   3.977
 9135SOL    HW227432   0.527  11.523   4.021
 9136SOL     OW27433   1.754  12.395   5.312
 9136SOL    HW127434   1.845  12.356   5.299
 9136SOL    HW227435   1.762  12.491   5.336
 9137SOL     OW27436   1.064  12.519   5.064
 9137SOL    HW127437   0.984  12.496   5.119
 9137SOL    HW227438   1.147  12.493   5.113
 9138SOL     OW27439   1.111  12.367   4.824
 9138SOL    HW127440   1.071  12.411   4.905
 9138SOL    HW227441   1.070  12.404   4.741
 9139SOL     OW27442   1.638  12.271   4.803
 9139SOL    HW127443   1.643  12.352   4.862
 9139SOL    HW227444   1.552  12.273   4.752
 9140SOL     OW27445   0.915  11.261   5.126
 9140SOL    HW127446   0.940  11.241   5.031
 9140SOL    HW227447   0.987  11.317   5.168
 9141SOL     OW27448   0.980  12.288   5.443
 9141SOL    HW127449   0.881  12.294   5.453
 9141SOL    HW227450   1.003  12.208   5.387
 9142SOL     OW27451   0.705  12.222   4.092
 9142SOL    HW127452   0.691  12.229   4.191
 9142SOL    HW227453   0.789  12.171   4.074
 9143SOL     OW27454   0.410  11.985   4.975
 9143SOL    HW127455   0.496  11.997   5.025
 9143SOL    HW227456   0.368  11.898   5.002
 9144SOL     OW27457   1.274  11.558   4.986
 9144SOL    HW127458   1.295  11.632   5.050
 9144SOL    HW227459   1.185  11.575   4.943
 9145SOL     OW27460   0.064  12.736   5.055
 9145SOL    HW127461   0.018  12.818   5.021
 9145SOL    HW227462   0.162  12.755   5.064
 9146SOL     OW27463   0.367  12.272   4.225
 9146SOL    HW127464   0.360  12.355   4.169
 9146SOL    HW227465   0.371  12.192   4.165
 9147SOL     OW27466   0.566  11.709   4.589
 9147SOL    HW127467   0.578  11.775   4.515
 9147SOL    HW227468   0.612  11.743   4.672
 9148SOL     OW27469   1.252  12.520   4.112
 9148SOL    HW127470   1.302  12.597   4.152
 9148SOL    HW227471   1.157  12.522   4.144
 9149SOL     OW27472   1.272  12.617   4.866
 9149SOL    HW127473   1.319  12.630   4.953
 9149SOL    HW227474   1.206  12.543   4.875
 9150SOL     OW27475   1.582  11.811   4.196
 9150SOL    HW127476   1.551  11.872   4.269
 9150SOL    HW227477   1.632  11.863   4.127
 9151SOL     OW27478   0.354  12.682   5.053
 9151SOL    HW127479   0.333  12.638   4.966
 9151SOL    HW227480   0.451  12.708   5.056
 9152SOL     OW27481   0.402  11.923   5.322
 9152SOL    HW127482   0.470  11.978   5.275
 9152SOL    HW227483   0.442  11.835   5.349
 9153SOL     OW27484   1.587  11.951   5.394
 9153SOL    HW127485   1.495  11.989   5.389
 9153SOL    HW227486   1.647  11.998   5.329
 9154SOL     OW27487   1.013  11.277   5.494
 9154SOL    HW127488   1.019  11.362   5.442
 9154SOL    HW227489   1.045  11.201   5.437
 9155SOL     OW27490   0.504  11.222   5.464
 9155SOL    HW127491   0.462  11.165   5.394
 9155SOL    HW227492   0.438  11.291   5.496
 9156SOL     OW27493   0.573  12.042   4.753
 9156SOL    HW127494   0.617  12.131   4.744
 9156SOL    HW227495   0.510  12.042   4.830
 9157SOL     OW27496   1.360  12.034   4.769
 9157SOL    HW127497   1.285  12.034   4.703
 9157SOL    HW227498   1.397  11.942   4.778
 9158SOL     OW27499   1.209  11.697   3.999
 9158SOL    HW127500   1.222  11.613   4.053
 9158SOL    HW227501   1.180  11.771   4.059
 9159SOL     OW27502   0.307  11.385   4.955
 9159SOL    HW127503   0.284  11.422   5.045
 9159SOL    HW227504   0.277  11.290   4.949
 9160SOL     OW27505   0.037  12.482   5.006
 9160SOL    HW127506   0.090  12.433   5.074
 9160SOL    HW227507   0.059  12.580   5.011
 9161SOL     OW27508   0.732  11.806   4.788
 9161SOL    HW127509   0.791  11.780   4.712
 9161SOL    HW227510   0.704  11.902   4.777
 9162SOL     OW27511   1.728  12.107   5.578
 9162SOL    HW127512   1.682  12.100   5.489
 9162SOL    HW227513   1.666  12.151   5.644
 9163SOL     OW27514   0.307  11.235   4.342
 9163SOL    HW127515   0.296  11.329   4.375
 9163SOL    HW227516   0.302  11.172   4.419
 9164SOL     OW27517   1.622  11.539   4.098
 9164SOL    HW127518   1.624  11.463   4.162
 9164SOL    HW227519   1.574  11.616   4.138
 9165SOL     OW27520   1.023  11.938   4.690
 9165SOL    HW127521   1.038  11.959   4.786
 9165SOL    HW227522   0.993  11.843   4.681
 9166SOL     OW27523   1.859  12.690   5.329
 9166SOL    HW127524   1.873  12.717   5.234
 9166SOL    HW227525   1.942  12.712   5.382
 9167SOL     OW27526   0.350  12.070   5.528
 9167SOL    HW127527   0.426  12.114   5.576
 9167SOL    HW227528   0.385  12.023   5.446
 9168SOL     OW27529   1.540  11.446   3.849
 9168SOL    HW127530   1.479  11.371   3.872
 9168SOL    HW227531   1.562  11.498   3.932
 9169SOL     OW27532   1.303  12.010   3.766
 9169SOL    HW127533   1.337  11.917   3.781
 9169SOL    HW227534   1.321  12.037   3.671
 9170SOL     OW27535   1.068  12.505   4.573
 9170SOL    HW127536   1.075  12.421   4.518
 9170SOL    HW227537   1.130  12.574   4.537
 9171SOL     OW27538   0.319  11.982   4.673
 9171SOL    HW127539   0.412  12.018   4.678
 9171SOL    HW227540   0.313  11.897   4.725
 9172SOL     OW27541   0.339  11.681   4.730
 9172SOL    HW127542   0.287  11.598   4.713
 9172SOL    HW227543   0.416  11.686   4.666
 9173SOL     OW27544   1.138  11.552   5.402
 9173SOL    HW127545   1.093  11.615   5.466
 9173SOL    HW227546   1.231  11.583   5.385
 9174SOL     OW27547   1.160  11.379   5.201
 9174SOL    HW127548   1.160  11.443   5.278
 9174SOL    HW227549   1.188  11.427   5.118
 9175SOL     OW27550   0.008  12.498   3.924
 9175SOL    HW127551  -0.085  12.519   3.893
 9175SOL    HW227552   0.018  12.399   3.937
 9176SOL     OW27553   1.002  11.968   4.962
 9176SOL    HW127554   1.043  11.936   5.048
 9176SOL    HW227555   0.906  11.941   4.959
 9177SOL     OW27556   0.040  11.716   4.838
 9177SOL    HW127557   0.125  11.683   4.797
 9177SOL    HW227558   0.053  11.731   4.936
 9178SOL     OW27559   0.189  11.692   5.446
 9178SOL    HW127560   0.248  11.652   5.376
 9178SOL    HW227561   0.131  11.763   5.405
 9179SOL     OW27562   1.369  12.122   5.384
 9179SOL    HW127563   1.408  12.211   5.404
 9179SOL    HW227564   1.379  12.102   5.287
 9180SOL     OW27565   0.815  11.744   4.049
 9180SOL    HW127566   0.822  11.655   4.003
 9180SOL    HW227567   0.721  11.778   4.041
 9181SOL     OW27568   1.657  11.776   4.930
 9181SOL    HW127569   1.619  11.707   4.992
 9181SOL    HW227570   1.739  11.740   4.886
 9182SOL     OW27571   0.252  12.736   5.468
 9182SOL    HW127572   0.222  12.793   5.544
 9182SOL    HW227573   0.245  12.639   5.494
 9183SOL     OW27574   0.671  11.636   4.993
 9183SOL    HW127575   0.637  11.547   4.963
 9183SOL    HW227576   0.697  11.690   4.913
 9184SOL     OW27577   0.473  11.672   3.915
 9184SOL    HW127578   0.534  11.752   3.919
 9184SOL    HW227579   0.378  11.703   3.922
 9185SOL     OW27580   0.159  12.309   5.190
 9185SOL    HW127581   0.181  12.248   5.266
 9185SOL    HW227582   0.169  12.260   5.104
 9186SOL     OW27583   1.347  12.231   4.958
 9186SOL    HW127584   1.371  12.168   4.884
 9186SOL    HW227585   1.257  12.271   4.940
 9187SOL     OW27586   1.302  12.027   4.033
 9187SOL    HW127587   1.216  11.996   4.075
 9187SOL    HW227588   1.298  12.013   3.934
 9188SOL     OW27589   0.083  12.430   4.746
 9188SOL    HW127590   0.078  12.429   4.846
 9188SOL    HW227591   0.000  12.389   4.708
 9189SOL     OW27592   1.726  11.307   4.247
 9189SOL    HW127593   1.799  11.290   4.180
 9189SOL    HW227594   1.695  11.220   4.285
 9190SOL     OW27595   1.280  12.099   4.396
 9190SOL    HW127596   1.340  12.018   4.398
 9190SOL    HW227597   1.320  12.168   4.336
 9191SOL     OW27598   0.830  12.445   5.146
 9191SOL    HW127599   0.825  12.478   5.241
 9191SOL    HW227600   0.744  12.464   5.100
 9192SOL     OW27601   1.841  11.347   4.687
 9192SOL    HW127602   1.880  11.262   4.651
 9192SOL    HW227603   1.743  11.349   4.668
 9193SOL     OW27604   0.263  11.498   4.444
 9193SOL    HW127605   0.184  11.549   4.410
 9193SOL    HW227606   0.254  11.483   4.542
 9194SOL     OW27607   0.822  12.174   5.096
 9194SOL    HW127608   0.862  12.173   5.004
 9194SOL    HW227609   0.832  12.266   5.136
 9195SOL     OW27610   0.916  12.082   4.015
 9195SOL    HW127611   0.979  12.120   3.947
 9195SOL    HW227612   0.956  11.999   4.054
 9196SOL     OW27613   0.372  12.460   5.214
 9196SOL    HW127614   0.359  12.553   5.180
 9196SOL    HW227615   0.288  12.408   5.201
 9197SOL     OW27616   1.614  12.464   5.013
 9197SOL    HW127617   1.674  12.467   5.093
 9197SOL    HW227618   1.539  12.528   5.026
 9198SOL     OW27619   1.039  12.270   4.420
 9198SOL    HW127620   0.969  12.223   4.474
 9198SOL    HW227621   1.098  12.202   4.377
 9199SOL     OW27622   1.014  11.408   4.695
 9199SOL    HW127623   1.006  11.372   4.602
 9199SOL    HW227624   1.012  11.332   4.760
 9200SOL     OW27625   1.709  11.557   5.105
 9200SOL    HW127626   1.782  11.626   5.109
 9200SOL    HW227627   1.737  11.482   5.046
 9201SOL     OW27628   0.255  12.520   4.014
 9201SOL    HW127629   0.159  12.521   3.987
 9201SOL    HW227630   0.267  12.573   4.098
 9202SOL     OW27631   0.105  12.185   5.450
 9202SOL    HW127632   0.028  12.152   5.504
 9202SOL    HW227633   0.190  12.155   5.492
 9203SOL     OW27634   0.672  11.375   5.213
 9203SOL    HW127635   0.762  11.359   5.173
 9203SOL    HW227636   0.680  11.380   5.312
 9204SOL     OW27637   0.075  11.517   3.757
 9204SOL    HW127638  -0.017  11.489   3.728
 9204SOL    HW227639   0.106  11.594   3.701
 9205SOL     OW27640   1.440  12.028   5.122
 9205SOL    HW127641   1.383  12.080   5.059
 9205SOL    HW227642   1.536  12.040   5.098
 9206SOL     OW27643   0.072  11.338   4.042
 9206SOL    HW127644   0.055  11.421   3.988
 9206SOL    HW227645   0.162  11.301   4.020
 9207SOL     OW27646   1.183  12.507   3.843
 9207SOL    HW127647   1.084  12.496   3.845
 9207SOL    HW227648   1.217  12.522   3.936
 9208SOL     OW27649   0.613  12.014   5.155
 9208SOL    HW127650   0.669  12.095   5.138
 9208SOL    HW227651   0.672  11.934   5.158
 9209SOL     OW27652   0.716  11.737   5.432
 9209SOL    HW127653   0.735  11.802   5.506
 9209SOL    HW227654   0.776  11.657   5.441
 9210SOL     OW27655   1.450  12.392   5.357
 9210SOL    HW127656   1.441  12.382   5.456
 9210SOL    HW227657   1.546  12.385   5.331
 9211SOL     OW27658   1.674  12.055   4.978
 9211SOL    HW127659   1.647  11.966   4.941
 9211SOL    HW227660   1.675  12.123   4.905
 9212SOL     OW27661   1.225  11.497   4.173
 9212SOL    HW127662   1.290  11.423   4.162
 9212SOL    HW227663   1.245  11.547   4.257
 9213SOL     OW27664   0.594  11.917   4.376
 9213SOL    HW127665   0.644  12.002   4.357
 9213SOL    HW227666   0.506  11.919   4.328
 9214SOL     OW27667   1.777  11.514   5.366
 9214SOL    HW127668   1.760  11.545   5.272
 9214SOL    HW227669   1.693  11.477   5.404
 9215SOL     OW27670   1.730  12.106   5.241
 9215SOL    HW127671   1.768  12.197   5.256
 9215SOL    HW227672   1.722  12.089   5.142
 9216SOL     OW27673   0.859  12.546   3.740
 9216SOL    HW127674   0.813  12.561   3.828
 9216SOL    HW227675   0.903  12.631   3.710
 9217SOL     OW27676   0.859  12.128   4.585
 9217SOL    HW127677   0.913  12.059   4.633
 9217SOL    HW227678   0.827  12.197   4.651
 9218SOL     OW27679   1.083  12.156   3.811
 9218SOL    HW127680   1.060  12.209   3.729
 9218SOL    HW227681   1.164  12.100   3.792
 9219SOL     OW27682   0.221  12.486   5.568
 9219SOL    HW127683   0.156  12.413   5.547
 9219SOL    HW227684   0.225  12.500   5.666
 9220SOL     OW27685   0.079  12.412   4.377
 9220SOL    HW127686   0.078  12.365   4.465
 9220SOL    HW227687   0.161  12.384   4.326
 9221SOL     OW27688   0.672  12.563   5.348
 9221SOL    HW127689   0.594  12.513   5.386
 9221SOL    HW227690   0.669  12.658   5.379
 9222SOL     OW27691   1.824  11.364   4.951
 9222SOL    HW127692   1.820  11.274   4.995
 9222SOL    HW227693   1.827  11.353   4.852
 9223SOL     OW27694   0.428  11.596   4.244
 9223SOL    HW127695   0.458  11.524   4.182
 9223SOL    HW227696   0.389  11.556   4.327
 9224SOL     OW27697   1.705  12.659   4.828
 9224SOL    HW127698   1.612  12.634   4.801
 9224SOL    HW227699   1.731  12.609   4.910
 9225SOL     OW27700   0.317  11.719   5.004
 9225SOL    HW127701   0.355  11.660   5.076
 9225SOL    HW227702   0.357  11.693   4.916
 9226SOL     OW27703   1.424  11.386   4.836
 9226SOL    HW127704   1.476  11.321   4.891
 9226SOL    HW227705   1.375  11.449   4.897
 9227SOL     OW27706   1.001  11.206   4.878
 9227SOL    HW127707   0.938  11.134   4.847
 9227SOL    HW227708   1.094  11.170   4.878
 9228SOL     OW27709   0.770  12.502   4.025
 9228SOL    HW127710   0.724  12.415   4.042
 9228SOL    HW227711   0.861  12.499   4.066
 9229SOL     OW27712   0.618  12.739   5.008
 9229SOL    HW127713   0.613  12.821   5.065
 9229SOL    HW227714   0.707  12.736   4.963
 9230SOL     OW27715   1.352  11.224   3.892
 9230SOL    HW127716   1.387  11.183   3.808
 9230SOL    HW227717   1.262  11.186   3.912
 9231SOL     OW27718   1.300  11.625   4.415
 9231SOL    HW127719   1.241  11.705   4.419
 9231SOL    HW227720   1.315  11.590   4.508
 9232SOL     OW27721   1.593  11.393   4.606
 9232SOL    HW127722   1.509  11.392   4.660
 9232SOL    HW227723   1.595  11.476   4.550
 9233SOL     OW27724   0.039  12.249   4.024
 9233SOL    HW127725   0.138  12.238   4.015
 9233SOL    HW227726  -0.001  12.163   4.056
 9234SOL     OW27727   0.230  11.800   5.699
 9234SOL    HW127728   0.137  11.798   5.736
 9234SOL    HW227729   0.231  11.761   5.607
 9235SOL     OW27730   0.225  11.447   6.582
 9235SOL    HW127731   0.260  11.430   6.674
 9235SOL    HW227732   0.137  11.402   6.570
 9236SOL     OW27733   0.019  11.540   6.233
 9236SOL    HW127734  -0.063  11.583   6.272
 9236SOL    HW227735  -0.009  11.467   6.170
 9237SOL     OW27736   0.569  12.447   6.751
 9237SOL    HW127737   0.476  12.440   6.714
 9237SOL    HW227738   0.580  12.536   6.795
 9238SOL     OW27739   1.555  12.683   6.289
 9238SOL    HW127740   1.498  12.667   6.370
 9238SOL    HW227741   1.496  12.693   6.209
 9239SOL     OW27742   1.135  11.875   6.303
 9239SOL    HW127743   1.192  11.953   6.278
 9239SOL    HW227744   1.075  11.901   6.379
 9240SOL     OW27745   1.755  11.779   5.817
 9240SOL    HW127746   1.743  11.766   5.718
 9240SOL    HW227747   1.725  11.698   5.866
 9241SOL     OW27748   0.768  12.316   6.609
 9241SOL    HW127749   0.690  12.333   6.669
 9241SOL    HW227750   0.802  12.403   6.573
 9242SOL     OW27751   0.850  11.970   7.409
 9242SOL    HW127752   0.846  12.046   7.474
 9242SOL    HW227753   0.872  12.006   7.318
 9243SOL     OW27754   0.685  12.184   6.251
 9243SOL    HW127755   0.754  12.168   6.321
 9243SOL    HW227756   0.612  12.241   6.289
 9244SOL     OW27757   0.686  12.333   7.389
 9244SOL    HW127758   0.746  12.412   7.403
 9244SOL    HW227759   0.600  12.364   7.348
 9245SOL     OW27760   0.335  12.607   6.647
 9245SOL    HW127761   0.257  12.576   6.594
 9245SOL    HW227762   0.393  12.665   6.590
 9246SOL     OW27763   1.460  12.677   6.925
 9246SOL    HW127764   1.484  12.771   6.951
 9246SOL    HW227765   1.444  12.623   7.007
 9247SOL     OW27766   0.438  11.564   7.085
 9247SOL    HW127767   0.520  11.508   7.094
 9247SOL    HW227768   0.357  11.506   7.089
 9248SOL     OW27769   1.603  11.619   6.323
 9248SOL    HW127770   1.529  11.665   6.273
 9248SOL    HW227771   1.654  11.687   6.376
 9249SOL     OW27772   0.231  12.885   6.069
 9249SOL    HW127773   0.265  12.962   6.123
 9249SOL    HW227774   0.275  12.885   5.979
 9250SOL     OW27775   1.127  12.513   7.276
 9250SOL    HW127776   1.174  12.513   7.364
 9250SOL    HW227777   1.079  12.426   7.265
 9251SOL     OW27778   0.230  12.606   6.124
 9251SOL    HW127779   0.204  12.702   6.124
 9251SOL    HW227780   0.159  12.552   6.169
 9252SOL     OW27781   0.240  12.263   6.472
 9252SOL    HW127782   0.254  12.179   6.524
 9252SOL    HW227783   0.185  12.327   6.527
 9253SOL     OW27784   0.606  12.136   5.709
 9253SOL    HW127785   0.613  12.220   5.655
 9253SOL    HW227786   0.652  12.149   5.797
 9254SOL     OW27787   1.594  11.286   7.066
 9254SOL    HW127788   1.576  11.353   6.994
 9254SOL    HW227789   1.591  11.332   7.155
 9255SOL     OW27790   0.122  11.815   6.149
 9255SOL    HW127791   0.077  11.727   6.166
 9255SOL    HW227792   0.121  11.869   6.233
 9256SOL     OW27793   0.027  12.768   5.703
 9256SOL    HW127794   0.008  12.672   5.724
 9256SOL    HW227795  -0.006  12.826   5.778
 9257SOL     OW27796   1.689  12.094   6.198
 9257SOL    HW127797   1.784  12.065   6.206
 9257SOL    HW227798   1.681  12.159   6.123
 9258SOL     OW27799   1.641  12.280   6.018
 9258SOL    HW127800   1.727  12.282   5.966
 9258SOL    HW227801   1.655  12.327   6.106
 9259SOL     OW27802   0.113  11.909   7.183
 9259SOL    HW127803   0.201  11.896   7.228
 9259SOL    HW227804   0.100  12.006   7.161
 9260SOL     OW27805   0.613  12.537   6.312
 9260SOL    HW127806   0.564  12.450   6.321
 9260SOL    HW227807   0.590  12.580   6.225
 9261SOL     OW27808   1.293  12.400   7.009
 9261SOL    HW127809   1.330  12.327   6.951
 9261SOL    HW227810   1.345  12.405   7.094
 9262SOL     OW27811   0.809  11.176   6.088
 9262SOL    HW127812   0.849  11.267   6.079
 9262SOL    HW227813   0.709  11.184   6.094
 9263SOL     OW27814   0.197  12.148   6.850
 9263SOL    HW127815   0.286  12.103   6.836
 9263SOL    HW227816   0.124  12.083   6.831
 9264SOL     OW27817   1.525  12.171   5.776
 9264SOL    HW127818   1.462  12.095   5.789
 9264SOL    HW227819   1.573  12.189   5.862
 9265SOL     OW27820   0.317  11.423   7.387
 9265SOL    HW127821   0.388  11.494   7.393
 9265SOL    HW227822   0.229  11.462   7.415
 9266SOL     OW27823   1.466  12.589   6.539
 9266SOL    HW127824   1.407  12.595   6.619
 9266SOL    HW227825   1.451  12.501   6.493
 9267SOL     OW27826   0.598  11.901   5.856
 9267SOL    HW127827   0.622  11.970   5.788
 9267SOL    HW227828   0.520  11.934   5.910
 9268SOL     OW27829   1.281  11.517   6.530
 9268SOL    HW127830   1.195  11.467   6.517
 9268SOL    HW227831   1.343  11.463   6.586
 9269SOL     OW27832   0.807  11.777   7.051
 9269SOL    HW127833   0.760  11.774   7.140
 9269SOL    HW227834   0.756  11.722   6.985
 9270SOL     OW27835   1.394  11.641   7.260
 9270SOL    HW127836   1.374  11.684   7.348
 9270SOL    HW227837   1.472  11.579   7.269
 9271SOL     OW27838   0.973  12.062   7.158
 9271SOL    HW127839   1.019  11.978   7.129
 9271SOL    HW227840   0.917  12.096   7.083
 9272SOL     OW27841   0.991  11.582   6.828
 9272SOL    HW127842   0.914  11.616   6.882
 9272SOL    HW227843   0.957  11.531   6.749
 9273SOL     OW27844   1.041  11.873   6.015
 9273SOL    HW127845   1.067  11.869   6.111
 9273SOL    HW227846   0.956  11.822   6.001
 9274SOL     OW27847   0.076  11.983   6.375
 9274SOL    HW127848   0.175  11.971   6.384
 9274SOL    HW227849   0.052  12.078   6.396
 9275SOL     OW27850   0.865  11.520   5.781
 9275SOL    HW127851   0.924  11.583   5.732
 9275SOL    HW227852   0.884  11.426   5.752
 9276SOL     OW27853   1.719  11.757   7.417
 9276SOL    HW127854   1.693  11.846   7.381
 9276SOL    HW227855   1.717  11.689   7.344
 9277SOL     OW27856   1.362  12.316   6.131
 9277SOL    HW127857   1.445  12.287   6.083
 9277SOL    HW227858   1.313  12.383   6.075
 9278SOL     OW27859   0.550  11.368   6.471
 9278SOL    HW127860   0.545  11.363   6.571
 9278SOL    HW227861   0.552  11.464   6.442
 9279SOL     OW27862   1.008  12.628   6.063
 9279SOL    HW127863   0.962  12.700   6.011
 9279SOL    HW227864   1.004  12.648   6.161
 9280SOL     OW27865   1.795  12.238   6.459
 9280SOL    HW127866   1.733  12.223   6.383
 9280SOL    HW227867   1.743  12.249   6.544
 9281SOL     OW27868   1.227  12.722   7.092
 9281SOL    HW127869   1.233  12.645   7.156
 9281SOL    HW227870   1.175  12.696   7.012
 9282SOL     OW27871   0.321  12.115   5.828
 9282SOL    HW127872   0.403  12.154   5.786
 9282SOL    HW227873   0.294  12.033   5.779
 9283SOL     OW27874   1.458  11.907   6.314
 9283SOL    HW127875   1.453  11.842   6.389
 9283SOL    HW227876   1.538  11.966   6.327
 9284SOL     OW27877   0.461  12.438   7.313
 9284SOL    HW127878   0.411  12.439   7.227
 9284SOL    HW227879   0.398  12.420   7.389
 9285SOL     OW27880   1.111  12.948   5.823
 9285SOL    HW127881   1.051  12.886   5.873
 9285SOL    HW227882   1.142  12.904   5.738
 9286SOL     OW27883   0.202  11.457   7.084
 9286SOL    HW127884   0.122  11.517   7.071
 9286SOL    HW227885   0.192  11.408   7.170
 9287SOL     OW27886   1.632  12.549   5.667
 9287SOL    HW127887   1.600  12.643   5.657
 9287SOL    HW227888   1.556  12.486   5.655
 9288SOL     OW27889   1.400  11.279   6.012
 9288SOL    HW127890   1.376  11.242   5.922
 9288SOL    HW227891   1.499  11.295   6.016
 9289SOL     OW27892   0.382  11.872   6.066
 9289SOL    HW127893   0.427  11.782   6.063
 9289SOL    HW227894   0.288  11.861   6.099
 9290SOL     OW27895   1.547  11.394   7.315
 9290SOL    HW127896   1.542  11.431   7.407
 9290SOL    HW227897   1.475  11.325   7.303
 9291SOL     OW27898   0.614  11.294   5.703
 9291SOL    HW127899   0.712  11.272   5.710
 9291SOL    HW227900   0.583  11.277   5.610
 9292SOL     OW27901   0.781  11.436   7.335
 9292SOL    HW127902   0.848  11.375   7.378
 9292SOL    HW227903   0.708  11.455   7.400
 9293SOL     OW27904   1.351  11.762   7.019
 9293SOL    HW127905   1.379  11.719   7.104
 9293SOL    HW227906   1.376  11.858   7.020
 9294SOL     OW27907   0.803  12.574   6.510
 9294SOL    HW127908   0.893  12.588   6.468
 9294SOL    HW227909   0.732  12.576   6.439
 9295SOL     OW27910   0.922  11.675   6.485
 9295SOL    HW127911   0.897  11.666   6.389
 9295SOL    HW227912   0.970  11.593   6.516
 9296SOL     OW27913   0.539  11.236   6.098
 9296SOL    HW127914   0.458  11.237   6.156
 9296SOL    HW227915   0.542  11.319   6.043
 9297SOL     OW27916   1.434  12.360   5.627
 9297SOL    HW127917   1.466  12.284   5.684
 9297SOL    HW227918   1.342  12.387   5.657
 9298SOL     OW27919   0.297  11.207   5.757
 9298SOL    HW127920   0.346  11.291   5.736
 9298SOL    HW227921   0.359  11.142   5.802
 9299SOL     OW27922   0.935  11.408   6.066
 9299SOL    HW127923   0.887  11.449   5.988
 9299SOL    HW227924   1.034  11.406   6.047
 9300SOL     OW27925   1.076  11.855   7.050
 9300SOL    HW127926   0.996  11.794   7.053
 9300SOL    HW227927   1.157  11.802   7.026
 9301SOL     OW27928   1.227  12.742   6.379
 9301SOL    HW127929   1.248  12.816   6.314
 9301SOL    HW227930   1.295  12.742   6.452
 9302SOL     OW27931   0.459  12.324   6.327
 9302SOL    HW127932   0.388  12.297   6.392
 9302SOL    HW227933   0.433  12.296   6.234
 9303SOL     OW27934   1.032  11.721   5.602
 9303SOL    HW127935   0.991  11.803   5.563
 9303SOL    HW227936   1.096  11.747   5.675
 9304SOL     OW27937   0.078  11.728   6.972
 9304SOL    HW127938   0.170  11.727   6.931
 9304SOL    HW227939   0.072  11.802   7.039
 9305SOL     OW27940   0.561  11.394   6.733
 9305SOL    HW127941   0.599  11.310   6.770
 9305SOL    HW227942   0.473  11.413   6.777
 9306SOL     OW27943   0.866  11.626   6.228
 9306SOL    HW127944   0.834  11.698   6.166
 9306SOL    HW227945   0.890  11.545   6.175
 9307SOL     OW27946   1.017  11.211   6.339
 9307SOL    HW127947   0.945  11.216   6.270
 9307SOL    HW227948   0.993  11.142   6.408
 9308SOL     OW27949   1.429  12.345   6.453
 9308SOL    HW127950   1.374  12.261   6.446
 9308SOL    HW227951   1.455  12.374   6.361
 9309SOL     OW27952   1.466  11.762   6.578
 9309SOL    HW127953   1.436  11.667   6.585
 9309SOL    HW227954   1.539  11.778   6.644
 9310SOL     OW27955   1.857  12.005   5.963
 9310SOL    HW127956   1.899  11.941   6.027
 9310SOL    HW227957   1.819  11.954   5.885
 9311SOL     OW27958   0.488  12.557   5.760
 9311SOL    HW127959   0.401  12.542   5.807
 9311SOL    HW227960   0.471  12.583   5.665
 9312SOL     OW27961   1.664  12.452   6.243
 9312SOL    HW127962   1.763  12.460   6.257
 9312SOL    HW227963   1.619  12.536   6.274
 9313SOL     OW27964   1.390  11.747   5.664
 9313SOL    HW127965   1.336  11.726   5.745
 9313SOL    HW227966   1.481  11.706   5.673
 9314SOL     OW27967   0.527  11.428   5.914
 9314SOL    HW127968   0.554  11.369   5.839
 9314SOL    HW227969   0.527  11.523   5.883
 9315SOL     OW27970   1.754  12.395   7.174
 9315SOL    HW127971   1.845  12.356   7.161
 9315SOL    HW227972   1.762  12.491   7.198
 9316SOL     OW27973   1.064  12.519   6.926
 9316SOL    HW127974   0.984  12.496   6.981
 9316SOL    HW227975   1.147  12.493   6.975
 9317SOL     OW27976   1.111  12.367   6.686
 9317SOL    HW127977   1.071  12.411   6.767
 9317SOL    HW227978   1.070  12.404   6.603
 9318SOL     OW27979   1.638  12.271   6.665
 9318SOL    HW127980   1.643  12.352   6.724
 9318SOL    HW227981   1.552  12.273   6.614
 9319SOL     OW27982   0.915  11.261   6.988
 9319SOL    HW127983   0.940  11.241   6.893
 9319SOL    HW227984   0.987  11.317   7.030
 9320SOL     OW27985   0.980  12.288   7.305
 9320SOL    HW127986   0.881  12.294   7.315
 9320SOL    HW227987   1.003  12.208   7.249
 9321SOL     OW27988   0.705  12.222   5.954
 9321SOL    HW127989   0.691  12.229   6.053
 9321SOL    HW227990   0.789  12.171   5.936
 9322SOL     OW27991   0.410  11.985   6.837
 9322SOL    HW127992   0.496  11.997   6.887
 9322SOL    HW227993   0.368  11.898   6.864
 9323SOL     OW27994   1.274  11.558   6.848
 9323SOL    HW127995   1.295  11.632   6.912
 9323SOL    HW227996   1.185  11.575   6.805
 9324SOL     OW27997   0.064  12.736   6.917
 9324SOL    HW127998   0.018  12.818   6.883
 9324SOL    HW227999   0.162  12.755   6.926
 9325SOL     OW28000   0.367  12.272   6.087
 9325SOL    HW128001   0.360  12.355   6.031
 9325SOL    HW228002   0.371  12.192   6.027
 9326SOL     OW28003   0.566  11.709   6.451
 9326SOL    HW128004   0.578  11.775   6.377
 9326SOL    HW228005   0.612  11.743   6.534
 9327SOL     OW28006   1.252  12.520   5.974
 9327SOL    HW128007   1.302  12.597   6.014
 9327SOL    HW228008   1.157  12.522   6.006
 9328SOL     OW28009   1.272  12.617   6.728
 9328SOL    HW128010   1.319  12.630   6.815
 9328SOL    HW228011   1.206  12.543   6.737
 9329SOL     OW28012   1.582  11.811   6.058
 9329SOL    HW128013   1.551  11.872   6.131
 9329SOL    HW228014   1.632  11.863   5.989
 9330SOL     OW28015   0.354  12.682   6.915
 9330SOL    HW128016   0.333  12.638   6.828
 9330SOL    HW228017   0.451  12.708   6.918
 9331SOL     OW28018   0.402  11.923   7.184
 9331SOL    HW128019   0.470  11.978   7.137
 9331SOL    HW228020   0.442  11.835   7.211
 9332SOL     OW28021   1.587  11.951   7.256
 9332SOL    HW128022   1.495  11.989   7.251
 9332SOL    HW228023   1.647  11.998   7.191
 9333SOL     OW28024   1.013  11.277   7.356
 9333SOL    HW128025   1.019  11.362   7.304
 9333SOL    HW228026   1.045  11.201   7.299
 9334SOL     OW28027   0.504  11.222   7.326
 9334SOL    HW128028   0.462  11.165   7.256
 9334SOL    HW228029   0.438  11.291   7.358
 9335SOL     OW28030   0.573  12.042   6.615
 9335SOL    HW128031   0.617  12.131   6.606
 9335SOL    HW228032   0.510  12.042   6.692
 9336SOL     OW28033   1.360  12.034   6.631
 9336SOL    HW128034   1.285  12.034   6.565
 9336SOL    HW228035   1.397  11.942   6.640
 9337SOL     OW28036   1.209  11.697   5.861
 9337SOL    HW128037   1.222  11.613   5.915
 9337SOL    HW228038   1.180  11.771   5.921
 9338SOL     OW28039   0.307  11.385   6.817
 9338SOL    HW128040   0.284  11.422   6.907
 9338SOL    HW228041   0.277  11.290   6.811
 9339SOL     OW28042   0.037  12.482   6.868
 9339SOL    HW128043   0.090  12.433   6.936
 9339SOL    HW228044   0.059  12.580   6.873
 9340SOL     OW28045   0.732  11.806   6.650
 9340SOL    HW128046   0.791  11.780   6.574
 9340SOL    HW228047   0.704  11.902   6.639
 9341SOL     OW28048   1.728  12.107   7.440
 9341SOL    HW128049   1.682  12.100   7.351
 9341SOL    HW228050   1.666  12.151   7.506
 9342SOL     OW28051   0.307  11.235   6.204
 9342SOL    HW128052   0.296  11.329   6.237
 9342SOL    HW228053   0.302  11.172   6.281
 9343SOL     OW28054   1.622  11.539   5.960
 9343SOL    HW128055   1.624  11.463   6.024
 9343SOL    HW228056   1.574  11.616   6.000
 9344SOL     OW28057   1.023  11.938   6.552
 9344SOL    HW128058   1.038  11.959   6.648
 9344SOL    HW228059   0.993  11.843   6.543
 9345SOL     OW28060   1.859  12.690   7.191
 9345SOL    HW128061   1.873  12.717   7.096
 9345SOL    HW228062   1.942  12.712   7.244
 9346SOL     OW28063   0.350  12.070   7.390
 9346SOL    HW128064   0.426  12.114   7.438
 9346SOL    HW228065   0.385  12.023   7.308
 9347SOL     OW28066   1.540  11.446   5.711
 9347SOL    HW128067   1.479  11.371   5.734
 9347SOL    HW228068   1.562  11.498   5.794
 9348SOL     OW28069   1.303  12.010   5.628
 9348SOL    HW128070   1.337  11.917   5.643
 9348SOL    HW228071   1.321  12.037   5.533
 9349SOL     OW28072   1.068  12.505   6.435
 9349SOL    HW128073   1.075  12.421   6.380
 9349SOL    HW228074   1.130  12.574   6.399
 9350SOL     OW28075   0.319  11.982   6.535
 9350SOL    HW128076   0.412  12.018   6.540
 9350SOL    HW228077   0.313  11.897   6.587
 9351SOL     OW28078   0.339  11.681   6.592
 9351SOL    HW128079   0.287  11.598   6.575
 9351SOL    HW228080   0.416  11.686   6.528
 9352SOL     OW28081   1.138  11.552   7.264
 9352SOL    HW128082   1.093  11.615   7.328
 9352SOL    HW228083   1.231  11.583   7.247
 9353SOL     OW28084   1.160  11.379   7.063
 9353SOL    HW128085   1.160  11.443   7.140
 9353SOL    HW228086   1.188  11.427   6.980
 9354SOL     OW28087   0.008  12.498   5.786
 9354SOL    HW128088  -0.085  12.519   5.755
 9354SOL    HW228089   0.018  12.399   5.799
 9355SOL     OW28090   1.002  11.968   6.824
 9355SOL    HW128091   1.043  11.936   6.910
 9355SOL    HW228092   0.906  11.941   6.821
 9356SOL     OW28093   0.040  11.716   6.700
 9356SOL    HW128094   0.125  11.683   6.659
 9356SOL    HW228095   0.053  11.731   6.798
 9357SOL     OW28096   0.189  11.692   7.308
 9357SOL    HW128097   0.248  11.652   7.238
 9357SOL    HW228098   0.131  11.763   7.267
 9358SOL     OW28099   1.369  12.122   7.246
 9358SOL    HW128100   1.408  12.211   7.266
 9358SOL    HW228101   1.379  12.102   7.149
 9359SOL     OW28102   0.815  11.744   5.911
 9359SOL    HW128103   0.822  11.655   5.865
 9359SOL    HW228104   0.721  11.778   5.903
 9360SOL     OW28105   1.657  11.776   6.792
 9360SOL    HW128106   1.619  11.707   6.854
 9360SOL    HW228107   1.739  11.740   6.748
 9361SOL     OW28108   0.252  12.736   7.330
 9361SOL    HW128109   0.222  12.793   7.406
 9361SOL    HW228110   0.245  12.639   7.356
 9362SOL     OW28111   0.671  11.636   6.855
 9362SOL    HW128112   0.637  11.547   6.825
 9362SOL    HW228113   0.697  11.690   6.775
 9363SOL     OW28114   0.473  11.672   5.777
 9363SOL    HW128115   0.534  11.752   5.781
 9363SOL    HW228116   0.378  11.703   5.784
 9364SOL     OW28117   0.159  12.309   7.052
 9364SOL    HW128118   0.181  12.248   7.128
 9364SOL    HW228119   0.169  12.260   6.966
 9365SOL     OW28120   1.347  12.231   6.820
 9365SOL    HW128121   1.371  12.168   6.746
 9365SOL    HW228122   1.257  12.271   6.802
 9366SOL     OW28123   1.302  12.027   5.895
 9366SOL    HW128124   1.216  11.996   5.937
 9366SOL    HW228125   1.298  12.013   5.796
 9367SOL     OW28126   0.083  12.430   6.608
 9367SOL    HW128127   0.078  12.429   6.708
 9367SOL    HW228128   0.000  12.389   6.570
 9368SOL     OW28129   1.726  11.307   6.109
 9368SOL    HW128130   1.799  11.290   6.042
 9368SOL    HW228131   1.695  11.220   6.147
 9369SOL     OW28132   1.280  12.099   6.258
 9369SOL    HW128133   1.340  12.018   6.260
 9369SOL    HW228134   1.320  12.168   6.198
 9370SOL     OW28135   0.830  12.445   7.008
 9370SOL    HW128136   0.825  12.478   7.103
 9370SOL    HW228137   0.744  12.464   6.962
 9371SOL     OW28138   1.841  11.347   6.549
 9371SOL    HW128139   1.880  11.262   6.513
 9371SOL    HW228140   1.743  11.349   6.530
 9372SOL     OW28141   0.263  11.498   6.306
 9372SOL    HW128142   0.184  11.549   6.272
 9372SOL    HW228143   0.254  11.483   6.404
 9373SOL     OW28144   0.822  12.174   6.958
 9373SOL    HW128145   0.862  12.173   6.866
 9373SOL    HW228146   0.832  12.266   6.998
 9374SOL     OW28147   0.916  12.082   5.877
 9374SOL    HW128148   0.979  12.120   5.809
 9374SOL    HW228149   0.956  11.999   5.916
 9375SOL     OW28150   0.372  12.460   7.076
 9375SOL    HW128151   0.359  12.553   7.042
 9375SOL    HW228152   0.288  12.408   7.063
 9376SOL     OW28153   1.614  12.464   6.875
 9376SOL    HW128154   1.674  12.467   6.955
 9376SOL    HW228155   1.539  12.528   6.888
 9377SOL     OW28156   1.039  12.270   6.282
 9377SOL    HW128157   0.969  12.223   6.336
 9377SOL    HW228158   1.098  12.202   6.239
 9378SOL     OW28159   1.014  11.408   6.557
 9378SOL    HW128160   1.006  11.372   6.464
 9378SOL    HW228161   1.012  11.332   6.622
 9379SOL     OW28162   1.709  11.557   6.967
 9379SOL    HW128163   1.782  11.626   6.971
 9379SOL    HW228164   1.737  11.482   6.908
 9380SOL     OW28165   0.255  12.520   5.876
 9380SOL    HW128166   0.159  12.521   5.849
 9380SOL    HW228167   0.267  12.573   5.960
 9381SOL     OW28168   0.105  12.185   7.312
 9381SOL    HW128169   0.028  12.152   7.366
 9381SOL    HW228170   0.190  12.155   7.354
 9382SOL     OW28171   0.672  11.375   7.075
 9382SOL    HW128172   0.762  11.359   7.035
 9382SOL    HW228173   0.680  11.380   7.174
 9383SOL     OW28174   0.075  11.517   5.619
 9383SOL    HW128175  -0.017  11.489   5.590
 9383SOL    HW228176   0.106  11.594   5.563
 9384SOL     OW28177   1.440  12.028   6.984
 9384SOL    HW128178   1.383  12.080   6.921
 9384SOL    HW228179   1.536  12.040   6.960
 9385SOL     OW28180   0.072  11.338   5.904
 9385SOL    HW128181   0.055  11.421   5.850
 9385SOL    HW228182   0.162  11.301   5.882
 9386SOL     OW28183   1.183  12.507   5.705
 9386SOL    HW128184   1.084  12.496   5.707
 9386SOL    HW228185   1.217  12.522   5.798
 9387SOL     OW28186   0.613  12.014   7.017
 9387SOL    HW128187   0.669  12.095   7.000
 9387SOL    HW228188   0.672  11.934   7.020
 9388SOL     OW28189   0.716  11.737   7.294
 9388SOL    HW128190   0.735  11.802   7.368
 9388SOL    HW228191   0.776  11.657   7.303
 9389SOL     OW28192   1.450  12.392   7.219
 9389SOL    HW128193   1.441  12.382   7.318
 9389SOL    HW228194   1.546  12.385   7.193
 9390SOL     OW28195   1.674  12.055   6.840
 9390SOL    HW128196   1.647  11.966   6.803
 9390SOL    HW228197   1.675  12.123   6.767
 9391SOL     OW28198   1.225  11.497   6.035
 9391SOL    HW128199   1.290  11.423   6.024
 9391SOL    HW228200   1.245  11.547   6.119
 9392SOL     OW28201   0.594  11.917   6.238
 9392SOL    HW128202   0.644  12.002   6.219
 9392SOL    HW228203   0.506  11.919   6.190
 9393SOL     OW28204   1.777  11.514   7.228
 9393SOL    HW128205   1.760  11.545   7.134
 9393SOL    HW228206   1.693  11.477   7.266
 9394SOL     OW28207   1.730  12.106   7.103
 9394SOL    HW128208   1.768  12.197   7.118
 9394SOL    HW228209   1.722  12.089   7.004
 9395SOL     OW28210   0.859  12.546   5.602
 9395SOL    HW128211   0.813  12.561   5.690
 9395SOL    HW228212   0.903  12.631   5.572
 9396SOL     OW28213   0.859  12.128   6.447
 9396SOL    HW128214   0.913  12.059   6.495
 9396SOL    HW228215   0.827  12.197   6.513
 9397SOL     OW28216   1.083  12.156   5.673
 9397SOL    HW128217   1.060  12.209   5.591
 9397SOL    HW228218   1.164  12.100   5.654
 9398SOL     OW28219   0.221  12.486   7.430
 9398SOL    HW128220   0.156  12.413   7.409
 9398SOL    HW228221   0.225  12.500   7.528
 9399SOL     OW28222   0.079  12.412   6.239
 9399SOL    HW128223   0.078  12.365   6.327
 9399SOL    HW228224   0.161  12.384   6.188
 9400SOL     OW28225   0.672  12.563   7.210
 9400SOL    HW128226   0.594  12.513   7.248
 9400SOL    HW228227   0.669  12.658   7.241
 9401SOL     OW28228   1.824  11.364   6.813
 9401SOL    HW128229   1.820  11.274   6.857
 9401SOL    HW228230   1.827  11.353   6.714
 9402SOL     OW28231   0.428  11.596   6.106
 9402SOL    HW128232   0.458  11.524   6.044
 9402SOL    HW228233   0.389  11.556   6.189
 9403SOL     OW28234   1.705  12.659   6.690
 9403SOL    HW128235   1.612  12.634   6.663
 9403SOL    HW228236   1.731  12.609   6.772
 9404SOL     OW28237   0.317  11.719   6.866
 9404SOL    HW128238   0.355  11.660   6.938
 9404SOL    HW228239   0.357  11.693   6.778
 9405SOL     OW28240   1.424  11.386   6.698
 9405SOL    HW128241   1.476  11.321   6.753
 9405SOL    HW228242   1.375  11.449   6.759
 9406SOL     OW28243   1.001  11.206   6.740
 9406SOL    HW128244   0.938  11.134   6.709
 9406SOL    HW228245   1.094  11.170   6.740
 9407SOL     OW28246   0.770  12.502   5.887
 9407SOL    HW128247   0.724  12.415   5.904
 9407SOL    HW228248   0.861  12.499   5.928
 9408SOL     OW28249   0.618  12.739   6.870
 9408SOL    HW128250   0.613  12.821   6.927
 9408SOL    HW228251   0.707  12.736   6.825
 9409SOL     OW28252   1.352  11.224   5.754
 9409SOL    HW128253   1.387  11.183   5.670
 9409SOL    HW228254   1.262  11.186   5.774
 9410SOL     OW28255   1.300  11.625   6.277
 9410SOL    HW128256   1.241  11.705   6.281
 9410SOL    HW228257   1.315  11.590   6.370
 9411SOL     OW28258   1.593  11.393   6.468
 9411SOL    HW128259   1.509  11.392   6.522
 9411SOL    HW228260   1.595  11.476   6.412
 9412SOL     OW28261   0.039  12.249   5.886
 9412SOL    HW128262   0.138  12.238   5.877
 9412SOL    HW228263  -0.001  12.163   5.918
 9413SOL     OW28264   0.230  11.800   7.561
 9413SOL    HW128265   0.137  11.798   7.598
 9413SOL    HW228266   0.231  11.761   7.469
 9414SOL     OW28267   0.225  11.447   8.444
 9414SOL    HW128268   0.260  11.430   8.536
 9414SOL    HW228269   0.137  11.402   8.432
 9415SOL     OW28270   0.019  11.540   8.095
 9415SOL    HW128271  -0.063  11.583   8.134
 9415SOL    HW228272  -0.009  11.467   8.032
 9416SOL     OW28273   0.569  12.447   8.613
 9416SOL    HW128274   0.476  12.440   8.576
 9416SOL    HW228275   0.580  12.536   8.657
 9417SOL     OW28276   1.555  12.683   8.151
 9417SOL    HW128277   1.498  12.667   8.232
 9417SOL    HW228278   1.496  12.693   8.071
 9418SOL     OW28279   1.135  11.875   8.165
 9418SOL    HW128280   1.192  11.953   8.140
 9418SOL    HW228281   1.075  11.901   8.241
 9419SOL     OW28282   1.755  11.779   7.679
 9419SOL    HW128283   1.743  11.766   7.580
 9419SOL    HW228284   1.725  11.698   7.728
 9420SOL     OW28285   0.768  12.316   8.471
 9420SOL    HW128286   0.690  12.333   8.531
 9420SOL    HW228287   0.802  12.403   8.435
 9421SOL     OW28288   0.850  11.970   9.271
 9421SOL    HW128289   0.846  12.046   9.336
 9421SOL    HW228290   0.872  12.006   9.180
 9422SOL     OW28291   0.685  12.184   8.113
 9422SOL    HW128292   0.754  12.168   8.183
 9422SOL    HW228293   0.612  12.241   8.151
 9423SOL     OW28294   0.686  12.333   9.251
 9423SOL    HW128295   0.746  12.412   9.265
 9423SOL    HW228296   0.600  12.364   9.210
 9424SOL     OW28297   0.335  12.607   8.509
 9424SOL    HW128298   0.257  12.576   8.456
 9424SOL    HW228299   0.393  12.665   8.452
 9425SOL     OW28300   1.460  12.677   8.787
 9425SOL    HW128301   1.484  12.771   8.813
 9425SOL    HW228302   1.444  12.623   8.869
 9426SOL     OW28303   0.438  11.564   8.947
 9426SOL    HW128304   0.520  11.508   8.956
 9426SOL    HW228305   0.357  11.506   8.951
 9427SOL     OW28306   1.603  11.619   8.185
 9427SOL    HW128307   1.529  11.665   8.135
 9427SOL    HW228308   1.654  11.687   8.238
 9428SOL     OW28309   0.231  12.885   7.931
 9428SOL    HW128310   0.265  12.962   7.985
 9428SOL    HW228311   0.275  12.885   7.841
 9429SOL     OW28312   1.127  12.513   9.138
 9429SOL    HW128313   1.174  12.513   9.226
 9429SOL    HW228314   1.079  12.426   9.127
 9430SOL     OW28315   0.230  12.606   7.986
 9430SOL    HW128316   0.204  12.702   7.986
 9430SOL    HW228317   0.159  12.552   8.031
 9431SOL     OW28318   0.240  12.263   8.334
 9431SOL    HW128319   0.254  12.179   8.386
 9431SOL    HW228320   0.185  12.327   8.389
 9432SOL     OW28321   0.606  12.136   7.571
 9432SOL    HW128322   0.613  12.220   7.517
 9432SOL    HW228323   0.652  12.149   7.659
 9433SOL     OW28324   1.594  11.286   8.928
 9433SOL    HW128325   1.576  11.353   8.856
 9433SOL    HW228326   1.591  11.332   9.017
 9434SOL     OW28327   0.122  11.815   8.011
 9434SOL    HW128328   0.077  11.727   8.028
 9434SOL    HW228329   0.121  11.869   8.095
 9435SOL     OW28330   0.027  12.768   7.565
 9435SOL    HW128331   0.008  12.672   7.586
 9435SOL    HW228332  -0.006  12.826   7.640
 9436SOL     OW28333   1.689  12.094   8.060
 9436SOL    HW128334   1.784  12.065   8.068
 9436SOL    HW228335   1.681  12.159   7.985
 9437SOL     OW28336   1.641  12.280   7.880
 9437SOL    HW128337   1.727  12.282   7.828
 9437SOL    HW228338   1.655  12.327   7.968
 9438SOL     OW28339   0.113  11.909   9.045
 9438SOL    HW128340   0.201  11.896   9.090
 9438SOL    HW228341   0.100  12.006   9.023
 9439SOL     OW28342   0.613  12.537   8.174
 9439SOL    HW128343   0.564  12.450   8.183
 9439SOL    HW228344   0.590  12.580   8.087
 9440SOL     OW28345   1.293  12.400   8.871
 9440SOL    HW128346   1.330  12.327   8.813
 9440SOL    HW228347   1.345  12.405   8.956
 9441SOL     OW28348   0.809  11.176   7.950
 9441SOL    HW128349   0.849  11.267   7.941
 9441SOL    HW228350   0.709  11.184   7.956
 9442SOL     OW28351   0.197  12.148   8.712
 9442SOL    HW128352   0.286  12.103   8.698
 9442SOL    HW228353   0.124  12.083   8.693
 9443SOL     OW28354   1.525  12.171   7.638
 9443SOL    HW128355   1.462  12.095   7.651
 9443SOL    HW228356   1.573  12.189   7.724
 9444SOL     OW28357   0.317  11.423   9.249
 9444SOL    HW128358   0.388  11.494   9.255
 9444SOL    HW228359   0.229  11.462   9.277
 9445SOL     OW28360   1.466  12.589   8.401
 9445SOL    HW128361   1.407  12.595   8.481
 9445SOL    HW228362   1.451  12.501   8.355
 9446SOL     OW28363   0.598  11.901   7.718
 9446SOL    HW128364   0.622  11.970   7.650
 9446SOL    HW228365   0.520  11.934   7.772
 9447SOL     OW28366   1.281  11.517   8.392
 9447SOL    HW128367   1.195  11.467   8.379
 9447SOL    HW228368   1.343  11.463   8.448
 9448SOL     OW28369   0.807  11.777   8.913
 9448SOL    HW128370   0.760  11.774   9.002
 9448SOL    HW228371   0.756  11.722   8.847
 9449SOL     OW28372   1.394  11.641   9.122
 9449SOL    HW128373   1.374  11.684   9.210
 9449SOL    HW228374   1.472  11.579   9.131
 9450SOL     OW28375   0.973  12.062   9.020
 9450SOL    HW128376   1.019  11.978   8.991
 9450SOL    HW228377   0.917  12.096   8.945
 9451SOL     OW28378   0.991  11.582   8.690
 9451SOL    HW128379   0.914  11.616   8.744
 9451SOL    HW228380   0.957  11.531   8.611
 9452SOL     OW28381   1.041  11.873   7.877
 9452SOL    HW128382   1.067  11.869   7.973
 9452SOL    HW228383   0.956  11.822   7.863
 9453SOL     OW28384   0.076  11.983   8.237
 9453SOL    HW128385   0.175  11.971   8.246
 9453SOL    HW228386   0.052  12.078   8.258
 9454SOL     OW28387   0.865  11.520   7.643
 9454SOL    HW128388   0.924  11.583   7.594
 9454SOL    HW228389   0.884  11.426   7.614
 9455SOL     OW28390   1.719  11.757   9.279
 9455SOL    HW128391   1.693  11.846   9.243
 9455SOL    HW228392   1.717  11.689   9.206
 9456SOL     OW28393   1.362  12.316   7.993
 9456SOL    HW128394   1.445  12.287   7.945
 9456SOL    HW228395   1.313  12.383   7.937
 9457SOL     OW28396   0.550  11.368   8.333
 9457SOL    HW128397   0.545  11.363   8.433
 9457SOL    HW228398   0.552  11.464   8.304
 9458SOL     OW28399   1.008  12.628   7.925
 9458SOL    HW128400   0.962  12.700   7.873
 9458SOL    HW228401   1.004  12.648   8.023
 9459SOL     OW28402   1.795  12.238   8.321
 9459SOL    HW128403   1.733  12.223   8.245
 9459SOL    HW228404   1.743  12.249   8.406
 9460SOL     OW28405   1.227  12.722   8.954
 9460SOL    HW128406   1.233  12.645   9.018
 9460SOL    HW228407   1.175  12.696   8.874
 9461SOL     OW28408   0.321  12.115   7.690
 9461SOL    HW128409   0.403  12.154   7.648
 9461SOL    HW228410   0.294  12.033   7.641
 9462SOL     OW28411   1.458  11.907   8.176
 9462SOL    HW128412   1.453  11.842   8.251
 9462SOL    HW228413   1.538  11.966   8.189
 9463SOL     OW28414   0.461  12.438   9.175
 9463SOL    HW128415   0.411  12.439   9.089
 9463SOL    HW228416   0.398  12.420   9.251
 9464SOL     OW28417   1.111  12.948   7.685
 9464SOL    HW128418   1.051  12.886   7.735
 9464SOL    HW228419   1.142  12.904   7.600
 9465SOL     OW28420   0.202  11.457   8.946
 9465SOL    HW128421   0.122  11.517   8.933
 9465SOL    HW228422   0.192  11.408   9.032
 9466SOL     OW28423   1.632  12.549   7.529
 9466SOL    HW128424   1.600  12.643   7.519
 9466SOL    HW228425   1.556  12.486   7.517
 9467SOL     OW28426   1.400  11.279   7.874
 9467SOL    HW128427   1.376  11.242   7.784
 9467SOL    HW228428   1.499  11.295   7.878
 9468SOL     OW28429   0.382  11.872   7.928
 9468SOL    HW128430   0.427  11.782   7.925
 9468SOL    HW228431   0.288  11.861   7.961
 9469SOL     OW28432   1.547  11.394   9.177
 9469SOL    HW128433   1.542  11.431   9.269
 9469SOL    HW228434   1.475  11.325   9.165
 9470SOL     OW28435   0.614  11.294   7.565
 9470SOL    HW128436   0.712  11.272   7.572
 9470SOL    HW228437   0.583  11.277   7.472
 9471SOL     OW28438   0.781  11.436   9.197
 9471SOL    HW128439   0.848  11.375   9.240
 9471SOL    HW228440   0.708  11.455   9.262
 9472SOL     OW28441   1.351  11.762   8.881
 9472SOL    HW128442   1.379  11.719   8.966
 9472SOL    HW228443   1.376  11.858   8.882
 9473SOL     OW28444   0.803  12.574   8.372
 9473SOL    HW128445   0.893  12.588   8.330
 9473SOL    HW228446   0.732  12.576   8.301
 9474SOL     OW28447   0.922  11.675   8.347
 9474SOL    HW128448   0.897  11.666   8.251
 9474SOL    HW228449   0.970  11.593   8.378
 9475SOL     OW28450   0.539  11.236   7.960
 9475SOL    HW128451   0.458  11.237   8.018
 9475SOL    HW228452   0.542  11.319   7.905
 9476SOL     OW28453   1.434  12.360   7.489
 9476SOL    HW128454   1.466  12.284   7.546
 9476SOL    HW228455   1.342  12.387   7.519
 9477SOL     OW28456   0.297  11.207   7.619
 9477SOL    HW128457   0.346  11.291   7.598
 9477SOL    HW228458   0.359  11.142   7.664
 9478SOL     OW28459   0.935  11.408   7.928
 9478SOL    HW128460   0.887  11.449   7.850
 9478SOL    HW228461   1.034  11.406   7.909
 9479SOL     OW28462   1.076  11.855   8.912
 9479SOL    HW128463   0.996  11.794   8.915
 9479SOL    HW228464   1.157  11.802   8.888
 9480SOL     OW28465   1.227  12.742   8.241
 9480SOL    HW128466   1.248  12.816   8.176
 9480SOL    HW228467   1.295  12.742   8.314
 9481SOL     OW28468   0.459  12.324   8.189
 9481SOL    HW128469   0.388  12.297   8.254
 9481SOL    HW228470   0.433  12.296   8.096
 9482SOL     OW28471   1.032  11.721   7.464
 9482SOL    HW128472   0.991  11.803   7.425
 9482SOL    HW228473   1.096  11.747   7.537
 9483SOL     OW28474   0.078  11.728   8.834
 9483SOL    HW128475   0.170  11.727   8.793
 9483SOL    HW228476   0.072  11.802   8.901
 9484SOL     OW28477   0.561  11.394   8.595
 9484SOL    HW128478   0.599  11.310   8.632
 9484SOL    HW228479   0.473  11.413   8.639
 9485SOL     OW28480   0.866  11.626   8.090
 9485SOL    HW128481   0.834  11.698   8.028
 9485SOL    HW228482   0.890  11.545   8.037
 9486SOL     OW28483   1.017  11.211   8.201
 9486SOL    HW128484   0.945  11.216   8.132
 9486SOL    HW228485   0.993  11.142   8.270
 9487SOL     OW28486   1.429  12.345   8.315
 9487SOL    HW128487   1.374  12.261   8.308
 9487SOL    HW228488   1.455  12.374   8.223
 9488SOL     OW28489   1.466  11.762   8.440
 9488SOL    HW128490   1.436  11.667   8.447
 9488SOL    HW228491   1.539  11.778   8.506
 9489SOL     OW28492   1.857  12.005   7.825
 9489SOL    HW128493   1.899  11.941   7.889
 9489SOL    HW228494   1.819  11.954   7.747
 9490SOL     OW28495   0.488  12.557   7.622
 9490SOL    HW128496   0.401  12.542   7.669
 9490SOL    HW228497   0.471  12.583   7.527
 9491SOL     OW28498   1.664  12.452   8.105
 9491SOL    HW128499   1.763  12.460   8.119
 9491SOL    HW228500   1.619  12.536   8.136
 9492SOL     OW28501   1.390  11.747   7.526
 9492SOL    HW128502   1.336  11.726   7.607
 9492SOL    HW228503   1.481  11.706   7.535
 9493SOL     OW28504   0.527  11.428   7.776
 9493SOL    HW128505   0.554  11.369   7.701
 9493SOL    HW228506   0.527  11.523   7.745
 9494SOL     OW28507   1.754  12.395   9.036
 9494SOL    HW128508   1.845  12.356   9.023
 9494SOL    HW228509   1.762  12.491   9.060
 9495SOL     OW28510   1.064  12.519   8.788
 9495SOL    HW128511   0.984  12.496   8.843
 9495SOL    HW228512   1.147  12.493   8.837
 9496SOL     OW28513   1.111  12.367   8.548
 9496SOL    HW128514   1.071  12.411   8.629
 9496SOL    HW228515   1.070  12.404   8.465
 9497SOL     OW28516   1.638  12.271   8.527
 9497SOL    HW128517   1.643  12.352   8.586
 9497SOL    HW228518   1.552  12.273   8.476
 9498SOL     OW28519   0.915  11.261   8.850
 9498SOL    HW128520   0.940  11.241   8.755
 9498SOL    HW228521   0.987  11.317   8.892
 9499SOL     OW28522   0.980  12.288   9.167
 9499SOL    HW128523   0.881  12.294   9.177
 9499SOL    HW228524   1.003  12.208   9.111
 9500SOL     OW28525   0.705  12.222   7.816
 9500SOL    HW128526   0.691  12.229   7.915
 9500SOL    HW228527   0.789  12.171   7.798
 9501SOL     OW28528   0.410  11.985   8.699
 9501SOL    HW128529   0.496  11.997   8.749
 9501SOL    HW228530   0.368  11.898   8.726
 9502SOL     OW28531   1.274  11.558   8.710
 9502SOL    HW128532   1.295  11.632   8.774
 9502SOL    HW228533   1.185  11.575   8.667
 9503SOL     OW28534   0.064  12.736   8.779
 9503SOL    HW128535   0.018  12.818   8.745
 9503SOL    HW228536   0.162  12.755   8.788
 9504SOL     OW28537   0.367  12.272   7.949
 9504SOL    HW128538   0.360  12.355   7.893
 9504SOL    HW228539   0.371  12.192   7.889
 9505SOL     OW28540   0.566  11.709   8.313
 9505SOL    HW128541   0.578  11.775   8.239
 9505SOL    HW228542   0.612  11.743   8.396
 9506SOL     OW28543   1.252  12.520   7.836
 9506SOL    HW128544   1.302  12.597   7.876
 9506SOL    HW228545   1.157  12.522   7.868
 9507SOL     OW28546   1.272  12.617   8.590
 9507SOL    HW128547   1.319  12.630   8.677
 9507SOL    HW228548   1.206  12.543   8.599
 9508SOL     OW28549   1.582  11.811   7.920
 9508SOL    HW128550   1.551  11.872   7.993
 9508SOL    HW228551   1.632  11.863   7.851
 9509SOL     OW28552   0.354  12.682   8.777
 9509SOL    HW128553   0.333  12.638   8.690
 9509SOL    HW228554   0.451  12.708   8.780
 9510SOL     OW28555   0.402  11.923   9.046
 9510SOL    HW128556   0.470  11.978   8.999
 9510SOL    HW228557   0.442  11.835   9.073
 9511SOL     OW28558   1.587  11.951   9.118
 9511SOL    HW128559   1.495  11.989   9.113
 9511SOL    HW228560   1.647  11.998   9.053
 9512SOL     OW28561   1.013  11.277   9.218
 9512SOL    HW128562   1.019  11.362   9.166
 9512SOL    HW228563   1.045  11.201   9.161
 9513SOL     OW28564   0.504  11.222   9.188
 9513SOL    HW128565   0.462  11.165   9.118
 9513SOL    HW228566   0.438  11.291   9.220
 9514SOL     OW28567   0.573  12.042   8.477
 9514SOL    HW128568   0.617  12.131   8.468
 9514SOL    HW228569   0.510  12.042   8.554
 9515SOL     OW28570   1.360  12.034   8.493
 9515SOL    HW128571   1.285  12.034   8.427
 9515SOL    HW228572   1.397  11.942   8.502
 9516SOL     OW28573   1.209  11.697   7.723
 9516SOL    HW128574   1.222  11.613   7.777
 9516SOL    HW228575   1.180  11.771   7.783
 9517SOL     OW28576   0.307  11.385   8.679
 9517SOL    HW128577   0.284  11.422   8.769
 9517SOL    HW228578   0.277  11.290   8.673
 9518SOL     OW28579   0.037  12.482   8.730
 9518SOL    HW128580   0.090  12.433   8.798
 9518SOL    HW228581   0.059  12.580   8.735
 9519SOL     OW28582   0.732  11.806   8.512
 9519SOL    HW128583   0.791  11.780   8.436
 9519SOL    HW228584   0.704  11.902   8.501
 9520SOL     OW28585   1.728  12.107   9.302
 9520SOL    HW128586   1.682  12.100   9.213
 9520SOL    HW228587   1.666  12.151   9.368
 9521SOL     OW28588   0.307  11.235   8.066
 9521SOL    HW128589   0.296  11.329   8.099
 9521SOL    HW228590   0.302  11.172   8.143
 9522SOL     OW28591   1.622  11.539   7.822
 9522SOL    HW128592   1.624  11.463   7.886
 9522SOL    HW228593   1.574  11.616   7.862
 9523SOL     OW28594   1.023  11.938   8.414
 9523SOL    HW128595   1.038  11.959   8.510
 9523SOL    HW228596   0.993  11.843   8.405
 9524SOL     OW28597   1.859  12.690   9.053
 9524SOL    HW128598   1.873  12.717   8.958
 9524SOL    HW228599   1.942  12.712   9.106
 9525SOL     OW28600   0.350  12.070   9.252
 9525SOL    HW128601   0.426  12.114   9.300
 9525SOL    HW228602   0.385  12.023   9.170
 9526SOL     OW28603   1.540  11.446   7.573
 9526SOL    HW128604   1.479  11.371   7.596
 9526SOL    HW228605   1.562  11.498   7.656
 9527SOL     OW28606   1.303  12.010   7.490
 9527SOL    HW128607   1.337  11.917   7.505
 9527SOL    HW228608   1.321  12.037   7.395
 9528SOL     OW28609   1.068  12.505   8.297
 9528SOL    HW128610   1.075  12.421   8.242
 9528SOL    HW228611   1.130  12.574   8.261
 9529SOL     OW28612   0.319  11.982   8.397
 9529SOL    HW128613   0.412  12.018   8.402
 9529SOL    HW228614   0.313  11.897   8.449
 9530SOL     OW28615   0.339  11.681   8.454
 9530SOL    HW128616   0.287  11.598   8.437
 9530SOL    HW228617   0.416  11.686   8.390
 9531SOL     OW28618   1.138  11.552   9.126
 9531SOL    HW128619   1.093  11.615   9.190
 9531SOL    HW228620   1.231  11.583   9.109
 9532SOL     OW28621   1.160  11.379   8.925
 9532SOL    HW128622   1.160  11.443   9.002
 9532SOL    HW228623   1.188  11.427   8.842
 9533SOL     OW28624   0.008  12.498   7.648
 9533SOL    HW128625  -0.085  12.519   7.617
 9533SOL    HW228626   0.018  12.399   7.661
 9534SOL     OW28627   1.002  11.968   8.686
 9534SOL    HW128628   1.043  11.936   8.772
 9534SOL    HW228629   0.906  11.941   8.683
 9535SOL     OW28630   0.040  11.716   8.562
 9535SOL    HW128631   0.125  11.683   8.521
 9535SOL    HW228632   0.053  11.731   8.660
 9536SOL     OW28633   0.189  11.692   9.170
 9536SOL    HW128634   0.248  11.652   9.100
 9536SOL    HW228635   0.131  11.763   9.129
 9537SOL     OW28636   1.369  12.122   9.108
 9537SOL    HW128637   1.408  12.211   9.128
 9537SOL    HW228638   1.379  12.102   9.011
 9538SOL     OW28639   0.815  11.744   7.773
 9538SOL    HW128640   0.822  11.655   7.727
 9538SOL    HW228641   0.721  11.778   7.765
 9539SOL     OW28642   1.657  11.776   8.654
 9539SOL    HW128643   1.619  11.707   8.716
 9539SOL    HW228644   1.739  11.740   8.610
 9540SOL     OW28645   0.252  12.736   9.192
 9540SOL    HW128646   0.222  12.793   9.268
 9540SOL    HW228647   0.245  12.639   9.218
 9541SOL     OW28648   0.671  11.636   8.717
 9541SOL    HW128649   0.637  11.547   8.687
 9541SOL    HW228650   0.697  11.690   8.637
 9542SOL     OW28651   0.473  11.672   7.639
 9542SOL    HW128652   0.534  11.752   7.643
 9542SOL    HW228653   0.378  11.703   7.646
 9543SOL     OW28654   0.159  12.309   8.914
 9543SOL    HW128655   0.181  12.248   8.990
 9543SOL    HW228656   0.169  12.260   8.828
 9544SOL     OW28657   1.347  12.231   8.682
 9544SOL    HW128658   1.371  12.168   8.608
 9544SOL    HW228659   1.257  12.271   8.664
 9545SOL     OW28660   1.302  12.027   7.757
 9545SOL    HW128661   1.216  11.996   7.799
 9545SOL    HW228662   1.298  12.013   7.658
 9546SOL     OW28663   0.083  12.430   8.470
 9546SOL    HW128664   0.078  12.429   8.570
 9546SOL    HW228665   0.000  12.389   8.432
 9547SOL     OW28666   1.726  11.307   7.971
 9547SOL    HW128667   1.799  11.290   7.904
 9547SOL    HW228668   1.695  11.220   8.009
 9548SOL     OW28669   1.280  12.099   8.120
 9548SOL    HW128670   1.340  12.018   8.122
 9548SOL    HW228671   1.320  12.168   8.060
 9549SOL     OW28672   0.830  12.445   8.870
 9549SOL    HW128673   0.825  12.478   8.965
 9549SOL    HW228674   0.744  12.464   8.824
 9550SOL     OW28675   1.841  11.347   8.411
 9550SOL    HW128676   1.880  11.262   8.375
 9550SOL    HW228677   1.743  11.349   8.392
 9551SOL     OW28678   0.263  11.498   8.168
 9551SOL    HW128679   0.184  11.549   8.134
 9551SOL    HW228680   0.254  11.483   8.266
 9552SOL     OW28681   0.822  12.174   8.820
 9552SOL    HW128682   0.862  12.173   8.728
 9552SOL    HW228683   0.832  12.266   8.860
 9553SOL     OW28684   0.916  12.082   7.739
 9553SOL    HW128685   0.979  12.120   7.671
 9553SOL    HW228686   0.956  11.999   7.778
 9554SOL     OW28687   0.372  12.460   8.938
 9554SOL    HW128688   0.359  12.553   8.904
 9554SOL    HW228689   0.288  12.408   8.925
 9555SOL     OW28690   1.614  12.464   8.737
 9555SOL    HW128691   1.674  12.467   8.817
 9555SOL    HW228692   1.539  12.528   8.750
 9556SOL     OW28693   1.039  12.270   8.144
 9556SOL    HW128694   0.969  12.223   8.198
 9556SOL    HW228695   1.098  12.202   8.101
 9557SOL     OW28696   1.014  11.408   8.419
 9557SOL    HW128697   1.006  11.372   8.326
 9557SOL    HW228698   1.012  11.332   8.484
 9558SOL     OW28699   1.709  11.557   8.829
 9558SOL    HW128700   1.782  11.626   8.833
 9558SOL    HW228701   1.737  11.482   8.770
 9559SOL     OW28702   0.255  12.520   7.738
 9559SOL    HW128703   0.159  12.521   7.711
 9559SOL    HW228704   0.267  12.573   7.822
 9560SOL     OW28705   0.105  12.185   9.174
 9560SOL    HW128706   0.028  12.152   9.228
 9560SOL    HW228707   0.190  12.155   9.216
 9561SOL     OW28708   0.672  11.375   8.937
 9561SOL    HW128709   0.762  11.359   8.897
 9561SOL    HW228710   0.680  11.380   9.036
 9562SOL     OW28711   0.075  11.517   7.481
 9562SOL    HW128712  -0.017  11.489   7.452
 9562SOL    HW228713   0.106  11.594   7.425
 9563SOL     OW28714   1.440  12.028   8.846
 9563SOL    HW128715   1.383  12.080   8.783
 9563SOL    HW228716   1.536  12.040   8.822
 9564SOL     OW28717   0.072  11.338   7.766
 9564SOL    HW128718   0.055  11.421   7.712
 9564SOL    HW228719   0.162  11.301   7.744
 9565SOL     OW28720   1.183  12.507   7.567
 9565SOL    HW128721   1.084  12.496   7.569
 9565SOL    HW228722   1.217  12.522   7.660
 9566SOL     OW28723   0.613  12.014   8.879
 9566SOL    HW128724   0.669  12.095   8.862
 9566SOL    HW228725   0.672  11.934   8.882
 9567SOL     OW28726   0.716  11.737   9.156
 9567SOL    HW128727   0.735  11.802   9.230
 9567SOL    HW228728   0.776  11.657   9.165
 9568SOL     OW28729   1.450  12.392   9.081
 9568SOL    HW128730   1.441  12.382   9.180
 9568SOL    HW228731   1.546  12.385   9.055
 9569SOL     OW28732   1.674  12.055   8.702
 9569SOL    HW128733   1.647  11.966   8.665
 9569SOL    HW228734   1.675  12.123   8.629
 9570SOL     OW28735   1.225  11.497   7.897
 9570SOL    HW128736   1.290  11.423   7.886
 9570SOL    HW228737   1.245  11.547   7.981
 9571SOL     OW28738   0.594  11.917   8.100
 9571SOL    HW128739   0.644  12.002   8.081
 9571SOL    HW228740   0.506  11.919   8.052
 9572SOL     OW28741   1.777  11.514   9.090
 9572SOL    HW128742   1.760  11.545   8.996
 9572SOL    HW228743   1.693  11.477   9.128
 9573SOL     OW28744   1.730  12.106   8.965
 9573SOL    HW128745   1.768  12.197   8.980
 9573SOL    HW228746   1.722  12.089   8.866
 9574SOL     OW28747   0.859  12.546   7.464
 9574SOL    HW128748   0.813  12.561   7.552
 9574SOL    HW228749   0.903  12.631   7.434
 9575SOL     OW28750   0.859  12.128   8.309
 9575SOL    HW128751   0.913  12.059   8.357
 9575SOL    HW228752   0.827  12.197   8.375
 9576SOL     OW28753   1.083  12.156   7.535
 9576SOL    HW128754   1.060  12.209   7.453
 9576SOL    HW228755   1.164  12.100   7.516
 9577SOL     OW28756   0.221  12.486   9.292
 9577SOL    HW128757   0.156  12.413   9.271
 9577SOL    HW228758   0.225  12.500   9.390
 9578SOL     OW28759   0.079  12.412   8.101
 9578SOL    HW128760   0.078  12.365   8.189
 9578SOL    HW228761   0.161  12.384   8.050
 9579SOL     OW28762   0.672  12.563   9.072
 9579SOL    HW128763   0.594  12.513   9.110
 9579SOL    HW228764   0.669  12.658   9.103
 9580SOL     OW28765   1.824  11.364   8.675
 9580SOL    HW128766   1.820  11.274   8.719
 9580SOL    HW228767   1.827  11.353   8.576
 9581SOL     OW28768   0.428  11.596   7.968
 9581SOL    HW128769   0.458  11.524   7.906
 9581SOL    HW228770   0.389  11.556   8.051
 9582SOL     OW28771   1.705  12.659   8.552
 9582SOL    HW128772   1.612  12.634   8.525
 9582SOL    HW228773   1.731  12.609   8.634
 9583SOL     OW28774   0.317  11.719   8.728
 9583SOL    HW128775   0.355  11.660   8.800
 9583SOL    HW228776   0.357  11.693   8.640
 9584SOL     OW28777   1.424  11.386   8.560
 9584SOL    HW128778   1.476  11.321   8.615
 9584SOL    HW228779   1.375  11.449   8.621
 9585SOL     OW28780   1.001  11.206   8.602
 9585SOL    HW128781   0.938  11.134   8.571
 9585SOL    HW228782   1.094  11.170   8.602
 9586SOL     OW28783   0.770  12.502   7.749
 9586SOL    HW128784   0.724  12.415   7.766
 9586SOL    HW228785   0.861  12.499   7.790
 9587SOL     OW28786   0.618  12.739   8.732
 9587SOL    HW128787   0.613  12.821   8.789
 9587SOL    HW228788   0.707  12.736   8.687
 9588SOL     OW28789   1.352  11.224   7.616
 9588SOL    HW128790   1.387  11.183   7.532
 9588SOL    HW228791   1.262  11.186   7.636
 9589SOL     OW28792   1.300  11.625   8.139
 9589SOL    HW128793   1.241  11.705   8.143
 9589SOL    HW228794   1.315  11.590   8.232
 9590SOL     OW28795   1.593  11.393   8.330
 9590SOL    HW128796   1.509  11.392   8.384
 9590SOL    HW228797   1.595  11.476   8.274
 9591SOL     OW28798   0.039  12.249   7.748
 9591SOL    HW128799   0.138  12.238   7.739
 9591SOL    HW228800  -0.001  12.163   7.780
 9592SOL     OW28801   0.230  11.800   9.423
 9592SOL    HW128802   0.137  11.798   9.460
 9592SOL    HW228803   0.231  11.761   9.331
 9593SOL     OW28804   0.225  11.447  10.306
 9593SOL    HW128805   0.260  11.430  10.398
 9593SOL    HW228806   0.137  11.402  10.294
 9594SOL     OW28807   0.019  11.540   9.957
 9594SOL    HW128808  -0.063  11.583   9.996
 9594SOL    HW228809  -0.009  11.467   9.894
 9595SOL     OW28810   0.569  12.447  10.475
 9595SOL    HW128811   0.476  12.440  10.438
 9595SOL    HW228812   0.580  12.536  10.519
 9596SOL     OW28813   1.555  12.683  10.013
 9596SOL    HW128814   1.498  12.667  10.094
 9596SOL    HW228815   1.496  12.693   9.933
 9597SOL     OW28816   1.135  11.875  10.027
 9597SOL    HW128817   1.192  11.953  10.002
 9597SOL    HW228818   1.075  11.901  10.103
 9598SOL     OW28819   1.755  11.779   9.541
 9598SOL    HW128820   1.743  11.766   9.442
 9598SOL    HW228821   1.725  11.698   9.590
 9599SOL     OW28822   0.768  12.316  10.333
 9599SOL    HW128823   0.690  12.333  10.393
 9599SOL    HW228824   0.802  12.403  10.297
 9600SOL     OW28825   0.850  11.970  11.133
 9600SOL    HW128826   0.846  12.046  11.198
 9600SOL    HW228827   0.872  12.006  11.042
 9601SOL     OW28828   0.685  12.184   9.975
 9601SOL    HW128829   0.754  12.168  10.045
 9601SOL    HW228830   0.612  12.241  10.013
 9602SOL     OW28831   0.686  12.333  11.113
 9602SOL    HW128832   0.746  12.412  11.127
 9602SOL    HW228833   0.600  12.364  11.072
 9603SOL     OW28834   0.335  12.607  10.371
 9603SOL    HW128835   0.257  12.576  10.318
 9603SOL    HW228836   0.393  12.665  10.314
 9604SOL     OW28837   1.460  12.677  10.649
 9604SOL    HW128838   1.484  12.771  10.675
 9604SOL    HW228839   1.444  12.623  10.731
 9605SOL     OW28840   0.438  11.564  10.809
 9605SOL    HW128841   0.520  11.508  10.818
 9605SOL    HW228842   0.357  11.506  10.813
 9606SOL     OW28843   1.603  11.619  10.047
 9606SOL    HW128844   1.529  11.665   9.997
 9606SOL    HW228845   1.654  11.687  10.100
 9607SOL     OW28846   0.231  12.885   9.793
 9607SOL    HW128847   0.265  12.962   9.847
 9607SOL    HW228848   0.275  12.885   9.703
 9608SOL     OW28849   1.127  12.513  11.000
 9608SOL    HW128850   1.174  12.513  11.088
 9608SOL    HW228851   1.079  12.426  10.989
 9609SOL     OW28852   0.230  12.606   9.848
 9609SOL    HW128853   0.204  12.702   9.848
 9609SOL    HW228854   0.159  12.552   9.893
 9610SOL     OW28855   0.240  12.263  10.196
 9610SOL    HW128856   0.254  12.179  10.248
 9610SOL    HW228857   0.185  12.327  10.251
 9611SOL     OW28858   0.606  12.136   9.433
 9611SOL    HW128859   0.613  12.220   9.379
 9611SOL    HW228860   0.652  12.149   9.521
 9612SOL     OW28861   1.594  11.286  10.790
 9612SOL    HW128862   1.576  11.353  10.718
 9612SOL    HW228863   1.591  11.332  10.879
 9613SOL     OW28864   0.122  11.815   9.873
 9613SOL    HW128865   0.077  11.727   9.890
 9613SOL    HW228866   0.121  11.869   9.957
 9614SOL     OW28867   0.027  12.768   9.427
 9614SOL    HW128868   0.008  12.672   9.448
 9614SOL    HW228869  -0.006  12.826   9.502
 9615SOL     OW28870   1.689  12.094   9.922
 9615SOL    HW128871   1.784  12.065   9.930
 9615SOL    HW228872   1.681  12.159   9.847
 9616SOL     OW28873   1.641  12.280   9.742
 9616SOL    HW128874   1.727  12.282   9.690
 9616SOL    HW228875   1.655  12.327   9.830
 9617SOL     OW28876   0.113  11.909  10.907
 9617SOL    HW128877   0.201  11.896  10.952
 9617SOL    HW228878   0.100  12.006  10.885
 9618SOL     OW28879   0.613  12.537  10.036
 9618SOL    HW128880   0.564  12.450  10.045
 9618SOL    HW228881   0.590  12.580   9.949
 9619SOL     OW28882   1.293  12.400  10.733
 9619SOL    HW128883   1.330  12.327  10.675
 9619SOL    HW228884   1.345  12.405  10.818
 9620SOL     OW28885   0.809  11.176   9.812
 9620SOL    HW128886   0.849  11.267   9.803
 9620SOL    HW228887   0.709  11.184   9.818
 9621SOL     OW28888   0.197  12.148  10.574
 9621SOL    HW128889   0.286  12.103  10.560
 9621SOL    HW228890   0.124  12.083  10.555
 9622SOL     OW28891   1.525  12.171   9.500
 9622SOL    HW128892   1.462  12.095   9.513
 9622SOL    HW228893   1.573  12.189   9.586
 9623SOL     OW28894   0.317  11.423  11.111
 9623SOL    HW128895   0.388  11.494  11.117
 9623SOL    HW228896   0.229  11.462  11.139
 9624SOL     OW28897   1.466  12.589  10.263
 9624SOL    HW128898   1.407  12.595  10.343
 9624SOL    HW228899   1.451  12.501  10.217
 9625SOL     OW28900   0.598  11.901   9.580
 9625SOL    HW128901   0.622  11.970   9.512
 9625SOL    HW228902   0.520  11.934   9.634
 9626SOL     OW28903   1.281  11.517  10.254
 9626SOL    HW128904   1.195  11.467  10.241
 9626SOL    HW228905   1.343  11.463  10.310
 9627SOL     OW28906   0.807  11.777  10.775
 9627SOL    HW128907   0.760  11.774  10.864
 9627SOL    HW228908   0.756  11.722  10.709
 9628SOL     OW28909   1.394  11.641  10.984
 9628SOL    HW128910   1.374  11.684  11.072
 9628SOL    HW228911   1.472  11.579  10.993
 9629SOL     OW28912   0.973  12.062  10.882
 9629SOL    HW128913   1.019  11.978  10.853
 9629SOL    HW228914   0.917  12.096  10.807
 9630SOL     OW28915   0.991  11.582  10.552
 9630SOL    HW128916   0.914  11.616  10.606
 9630SOL    HW228917   0.957  11.531  10.473
 9631SOL     OW28918   1.041  11.873   9.739
 9631SOL    HW128919   1.067  11.869   9.835
 9631SOL    HW228920   0.956  11.822   9.725
 9632SOL     OW28921   0.076  11.983  10.099
 9632SOL    HW128922   0.175  11.971  10.108
 9632SOL    HW228923   0.052  12.078  10.120
 9633SOL     OW28924   0.865  11.520   9.505
 9633SOL    HW128925   0.924  11.583   9.456
 9633SOL    HW228926   0.884  11.426   9.476
 9634SOL     OW28927   1.719  11.757  11.141
 9634SOL    HW128928   1.693  11.846  11.105
 9634SOL    HW228929   1.717  11.689  11.068
 9635SOL     OW28930   1.362  12.316   9.855
 9635SOL    HW128931   1.445  12.287   9.807
 9635SOL    HW228932   1.313  12.383   9.799
 9636SOL     OW28933   0.550  11.368  10.195
 9636SOL    HW128934   0.545  11.363  10.295
 9636SOL    HW228935   0.552  11.464  10.166
 9637SOL     OW28936   1.008  12.628   9.787
 9637SOL    HW128937   0.962  12.700   9.735
 9637SOL    HW228938   1.004  12.648   9.885
 9638SOL     OW28939   1.795  12.238  10.183
 9638SOL    HW128940   1.733  12.223  10.107
 9638SOL    HW228941   1.743  12.249  10.268
 9639SOL     OW28942   1.227  12.722  10.816
 9639SOL    HW128943   1.233  12.645  10.880
 9639SOL    HW228944   1.175  12.696  10.736
 9640SOL     OW28945   0.321  12.115   9.552
 9640SOL    HW128946   0.403  12.154   9.510
 9640SOL    HW228947   0.294  12.033   9.503
 9641SOL     OW28948   1.458  11.907  10.038
 9641SOL    HW128949   1.453  11.842  10.113
 9641SOL    HW228950   1.538  11.966  10.051
 9642SOL     OW28951   0.461  12.438  11.037
 9642SOL    HW128952   0.411  12.439  10.951
 9642SOL    HW228953   0.398  12.420  11.113
 9643SOL     OW28954   1.111  12.948   9.547
 9643SOL    HW128955   1.051  12.886   9.597
 9643SOL    HW228956   1.142  12.904   9.462
 9644SOL     OW28957   0.202  11.457  10.808
 9644SOL    HW128958   0.122  11.517  10.795
 9644SOL    HW228959   0.192  11.408  10.894
 9645SOL     OW28960   1.632  12.549   9.391
 9645SOL    HW128961   1.600  12.643   9.381
 9645SOL    HW228962   1.556  12.486   9.379
 9646SOL     OW28963   1.400  11.279   9.736
 9646SOL    HW128964   1.376  11.242   9.646
 9646SOL    HW228965   1.499  11.295   9.740
 9647SOL     OW28966   0.382  11.872   9.790
 9647SOL    HW128967   0.427  11.782   9.787
 9647SOL    HW228968   0.288  11.861   9.823
 9648SOL     OW28969   1.547  11.394  11.039
 9648SOL    HW128970   1.542  11.431  11.131
 9648SOL    HW228971   1.475  11.325  11.027
 9649SOL     OW28972   0.614  11.294   9.427
 9649SOL    HW128973   0.712  11.272   9.434
 9649SOL    HW228974   0.583  11.277   9.334
 9650SOL     OW28975   0.781  11.436  11.059
 9650SOL    HW128976   0.848  11.375  11.102
 9650SOL    HW228977   0.708  11.455  11.124
 9651SOL     OW28978   1.351  11.762  10.743
 9651SOL    HW128979   1.379  11.719  10.828
 9651SOL    HW228980   1.376  11.858  10.744
 9652SOL     OW28981   0.803  12.574  10.234
 9652SOL    HW128982   0.893  12.588  10.192
 9652SOL    HW228983   0.732  12.576  10.163
 9653SOL     OW28984   0.922  11.675  10.209
 9653SOL    HW128985   0.897  11.666  10.113
 9653SOL    HW228986   0.970  11.593  10.240
 9654SOL     OW28987   0.539  11.236   9.822
 9654SOL    HW128988   0.458  11.237   9.880
 9654SOL    HW228989   0.542  11.319   9.767
 9655SOL     OW28990   1.434  12.360   9.351
 9655SOL    HW128991   1.466  12.284   9.408
 9655SOL    HW228992   1.342  12.387   9.381
 9656SOL     OW28993   0.297  11.207   9.481
 9656SOL    HW128994   0.346  11.291   9.460
 9656SOL    HW228995   0.359  11.142   9.526
 9657SOL     OW28996   0.935  11.408   9.790
 9657SOL    HW128997   0.887  11.449   9.712
 9657SOL    HW228998   1.034  11.406   9.771
 9658SOL     OW28999   1.076  11.855  10.774
 9658SOL    HW129000   0.996  11.794  10.777
 9658SOL    HW229001   1.157  11.802  10.750
 9659SOL     OW29002   1.227  12.742  10.103
 9659SOL    HW129003   1.248  12.816  10.038
 9659SOL    HW229004   1.295  12.742  10.176
 9660SOL     OW29005   0.459  12.324  10.051
 9660SOL    HW129006   0.388  12.297  10.116
 9660SOL    HW229007   0.433  12.296   9.958
 9661SOL     OW29008   1.032  11.721   9.326
 9661SOL    HW129009   0.991  11.803   9.287
 9661SOL    HW229010   1.096  11.747   9.399
 9662SOL     OW29011   0.078  11.728  10.696
 9662SOL    HW129012   0.170  11.727  10.655
 9662SOL    HW229013   0.072  11.802  10.763
 9663SOL     OW29014   0.561  11.394  10.457
 9663SOL    HW129015   0.599  11.310  10.494
 9663SOL    HW229016   0.473  11.413  10.501
 9664SOL     OW29017   0.866  11.626   9.952
 9664SOL    HW129018   0.834  11.698   9.890
 9664SOL    HW229019   0.890  11.545   9.899
 9665SOL     OW29020   1.017  11.211  10.063
 9665SOL    HW129021   0.945  11.216   9.994
 9665SOL    HW229022   0.993  11.142  10.132
 9666SOL     OW29023   1.429  12.345  10.177
 9666SOL    HW129024   1.374  12.261  10.170
 9666SOL    HW229025   1.455  12.374  10.085
 9667SOL     OW29026   1.466  11.762  10.302
 9667SOL    HW129027   1.436  11.667  10.309
 9667SOL    HW229028   1.539  11.778  10.368
 9668SOL     OW29029   1.857  12.005   9.687
 9668SOL    HW129030   1.899  11.941   9.751
 9668SOL    HW229031   1.819  11.954   9.609
 9669SOL     OW29032   0.488  12.557   9.484
 9669SOL    HW129033   0.401  12.542   9.531
 9669SOL    HW229034   0.471  12.583   9.389
 9670SOL     OW29035   1.664  12.452   9.967
 9670SOL    HW129036   1.763  12.460   9.981
 9670SOL    HW229037   1.619  12.536   9.998
 9671SOL     OW29038   1.390  11.747   9.388
 9671SOL    HW129039   1.336  11.726   9.469
 9671SOL    HW229040   1.481  11.706   9.397
 9672SOL     OW29041   0.527  11.428   9.638
 9672SOL    HW129042   0.554  11.369   9.563
 9672SOL    HW229043   0.527  11.523   9.607
 9673SOL     OW29044   1.754  12.395  10.898
 9673SOL    HW129045   1.845  12.356  10.885
 9673SOL    HW229046   1.762  12.491  10.922
 9674SOL     OW29047   1.064  12.519  10.650
 9674SOL    HW129048   0.984  12.496  10.705
 9674SOL    HW229049   1.147  12.493  10.699
 9675SOL     OW29050   1.111  12.367  10.410
 9675SOL    HW129051   1.071  12.411  10.491
 9675SOL    HW229052   1.070  12.404  10.327
 9676SOL     OW29053   1.638  12.271  10.389
 9676SOL    HW129054   1.643  12.352  10.448
 9676SOL    HW229055   1.552  12.273  10.338
 9677SOL     OW29056   0.915  11.261  10.712
 9677SOL    HW129057   0.940  11.241  10.617
 9677SOL    HW229058   0.987  11.317  10.754
 9678SOL     OW29059   0.980  12.288  11.029
 9678SOL    HW129060   0.881  12.294  11.039
 9678SOL    HW229061   1.003  12.208  10.973
 9679SOL     OW29062   0.705  12.222   9.678
 9679SOL    HW129063   0.691  12.229   9.777
 9679SOL    HW229064   0.789  12.171   9.660
 9680SOL     OW29065   0.410  11.985  10.561
 9680SOL    HW129066   0.496  11.997  10.611
 9680SOL    HW229067   0.368  11.898  10.588
 9681SOL     OW29068   1.274  11.558  10.572
 9681SOL    HW129069   1.295  11.632  10.636
 9681SOL    HW229070   1.185  11.575  10.529
 9682SOL     OW29071   0.064  12.736  10.641
 9682SOL    HW129072   0.018  12.818  10.607
 9682SOL    HW229073   0.162  12.755  10.650
 9683SOL     OW29074   0.367  12.272   9.811
 9683SOL    HW129075   0.360  12.355   9.755
 9683SOL    HW229076   0.371  12.192   9.751
 9684SOL     OW29077   0.566  11.709  10.175
 9684SOL    HW129078   0.578  11.775  10.101
 9684SOL    HW229079   0.612  11.743  10.258
 9685SOL     OW29080   1.252  12.520   9.698
 9685SOL    HW129081   1.302  12.597   9.738
 9685SOL    HW229082   1.157  12.522   9.730
 9686SOL     OW29083   1.272  12.617  10.452
 9686SOL    HW129084   1.319  12.630  10.539
 9686SOL    HW229085   1.206  12.543  10.461
 9687SOL     OW29086   1.582  11.811   9.782
 9687SOL    HW129087   1.551  11.872   9.855
 9687SOL    HW229088   1.632  11.863   9.713
 9688SOL     OW29089   0.354  12.682  10.639
 9688SOL    HW129090   0.333  12.638  10.552
 9688SOL    HW229091   0.451  12.708  10.642
 9689SOL     OW29092   0.402  11.923  10.908
 9689SOL    HW129093   0.470  11.978  10.861
 9689SOL    HW229094   0.442  11.835  10.935
 9690SOL     OW29095   1.587  11.951  10.980
 9690SOL    HW129096   1.495  11.989  10.975
 9690SOL    HW229097   1.647  11.998  10.915
 9691SOL     OW29098   1.013  11.277  11.080
 9691SOL    HW129099   1.019  11.362  11.028
 9691SOL    HW229100   1.045  11.201  11.023
 9692SOL     OW29101   0.504  11.222  11.050
 9692SOL    HW129102   0.462  11.165  10.980
 9692SOL    HW229103   0.438  11.291  11.082
 9693SOL     OW29104   0.573  12.042  10.339
 9693SOL    HW129105   0.617  12.131  10.330
 9693SOL    HW229106   0.510  12.042  10.416
 9694SOL     OW29107   1.360  12.034  10.355
 9694SOL    HW129108   1.285  12.034  10.289
 9694SOL    HW229109   1.397  11.942  10.364
 9695SOL     OW29110   1.209  11.697   9.585
 9695SOL    HW129111   1.222  11.613   9.639
 9695SOL    HW229112   1.180  11.771   9.645
 9696SOL     OW29113   0.307  11.385  10.541
 9696SOL    HW129114   0.284  11.422  10.631
 9696SOL    HW229115   0.277  11.290  10.535
 9697SOL     OW29116   0.037  12.482  10.592
 9697SOL    HW129117   0.090  12.433  10.660
 9697SOL    HW229118   0.059  12.580  10.597
 9698SOL     OW29119   0.732  11.806  10.374
 9698SOL    HW129120   0.791  11.780  10.298
 9698SOL    HW229121   0.704  11.902  10.363
 9699SOL     OW29122   1.728  12.107  11.164
 9699SOL    HW129123   1.682  12.100  11.075
 9699SOL    HW229124   1.666  12.151  11.230
 9700SOL     OW29125   0.307  11.235   9.928
 9700SOL    HW129126   0.296  11.329   9.961
 9700SOL    HW229127   0.302  11.172  10.005
 9701SOL     OW29128   1.622  11.539   9.684
 9701SOL    HW129129   1.624  11.463   9.748
 9701SOL    HW229130   1.574  11.616   9.724
 9702SOL     OW29131   1.023  11.938  10.276
 9702SOL    HW129132   1.038  11.959  10.372
 9702SOL    HW229133   0.993  11.843  10.267
 9703SOL     OW29134   1.859  12.690  10.915
 9703SOL    HW129135   1.873  12.717  10.820
 9703SOL    HW229136   1.942  12.712  10.968
 9704SOL     OW29137   0.350  12.070  11.114
 9704SOL    HW129138   0.426  12.114  11.162
 9704SOL    HW229139   0.385  12.023  11.032
 9705SOL     OW29140   1.540  11.446   9.435
 9705SOL    HW129141   1.479  11.371   9.458
 9705SOL    HW229142   1.562  11.498   9.518
 9706SOL     OW29143   1.303  12.010   9.352
 9706SOL    HW129144   1.337  11.917   9.367
 9706SOL    HW229145   1.321  12.037   9.257
 9707SOL     OW29146   1.068  12.505  10.159
 9707SOL    HW129147   1.075  12.421  10.104
 9707SOL    HW229148   1.130  12.574  10.123
 9708SOL     OW29149   0.319  11.982  10.259
 9708SOL    HW129150   0.412  12.018  10.264
 9708SOL    HW229151   0.313  11.897  10.311
 9709SOL     OW29152   0.339  11.681  10.316
 9709SOL    HW129153   0.287  11.598  10.299
 9709SOL    HW229154   0.416  11.686  10.252
 9710SOL     OW29155   1.138  11.552  10.988
 9710SOL    HW129156   1.093  11.615  11.052
 9710SOL    HW229157   1.231  11.583  10.971
 9711SOL     OW29158   1.160  11.379  10.787
 9711SOL    HW129159   1.160  11.443  10.864
 9711SOL    HW229160   1.188  11.427  10.704
 9712SOL     OW29161   0.008  12.498   9.510
 9712SOL    HW129162  -0.085  12.519   9.479
 9712SOL    HW229163   0.018  12.399   9.523
 9713SOL     OW29164   1.002  11.968  10.548
 9713SOL    HW129165   1.043  11.936  10.634
 9713SOL    HW229166   0.906  11.941  10.545
 9714SOL     OW29167   0.040  11.716  10.424
 9714SOL    HW129168   0.125  11.683  10.383
 9714SOL    HW229169   0.053  11.731  10.522
 9715SOL     OW29170   0.189  11.692  11.032
 9715SOL    HW129171   0.248  11.652  10.962
 9715SOL    HW229172   0.131  11.763  10.991
 9716SOL     OW29173   1.369  12.122  10.970
 9716SOL    HW129174   1.408  12.211  10.990
 9716SOL    HW229175   1.379  12.102  10.873
 9717SOL     OW29176   0.815  11.744   9.635
 9717SOL    HW129177   0.822  11.655   9.589
 9717SOL    HW229178   0.721  11.778   9.627
 9718SOL     OW29179   1.657  11.776  10.516
 9718SOL    HW129180   1.619  11.707  10.578
 9718SOL    HW229181   1.739  11.740  10.472
 9719SOL     OW29182   0.252  12.736  11.054
 9719SOL    HW129183   0.222  12.793  11.130
 9719SOL    HW229184   0.245  12.639  11.080
 9720SOL     OW29185   0.671  11.636  10.579
 9720SOL    HW129186   0.637  11.547  10.549
 9720SOL    HW229187   0.697  11.690  10.499
 9721SOL     OW29188   0.473  11.672   9.501
 9721SOL    HW129189   0.534  11.752   9.505
 9721SOL    HW229190   0.378  11.703   9.508
 9722SOL     OW29191   0.159  12.309  10.776
 9722SOL    HW129192   0.181  12.248  10.852
 9722SOL    HW229193   0.169  12.260  10.690
 9723SOL     OW29194   1.347  12.231  10.544
 9723SOL    HW129195   1.371  12.168  10.470
 9723SOL    HW229196   1.257  12.271  10.526
 9724SOL     OW29197   1.302  12.027   9.619
 9724SOL    HW129198   1.216  11.996   9.661
 9724SOL    HW229199   1.298  12.013   9.520
 9725SOL     OW29200   0.083  12.430  10.332
 9725SOL    HW129201   0.078  12.429  10.432
 9725SOL    HW229202   0.000  12.389  10.294
 9726SOL     OW29203   1.726  11.307   9.833
 9726SOL    HW129204   1.799  11.290   9.766
 9726SOL    HW229205   1.695  11.220   9.871
 9727SOL     OW29206   1.280  12.099   9.982
 9727SOL    HW129207   1.340  12.018   9.984
 9727SOL    HW229208   1.320  12.168   9.922
 9728SOL     OW29209   0.830  12.445  10.732
 9728SOL    HW129210   0.825  12.478  10.827
 9728SOL    HW229211   0.744  12.464  10.686
 9729SOL     OW29212   1.841  11.347  10.273
 9729SOL    HW129213   1.880  11.262  10.237
 9729SOL    HW229214   1.743  11.349  10.254
 9730SOL     OW29215   0.263  11.498  10.030
 9730SOL    HW129216   0.184  11.549   9.996
 9730SOL    HW229217   0.254  11.483  10.128
 9731SOL     OW29218   0.822  12.174  10.682
 9731SOL    HW129219   0.862  12.173  10.590
 9731SOL    HW229220   0.832  12.266  10.722
 9732SOL     OW29221   0.916  12.082   9.601
 9732SOL    HW129222   0.979  12.120   9.533
 9732SOL    HW229223   0.956  11.999   9.640
 9733SOL     OW29224   0.372  12.460  10.800
 9733SOL    HW129225   0.359  12.553  10.766
 9733SOL    HW229226   0.288  12.408  10.787
 9734SOL     OW29227   1.614  12.464  10.599
 9734SOL    HW129228   1.674  12.467  10.679
 9734SOL    HW229229   1.539  12.528  10.612
 9735SOL     OW29230   1.039  12.270  10.006
 9735SOL    HW129231   0.969  12.223  10.060
 9735SOL    HW229232   1.098  12.202   9.963
 9736SOL     OW29233   1.014  11.408  10.281
 9736SOL    HW129234   1.006  11.372  10.188
 9736SOL    HW229235   1.012  11.332  10.346
 9737SOL     OW29236   1.709  11.557  10.691
 9737SOL    HW129237   1.782  11.626  10.695
 9737SOL    HW229238   1.737  11.482  10.632
 9738SOL     OW29239   0.255  12.520   9.600
 9738SOL    HW129240   0.159  12.521   9.573
 9738SOL    HW229241   0.267  12.573   9.684
 9739SOL     OW29242   0.105  12.185  11.036
 9739SOL    HW129243   0.028  12.152  11.090
 9739SOL    HW229244   0.190  12.155  11.078
 9740SOL     OW29245   0.672  11.375  10.799
 9740SOL    HW129246   0.762  11.359  10.759
 9740SOL    HW229247   0.680  11.380  10.898
 9741SOL     OW29248   0.075  11.517   9.343
 9741SOL    HW129249  -0.017  11.489   9.314
 9741SOL    HW229250   0.106  11.594   9.287
 9742SOL     OW29251   1.440  12.028  10.708
 9742SOL    HW129252   1.383  12.080  10.645
 9742SOL    HW229253   1.536  12.040  10.684
 9743SOL     OW29254   0.072  11.338   9.628
 9743SOL    HW129255   0.055  11.421   9.574
 9743SOL    HW229256   0.162  11.301   9.606
 9744SOL     OW29257   1.183  12.507   9.429
 9744SOL    HW129258   1.084  12.496   9.431
 9744SOL    HW229259   1.217  12.522   9.522
 9745SOL     OW29260   0.613  12.014  10.741
 9745SOL    HW129261   0.669  12.095  10.724
 9745SOL    HW229262   0.672  11.934  10.744
 9746SOL     OW29263   0.716  11.737  11.018
 9746SOL    HW129264   0.735  11.802  11.092
 9746SOL    HW229265   0.776  11.657  11.027
 9747SOL     OW29266   1.450  12.392  10.943
 9747SOL    HW129267   1.441  12.382  11.042
 9747SOL    HW229268   1.546  12.385  10.917
 9748SOL     OW29269   1.674  12.055  10.564
 9748SOL    HW129270   1.647  11.966  10.527
 9748SOL    HW229271   1.675  12.123  10.491
 9749SOL     OW29272   1.225  11.497   9.759
 9749SOL    HW129273   1.290  11.423   9.748
 9749SOL    HW229274   1.245  11.547   9.843
 9750SOL     OW29275   0.594  11.917   9.962
 9750SOL    HW129276   0.644  12.002   9.943
 9750SOL    HW229277   0.506  11.919   9.914
 9751SOL     OW29278   1.777  11.514  10.952
 9751SOL    HW129279   1.760  11.545  10.858
 9751SOL    HW229280   1.693  11.477  10.990
 9752SOL     OW29281   1.730  12.106  10.827
 9752SOL    HW129282   1.768  12.197  10.842
 9752SOL    HW229283   1.722  12.089  10.728
 9753SOL     OW29284   0.859  12.546   9.326
 9753SOL    HW129285   0.813  12.561   9.414
 9753SOL    HW229286   0.903  12.631   9.296
 9754SOL     OW29287   0.859  12.128  10.171
 9754SOL    HW129288   0.913  12.059  10.219
 9754SOL    HW229289   0.827  12.197  10.237
 9755SOL     OW29290   1.083  12.156   9.397
 9755SOL    HW129291   1.060  12.209   9.315
 9755SOL    HW229292   1.164  12.100   9.378
 9756SOL     OW29293   0.221  12.486  11.154
 9756SOL    HW129294   0.156  12.413  11.133
 9756SOL    HW229295   0.225  12.500  11.252
 9757SOL     OW29296   0.079  12.412   9.963
 9757SOL    HW129297   0.078  12.365  10.051
 9757SOL    HW229298   0.161  12.384   9.912
 9758SOL     OW29299   0.672  12.563  10.934
 9758SOL    HW129300   0.594  12.513  10.972
 9758SOL    HW229301   0.669  12.658  10.965
 9759SOL     OW29302   1.824  11.364  10.537
 9759SOL    HW129303   1.820  11.274  10.581
 9759SOL    HW229304   1.827  11.353  10.438
 9760SOL     OW29305   0.428  11.596   9.830
 9760SOL    HW129306   0.458  11.524   9.768
 9760SOL    HW229307   0.389  11.556   9.913
 9761SOL     OW29308   1.705  12.659  10.414
 9761SOL    HW129309   1.612  12.634  10.387
 9761SOL    HW229310   1.731  12.609  10.496
 9762SOL     OW29311   0.317  11.719  10.590
 9762SOL    HW129312   0.355  11.660  10.662
 9762SOL    HW229313   0.357  11.693  10.502
 9763SOL     OW29314   1.424  11.386  10.422
 9763SOL    HW129315   1.476  11.321  10.477
 9763SOL    HW229316   1.375  11.449  10.483
 9764SOL     OW29317   1.001  11.206  10.464
 9764SOL    HW129318   0.938  11.134  10.433
 9764SOL    HW229319   1.094  11.170  10.464
 9765SOL     OW29320   0.770  12.502   9.611
 9765SOL    HW129321   0.724  12.415   9.628
 9765SOL    HW229322   0.861  12.499   9.652
 9766SOL     OW29323   0.618  12.739  10.594
 9766SOL    HW129324   0.613  12.821  10.651
 9766SOL    HW229325   0.707  12.736  10.549
 9767SOL     OW29326   1.352  11.224   9.478
 9767SOL    HW129327   1.387  11.183   9.394
 9767SOL    HW229328   1.262  11.186   9.498
 9768SOL     OW29329   1.300  11.625  10.001
 9768SOL    HW129330   1.241  11.705  10.005
 9768SOL    HW229331   1.315  11.590  10.094
 9769SOL     OW29332   1.593  11.393  10.192
 9769SOL    HW129333   1.509  11.392  10.246
 9769SOL    HW229334   1.595  11.476  10.136
 9770SOL     OW29335   0.039  12.249   9.610
 9770SOL    HW129336   0.138  12.238   9.601
 9770SOL    HW229337  -0.001  12.163   9.642
 9771SOL     OW29338   0.230  11.800  11.285
 9771SOL    HW129339   0.137  11.798  11.322
 9771SOL    HW229340   0.231  11.761  11.193
 9772SOL     OW29341   0.225  11.447  12.168
 9772SOL    HW129342   0.260  11.430  12.260
 9772SOL    HW229343   0.137  11.402  12.156
 9773SOL     OW29344   0.019  11.540  11.819
 9773SOL    HW129345  -0.063  11.583  11.858
 9773SOL    HW229346  -0.009  11.467  11.756
 9774SOL     OW29347   0.569  12.447  12.337
 9774SOL    HW129348   0.476  12.440  12.300
 9774SOL    HW229349   0.580  12.536  12.381
 9775SOL     OW29350   1.555  12.683  11.875
 9775SOL    HW129351   1.498  12.667  11.956
 9775SOL    HW229352   1.496  12.693  11.795
 9776SOL     OW29353   1.135  11.875  11.889
 9776SOL    HW129354   1.192  11.953  11.864
 9776SOL    HW229355   1.075  11.901  11.965
 9777SOL     OW29356   1.755  11.779  11.403
 9777SOL    HW129357   1.743  11.766  11.304
 9777SOL    HW229358   1.725  11.698  11.452
 9778SOL     OW29359   0.768  12.316  12.195
 9778SOL    HW129360   0.690  12.333  12.255
 9778SOL    HW229361   0.802  12.403  12.159
 9779SOL     OW29362   0.685  12.184  11.837
 9779SOL    HW129363   0.754  12.168  11.907
 9779SOL    HW229364   0.612  12.241  11.875
 9780SOL     OW29365   0.335  12.607  12.233
 9780SOL    HW129366   0.257  12.576  12.180
 9780SOL    HW229367   0.393  12.665  12.176
 9781SOL     OW29368   1.460  12.677  12.511
 9781SOL    HW129369   1.484  12.771  12.537
 9781SOL    HW229370   1.444  12.623  12.593
 9782SOL     OW29371   0.438  11.564  12.671
 9782SOL    HW129372   0.520  11.508  12.680
 9782SOL    HW229373   0.357  11.506  12.675
 9783SOL     OW29374   1.603  11.619  11.909
 9783SOL    HW129375   1.529  11.665  11.859
 9783SOL    HW229376   1.654  11.687  11.962
 9784SOL     OW29377   0.231  12.885  11.655
 9784SOL    HW129378   0.265  12.962  11.709
 9784SOL    HW229379   0.275  12.885  11.565
 9785SOL     OW29380   0.230  12.606  11.710
 9785SOL    HW129381   0.204  12.702  11.710
 9785SOL    HW229382   0.159  12.552  11.755
 9786SOL     OW29383   0.240  12.263  12.058
 9786SOL    HW129384   0.254  12.179  12.110
 9786SOL    HW229385   0.185  12.327  12.113
 9787SOL     OW29386   0.606  12.136  11.295
 9787SOL    HW129387   0.613  12.220  11.241
 9787SOL    HW229388   0.652  12.149  11.383
 9788SOL     OW29389   1.594  11.286  12.652
 9788SOL    HW129390   1.576  11.353  12.580
 9788SOL    HW229391   1.591  11.332  12.741
 9789SOL     OW29392   0.122  11.815  11.735
 9789SOL    HW129393   0.077  11.727  11.752
 9789SOL    HW229394   0.121  11.869  11.819
 9790SOL     OW29395   0.027  12.768  11.289
 9790SOL    HW129396   0.008  12.672  11.310
 9790SOL    HW229397  -0.006  12.826  11.364
 9791SOL     OW29398   1.689  12.094  11.784
 9791SOL    HW129399   1.784  12.065  11.792
 9791SOL    HW229400   1.681  12.159  11.709
 9792SOL     OW29401   1.641  12.280  11.604
 9792SOL    HW129402   1.727  12.282  11.552
 9792SOL    HW229403   1.655  12.327  11.692
 9793SOL     OW29404   0.613  12.537  11.898
 9793SOL    HW129405   0.564  12.450  11.907
 9793SOL    HW229406   0.590  12.580  11.811
 9794SOL     OW29407   0.809  11.176  11.674
 9794SOL    HW129408   0.849  11.267  11.665
 9794SOL    HW229409   0.709  11.184  11.680
 9795SOL     OW29410   0.197  12.148  12.436
 9795SOL    HW129411   0.286  12.103  12.422
 9795SOL    HW229412   0.124  12.083  12.417
 9796SOL     OW29413   1.525  12.171  11.362
 9796SOL    HW129414   1.462  12.095  11.375
 9796SOL    HW229415   1.573  12.189  11.448
 9797SOL     OW29416   0.317  11.423  12.973
 9797SOL    HW129417   0.388  11.494  12.979
 9797SOL    HW229418   0.229  11.462  13.001
 9798SOL     OW29419   1.466  12.589  12.125
 9798SOL    HW129420   1.407  12.595  12.205
 9798SOL    HW229421   1.451  12.501  12.079
 9799SOL     OW29422   0.598  11.901  11.442
 9799SOL    HW129423   0.622  11.970  11.374
 9799SOL    HW229424   0.520  11.934  11.496
 9800SOL     OW29425   1.281  11.517  12.116
 9800SOL    HW129426   1.195  11.467  12.103
 9800SOL    HW229427   1.343  11.463  12.172
 9801SOL     OW29428   0.807  11.777  12.637
 9801SOL    HW129429   0.760  11.774  12.726
 9801SOL    HW229430   0.756  11.722  12.571
 9802SOL     OW29431   0.991  11.582  12.414
 9802SOL    HW129432   0.914  11.616  12.468
 9802SOL    HW229433   0.957  11.531  12.335
 9803SOL     OW29434   1.041  11.873  11.601
 9803SOL    HW129435   1.067  11.869  11.697
 9803SOL    HW229436   0.956  11.822  11.587
 9804SOL     OW29437   0.076  11.983  11.961
 9804SOL    HW129438   0.175  11.971  11.970
 9804SOL    HW229439   0.052  12.078  11.982
 9805SOL     OW29440   0.865  11.520  11.367
 9805SOL    HW129441   0.924  11.583  11.318
 9805SOL    HW229442   0.884  11.426  11.338
 9806SOL     OW29443   1.362  12.316  11.717
 9806SOL    HW129444   1.445  12.287  11.669
 9806SOL    HW229445   1.313  12.383  11.661
 9807SOL     OW29446   0.550  11.368  12.057
 9807SOL    HW129447   0.545  11.363  12.157
 9807SOL    HW229448   0.552  11.464  12.028
 9808SOL     OW29449   1.008  12.628  11.649
 9808SOL    HW129450   0.962  12.700  11.597
 9808SOL    HW229451   1.004  12.648  11.747
 9809SOL     OW29452   1.795  12.238  12.045
 9809SOL    HW129453   1.733  12.223  11.969
 9809SOL    HW229454   1.743  12.249  12.130
 9810SOL     OW29455   0.321  12.115  11.414
 9810SOL    HW129456   0.403  12.154  11.372
 9810SOL    HW229457   0.294  12.033  11.365
 9811SOL     OW29458   1.458  11.907  11.900
 9811SOL    HW129459   1.453  11.842  11.975
 9811SOL    HW229460   1.538  11.966  11.913
 9812SOL     OW29461   1.111  12.948  11.409
 9812SOL    HW129462   1.051  12.886  11.459
 9812SOL    HW229463   1.142  12.904  11.324
 9813SOL     OW29464   1.632  12.549  11.253
 9813SOL    HW129465   1.600  12.643  11.243
 9813SOL    HW229466   1.556  12.486  11.241
 9814SOL     OW29467   1.400  11.279  11.598
 9814SOL    HW129468   1.376  11.242  11.508
 9814SOL    HW229469   1.499  11.295  11.602
 9815SOL     OW29470   0.382  11.872  11.652
 9815SOL    HW129471   0.427  11.782  11.649
 9815SOL    HW229472   0.288  11.861  11.685
 9816SOL     OW29473   0.614  11.294  11.289
 9816SOL    HW129474   0.712  11.272  11.296
 9816SOL    HW229475   0.583  11.277  11.196
 9817SOL     OW29476   0.803  12.574  12.096
 9817SOL    HW129477   0.893  12.588  12.054
 9817SOL    HW229478   0.732  12.576  12.025
 9818SOL     OW29479   0.922  11.675  12.071
 9818SOL    HW129480   0.897  11.666  11.975
 9818SOL    HW229481   0.970  11.593  12.102
 9819SOL     OW29482   0.539  11.236  11.684
 9819SOL    HW129483   0.458  11.237  11.742
 9819SOL    HW229484   0.542  11.319  11.629
 9820SOL     OW29485   1.434  12.360  11.213
 9820SOL    HW129486   1.466  12.284  11.270
 9820SOL    HW229487   1.342  12.387  11.243
 9821SOL     OW29488   0.297  11.207  11.343
 9821SOL    HW129489   0.346  11.291  11.322
 9821SOL    HW229490   0.359  11.142  11.388
 9822SOL     OW29491   0.935  11.408  11.652
 9822SOL    HW129492   0.887  11.449  11.574
 9822SOL    HW229493   1.034  11.406  11.633
 9823SOL     OW29494   1.227  12.742  11.965
 9823SOL    HW129495   1.248  12.816  11.900
 9823SOL    HW229496   1.295  12.742  12.038
 9824SOL     OW29497   0.459  12.324  11.913
 9824SOL    HW129498   0.388  12.297  11.978
 9824SOL    HW229499   0.433  12.296  11.820
 9825SOL     OW29500   1.032  11.721  11.188
 9825SOL    HW129501   0.991  11.803  11.149
 9825SOL    HW229502   1.096  11.747  11.261
 9826SOL     OW29503   0.078  11.728  12.558
 9826SOL    HW129504   0.170  11.727  12.517
 9826SOL    HW229505   0.072  11.802  12.625
 9827SOL     OW29506   0.561  11.394  12.319
 9827SOL    HW129507   0.599  11.310  12.356
 9827SOL    HW229508   0.473  11.413  12.363
 9828SOL     OW29509   0.866  11.626  11.814
 9828SOL    HW129510   0.834  11.698  11.752
 9828SOL    HW229511   0.890  11.545  11.761
 9829SOL     OW29512   1.017  11.211  11.925
 9829SOL    HW129513   0.945  11.216  11.856
 9829SOL    HW229514   0.993  11.142  11.994
 9830SOL     OW29515   1.429  12.345  12.039
 9830SOL    HW129516   1.374  12.261  12.032
 9830SOL    HW229517   1.455  12.374  11.947
 9831SOL     OW29518   1.466  11.762  12.164
 9831SOL    HW129519   1.436  11.667  12.171
 9831SOL    HW229520   1.539  11.778  12.230
 9832SOL     OW29521   1.857  12.005  11.549
 9832SOL    HW129522   1.899  11.941  11.613
 9832SOL    HW229523   1.819  11.954  11.471
 9833SOL     OW29524   0.488  12.557  11.346
 9833SOL    HW129525   0.401  12.542  11.393
 9833SOL    HW229526   0.471  12.583  11.251
 9834SOL     OW29527   1.664  12.452  11.829
 9834SOL    HW129528   1.763  12.460  11.843
 9834SOL    HW229529   1.619  12.536  11.860
 9835SOL     OW29530   1.390  11.747  11.250
 9835SOL    HW129531   1.336  11.726  11.331
 9835SOL    HW229532   1.481  11.706  11.259
 9836SOL     OW29533   0.527  11.428  11.500
 9836SOL    HW129534   0.554  11.369  11.425
 9836SOL    HW229535   0.527  11.523  11.469
 9837SOL     OW29536   1.064  12.519  12.512
 9837SOL    HW129537   0.984  12.496  12.567
 9837SOL    HW229538   1.147  12.493  12.561
 9838SOL     OW29539   1.111  12.367  12.272
 9838SOL    HW129540   1.071  12.411  12.353
 9838SOL    HW229541   1.070  12.404  12.189
 9839SOL     OW29542   1.638  12.271  12.251
 9839SOL    HW129543   1.643  12.352  12.310
 9839SOL    HW229544   1.552  12.273  12.200
 9840SOL     OW29545   0.915  11.261  12.574
 9840SOL    HW129546   0.940  11.241  12.479
 9840SOL    HW229547   0.987  11.317  12.616
 9841SOL     OW29548   0.705  12.222  11.540
 9841SOL    HW129549   0.691  12.229  11.639
 9841SOL    HW229550   0.789  12.171  11.522
 9842SOL     OW29551   0.410  11.985  12.423
 9842SOL    HW129552   0.496  11.997  12.473
 9842SOL    HW229553   0.368  11.898  12.450
 9843SOL     OW29554   1.274  11.558  12.434
 9843SOL    HW129555   1.295  11.632  12.498
 9843SOL    HW229556   1.185  11.575  12.391
 9844SOL     OW29557   0.064  12.736  12.503
 9844SOL    HW129558   0.018  12.818  12.469
 9844SOL    HW229559   0.162  12.755  12.512
 9845SOL     OW29560   0.367  12.272  11.673
 9845SOL    HW129561   0.360  12.355  11.617
 9845SOL    HW229562   0.371  12.192  11.613
 9846SOL     OW29563   0.566  11.709  12.037
 9846SOL    HW129564   0.578  11.775  11.963
 9846SOL    HW229565   0.612  11.743  12.120
 9847SOL     OW29566   1.252  12.520  11.560
 9847SOL    HW129567   1.302  12.597  11.600
 9847SOL    HW229568   1.157  12.522  11.592
 9848SOL     OW29569   1.272  12.617  12.314
 9848SOL    HW129570   1.319  12.630  12.401
 9848SOL    HW229571   1.206  12.543  12.323
 9849SOL     OW29572   1.582  11.811  11.644
 9849SOL    HW129573   1.551  11.872  11.717
 9849SOL    HW229574   1.632  11.863  11.575
 9850SOL     OW29575   0.354  12.682  12.501
 9850SOL    HW129576   0.333  12.638  12.414
 9850SOL    HW229577   0.451  12.708  12.504
 9851SOL     OW29578   0.402  11.923  12.770
 9851SOL    HW129579   0.470  11.978  12.723
 9851SOL    HW229580   0.442  11.835  12.797
 9852SOL     OW29581   1.587  11.951  12.842
 9852SOL    HW129582   1.495  11.989  12.837
 9852SOL    HW229583   1.647  11.998  12.777
 9853SOL     OW29584   0.573  12.042  12.201
 9853SOL    HW129585   0.617  12.131  12.192
 9853SOL    HW229586   0.510  12.042  12.278
 9854SOL     OW29587   1.360  12.034  12.217
 9854SOL    HW129588   1.285  12.034  12.151
 9854SOL    HW229589   1.397  11.942  12.226
 9855SOL     OW29590   1.209  11.697  11.447
 9855SOL    HW129591   1.222  11.613  11.501
 9855SOL    HW229592   1.180  11.771  11.507
 9856SOL     OW29593   0.307  11.385  12.403
 9856SOL    HW129594   0.284  11.422  12.493
 9856SOL    HW229595   0.277  11.290  12.397
 9857SOL     OW29596   0.037  12.482  12.454
 9857SOL    HW129597   0.090  12.433  12.522
 9857SOL    HW229598   0.059  12.580  12.459
 9858SOL     OW29599   0.732  11.806  12.236
 9858SOL    HW129600   0.791  11.780  12.160
 9858SOL    HW229601   0.704  11.902  12.225
 9859SOL     OW29602   0.307  11.235  11.790
 9859SOL    HW129603   0.296  11.329  11.823
 9859SOL    HW229604   0.302  11.172  11.867
 9860SOL     OW29605   1.622  11.539  11.546
 9860SOL    HW129606   1.624  11.463  11.610
 9860SOL    HW229607   1.574  11.616  11.586
 9861SOL     OW29608   1.023  11.938  12.138
 9861SOL    HW129609   1.038  11.959  12.234
 9861SOL    HW229610   0.993  11.843  12.129
 9862SOL     OW29611   1.540  11.446  11.297
 9862SOL    HW129612   1.479  11.371  11.320
 9862SOL    HW229613   1.562  11.498  11.380
 9863SOL     OW29614   1.303  12.010  11.214
 9863SOL    HW129615   1.337  11.917  11.229
 9863SOL    HW229616   1.321  12.037  11.119
 9864SOL     OW29617   1.068  12.505  12.021
 9864SOL    HW129618   1.075  12.421  11.966
 9864SOL    HW229619   1.130  12.574  11.985
 9865SOL     OW29620   0.319  11.982  12.121
 9865SOL    HW129621   0.412  12.018  12.126
 9865SOL    HW229622   0.313  11.897  12.173
 9866SOL     OW29623   0.339  11.681  12.178
 9866SOL    HW129624   0.287  11.598  12.161
 9866SOL    HW229625   0.416  11.686  12.114
 9867SOL     OW29626   1.138  11.552  12.850
 9867SOL    HW129627   1.093  11.615  12.914
 9867SOL    HW229628   1.231  11.583  12.833
 9868SOL     OW29629   1.160  11.379  12.649
 9868SOL    HW129630   1.160  11.443  12.726
 9868SOL    HW229631   1.188  11.427  12.566
 9869SOL     OW29632   0.008  12.498  11.372
 9869SOL    HW129633  -0.085  12.519  11.341
 9869SOL    HW229634   0.018  12.399  11.385
 9870SOL     OW29635   1.002  11.968  12.410
 9870SOL    HW129636   1.043  11.936  12.496
 9870SOL    HW229637   0.906  11.941  12.407
 9871SOL     OW29638   0.040  11.716  12.286
 9871SOL    HW129639   0.125  11.683  12.245
 9871SOL    HW229640   0.053  11.731  12.384
 9872SOL     OW29641   0.815  11.744  11.497
 9872SOL    HW129642   0.822  11.655  11.451
 9872SOL    HW229643   0.721  11.778  11.489
 9873SOL     OW29644   1.657  11.776  12.378
 9873SOL    HW129645   1.619  11.707  12.440
 9873SOL    HW229646   1.739  11.740  12.334
 9874SOL     OW29647   0.671  11.636  12.441
 9874SOL    HW129648   0.637  11.547  12.411
 9874SOL    HW229649   0.697  11.690  12.361
 9875SOL     OW29650   0.473  11.672  11.363
 9875SOL    HW129651   0.534  11.752  11.367
 9875SOL    HW229652   0.378  11.703  11.370
 9876SOL     OW29653   0.159  12.309  12.638
 9876SOL    HW129654   0.181  12.248  12.714
 9876SOL    HW229655   0.169  12.260  12.552
 9877SOL     OW29656   1.347  12.231  12.406
 9877SOL    HW129657   1.371  12.168  12.332
 9877SOL    HW229658   1.257  12.271  12.388
 9878SOL     OW29659   1.302  12.027  11.481
 9878SOL    HW129660   1.216  11.996  11.523
 9878SOL    HW229661   1.298  12.013  11.382
 9879SOL     OW29662   0.083  12.430  12.194
 9879SOL    HW129663   0.078  12.429  12.294
 9879SOL    HW229664   0.000  12.389  12.156
 9880SOL     OW29665   1.726  11.307  11.695
 9880SOL    HW129666   1.799  11.290  11.628
 9880SOL    HW229667   1.695  11.220  11.733
 9881SOL     OW29668   1.280  12.099  11.844
 9881SOL    HW129669   1.340  12.018  11.846
 9881SOL    HW229670   1.320  12.168  11.784
 9882SOL     OW29671   1.841  11.347  12.135
 9882SOL    HW129672   1.880  11.262  12.099
 9882SOL    HW229673   1.743  11.349  12.116
 9883SOL     OW29674   0.263  11.498  11.892
 9883SOL    HW129675   0.184  11.549  11.858
 9883SOL    HW229676   0.254  11.483  11.990
 9884SOL     OW29677   0.822  12.174  12.544
 9884SOL    HW129678   0.862  12.173  12.452
 9884SOL    HW229679   0.832  12.266  12.584
 9885SOL     OW29680   0.916  12.082  11.463
 9885SOL    HW129681   0.979  12.120  11.395
 9885SOL    HW229682   0.956  11.999  11.502
 9886SOL     OW29683   0.372  12.460  12.662
 9886SOL    HW129684   0.359  12.553  12.628
 9886SOL    HW229685   0.288  12.408  12.649
 9887SOL     OW29686   1.614  12.464  12.461
 9887SOL    HW129687   1.674  12.467  12.541
 9887SOL    HW229688   1.539  12.528  12.474
 9888SOL     OW29689   1.039  12.270  11.868
 9888SOL    HW129690   0.969  12.223  11.922
 9888SOL    HW229691   1.098  12.202  11.825
 9889SOL     OW29692   1.014  11.408  12.143
 9889SOL    HW129693   1.006  11.372  12.050
 9889SOL    HW229694   1.012  11.332  12.208
 9890SOL     OW29695   1.709  11.557  12.553
 9890SOL    HW129696   1.782  11.626  12.557
 9890SOL    HW229697   1.737  11.482  12.494
 9891SOL     OW29698   0.255  12.520  11.462
 9891SOL    HW129699   0.159  12.521  11.435
 9891SOL    HW229700   0.267  12.573  11.546
 9892SOL     OW29701   0.075  11.517  11.205
 9892SOL    HW129702  -0.017  11.489  11.176
 9892SOL    HW229703   0.106  11.594  11.149
 9893SOL     OW29704   1.440  12.028  12.570
 9893SOL    HW129705   1.383  12.080  12.507
 9893SOL    HW229706   1.536  12.040  12.546
 9894SOL     OW29707   0.072  11.338  11.490
 9894SOL    HW129708   0.055  11.421  11.436
 9894SOL    HW229709   0.162  11.301  11.468
 9895SOL     OW29710   1.183  12.507  11.291
 9895SOL    HW129711   1.084  12.496  11.293
 9895SOL    HW229712   1.217  12.522  11.384
 9896SOL     OW29713   0.613  12.014  12.603
 9896SOL    HW129714   0.669  12.095  12.586
 9896SOL    HW229715   0.672  11.934  12.606
 9897SOL     OW29716   1.674  12.055  12.426
 9897SOL    HW129717   1.647  11.966  12.389
 9897SOL    HW229718   1.675  12.123  12.353
 9898SOL     OW29719   1.225  11.497  11.621
 9898SOL    HW129720   1.290  11.423  11.610
 9898SOL    HW229721   1.245  11.547  11.705
 9899SOL     OW29722   0.594  11.917  11.824
 9899SOL    HW129723   0.644  12.002  11.805
 9899SOL    HW229724   0.506  11.919  11.776
 9900SOL     OW29725   1.777  11.514  12.814
 9900SOL    HW129726   1.760  11.545  12.720
 9900SOL    HW229727   1.693  11.477  12.852
 9901SOL     OW29728   1.730  12.106  12.689
 9901SOL    HW129729   1.768  12.197  12.704
 9901SOL    HW229730   1.722  12.089  12.590
 9902SOL     OW29731   0.859  12.546  11.188
 9902SOL    HW129732   0.813  12.561  11.276
 9902SOL    HW229733   0.903  12.631  11.158
 9903SOL     OW29734   0.859  12.128  12.033
 9903SOL    HW129735   0.913  12.059  12.081
 9903SOL    HW229736   0.827  12.197  12.099
 9904SOL     OW29737   1.083  12.156  11.259
 9904SOL    HW129738   1.060  12.209  11.177
 9904SOL    HW229739   1.164  12.100  11.240
 9905SOL     OW29740   0.079  12.412  11.825
 9905SOL    HW129741   0.078  12.365  11.913
 9905SOL    HW229742   0.161  12.384  11.774
 9906SOL     OW29743   1.824  11.364  12.399
 9906SOL    HW129744   1.820  11.274  12.443
 9906SOL    HW229745   1.827  11.353  12.300
 9907SOL     OW29746   0.428  11.596  11.692
 9907SOL    HW129747   0.458  11.524  11.630
 9907SOL    HW229748   0.389  11.556  11.775
 9908SOL     OW29749   1.705  12.659  12.276
 9908SOL    HW129750   1.612  12.634  12.249
 9908SOL    HW229751   1.731  12.609  12.358
 9909SOL     OW29752   0.317  11.719  12.452
 9909SOL    HW129753   0.355  11.660  12.524
 9909SOL    HW229754   0.357  11.693  12.364
 9910SOL     OW29755   1.424  11.386  12.284
 9910SOL    HW129756   1.476  11.321  12.339
 9910SOL    HW229757   1.375  11.449  12.345
 9911SOL     OW29758   1.001  11.206  12.326
 9911SOL    HW129759   0.938  11.134  12.295
 9911SOL    HW229760   1.094  11.170  12.326
 9912SOL     OW29761   0.770  12.502  11.473
 9912SOL    HW129762   0.724  12.415  11.490
 9912SOL    HW229763   0.861  12.499  11.514
 9913SOL     OW29764   0.618  12.739  12.456
 9913SOL    HW129765   0.613  12.821  12.513
 9913SOL    HW229766   0.707  12.736  12.411
 9914SOL     OW29767   1.352  11.224  11.340
 9914SOL    HW129768   1.387  11.183  11.256
 9914SOL    HW229769   1.262  11.186  11.360
 9915SOL     OW29770   1.300  11.625  11.863
 9915SOL    HW129771   1.241  11.705  11.867
 9915SOL    HW229772   1.315  11.590  11.956
 9916SOL     OW29773   1.593  11.393  12.054
 9916SOL    HW129774   1.509  11.392  12.108
 9916SOL    HW229775   1.595  11.476  11.998
 9917SOL     OW29776   0.039  12.249  11.472
 9917SOL    HW129777   0.138  12.238  11.463
 9917SOL    HW229778  -0.001  12.163  11.504
 9918SOL     OW29779   2.092   0.628   0.113
 9918SOL    HW129780   1.999   0.626   0.150
 9918SOL    HW229781   2.093   0.589   0.021
 9919SOL     OW29782   2.087   0.275   0.996
 9919SOL    HW129783   2.122   0.258   1.088
 9919SOL    HW229784   1.999   0.230   0.984
 9920SOL     OW29785   1.881   0.368   0.647
 9920SOL    HW129786   1.799   0.411   0.686
 9920SOL    HW229787   1.853   0.295   0.584
 9921SOL     OW29788   2.431   1.275   1.165
 9921SOL    HW129789   2.338   1.268   1.128
 9921SOL    HW229790   2.442   1.364   1.209
 9922SOL     OW29791   3.417   1.511   0.703
 9922SOL    HW129792   3.360   1.495   0.784
 9922SOL    HW229793   3.358   1.521   0.623
 9923SOL     OW29794   2.997   0.703   0.717
 9923SOL    HW129795   3.054   0.781   0.692
 9923SOL    HW229796   2.937   0.729   0.793
 9924SOL     OW29797   3.617   0.607   0.231
 9924SOL    HW129798   3.605   0.594   0.132
 9924SOL    HW229799   3.587   0.526   0.280
 9925SOL     OW29800   2.630   1.144   1.023
 9925SOL    HW129801   2.552   1.161   1.083
 9925SOL    HW229802   2.664   1.231   0.987
 9926SOL     OW29803   2.712   0.798   1.823
 9926SOL    HW129804   2.708   0.874   1.888
 9926SOL    HW229805   2.734   0.834   1.732
 9927SOL     OW29806   2.547   1.012   0.665
 9927SOL    HW129807   2.616   0.996   0.735
 9927SOL    HW229808   2.474   1.069   0.703
 9928SOL     OW29809   2.548   1.161   1.803
 9928SOL    HW129810   2.608   1.240   1.817
 9928SOL    HW229811   2.462   1.192   1.762
 9929SOL     OW29812   2.197   1.435   1.061
 9929SOL    HW129813   2.119   1.404   1.008
 9929SOL    HW229814   2.255   1.493   1.004
 9930SOL     OW29815   3.322   1.505   1.339
 9930SOL    HW129816   3.346   1.599   1.365
 9930SOL    HW229817   3.306   1.451   1.421
 9931SOL     OW29818   2.300   0.392   1.499
 9931SOL    HW129819   2.382   0.336   1.508
 9931SOL    HW229820   2.219   0.334   1.503
 9932SOL     OW29821   3.465   0.447   0.737
 9932SOL    HW129822   3.391   0.493   0.687
 9932SOL    HW229823   3.516   0.515   0.790
 9933SOL     OW29824   2.093   1.713   0.483
 9933SOL    HW129825   2.127   1.790   0.537
 9933SOL    HW229826   2.137   1.713   0.393
 9934SOL     OW29827   2.989   1.341   1.690
 9934SOL    HW129828   3.036   1.341   1.778
 9934SOL    HW229829   2.941   1.254   1.679
 9935SOL     OW29830   2.092   1.434   0.538
 9935SOL    HW129831   2.066   1.530   0.538
 9935SOL    HW229832   2.021   1.380   0.583
 9936SOL     OW29833   2.102   1.091   0.886
 9936SOL    HW129834   2.116   1.007   0.938
 9936SOL    HW229835   2.047   1.155   0.941
 9937SOL     OW29836   2.482   1.786   1.439
 9937SOL    HW129837   2.390   1.769   1.474
 9937SOL    HW229838   2.510   1.878   1.465
 9938SOL     OW29839   2.468   0.964   0.123
 9938SOL    HW129840   2.475   1.048   0.069
 9938SOL    HW229841   2.514   0.977   0.211
 9939SOL     OW29842   3.456   0.114   1.480
 9939SOL    HW129843   3.438   0.181   1.408
 9939SOL    HW229844   3.453   0.160   1.569
 9940SOL     OW29845   1.984   0.643   0.563
 9940SOL    HW129846   1.939   0.555   0.580
 9940SOL    HW229847   1.983   0.697   0.647
 9941SOL     OW29848   3.704   1.767   0.359
 9941SOL    HW129849   3.758   1.738   0.439
 9941SOL    HW229850   3.734   1.857   0.330
 9942SOL     OW29851   1.889   1.596   0.117
 9942SOL    HW129852   1.870   1.500   0.138
 9942SOL    HW229853   1.856   1.654   0.192
 9943SOL     OW29854   3.551   0.922   0.612
 9943SOL    HW129855   3.646   0.893   0.620
 9943SOL    HW229856   3.543   0.987   0.537
 9944SOL     OW29857   3.503   1.108   0.432
 9944SOL    HW129858   3.589   1.110   0.380
 9944SOL    HW229859   3.517   1.155   0.520
 9945SOL     OW29860   1.975   0.737   1.597
 9945SOL    HW129861   2.063   0.724   1.642
 9945SOL    HW229862   1.962   0.834   1.575
 9946SOL     OW29863   2.475   1.365   0.726
 9946SOL    HW129864   2.426   1.278   0.735
 9946SOL    HW229865   2.452   1.408   0.639
 9947SOL     OW29866   3.155   1.228   1.423
 9947SOL    HW129867   3.192   1.155   1.365
 9947SOL    HW229868   3.207   1.233   1.508
 9948SOL     OW29869   2.671   0.004   0.502
 9948SOL    HW129870   2.711   0.095   0.493
 9948SOL    HW229871   2.571   0.012   0.508
 9949SOL     OW29872   2.059   0.976   1.264
 9949SOL    HW129873   2.148   0.931   1.250
 9949SOL    HW229874   1.986   0.911   1.245
 9950SOL     OW29875   3.387   0.999   0.190
 9950SOL    HW129876   3.324   0.923   0.203
 9950SOL    HW229877   3.435   1.017   0.276
 9951SOL     OW29878   3.049   1.792   1.616
 9951SOL    HW129879   3.073   1.852   1.540
 9951SOL    HW229880   3.056   1.697   1.586
 9952SOL     OW29881   2.179   0.251   1.801
 9952SOL    HW129882   2.250   0.322   1.807
 9952SOL    HW229883   2.091   0.290   1.829
 9953SOL     OW29884   3.328   1.417   0.953
 9953SOL    HW129885   3.269   1.423   1.033
 9953SOL    HW229886   3.313   1.329   0.907
 9954SOL     OW29887   3.529   1.714   0.572
 9954SOL    HW129888   3.488   1.691   0.484
 9954SOL    HW229889   3.511   1.640   0.637
 9955SOL     OW29890   2.460   0.729   0.270
 9955SOL    HW129891   2.484   0.798   0.202
 9955SOL    HW229892   2.382   0.762   0.324
 9956SOL     OW29893   3.143   0.345   0.944
 9956SOL    HW129894   3.057   0.295   0.931
 9956SOL    HW229895   3.205   0.291   1.000
 9957SOL     OW29896   3.438   1.662   0.307
 9957SOL    HW129897   3.527   1.708   0.310
 9957SOL    HW229898   3.417   1.638   0.212
 9958SOL     OW29899   2.669   0.605   1.465
 9958SOL    HW129900   2.622   0.602   1.554
 9958SOL    HW229901   2.618   0.550   1.399
 9959SOL     OW29902   3.256   0.469   1.674
 9959SOL    HW129903   3.236   0.512   1.762
 9959SOL    HW229904   3.334   0.407   1.683
 9960SOL     OW29905   2.835   0.890   1.572
 9960SOL    HW129906   2.881   0.806   1.543
 9960SOL    HW229907   2.779   0.924   1.497
 9961SOL     OW29908   2.853   0.410   1.242
 9961SOL    HW129909   2.776   0.444   1.296
 9961SOL    HW229910   2.819   0.359   1.163
 9962SOL     OW29911   2.903   0.701   0.429
 9962SOL    HW129912   2.929   0.697   0.525
 9962SOL    HW229913   2.818   0.650   0.415
 9963SOL     OW29914   1.938   0.811   0.789
 9963SOL    HW129915   2.037   0.799   0.798
 9963SOL    HW229916   1.914   0.906   0.810
 9964SOL     OW29917   1.992   1.821   1.571
 9964SOL    HW129918   1.982   1.806   1.670
 9964SOL    HW229919   1.906   1.857   1.535
 9965SOL     OW29920   2.727   0.348   0.195
 9965SOL    HW129921   2.786   0.411   0.146
 9965SOL    HW229922   2.746   0.254   0.166
 9966SOL     OW29923   3.581   0.585   1.831
 9966SOL    HW129924   3.555   0.674   1.795
 9966SOL    HW229925   3.579   0.517   1.758
 9967SOL     OW29926   3.224   1.144   0.545
 9967SOL    HW129927   3.307   1.115   0.497
 9967SOL    HW229928   3.175   1.211   0.489
 9968SOL     OW29929   2.412   0.196   0.885
 9968SOL    HW129930   2.407   0.191   0.985
 9968SOL    HW229931   2.414   0.292   0.856
 9969SOL     OW29932   2.870   1.456   0.477
 9969SOL    HW129933   2.824   1.528   0.425
 9969SOL    HW229934   2.866   1.476   0.575
 9970SOL     OW29935   2.213   1.801   0.853
 9970SOL    HW129936   2.263   1.715   0.859
 9970SOL    HW229937   2.278   1.878   0.850
 9971SOL     OW29938   3.657   1.066   0.873
 9971SOL    HW129939   3.595   1.051   0.797
 9971SOL    HW229940   3.605   1.077   0.958
 9972SOL     OW29941   3.089   1.550   1.506
 9972SOL    HW129942   3.095   1.473   1.570
 9972SOL    HW229943   3.037   1.524   1.426
 9973SOL     OW29944   2.183   0.943   0.242
 9973SOL    HW129945   2.265   0.982   0.200
 9973SOL    HW229946   2.156   0.861   0.193
 9974SOL     OW29947   3.320   0.735   0.728
 9974SOL    HW129948   3.315   0.670   0.803
 9974SOL    HW229949   3.400   0.794   0.741
 9975SOL     OW29950   2.323   1.266   1.727
 9975SOL    HW129951   2.273   1.267   1.641
 9975SOL    HW229952   2.260   1.248   1.803
 9976SOL     OW29953   2.973   1.776   0.237
 9976SOL    HW129954   2.913   1.714   0.287
 9976SOL    HW229955   3.004   1.732   0.152
 9977SOL     OW29956   2.064   0.285   1.498
 9977SOL    HW129957   1.984   0.345   1.485
 9977SOL    HW229958   2.054   0.236   1.584
 9978SOL     OW29959   3.494   1.377   0.081
 9978SOL    HW129960   3.462   1.471   0.071
 9978SOL    HW229961   3.418   1.314   0.069
 9979SOL     OW29962   2.326   1.743   0.323
 9979SOL    HW129963   2.359   1.782   0.409
 9979SOL    HW229964   2.402   1.736   0.258
 9980SOL     OW29965   3.262   0.107   0.426
 9980SOL    HW129966   3.238   0.070   0.336
 9980SOL    HW229967   3.361   0.123   0.430
 9981SOL     OW29968   2.111   1.785   1.241
 9981SOL    HW129969   2.168   1.720   1.291
 9981SOL    HW229970   2.095   1.752   1.148
 9982SOL     OW29971   2.802   1.698   0.904
 9982SOL    HW129972   2.882   1.641   0.925
 9982SOL    HW229973   2.753   1.658   0.827
 9983SOL     OW29974   2.244   0.700   0.480
 9983SOL    HW129975   2.289   0.610   0.477
 9983SOL    HW229976   2.150   0.689   0.513
 9984SOL     OW29977   3.409   0.222   1.729
 9984SOL    HW129978   3.404   0.259   1.821
 9984SOL    HW229979   3.337   0.153   1.717
 9985SOL     OW29980   2.476   0.122   0.117
 9985SOL    HW129981   2.574   0.100   0.124
 9985SOL    HW229982   2.445   0.105   0.024
 9986SOL     OW29983   2.643   0.264   1.749
 9986SOL    HW129984   2.710   0.203   1.792
 9986SOL    HW229985   2.570   0.283   1.814
 9987SOL     OW29986   2.750   1.514   1.195
 9987SOL    HW129987   2.727   1.489   1.101
 9987SOL    HW229988   2.811   1.445   1.234
 9988SOL     OW29989   3.213   0.590   1.433
 9988SOL    HW129990   3.241   0.547   1.518
 9988SOL    HW229991   3.238   0.686   1.434
 9989SOL     OW29992   2.665   1.402   0.924
 9989SOL    HW129993   2.755   1.416   0.882
 9989SOL    HW229994   2.594   1.404   0.853
 9990SOL     OW29995   2.784   0.503   0.899
 9990SOL    HW129996   2.759   0.494   0.803
 9990SOL    HW229997   2.832   0.421   0.930
 9991SOL     OW29998   2.401   0.064   0.512
 9991SOL    HW129999   2.320   0.065   0.570
 9991SOL    HW230000   2.404   0.147   0.457
 9992SOL     OW30001   3.296   1.188   0.041
 9992SOL    HW130002   3.328   1.112   0.098
 9992SOL    HW230003   3.204   1.215   0.071
 9993SOL     OW30004   2.159   0.035   0.171
 9993SOL    HW130005   2.208   0.119   0.150
 9993SOL    HW230006   2.221  -0.030   0.216
 9994SOL     OW30007   2.797   0.236   0.480
 9994SOL    HW130008   2.749   0.277   0.402
 9994SOL    HW230009   2.896   0.234   0.461
 9995SOL     OW30010   2.938   0.683   1.464
 9995SOL    HW130011   2.858   0.622   1.467
 9995SOL    HW230012   3.019   0.630   1.440
 9996SOL     OW30013   3.089   1.570   0.793
 9996SOL    HW130014   3.110   1.644   0.728
 9996SOL    HW230015   3.157   1.570   0.866
 9997SOL     OW30016   2.321   1.152   0.741
 9997SOL    HW130017   2.250   1.125   0.806
 9997SOL    HW230018   2.295   1.124   0.648
 9998SOL     OW30019   3.133   1.797   0.591
 9998SOL    HW130020   3.177   1.861   0.527
 9998SOL    HW230021   3.083   1.849   0.661
 9999SOL     OW30022   2.894   0.549   0.016
 9999SOL    HW130023   2.853   0.631  -0.023
 9999SOL    HW230024   2.958   0.575   0.089
10000SOL     OW30025   1.940   0.556   1.386
10000SOL    HW130026   2.032   0.555   1.345
10000SOL    HW230027   1.934   0.630   1.453
10001SOL     OW30028   2.423   0.222   1.147
10001SOL    HW130029   2.461   0.138   1.184
10001SOL    HW230030   2.335   0.241   1.191
10002SOL     OW30031   2.728   0.454   0.642
10002SOL    HW130032   2.696   0.526   0.580
10002SOL    HW230033   2.752   0.373   0.589
10003SOL     OW30034   2.879   0.039   0.753
10003SOL    HW130035   2.807   0.044   0.684
10003SOL    HW230036   2.855  -0.030   0.822
10004SOL     OW30037   3.291   1.173   0.867
10004SOL    HW130038   3.236   1.089   0.860
10004SOL    HW230039   3.317   1.202   0.775
10005SOL     OW30040   3.328   0.590   0.992
10005SOL    HW130041   3.298   0.495   0.999
10005SOL    HW230042   3.401   0.606   1.058
10006SOL     OW30043   3.719   0.833   0.377
10006SOL    HW130044   3.761   0.769   0.441
10006SOL    HW230045   3.681   0.782   0.299
10007SOL     OW30046   2.350   1.385   0.174
10007SOL    HW130047   2.263   1.370   0.221
10007SOL    HW230048   2.333   1.411   0.079
10008SOL     OW30049   3.526   1.280   0.657
10008SOL    HW130050   3.625   1.288   0.671
10008SOL    HW230051   3.481   1.364   0.688
10009SOL     OW30052   3.252   0.575   0.078
10009SOL    HW130053   3.198   0.554   0.159
10009SOL    HW230054   3.343   0.534   0.087
10010SOL     OW30055   2.389   0.256   0.328
10010SOL    HW130056   2.416   0.197   0.253
10010SOL    HW230057   2.389   0.351   0.297
10011SOL     OW30058   3.616   1.223   1.588
10011SOL    HW130059   3.707   1.184   1.575
10011SOL    HW230060   3.624   1.319   1.612
10012SOL     OW30061   2.926   1.347   1.340
10012SOL    HW130062   2.846   1.324   1.395
10012SOL    HW230063   3.009   1.321   1.389
10013SOL     OW30064   3.454   1.629   1.625
10013SOL    HW130065   3.481   1.663   1.535
10013SOL    HW230066   3.533   1.591   1.671
10014SOL     OW30067   2.973   1.195   1.100
10014SOL    HW130068   2.933   1.239   1.181
10014SOL    HW230069   2.932   1.232   1.017
10015SOL     OW30070   3.500   1.099   1.079
10015SOL    HW130071   3.505   1.180   1.138
10015SOL    HW230072   3.414   1.101   1.028
10016SOL     OW30073   2.777   0.089   1.402
10016SOL    HW130074   2.802   0.069   1.307
10016SOL    HW230075   2.849   0.145   1.444
10017SOL     OW30076   2.842   1.116   1.719
10017SOL    HW130077   2.743   1.122   1.729
10017SOL    HW230078   2.865   1.036   1.663
10018SOL     OW30079   2.567   1.050   0.368
10018SOL    HW130080   2.553   1.057   0.467
10018SOL    HW230081   2.651   0.999   0.350
10019SOL     OW30082   2.272   0.813   1.251
10019SOL    HW130083   2.358   0.825   1.301
10019SOL    HW230084   2.230   0.726   1.278
10020SOL     OW30085   3.136   0.386   1.262
10020SOL    HW130086   3.157   0.460   1.326
10020SOL    HW230087   3.047   0.403   1.219
10021SOL     OW30088   1.926   1.564   1.331
10021SOL    HW130089   1.880   1.646   1.297
10021SOL    HW230090   2.024   1.583   1.340
10022SOL     OW30091   2.229   1.100   0.501
10022SOL    HW130092   2.222   1.183   0.445
10022SOL    HW230093   2.233   1.020   0.441
10023SOL     OW30094   2.428   0.537   0.865
10023SOL    HW130095   2.440   0.603   0.791
10023SOL    HW230096   2.474   0.571   0.948
10024SOL     OW30097   3.114   1.348   0.388
10024SOL    HW130098   3.164   1.425   0.428
10024SOL    HW230099   3.019   1.350   0.420
10025SOL     OW30100   3.134   1.445   1.142
10025SOL    HW130101   3.181   1.458   1.229
10025SOL    HW230102   3.068   1.371   1.151
10026SOL     OW30103   3.444   0.639   0.472
10026SOL    HW130104   3.413   0.700   0.545
10026SOL    HW230105   3.494   0.691   0.403
10027SOL     OW30106   2.216   1.510   1.329
10027SOL    HW130107   2.195   1.466   1.242
10027SOL    HW230108   2.313   1.536   1.332
10028SOL     OW30109   2.264   0.751   1.598
10028SOL    HW130110   2.332   0.806   1.551
10028SOL    HW230111   2.304   0.663   1.625
10029SOL     OW30112   3.449   0.779   1.670
10029SOL    HW130113   3.357   0.817   1.665
10029SOL    HW230114   3.509   0.826   1.605
10030SOL     OW30115   2.875   0.105   1.770
10030SOL    HW130116   2.881   0.190   1.718
10030SOL    HW230117   2.907   0.029   1.713
10031SOL     OW30118   2.366   0.050   1.740
10031SOL    HW130119   2.324  -0.007   1.670
10031SOL    HW230120   2.300   0.119   1.772
10032SOL     OW30121   2.435   0.870   1.029
10032SOL    HW130122   2.479   0.959   1.020
10032SOL    HW230123   2.372   0.870   1.106
10033SOL     OW30124   3.222   0.862   1.045
10033SOL    HW130125   3.147   0.862   0.979
10033SOL    HW230126   3.259   0.770   1.054
10034SOL     OW30127   3.071   0.525   0.275
10034SOL    HW130128   3.084   0.441   0.329
10034SOL    HW230129   3.042   0.599   0.335
10035SOL     OW30130   2.169   0.213   1.231
10035SOL    HW130131   2.146   0.250   1.321
10035SOL    HW230132   2.139   0.118   1.225
10036SOL     OW30133   1.899   1.310   1.282
10036SOL    HW130134   1.952   1.261   1.350
10036SOL    HW230135   1.921   1.408   1.287
10037SOL     OW30136   2.594   0.634   1.064
10037SOL    HW130137   2.653   0.608   0.988
10037SOL    HW230138   2.566   0.730   1.053
10038SOL     OW30139   3.590   0.935   1.854
10038SOL    HW130140   3.544   0.928   1.765
10038SOL    HW230141   3.528   0.979   1.920
10039SOL     OW30142   2.169   0.063   0.618
10039SOL    HW130143   2.158   0.157   0.651
10039SOL    HW230144   2.164   0.000   0.695
10040SOL     OW30145   3.484   0.367   0.374
10040SOL    HW130146   3.486   0.291   0.438
10040SOL    HW230147   3.436   0.444   0.414
10041SOL     OW30148   2.885   0.766   0.966
10041SOL    HW130149   2.900   0.787   1.062
10041SOL    HW230150   2.855   0.671   0.957
10042SOL     OW30151   2.842   1.573   1.700
10042SOL    HW130152   2.822   1.617   1.612
10042SOL    HW230153   2.881   1.482   1.684
10043SOL     OW30154   3.721   1.518   1.605
10043SOL    HW130155   3.735   1.545   1.510
10043SOL    HW230156   3.804   1.540   1.658
10044SOL     OW30157   2.212   0.898   1.804
10044SOL    HW130158   2.288   0.942   1.852
10044SOL    HW230159   2.247   0.851   1.722
10045SOL     OW30160   3.402   0.274   0.125
10045SOL    HW130161   3.341   0.199   0.148
10045SOL    HW230162   3.424   0.326   0.208
10046SOL     OW30163   3.165   0.838   0.042
10046SOL    HW130164   3.199   0.745   0.057
10046SOL    HW230165   3.183   0.865  -0.053
10047SOL     OW30166   2.930   1.333   0.849
10047SOL    HW130167   2.937   1.249   0.794
10047SOL    HW230168   2.992   1.402   0.813
10048SOL     OW30169   2.181   0.810   0.949
10048SOL    HW130170   2.274   0.846   0.954
10048SOL    HW230171   2.175   0.725   1.001
10049SOL     OW30172   2.201   0.509   1.006
10049SOL    HW130173   2.149   0.426   0.989
10049SOL    HW230174   2.278   0.514   0.942
10050SOL     OW30175   3.000   0.380   1.678
10050SOL    HW130176   2.955   0.443   1.742
10050SOL    HW230177   3.093   0.411   1.661
10051SOL     OW30178   3.022   0.207   1.477
10051SOL    HW130179   3.022   0.271   1.554
10051SOL    HW230180   3.050   0.255   1.394
10052SOL     OW30181   1.870   1.326   0.200
10052SOL    HW130182   1.777   1.347   0.169
10052SOL    HW230183   1.880   1.227   0.213
10053SOL     OW30184   1.950   1.801   0.927
10053SOL    HW130185   1.908   1.715   0.900
10053SOL    HW230186   2.044   1.804   0.893
10054SOL     OW30187   2.366   1.568   0.910
10054SOL    HW130188   2.432   1.642   0.919
10054SOL    HW230189   2.410   1.489   0.868
10055SOL     OW30190   2.864   0.796   1.238
10055SOL    HW130191   2.905   0.764   1.324
10055SOL    HW230192   2.768   0.769   1.235
10056SOL     OW30193   1.902   0.544   1.114
10056SOL    HW130194   1.987   0.511   1.073
10056SOL    HW230195   1.915   0.559   1.212
10057SOL     OW30196   2.051   0.520   1.722
10057SOL    HW130197   2.110   0.480   1.652
10057SOL    HW230198   1.993   0.591   1.681
10058SOL     OW30199   3.231   0.950   1.660
10058SOL    HW130200   3.270   1.039   1.680
10058SOL    HW230201   3.241   0.930   1.563
10059SOL     OW30202   2.677   0.572   0.325
10059SOL    HW130203   2.684   0.483   0.279
10059SOL    HW230204   2.583   0.606   0.317
10060SOL     OW30205   3.519   0.604   1.206
10060SOL    HW130206   3.481   0.535   1.268
10060SOL    HW230207   3.601   0.568   1.162
10061SOL     OW30208   2.114   1.564   1.744
10061SOL    HW130209   2.084   1.621   1.820
10061SOL    HW230210   2.107   1.467   1.770
10062SOL     OW30211   2.533   0.464   1.269
10062SOL    HW130212   2.499   0.375   1.239
10062SOL    HW230213   2.559   0.518   1.189
10063SOL     OW30214   2.792   1.678   1.465
10063SOL    HW130215   2.768   1.660   1.370
10063SOL    HW230216   2.822   1.772   1.475
10064SOL     OW30217   2.335   0.500   0.191
10064SOL    HW130218   2.396   0.580   0.195
10064SOL    HW230219   2.240   0.531   0.198
10065SOL     OW30220   2.021   1.137   1.466
10065SOL    HW130221   2.043   1.076   1.542
10065SOL    HW230222   2.031   1.088   1.380
10066SOL     OW30223   3.209   1.059   1.234
10066SOL    HW130224   3.233   0.996   1.160
10066SOL    HW230225   3.119   1.099   1.216
10067SOL     OW30226   3.164   0.855   0.309
10067SOL    HW130227   3.078   0.824   0.351
10067SOL    HW230228   3.160   0.841   0.210
10068SOL     OW30229   3.621   1.747   1.154
10068SOL    HW130230   3.682   1.777   1.081
10068SOL    HW230231   3.583   1.658   1.132
10069SOL     OW30232   3.114   1.731   1.128
10069SOL    HW130233   3.198   1.736   1.074
10069SOL    HW230234   3.091   1.635   1.146
10070SOL     OW30235   1.945   1.258   1.022
10070SOL    HW130236   1.940   1.257   1.122
10070SOL    HW230237   1.862   1.217   0.984
10071SOL     OW30238   2.550   1.662   1.716
10071SOL    HW130239   2.494   1.743   1.725
10071SOL    HW230240   2.602   1.666   1.630
10072SOL     OW30241   2.765   0.086   0.133
10072SOL    HW130242   2.816   0.087   0.047
10072SOL    HW230243   2.821   0.044   0.204
10073SOL     OW30244   3.588   0.135   0.523
10073SOL    HW130245   3.661   0.118   0.456
10073SOL    HW230246   3.557   0.048   0.561
10074SOL     OW30247   3.250   1.573   0.477
10074SOL    HW130248   3.317   1.585   0.403
10074SOL    HW230249   3.210   1.662   0.500
10075SOL     OW30250   1.992   1.794   1.851
10075SOL    HW130251   1.951   1.720   1.904
10075SOL    HW230252   2.056   1.845   1.909
10076SOL     OW30253   3.142   0.927   0.672
10076SOL    HW130254   3.202   0.846   0.674
10076SOL    HW230255   3.182   0.996   0.612
10077SOL     OW30256   2.692   1.273   1.422
10077SOL    HW130257   2.687   1.306   1.517
10077SOL    HW230258   2.606   1.292   1.376
10078SOL     OW30259   2.534   1.616   0.154
10078SOL    HW130260   2.543   1.626   0.055
10078SOL    HW230261   2.494   1.527   0.175
10079SOL     OW30262   3.512   1.720   1.394
10079SOL    HW130263   3.565   1.730   1.310
10079SOL    HW230264   3.485   1.810   1.428
10080SOL     OW30265   3.703   0.175   0.963
10080SOL    HW130266   3.742   0.090   0.927
10080SOL    HW230267   3.605   0.177   0.944
10081SOL     OW30268   2.125   0.326   0.720
10081SOL    HW130269   2.046   0.377   0.686
10081SOL    HW230270   2.116   0.311   0.818
10082SOL     OW30271   3.056   1.612   0.031
10082SOL    HW130272   3.062   1.519   0.068
10082SOL    HW230273   2.997   1.612  -0.049
10083SOL     OW30274   2.684   1.002   1.372
10083SOL    HW130275   2.724   1.001   1.280
10083SOL    HW230276   2.694   1.094   1.412
10084SOL     OW30277   2.778   0.910   0.291
10084SOL    HW130278   2.841   0.948   0.223
10084SOL    HW230279   2.818   0.827   0.330
10085SOL     OW30280   3.366   1.607   0.044
10085SOL    HW130281   3.274   1.644   0.051
10085SOL    HW230282   3.404   1.627  -0.046
10086SOL     OW30283   2.234   1.288   1.490
10086SOL    HW130284   2.221   1.381   1.456
10086SOL    HW230285   2.150   1.236   1.477
10087SOL     OW30286   3.476   1.292   1.289
10087SOL    HW130287   3.536   1.295   1.369
10087SOL    HW230288   3.401   1.356   1.302
10088SOL     OW30289   2.901   1.098   0.696
10088SOL    HW130290   2.831   1.051   0.750
10088SOL    HW230291   2.960   1.030   0.653
10089SOL     OW30292   2.876   0.236   0.971
10089SOL    HW130293   2.868   0.200   0.878
10089SOL    HW230294   2.874   0.160   1.036
10090SOL     OW30295   2.452   1.487   0.491
10090SOL    HW130296   2.494   1.429   0.421
10090SOL    HW230297   2.408   1.566   0.447
10091SOL     OW30298   3.571   0.385   1.381
10091SOL    HW130299   3.644   0.454   1.385
10091SOL    HW230300   3.599   0.310   1.322
10092SOL     OW30301   2.117   1.348   0.290
10092SOL    HW130302   2.021   1.349   0.263
10092SOL    HW230303   2.129   1.401   0.374
10093SOL     OW30304   1.967   1.013   1.726
10093SOL    HW130305   1.890   0.980   1.780
10093SOL    HW230306   2.052   0.983   1.768
10094SOL     OW30307   2.534   0.203   1.489
10094SOL    HW130308   2.624   0.187   1.449
10094SOL    HW230309   2.542   0.208   1.588
10095SOL     OW30310   3.302   0.856   1.398
10095SOL    HW130311   3.245   0.908   1.335
10095SOL    HW230312   3.398   0.868   1.374
10096SOL     OW30313   1.934   0.166   0.318
10096SOL    HW130314   1.917   0.249   0.264
10096SOL    HW230315   2.024   0.129   0.296
10097SOL     OW30316   3.045   1.335   0.119
10097SOL    HW130317   2.946   1.324   0.121
10097SOL    HW230318   3.079   1.350   0.212
10098SOL     OW30319   2.475   0.842   1.431
10098SOL    HW130320   2.531   0.923   1.414
10098SOL    HW230321   2.534   0.762   1.434
10099SOL     OW30322   3.355   1.767   0.959
10099SOL    HW130323   3.388   1.831   0.890
10099SOL    HW230324   3.421   1.761   1.034
10100SOL     OW30325   2.578   0.565   1.708
10100SOL    HW130326   2.597   0.630   1.782
10100SOL    HW230327   2.638   0.485   1.717
10101SOL     OW30328   3.312   1.220   1.633
10101SOL    HW130329   3.303   1.210   1.732
10101SOL    HW230330   3.408   1.213   1.607
10102SOL     OW30331   2.252   1.741   1.560
10102SOL    HW130332   2.161   1.782   1.558
10102SOL    HW230333   2.245   1.647   1.592
10103SOL     OW30334   3.536   0.883   1.254
10103SOL    HW130335   3.509   0.794   1.217
10103SOL    HW230336   3.537   0.951   1.181
10104SOL     OW30337   3.087   0.325   0.449
10104SOL    HW130338   3.152   0.251   0.438
10104SOL    HW230339   3.107   0.375   0.533
10105SOL     OW30340   2.456   0.745   0.652
10105SOL    HW130341   2.506   0.830   0.633
10105SOL    HW230342   2.368   0.747   0.604
10106SOL     OW30343   3.639   0.342   1.642
10106SOL    HW130344   3.622   0.373   1.548
10106SOL    HW230345   3.555   0.305   1.680
10107SOL     OW30346   3.592   0.934   1.517
10107SOL    HW130347   3.630   1.025   1.532
10107SOL    HW230348   3.584   0.917   1.418
10108SOL     OW30349   2.721   1.374   0.016
10108SOL    HW130350   2.675   1.389   0.104
10108SOL    HW230351   2.765   1.459  -0.014
10109SOL     OW30352   2.523   1.790   0.953
10109SOL    HW130353   2.477   1.878   0.940
10109SOL    HW230354   2.622   1.802   0.946
10110SOL     OW30355   2.721   0.956   0.861
10110SOL    HW130356   2.775   0.887   0.909
10110SOL    HW230357   2.689   1.025   0.927
10111SOL     OW30358   2.945   0.984   0.087
10111SOL    HW130359   2.922   1.037   0.005
10111SOL    HW230360   3.026   0.928   0.068
10112SOL     OW30361   3.723   1.569   0.851
10112SOL    HW130362   3.652   1.557   0.781
10112SOL    HW230363   3.724   1.490   0.911
10113SOL     OW30364   2.083   1.314   1.844
10113SOL    HW130365   2.018   1.241   1.823
10113SOL    HW230366   2.087   1.328   1.942
10114SOL     OW30367   1.941   1.240   0.653
10114SOL    HW130368   1.940   1.193   0.741
10114SOL    HW230369   2.023   1.212   0.602
10115SOL     OW30370   2.534   1.391   1.624
10115SOL    HW130371   2.456   1.341   1.662
10115SOL    HW230372   2.531   1.486   1.655
10116SOL     OW30373   3.686   0.192   1.227
10116SOL    HW130374   3.682   0.102   1.271
10116SOL    HW230375   3.689   0.181   1.128
10117SOL     OW30376   2.290   0.424   0.520
10117SOL    HW130377   2.320   0.352   0.458
10117SOL    HW230378   2.251   0.384   0.603
10118SOL     OW30379   3.567   1.487   1.104
10118SOL    HW130380   3.474   1.462   1.077
10118SOL    HW230381   3.593   1.437   1.186
10119SOL     OW30382   2.179   0.547   1.280
10119SOL    HW130383   2.217   0.488   1.352
10119SOL    HW230384   2.219   0.521   1.192
10120SOL     OW30385   2.674   1.586   0.687
10120SOL    HW130386   2.706   1.596   0.593
10120SOL    HW230387   2.595   1.524   0.689
10121SOL     OW30388   3.286   0.214   1.112
10121SOL    HW130389   3.338   0.149   1.167
10121SOL    HW230390   3.237   0.277   1.173
10122SOL     OW30391   2.863   0.034   1.154
10122SOL    HW130392   2.800  -0.038   1.123
10122SOL    HW230393   2.956  -0.002   1.154
10123SOL     OW30394   2.632   1.330   0.301
10123SOL    HW130395   2.586   1.243   0.318
10123SOL    HW230396   2.723   1.327   0.342
10124SOL     OW30397   2.480   1.567   1.284
10124SOL    HW130398   2.475   1.649   1.341
10124SOL    HW230399   2.569   1.564   1.239
10125SOL     OW30400   3.214   0.052   0.168
10125SOL    HW130401   3.249   0.011   0.084
10125SOL    HW230402   3.124   0.014   0.188
10126SOL     OW30403   3.162   0.453   0.691
10126SOL    HW130404   3.103   0.533   0.695
10126SOL    HW230405   3.177   0.418   0.784
10127SOL     OW30406   3.455   0.221   0.882
10127SOL    HW130407   3.371   0.220   0.936
10127SOL    HW230408   3.457   0.304   0.826
10128SOL     OW30409   1.901   1.077   0.300
10128SOL    HW130410   2.000   1.066   0.291
10128SOL    HW230411   1.861   0.991   0.332
10129SOL     OW30412   2.737   1.646   0.337
10129SOL    HW130413   2.660   1.611   0.283
10129SOL    HW230414   2.705   1.717   0.399
10130SOL     OW30415   2.092   0.628   1.975
10130SOL    HW130416   1.999   0.626   2.012
10130SOL    HW230417   2.093   0.589   1.883
10131SOL     OW30418   2.087   0.275   2.858
10131SOL    HW130419   2.122   0.258   2.950
10131SOL    HW230420   1.999   0.230   2.846
10132SOL     OW30421   1.881   0.368   2.509
10132SOL    HW130422   1.799   0.411   2.548
10132SOL    HW230423   1.853   0.295   2.446
10133SOL     OW30424   2.431   1.275   3.027
10133SOL    HW130425   2.338   1.268   2.990
10133SOL    HW230426   2.442   1.364   3.071
10134SOL     OW30427   3.417   1.511   2.565
10134SOL    HW130428   3.360   1.495   2.646
10134SOL    HW230429   3.358   1.521   2.485
10135SOL     OW30430   2.997   0.703   2.579
10135SOL    HW130431   3.054   0.781   2.554
10135SOL    HW230432   2.937   0.729   2.655
10136SOL     OW30433   3.617   0.607   2.093
10136SOL    HW130434   3.605   0.594   1.994
10136SOL    HW230435   3.587   0.526   2.142
10137SOL     OW30436   2.630   1.144   2.885
10137SOL    HW130437   2.552   1.161   2.945
10137SOL    HW230438   2.664   1.231   2.849
10138SOL     OW30439   2.712   0.798   3.685
10138SOL    HW130440   2.708   0.874   3.750
10138SOL    HW230441   2.734   0.834   3.594
10139SOL     OW30442   2.547   1.012   2.527
10139SOL    HW130443   2.616   0.996   2.597
10139SOL    HW230444   2.474   1.069   2.565
10140SOL     OW30445   2.548   1.161   3.665
10140SOL    HW130446   2.608   1.240   3.679
10140SOL    HW230447   2.462   1.192   3.624
10141SOL     OW30448   2.197   1.435   2.923
10141SOL    HW130449   2.119   1.404   2.870
10141SOL    HW230450   2.255   1.493   2.866
10142SOL     OW30451   3.322   1.505   3.201
10142SOL    HW130452   3.346   1.599   3.227
10142SOL    HW230453   3.306   1.451   3.283
10143SOL     OW30454   2.300   0.392   3.361
10143SOL    HW130455   2.382   0.336   3.370
10143SOL    HW230456   2.219   0.334   3.365
10144SOL     OW30457   3.465   0.447   2.599
10144SOL    HW130458   3.391   0.493   2.549
10144SOL    HW230459   3.516   0.515   2.652
10145SOL     OW30460   2.093   1.713   2.345
10145SOL    HW130461   2.127   1.790   2.399
10145SOL    HW230462   2.137   1.713   2.255
10146SOL     OW30463   2.989   1.341   3.552
10146SOL    HW130464   3.036   1.341   3.640
10146SOL    HW230465   2.941   1.254   3.541
10147SOL     OW30466   2.092   1.434   2.400
10147SOL    HW130467   2.066   1.530   2.400
10147SOL    HW230468   2.021   1.380   2.445
10148SOL     OW30469   2.102   1.091   2.748
10148SOL    HW130470   2.116   1.007   2.800
10148SOL    HW230471   2.047   1.155   2.803
10149SOL     OW30472   2.482   1.786   3.301
10149SOL    HW130473   2.390   1.769   3.336
10149SOL    HW230474   2.510   1.878   3.327
10150SOL     OW30475   2.468   0.964   1.985
10150SOL    HW130476   2.475   1.048   1.931
10150SOL    HW230477   2.514   0.977   2.073
10151SOL     OW30478   3.456   0.114   3.342
10151SOL    HW130479   3.438   0.181   3.270
10151SOL    HW230480   3.453   0.160   3.431
10152SOL     OW30481   1.984   0.643   2.425
10152SOL    HW130482   1.939   0.555   2.442
10152SOL    HW230483   1.983   0.697   2.509
10153SOL     OW30484   3.704   1.767   2.221
10153SOL    HW130485   3.758   1.738   2.301
10153SOL    HW230486   3.734   1.857   2.192
10154SOL     OW30487   1.889   1.596   1.979
10154SOL    HW130488   1.870   1.500   2.000
10154SOL    HW230489   1.856   1.654   2.054
10155SOL     OW30490   3.551   0.922   2.474
10155SOL    HW130491   3.646   0.893   2.482
10155SOL    HW230492   3.543   0.987   2.399
10156SOL     OW30493   3.503   1.108   2.294
10156SOL    HW130494   3.589   1.110   2.242
10156SOL    HW230495   3.517   1.155   2.382
10157SOL     OW30496   1.975   0.737   3.459
10157SOL    HW130497   2.063   0.724   3.504
10157SOL    HW230498   1.962   0.834   3.437
10158SOL     OW30499   2.475   1.365   2.588
10158SOL    HW130500   2.426   1.278   2.597
10158SOL    HW230501   2.452   1.408   2.501
10159SOL     OW30502   3.155   1.228   3.285
10159SOL    HW130503   3.192   1.155   3.227
10159SOL    HW230504   3.207   1.233   3.370
10160SOL     OW30505   2.671   0.004   2.364
10160SOL    HW130506   2.711   0.095   2.355
10160SOL    HW230507   2.571   0.012   2.370
10161SOL     OW30508   2.059   0.976   3.126
10161SOL    HW130509   2.148   0.931   3.112
10161SOL    HW230510   1.986   0.911   3.107
10162SOL     OW30511   3.387   0.999   2.052
10162SOL    HW130512   3.324   0.923   2.065
10162SOL    HW230513   3.435   1.017   2.138
10163SOL     OW30514   3.049   1.792   3.478
10163SOL    HW130515   3.073   1.852   3.402
10163SOL    HW230516   3.056   1.697   3.448
10164SOL     OW30517   2.179   0.251   3.663
10164SOL    HW130518   2.250   0.322   3.669
10164SOL    HW230519   2.091   0.290   3.691
10165SOL     OW30520   3.328   1.417   2.815
10165SOL    HW130521   3.269   1.423   2.895
10165SOL    HW230522   3.313   1.329   2.769
10166SOL     OW30523   3.529   1.714   2.434
10166SOL    HW130524   3.488   1.691   2.346
10166SOL    HW230525   3.511   1.640   2.499
10167SOL     OW30526   2.460   0.729   2.132
10167SOL    HW130527   2.484   0.798   2.064
10167SOL    HW230528   2.382   0.762   2.186
10168SOL     OW30529   3.143   0.345   2.806
10168SOL    HW130530   3.057   0.295   2.793
10168SOL    HW230531   3.205   0.291   2.862
10169SOL     OW30532   3.438   1.662   2.169
10169SOL    HW130533   3.527   1.708   2.172
10169SOL    HW230534   3.417   1.638   2.074
10170SOL     OW30535   2.669   0.605   3.327
10170SOL    HW130536   2.622   0.602   3.416
10170SOL    HW230537   2.618   0.550   3.261
10171SOL     OW30538   3.256   0.469   3.536
10171SOL    HW130539   3.236   0.512   3.624
10171SOL    HW230540   3.334   0.407   3.545
10172SOL     OW30541   2.835   0.890   3.434
10172SOL    HW130542   2.881   0.806   3.405
10172SOL    HW230543   2.779   0.924   3.359
10173SOL     OW30544   2.853   0.410   3.104
10173SOL    HW130545   2.776   0.444   3.158
10173SOL    HW230546   2.819   0.359   3.025
10174SOL     OW30547   2.903   0.701   2.291
10174SOL    HW130548   2.929   0.697   2.387
10174SOL    HW230549   2.818   0.650   2.277
10175SOL     OW30550   1.938   0.811   2.651
10175SOL    HW130551   2.037   0.799   2.660
10175SOL    HW230552   1.914   0.906   2.672
10176SOL     OW30553   1.992   1.821   3.433
10176SOL    HW130554   1.982   1.806   3.532
10176SOL    HW230555   1.906   1.857   3.397
10177SOL     OW30556   2.727   0.348   2.057
10177SOL    HW130557   2.786   0.411   2.008
10177SOL    HW230558   2.746   0.254   2.028
10178SOL     OW30559   3.581   0.585   3.693
10178SOL    HW130560   3.555   0.674   3.657
10178SOL    HW230561   3.579   0.517   3.620
10179SOL     OW30562   3.224   1.144   2.407
10179SOL    HW130563   3.307   1.115   2.359
10179SOL    HW230564   3.175   1.211   2.351
10180SOL     OW30565   2.412   0.196   2.747
10180SOL    HW130566   2.407   0.191   2.847
10180SOL    HW230567   2.414   0.292   2.718
10181SOL     OW30568   2.870   1.456   2.339
10181SOL    HW130569   2.824   1.528   2.287
10181SOL    HW230570   2.866   1.476   2.437
10182SOL     OW30571   2.213   1.801   2.715
10182SOL    HW130572   2.263   1.715   2.721
10182SOL    HW230573   2.278   1.878   2.712
10183SOL     OW30574   3.657   1.066   2.735
10183SOL    HW130575   3.595   1.051   2.659
10183SOL    HW230576   3.605   1.077   2.820
10184SOL     OW30577   3.089   1.550   3.368
10184SOL    HW130578   3.095   1.473   3.432
10184SOL    HW230579   3.037   1.524   3.288
10185SOL     OW30580   2.183   0.943   2.104
10185SOL    HW130581   2.265   0.982   2.062
10185SOL    HW230582   2.156   0.861   2.055
10186SOL     OW30583   3.320   0.735   2.590
10186SOL    HW130584   3.315   0.670   2.665
10186SOL    HW230585   3.400   0.794   2.603
10187SOL     OW30586   2.323   1.266   3.589
10187SOL    HW130587   2.273   1.267   3.503
10187SOL    HW230588   2.260   1.248   3.665
10188SOL     OW30589   2.973   1.776   2.099
10188SOL    HW130590   2.913   1.714   2.149
10188SOL    HW230591   3.004   1.732   2.014
10189SOL     OW30592   2.064   0.285   3.360
10189SOL    HW130593   1.984   0.345   3.347
10189SOL    HW230594   2.054   0.236   3.446
10190SOL     OW30595   3.494   1.377   1.943
10190SOL    HW130596   3.462   1.471   1.933
10190SOL    HW230597   3.418   1.314   1.931
10191SOL     OW30598   2.326   1.743   2.185
10191SOL    HW130599   2.359   1.782   2.271
10191SOL    HW230600   2.402   1.736   2.120
10192SOL     OW30601   3.262   0.107   2.288
10192SOL    HW130602   3.238   0.070   2.198
10192SOL    HW230603   3.361   0.123   2.292
10193SOL     OW30604   2.111   1.785   3.103
10193SOL    HW130605   2.168   1.720   3.153
10193SOL    HW230606   2.095   1.752   3.010
10194SOL     OW30607   2.802   1.698   2.766
10194SOL    HW130608   2.882   1.641   2.787
10194SOL    HW230609   2.753   1.658   2.689
10195SOL     OW30610   2.244   0.700   2.342
10195SOL    HW130611   2.289   0.610   2.339
10195SOL    HW230612   2.150   0.689   2.375
10196SOL     OW30613   3.409   0.222   3.591
10196SOL    HW130614   3.404   0.259   3.683
10196SOL    HW230615   3.337   0.153   3.579
10197SOL     OW30616   2.476   0.122   1.979
10197SOL    HW130617   2.574   0.100   1.986
10197SOL    HW230618   2.445   0.105   1.886
10198SOL     OW30619   2.643   0.264   3.611
10198SOL    HW130620   2.710   0.203   3.654
10198SOL    HW230621   2.570   0.283   3.676
10199SOL     OW30622   2.750   1.514   3.057
10199SOL    HW130623   2.727   1.489   2.963
10199SOL    HW230624   2.811   1.445   3.096
10200SOL     OW30625   3.213   0.590   3.295
10200SOL    HW130626   3.241   0.547   3.380
10200SOL    HW230627   3.238   0.686   3.296
10201SOL     OW30628   2.665   1.402   2.786
10201SOL    HW130629   2.755   1.416   2.744
10201SOL    HW230630   2.594   1.404   2.715
10202SOL     OW30631   2.784   0.503   2.761
10202SOL    HW130632   2.759   0.494   2.665
10202SOL    HW230633   2.832   0.421   2.792
10203SOL     OW30634   2.401   0.064   2.374
10203SOL    HW130635   2.320   0.065   2.432
10203SOL    HW230636   2.404   0.147   2.319
10204SOL     OW30637   3.296   1.188   1.903
10204SOL    HW130638   3.328   1.112   1.960
10204SOL    HW230639   3.204   1.215   1.933
10205SOL     OW30640   2.159   0.035   2.033
10205SOL    HW130641   2.208   0.119   2.012
10205SOL    HW230642   2.221  -0.030   2.078
10206SOL     OW30643   2.797   0.236   2.342
10206SOL    HW130644   2.749   0.277   2.264
10206SOL    HW230645   2.896   0.234   2.323
10207SOL     OW30646   2.938   0.683   3.326
10207SOL    HW130647   2.858   0.622   3.329
10207SOL    HW230648   3.019   0.630   3.302
10208SOL     OW30649   3.089   1.570   2.655
10208SOL    HW130650   3.110   1.644   2.590
10208SOL    HW230651   3.157   1.570   2.728
10209SOL     OW30652   2.321   1.152   2.603
10209SOL    HW130653   2.250   1.125   2.668
10209SOL    HW230654   2.295   1.124   2.510
10210SOL     OW30655   3.133   1.797   2.453
10210SOL    HW130656   3.177   1.861   2.389
10210SOL    HW230657   3.083   1.849   2.523
10211SOL     OW30658   2.894   0.549   1.878
10211SOL    HW130659   2.853   0.631   1.839
10211SOL    HW230660   2.958   0.575   1.951
10212SOL     OW30661   1.940   0.556   3.248
10212SOL    HW130662   2.032   0.555   3.207
10212SOL    HW230663   1.934   0.630   3.315
10213SOL     OW30664   2.423   0.222   3.009
10213SOL    HW130665   2.461   0.138   3.046
10213SOL    HW230666   2.335   0.241   3.053
10214SOL     OW30667   2.728   0.454   2.504
10214SOL    HW130668   2.696   0.526   2.442
10214SOL    HW230669   2.752   0.373   2.451
10215SOL     OW30670   2.879   0.039   2.615
10215SOL    HW130671   2.807   0.044   2.546
10215SOL    HW230672   2.855  -0.030   2.684
10216SOL     OW30673   3.291   1.173   2.729
10216SOL    HW130674   3.236   1.089   2.722
10216SOL    HW230675   3.317   1.202   2.637
10217SOL     OW30676   3.328   0.590   2.854
10217SOL    HW130677   3.298   0.495   2.861
10217SOL    HW230678   3.401   0.606   2.920
10218SOL     OW30679   3.719   0.833   2.239
10218SOL    HW130680   3.761   0.769   2.303
10218SOL    HW230681   3.681   0.782   2.161
10219SOL     OW30682   2.350   1.385   2.036
10219SOL    HW130683   2.263   1.370   2.083
10219SOL    HW230684   2.333   1.411   1.941
10220SOL     OW30685   3.526   1.280   2.519
10220SOL    HW130686   3.625   1.288   2.533
10220SOL    HW230687   3.481   1.364   2.550
10221SOL     OW30688   3.252   0.575   1.940
10221SOL    HW130689   3.198   0.554   2.021
10221SOL    HW230690   3.343   0.534   1.949
10222SOL     OW30691   2.389   0.256   2.190
10222SOL    HW130692   2.416   0.197   2.115
10222SOL    HW230693   2.389   0.351   2.159
10223SOL     OW30694   3.616   1.223   3.450
10223SOL    HW130695   3.707   1.184   3.437
10223SOL    HW230696   3.624   1.319   3.474
10224SOL     OW30697   2.926   1.347   3.202
10224SOL    HW130698   2.846   1.324   3.257
10224SOL    HW230699   3.009   1.321   3.251
10225SOL     OW30700   3.454   1.629   3.487
10225SOL    HW130701   3.481   1.663   3.397
10225SOL    HW230702   3.533   1.591   3.533
10226SOL     OW30703   2.973   1.195   2.962
10226SOL    HW130704   2.933   1.239   3.043
10226SOL    HW230705   2.932   1.232   2.879
10227SOL     OW30706   3.500   1.099   2.941
10227SOL    HW130707   3.505   1.180   3.000
10227SOL    HW230708   3.414   1.101   2.890
10228SOL     OW30709   2.777   0.089   3.264
10228SOL    HW130710   2.802   0.069   3.169
10228SOL    HW230711   2.849   0.145   3.306
10229SOL     OW30712   2.842   1.116   3.581
10229SOL    HW130713   2.743   1.122   3.591
10229SOL    HW230714   2.865   1.036   3.525
10230SOL     OW30715   2.567   1.050   2.230
10230SOL    HW130716   2.553   1.057   2.329
10230SOL    HW230717   2.651   0.999   2.212
10231SOL     OW30718   2.272   0.813   3.113
10231SOL    HW130719   2.358   0.825   3.163
10231SOL    HW230720   2.230   0.726   3.140
10232SOL     OW30721   3.136   0.386   3.124
10232SOL    HW130722   3.157   0.460   3.188
10232SOL    HW230723   3.047   0.403   3.081
10233SOL     OW30724   1.926   1.564   3.193
10233SOL    HW130725   1.880   1.646   3.159
10233SOL    HW230726   2.024   1.583   3.202
10234SOL     OW30727   2.229   1.100   2.363
10234SOL    HW130728   2.222   1.183   2.307
10234SOL    HW230729   2.233   1.020   2.303
10235SOL     OW30730   2.428   0.537   2.727
10235SOL    HW130731   2.440   0.603   2.653
10235SOL    HW230732   2.474   0.571   2.810
10236SOL     OW30733   3.114   1.348   2.250
10236SOL    HW130734   3.164   1.425   2.290
10236SOL    HW230735   3.019   1.350   2.282
10237SOL     OW30736   3.134   1.445   3.004
10237SOL    HW130737   3.181   1.458   3.091
10237SOL    HW230738   3.068   1.371   3.013
10238SOL     OW30739   3.444   0.639   2.334
10238SOL    HW130740   3.413   0.700   2.407
10238SOL    HW230741   3.494   0.691   2.265
10239SOL     OW30742   2.216   1.510   3.191
10239SOL    HW130743   2.195   1.466   3.104
10239SOL    HW230744   2.313   1.536   3.194
10240SOL     OW30745   2.264   0.751   3.460
10240SOL    HW130746   2.332   0.806   3.413
10240SOL    HW230747   2.304   0.663   3.487
10241SOL     OW30748   3.449   0.779   3.532
10241SOL    HW130749   3.357   0.817   3.527
10241SOL    HW230750   3.509   0.826   3.467
10242SOL     OW30751   2.875   0.105   3.632
10242SOL    HW130752   2.881   0.190   3.580
10242SOL    HW230753   2.907   0.029   3.575
10243SOL     OW30754   2.366   0.050   3.602
10243SOL    HW130755   2.324  -0.007   3.532
10243SOL    HW230756   2.300   0.119   3.634
10244SOL     OW30757   2.435   0.870   2.891
10244SOL    HW130758   2.479   0.959   2.882
10244SOL    HW230759   2.372   0.870   2.968
10245SOL     OW30760   3.222   0.862   2.907
10245SOL    HW130761   3.147   0.862   2.841
10245SOL    HW230762   3.259   0.770   2.916
10246SOL     OW30763   3.071   0.525   2.137
10246SOL    HW130764   3.084   0.441   2.191
10246SOL    HW230765   3.042   0.599   2.197
10247SOL     OW30766   2.169   0.213   3.093
10247SOL    HW130767   2.146   0.250   3.183
10247SOL    HW230768   2.139   0.118   3.087
10248SOL     OW30769   1.899   1.310   3.144
10248SOL    HW130770   1.952   1.261   3.212
10248SOL    HW230771   1.921   1.408   3.149
10249SOL     OW30772   2.594   0.634   2.926
10249SOL    HW130773   2.653   0.608   2.850
10249SOL    HW230774   2.566   0.730   2.915
10250SOL     OW30775   3.590   0.935   3.716
10250SOL    HW130776   3.544   0.928   3.627
10250SOL    HW230777   3.528   0.979   3.782
10251SOL     OW30778   2.169   0.063   2.480
10251SOL    HW130779   2.158   0.157   2.513
10251SOL    HW230780   2.164   0.000   2.557
10252SOL     OW30781   3.484   0.367   2.236
10252SOL    HW130782   3.486   0.291   2.300
10252SOL    HW230783   3.436   0.444   2.276
10253SOL     OW30784   2.885   0.766   2.828
10253SOL    HW130785   2.900   0.787   2.924
10253SOL    HW230786   2.855   0.671   2.819
10254SOL     OW30787   2.842   1.573   3.562
10254SOL    HW130788   2.822   1.617   3.474
10254SOL    HW230789   2.881   1.482   3.546
10255SOL     OW30790   3.721   1.518   3.467
10255SOL    HW130791   3.735   1.545   3.372
10255SOL    HW230792   3.804   1.540   3.520
10256SOL     OW30793   2.212   0.898   3.666
10256SOL    HW130794   2.288   0.942   3.714
10256SOL    HW230795   2.247   0.851   3.584
10257SOL     OW30796   3.402   0.274   1.987
10257SOL    HW130797   3.341   0.199   2.010
10257SOL    HW230798   3.424   0.326   2.070
10258SOL     OW30799   3.165   0.838   1.904
10258SOL    HW130800   3.199   0.745   1.919
10258SOL    HW230801   3.183   0.865   1.809
10259SOL     OW30802   2.930   1.333   2.711
10259SOL    HW130803   2.937   1.249   2.656
10259SOL    HW230804   2.992   1.402   2.675
10260SOL     OW30805   2.181   0.810   2.811
10260SOL    HW130806   2.274   0.846   2.816
10260SOL    HW230807   2.175   0.725   2.863
10261SOL     OW30808   2.201   0.509   2.868
10261SOL    HW130809   2.149   0.426   2.851
10261SOL    HW230810   2.278   0.514   2.804
10262SOL     OW30811   3.000   0.380   3.540
10262SOL    HW130812   2.955   0.443   3.604
10262SOL    HW230813   3.093   0.411   3.523
10263SOL     OW30814   3.022   0.207   3.339
10263SOL    HW130815   3.022   0.271   3.416
10263SOL    HW230816   3.050   0.255   3.256
10264SOL     OW30817   1.870   1.326   2.062
10264SOL    HW130818   1.777   1.347   2.031
10264SOL    HW230819   1.880   1.227   2.075
10265SOL     OW30820   1.950   1.801   2.789
10265SOL    HW130821   1.908   1.715   2.762
10265SOL    HW230822   2.044   1.804   2.755
10266SOL     OW30823   2.366   1.568   2.772
10266SOL    HW130824   2.432   1.642   2.781
10266SOL    HW230825   2.410   1.489   2.730
10267SOL     OW30826   2.864   0.796   3.100
10267SOL    HW130827   2.905   0.764   3.186
10267SOL    HW230828   2.768   0.769   3.097
10268SOL     OW30829   1.902   0.544   2.976
10268SOL    HW130830   1.987   0.511   2.935
10268SOL    HW230831   1.915   0.559   3.074
10269SOL     OW30832   2.051   0.520   3.584
10269SOL    HW130833   2.110   0.480   3.514
10269SOL    HW230834   1.993   0.591   3.543
10270SOL     OW30835   3.231   0.950   3.522
10270SOL    HW130836   3.270   1.039   3.542
10270SOL    HW230837   3.241   0.930   3.425
10271SOL     OW30838   2.677   0.572   2.187
10271SOL    HW130839   2.684   0.483   2.141
10271SOL    HW230840   2.583   0.606   2.179
10272SOL     OW30841   3.519   0.604   3.068
10272SOL    HW130842   3.481   0.535   3.130
10272SOL    HW230843   3.601   0.568   3.024
10273SOL     OW30844   2.114   1.564   3.606
10273SOL    HW130845   2.084   1.621   3.682
10273SOL    HW230846   2.107   1.467   3.632
10274SOL     OW30847   2.533   0.464   3.131
10274SOL    HW130848   2.499   0.375   3.101
10274SOL    HW230849   2.559   0.518   3.051
10275SOL     OW30850   2.792   1.678   3.327
10275SOL    HW130851   2.768   1.660   3.232
10275SOL    HW230852   2.822   1.772   3.337
10276SOL     OW30853   2.335   0.500   2.053
10276SOL    HW130854   2.396   0.580   2.057
10276SOL    HW230855   2.240   0.531   2.060
10277SOL     OW30856   2.021   1.137   3.328
10277SOL    HW130857   2.043   1.076   3.404
10277SOL    HW230858   2.031   1.088   3.242
10278SOL     OW30859   3.209   1.059   3.096
10278SOL    HW130860   3.233   0.996   3.022
10278SOL    HW230861   3.119   1.099   3.078
10279SOL     OW30862   3.164   0.855   2.171
10279SOL    HW130863   3.078   0.824   2.213
10279SOL    HW230864   3.160   0.841   2.072
10280SOL     OW30865   3.621   1.747   3.016
10280SOL    HW130866   3.682   1.777   2.943
10280SOL    HW230867   3.583   1.658   2.994
10281SOL     OW30868   3.114   1.731   2.990
10281SOL    HW130869   3.198   1.736   2.936
10281SOL    HW230870   3.091   1.635   3.008
10282SOL     OW30871   1.945   1.258   2.884
10282SOL    HW130872   1.940   1.257   2.984
10282SOL    HW230873   1.862   1.217   2.846
10283SOL     OW30874   2.550   1.662   3.578
10283SOL    HW130875   2.494   1.743   3.587
10283SOL    HW230876   2.602   1.666   3.492
10284SOL     OW30877   3.588   0.135   2.385
10284SOL    HW130878   3.661   0.118   2.318
10284SOL    HW230879   3.557   0.048   2.423
10285SOL     OW30880   3.250   1.573   2.339
10285SOL    HW130881   3.317   1.585   2.265
10285SOL    HW230882   3.210   1.662   2.362
10286SOL     OW30883   1.992   1.794   3.713
10286SOL    HW130884   1.951   1.720   3.766
10286SOL    HW230885   2.056   1.845   3.771
10287SOL     OW30886   3.142   0.927   2.534
10287SOL    HW130887   3.202   0.846   2.536
10287SOL    HW230888   3.182   0.996   2.474
10288SOL     OW30889   2.692   1.273   3.284
10288SOL    HW130890   2.687   1.306   3.379
10288SOL    HW230891   2.606   1.292   3.238
10289SOL     OW30892   2.534   1.616   2.016
10289SOL    HW130893   2.543   1.626   1.917
10289SOL    HW230894   2.494   1.527   2.037
10290SOL     OW30895   3.512   1.720   3.256
10290SOL    HW130896   3.565   1.730   3.172
10290SOL    HW230897   3.485   1.810   3.290
10291SOL     OW30898   3.703   0.175   2.825
10291SOL    HW130899   3.742   0.090   2.789
10291SOL    HW230900   3.605   0.177   2.806
10292SOL     OW30901   2.125   0.326   2.582
10292SOL    HW130902   2.046   0.377   2.548
10292SOL    HW230903   2.116   0.311   2.680
10293SOL     OW30904   3.056   1.612   1.893
10293SOL    HW130905   3.062   1.519   1.930
10293SOL    HW230906   2.997   1.612   1.813
10294SOL     OW30907   2.684   1.002   3.234
10294SOL    HW130908   2.724   1.001   3.142
10294SOL    HW230909   2.694   1.094   3.274
10295SOL     OW30910   2.778   0.910   2.153
10295SOL    HW130911   2.841   0.948   2.085
10295SOL    HW230912   2.818   0.827   2.192
10296SOL     OW30913   3.366   1.607   1.906
10296SOL    HW130914   3.274   1.644   1.913
10296SOL    HW230915   3.404   1.627   1.816
10297SOL     OW30916   2.234   1.288   3.352
10297SOL    HW130917   2.221   1.381   3.318
10297SOL    HW230918   2.150   1.236   3.339
10298SOL     OW30919   3.476   1.292   3.151
10298SOL    HW130920   3.536   1.295   3.231
10298SOL    HW230921   3.401   1.356   3.164
10299SOL     OW30922   2.901   1.098   2.558
10299SOL    HW130923   2.831   1.051   2.612
10299SOL    HW230924   2.960   1.030   2.515
10300SOL     OW30925   2.876   0.236   2.833
10300SOL    HW130926   2.868   0.200   2.740
10300SOL    HW230927   2.874   0.160   2.898
10301SOL     OW30928   2.452   1.487   2.353
10301SOL    HW130929   2.494   1.429   2.283
10301SOL    HW230930   2.408   1.566   2.309
10302SOL     OW30931   3.571   0.385   3.243
10302SOL    HW130932   3.644   0.454   3.247
10302SOL    HW230933   3.599   0.310   3.184
10303SOL     OW30934   2.117   1.348   2.152
10303SOL    HW130935   2.021   1.349   2.125
10303SOL    HW230936   2.129   1.401   2.236
10304SOL     OW30937   1.967   1.013   3.588
10304SOL    HW130938   1.890   0.980   3.642
10304SOL    HW230939   2.052   0.983   3.630
10305SOL     OW30940   2.534   0.203   3.351
10305SOL    HW130941   2.624   0.187   3.311
10305SOL    HW230942   2.542   0.208   3.450
10306SOL     OW30943   1.937   0.345   1.895
10306SOL    HW130944   1.845   0.317   1.866
10306SOL    HW230945   1.968   0.422   1.839
10307SOL     OW30946   3.302   0.856   3.260
10307SOL    HW130947   3.245   0.908   3.197
10307SOL    HW230948   3.398   0.868   3.236
10308SOL     OW30949   1.934   0.166   2.180
10308SOL    HW130950   1.917   0.249   2.126
10308SOL    HW230951   2.024   0.129   2.158
10309SOL     OW30952   3.045   1.335   1.981
10309SOL    HW130953   2.946   1.324   1.983
10309SOL    HW230954   3.079   1.350   2.074
10310SOL     OW30955   2.475   0.842   3.293
10310SOL    HW130956   2.531   0.923   3.276
10310SOL    HW230957   2.534   0.762   3.296
10311SOL     OW30958   3.355   1.767   2.821
10311SOL    HW130959   3.388   1.831   2.752
10311SOL    HW230960   3.421   1.761   2.896
10312SOL     OW30961   2.578   0.565   3.570
10312SOL    HW130962   2.597   0.630   3.644
10312SOL    HW230963   2.638   0.485   3.579
10313SOL     OW30964   3.312   1.220   3.495
10313SOL    HW130965   3.303   1.210   3.594
10313SOL    HW230966   3.408   1.213   3.469
10314SOL     OW30967   2.252   1.741   3.422
10314SOL    HW130968   2.161   1.782   3.420
10314SOL    HW230969   2.245   1.647   3.454
10315SOL     OW30970   3.536   0.883   3.116
10315SOL    HW130971   3.509   0.794   3.079
10315SOL    HW230972   3.537   0.951   3.043
10316SOL     OW30973   3.087   0.325   2.311
10316SOL    HW130974   3.152   0.251   2.300
10316SOL    HW230975   3.107   0.375   2.395
10317SOL     OW30976   2.456   0.745   2.514
10317SOL    HW130977   2.506   0.830   2.495
10317SOL    HW230978   2.368   0.747   2.466
10318SOL     OW30979   3.639   0.342   3.504
10318SOL    HW130980   3.622   0.373   3.410
10318SOL    HW230981   3.555   0.305   3.542
10319SOL     OW30982   3.592   0.934   3.379
10319SOL    HW130983   3.630   1.025   3.394
10319SOL    HW230984   3.584   0.917   3.280
10320SOL     OW30985   2.721   1.374   1.878
10320SOL    HW130986   2.675   1.389   1.966
10320SOL    HW230987   2.765   1.459   1.848
10321SOL     OW30988   2.523   1.790   2.815
10321SOL    HW130989   2.477   1.878   2.802
10321SOL    HW230990   2.622   1.802   2.808
10322SOL     OW30991   2.721   0.956   2.723
10322SOL    HW130992   2.775   0.887   2.771
10322SOL    HW230993   2.689   1.025   2.789
10323SOL     OW30994   2.945   0.984   1.949
10323SOL    HW130995   2.922   1.037   1.867
10323SOL    HW230996   3.026   0.928   1.930
10324SOL     OW30997   3.723   1.569   2.713
10324SOL    HW130998   3.652   1.557   2.643
10324SOL    HW230999   3.724   1.490   2.773
10325SOL     OW31000   2.083   1.314   3.706
10325SOL    HW131001   2.018   1.241   3.685
10325SOL    HW231002   2.087   1.328   3.804
10326SOL     OW31003   1.941   1.240   2.515
10326SOL    HW131004   1.940   1.193   2.603
10326SOL    HW231005   2.023   1.212   2.464
10327SOL     OW31006   2.534   1.391   3.486
10327SOL    HW131007   2.456   1.341   3.524
10327SOL    HW231008   2.531   1.486   3.517
10328SOL     OW31009   3.686   0.192   3.089
10328SOL    HW131010   3.682   0.102   3.133
10328SOL    HW231011   3.689   0.181   2.990
10329SOL     OW31012   2.290   0.424   2.382
10329SOL    HW131013   2.320   0.352   2.320
10329SOL    HW231014   2.251   0.384   2.465
10330SOL     OW31015   3.567   1.487   2.966
10330SOL    HW131016   3.474   1.462   2.939
10330SOL    HW231017   3.593   1.437   3.048
10331SOL     OW31018   2.179   0.547   3.142
10331SOL    HW131019   2.217   0.488   3.214
10331SOL    HW231020   2.219   0.521   3.054
10332SOL     OW31021   2.674   1.586   2.549
10332SOL    HW131022   2.706   1.596   2.455
10332SOL    HW231023   2.595   1.524   2.551
10333SOL     OW31024   3.286   0.214   2.974
10333SOL    HW131025   3.338   0.149   3.029
10333SOL    HW231026   3.237   0.277   3.035
10334SOL     OW31027   2.863   0.034   3.016
10334SOL    HW131028   2.800  -0.038   2.985
10334SOL    HW231029   2.956  -0.002   3.016
10335SOL     OW31030   2.632   1.330   2.163
10335SOL    HW131031   2.586   1.243   2.180
10335SOL    HW231032   2.723   1.327   2.204
10336SOL     OW31033   2.480   1.567   3.146
10336SOL    HW131034   2.475   1.649   3.203
10336SOL    HW231035   2.569   1.564   3.101
10337SOL     OW31036   3.214   0.052   2.030
10337SOL    HW131037   3.249   0.011   1.946
10337SOL    HW231038   3.124   0.014   2.050
10338SOL     OW31039   3.162   0.453   2.553
10338SOL    HW131040   3.103   0.533   2.557
10338SOL    HW231041   3.177   0.418   2.646
10339SOL     OW31042   3.455   0.221   2.744
10339SOL    HW131043   3.371   0.220   2.798
10339SOL    HW231044   3.457   0.304   2.688
10340SOL     OW31045   1.901   1.077   2.162
10340SOL    HW131046   2.000   1.066   2.153
10340SOL    HW231047   1.861   0.991   2.194
10341SOL     OW31048   2.737   1.646   2.199
10341SOL    HW131049   2.660   1.611   2.145
10341SOL    HW231050   2.705   1.717   2.261
10342SOL     OW31051   2.092   0.628   3.837
10342SOL    HW131052   1.999   0.626   3.874
10342SOL    HW231053   2.093   0.589   3.745
10343SOL     OW31054   2.087   0.275   4.720
10343SOL    HW131055   2.122   0.258   4.812
10343SOL    HW231056   1.999   0.230   4.708
10344SOL     OW31057   1.881   0.368   4.371
10344SOL    HW131058   1.799   0.411   4.410
10344SOL    HW231059   1.853   0.295   4.308
10345SOL     OW31060   2.431   1.275   4.889
10345SOL    HW131061   2.338   1.268   4.852
10345SOL    HW231062   2.442   1.364   4.933
10346SOL     OW31063   3.417   1.511   4.427
10346SOL    HW131064   3.360   1.495   4.508
10346SOL    HW231065   3.358   1.521   4.347
10347SOL     OW31066   2.997   0.703   4.441
10347SOL    HW131067   3.054   0.781   4.416
10347SOL    HW231068   2.937   0.729   4.517
10348SOL     OW31069   3.617   0.607   3.955
10348SOL    HW131070   3.605   0.594   3.856
10348SOL    HW231071   3.587   0.526   4.004
10349SOL     OW31072   2.630   1.144   4.747
10349SOL    HW131073   2.552   1.161   4.807
10349SOL    HW231074   2.664   1.231   4.711
10350SOL     OW31075   2.712   0.798   5.547
10350SOL    HW131076   2.708   0.874   5.612
10350SOL    HW231077   2.734   0.834   5.456
10351SOL     OW31078   2.547   1.012   4.389
10351SOL    HW131079   2.616   0.996   4.459
10351SOL    HW231080   2.474   1.069   4.427
10352SOL     OW31081   2.548   1.161   5.527
10352SOL    HW131082   2.608   1.240   5.541
10352SOL    HW231083   2.462   1.192   5.486
10353SOL     OW31084   2.197   1.435   4.785
10353SOL    HW131085   2.119   1.404   4.732
10353SOL    HW231086   2.255   1.493   4.728
10354SOL     OW31087   3.322   1.505   5.063
10354SOL    HW131088   3.346   1.599   5.089
10354SOL    HW231089   3.306   1.451   5.145
10355SOL     OW31090   2.300   0.392   5.223
10355SOL    HW131091   2.382   0.336   5.232
10355SOL    HW231092   2.219   0.334   5.227
10356SOL     OW31093   3.465   0.447   4.461
10356SOL    HW131094   3.391   0.493   4.411
10356SOL    HW231095   3.516   0.515   4.514
10357SOL     OW31096   2.093   1.713   4.207
10357SOL    HW131097   2.127   1.790   4.261
10357SOL    HW231098   2.137   1.713   4.117
10358SOL     OW31099   2.989   1.341   5.414
10358SOL    HW131100   3.036   1.341   5.502
10358SOL    HW231101   2.941   1.254   5.403
10359SOL     OW31102   2.092   1.434   4.262
10359SOL    HW131103   2.066   1.530   4.262
10359SOL    HW231104   2.021   1.380   4.307
10360SOL     OW31105   2.102   1.091   4.610
10360SOL    HW131106   2.116   1.007   4.662
10360SOL    HW231107   2.047   1.155   4.665
10361SOL     OW31108   2.482   1.786   5.163
10361SOL    HW131109   2.390   1.769   5.198
10361SOL    HW231110   2.510   1.878   5.189
10362SOL     OW31111   2.468   0.964   3.847
10362SOL    HW131112   2.475   1.048   3.793
10362SOL    HW231113   2.514   0.977   3.935
10363SOL     OW31114   3.456   0.114   5.204
10363SOL    HW131115   3.438   0.181   5.132
10363SOL    HW231116   3.453   0.160   5.293
10364SOL     OW31117   1.984   0.643   4.287
10364SOL    HW131118   1.939   0.555   4.304
10364SOL    HW231119   1.983   0.697   4.371
10365SOL     OW31120   3.704   1.767   4.083
10365SOL    HW131121   3.758   1.738   4.163
10365SOL    HW231122   3.734   1.857   4.054
10366SOL     OW31123   1.889   1.596   3.841
10366SOL    HW131124   1.870   1.500   3.862
10366SOL    HW231125   1.856   1.654   3.916
10367SOL     OW31126   3.551   0.922   4.336
10367SOL    HW131127   3.646   0.893   4.344
10367SOL    HW231128   3.543   0.987   4.261
10368SOL     OW31129   3.503   1.108   4.156
10368SOL    HW131130   3.589   1.110   4.104
10368SOL    HW231131   3.517   1.155   4.244
10369SOL     OW31132   1.975   0.737   5.321
10369SOL    HW131133   2.063   0.724   5.366
10369SOL    HW231134   1.962   0.834   5.299
10370SOL     OW31135   2.475   1.365   4.450
10370SOL    HW131136   2.426   1.278   4.459
10370SOL    HW231137   2.452   1.408   4.363
10371SOL     OW31138   3.155   1.228   5.147
10371SOL    HW131139   3.192   1.155   5.089
10371SOL    HW231140   3.207   1.233   5.232
10372SOL     OW31141   2.671   0.004   4.226
10372SOL    HW131142   2.711   0.095   4.217
10372SOL    HW231143   2.571   0.012   4.232
10373SOL     OW31144   2.059   0.976   4.988
10373SOL    HW131145   2.148   0.931   4.974
10373SOL    HW231146   1.986   0.911   4.969
10374SOL     OW31147   3.387   0.999   3.914
10374SOL    HW131148   3.324   0.923   3.927
10374SOL    HW231149   3.435   1.017   4.000
10375SOL     OW31150   3.049   1.792   5.340
10375SOL    HW131151   3.073   1.852   5.264
10375SOL    HW231152   3.056   1.697   5.310
10376SOL     OW31153   2.179   0.251   5.525
10376SOL    HW131154   2.250   0.322   5.531
10376SOL    HW231155   2.091   0.290   5.553
10377SOL     OW31156   3.328   1.417   4.677
10377SOL    HW131157   3.269   1.423   4.757
10377SOL    HW231158   3.313   1.329   4.631
10378SOL     OW31159   3.529   1.714   4.296
10378SOL    HW131160   3.488   1.691   4.208
10378SOL    HW231161   3.511   1.640   4.361
10379SOL     OW31162   2.460   0.729   3.994
10379SOL    HW131163   2.484   0.798   3.926
10379SOL    HW231164   2.382   0.762   4.048
10380SOL     OW31165   3.143   0.345   4.668
10380SOL    HW131166   3.057   0.295   4.655
10380SOL    HW231167   3.205   0.291   4.724
10381SOL     OW31168   3.438   1.662   4.031
10381SOL    HW131169   3.527   1.708   4.034
10381SOL    HW231170   3.417   1.638   3.936
10382SOL     OW31171   2.669   0.605   5.189
10382SOL    HW131172   2.622   0.602   5.278
10382SOL    HW231173   2.618   0.550   5.123
10383SOL     OW31174   3.256   0.469   5.398
10383SOL    HW131175   3.236   0.512   5.486
10383SOL    HW231176   3.334   0.407   5.407
10384SOL     OW31177   2.835   0.890   5.296
10384SOL    HW131178   2.881   0.806   5.267
10384SOL    HW231179   2.779   0.924   5.221
10385SOL     OW31180   2.853   0.410   4.966
10385SOL    HW131181   2.776   0.444   5.020
10385SOL    HW231182   2.819   0.359   4.887
10386SOL     OW31183   2.903   0.701   4.153
10386SOL    HW131184   2.929   0.697   4.249
10386SOL    HW231185   2.818   0.650   4.139
10387SOL     OW31186   1.938   0.811   4.513
10387SOL    HW131187   2.037   0.799   4.522
10387SOL    HW231188   1.914   0.906   4.534
10388SOL     OW31189   1.992   1.821   5.295
10388SOL    HW131190   1.982   1.806   5.394
10388SOL    HW231191   1.906   1.857   5.259
10389SOL     OW31192   2.727   0.348   3.919
10389SOL    HW131193   2.786   0.411   3.870
10389SOL    HW231194   2.746   0.254   3.890
10390SOL     OW31195   3.581   0.585   5.555
10390SOL    HW131196   3.555   0.674   5.519
10390SOL    HW231197   3.579   0.517   5.482
10391SOL     OW31198   3.224   1.144   4.269
10391SOL    HW131199   3.307   1.115   4.221
10391SOL    HW231200   3.175   1.211   4.213
10392SOL     OW31201   2.412   0.196   4.609
10392SOL    HW131202   2.407   0.191   4.709
10392SOL    HW231203   2.414   0.292   4.580
10393SOL     OW31204   2.870   1.456   4.201
10393SOL    HW131205   2.824   1.528   4.149
10393SOL    HW231206   2.866   1.476   4.299
10394SOL     OW31207   2.213   1.801   4.577
10394SOL    HW131208   2.263   1.715   4.583
10394SOL    HW231209   2.278   1.878   4.574
10395SOL     OW31210   3.657   1.066   4.597
10395SOL    HW131211   3.595   1.051   4.521
10395SOL    HW231212   3.605   1.077   4.682
10396SOL     OW31213   3.089   1.550   5.230
10396SOL    HW131214   3.095   1.473   5.294
10396SOL    HW231215   3.037   1.524   5.150
10397SOL     OW31216   2.183   0.943   3.966
10397SOL    HW131217   2.265   0.982   3.924
10397SOL    HW231218   2.156   0.861   3.917
10398SOL     OW31219   3.320   0.735   4.452
10398SOL    HW131220   3.315   0.670   4.527
10398SOL    HW231221   3.400   0.794   4.465
10399SOL     OW31222   2.323   1.266   5.451
10399SOL    HW131223   2.273   1.267   5.365
10399SOL    HW231224   2.260   1.248   5.527
10400SOL     OW31225   2.973   1.776   3.961
10400SOL    HW131226   2.913   1.714   4.011
10400SOL    HW231227   3.004   1.732   3.876
10401SOL     OW31228   2.064   0.285   5.222
10401SOL    HW131229   1.984   0.345   5.209
10401SOL    HW231230   2.054   0.236   5.308
10402SOL     OW31231   3.494   1.377   3.805
10402SOL    HW131232   3.462   1.471   3.795
10402SOL    HW231233   3.418   1.314   3.793
10403SOL     OW31234   2.326   1.743   4.047
10403SOL    HW131235   2.359   1.782   4.133
10403SOL    HW231236   2.402   1.736   3.982
10404SOL     OW31237   3.262   0.107   4.150
10404SOL    HW131238   3.238   0.070   4.060
10404SOL    HW231239   3.361   0.123   4.154
10405SOL     OW31240   2.111   1.785   4.965
10405SOL    HW131241   2.168   1.720   5.015
10405SOL    HW231242   2.095   1.752   4.872
10406SOL     OW31243   2.802   1.698   4.628
10406SOL    HW131244   2.882   1.641   4.649
10406SOL    HW231245   2.753   1.658   4.551
10407SOL     OW31246   2.244   0.700   4.204
10407SOL    HW131247   2.289   0.610   4.201
10407SOL    HW231248   2.150   0.689   4.237
10408SOL     OW31249   3.409   0.222   5.453
10408SOL    HW131250   3.404   0.259   5.545
10408SOL    HW231251   3.337   0.153   5.441
10409SOL     OW31252   2.476   0.122   3.841
10409SOL    HW131253   2.574   0.100   3.848
10409SOL    HW231254   2.445   0.105   3.748
10410SOL     OW31255   2.643   0.264   5.473
10410SOL    HW131256   2.710   0.203   5.516
10410SOL    HW231257   2.570   0.283   5.538
10411SOL     OW31258   2.750   1.514   4.919
10411SOL    HW131259   2.727   1.489   4.825
10411SOL    HW231260   2.811   1.445   4.958
10412SOL     OW31261   3.213   0.590   5.157
10412SOL    HW131262   3.241   0.547   5.242
10412SOL    HW231263   3.238   0.686   5.158
10413SOL     OW31264   2.665   1.402   4.648
10413SOL    HW131265   2.755   1.416   4.606
10413SOL    HW231266   2.594   1.404   4.577
10414SOL     OW31267   2.784   0.503   4.623
10414SOL    HW131268   2.759   0.494   4.527
10414SOL    HW231269   2.832   0.421   4.654
10415SOL     OW31270   2.401   0.064   4.236
10415SOL    HW131271   2.320   0.065   4.294
10415SOL    HW231272   2.404   0.147   4.181
10416SOL     OW31273   3.296   1.188   3.765
10416SOL    HW131274   3.328   1.112   3.822
10416SOL    HW231275   3.204   1.215   3.795
10417SOL     OW31276   2.159   0.035   3.895
10417SOL    HW131277   2.208   0.119   3.874
10417SOL    HW231278   2.221  -0.030   3.940
10418SOL     OW31279   2.797   0.236   4.204
10418SOL    HW131280   2.749   0.277   4.126
10418SOL    HW231281   2.896   0.234   4.185
10419SOL     OW31282   2.938   0.683   5.188
10419SOL    HW131283   2.858   0.622   5.191
10419SOL    HW231284   3.019   0.630   5.164
10420SOL     OW31285   3.089   1.570   4.517
10420SOL    HW131286   3.110   1.644   4.452
10420SOL    HW231287   3.157   1.570   4.590
10421SOL     OW31288   2.321   1.152   4.465
10421SOL    HW131289   2.250   1.125   4.530
10421SOL    HW231290   2.295   1.124   4.372
10422SOL     OW31291   3.133   1.797   4.315
10422SOL    HW131292   3.177   1.861   4.251
10422SOL    HW231293   3.083   1.849   4.385
10423SOL     OW31294   2.894   0.549   3.740
10423SOL    HW131295   2.853   0.631   3.701
10423SOL    HW231296   2.958   0.575   3.813
10424SOL     OW31297   1.940   0.556   5.110
10424SOL    HW131298   2.032   0.555   5.069
10424SOL    HW231299   1.934   0.630   5.177
10425SOL     OW31300   2.423   0.222   4.871
10425SOL    HW131301   2.461   0.138   4.908
10425SOL    HW231302   2.335   0.241   4.915
10426SOL     OW31303   2.728   0.454   4.366
10426SOL    HW131304   2.696   0.526   4.304
10426SOL    HW231305   2.752   0.373   4.313
10427SOL     OW31306   2.879   0.039   4.477
10427SOL    HW131307   2.807   0.044   4.408
10427SOL    HW231308   2.855  -0.030   4.546
10428SOL     OW31309   3.291   1.173   4.591
10428SOL    HW131310   3.236   1.089   4.584
10428SOL    HW231311   3.317   1.202   4.499
10429SOL     OW31312   3.328   0.590   4.716
10429SOL    HW131313   3.298   0.495   4.723
10429SOL    HW231314   3.401   0.606   4.782
10430SOL     OW31315   3.719   0.833   4.101
10430SOL    HW131316   3.761   0.769   4.165
10430SOL    HW231317   3.681   0.782   4.023
10431SOL     OW31318   2.350   1.385   3.898
10431SOL    HW131319   2.263   1.370   3.945
10431SOL    HW231320   2.333   1.411   3.803
10432SOL     OW31321   3.526   1.280   4.381
10432SOL    HW131322   3.625   1.288   4.395
10432SOL    HW231323   3.481   1.364   4.412
10433SOL     OW31324   3.252   0.575   3.802
10433SOL    HW131325   3.198   0.554   3.883
10433SOL    HW231326   3.343   0.534   3.811
10434SOL     OW31327   2.389   0.256   4.052
10434SOL    HW131328   2.416   0.197   3.977
10434SOL    HW231329   2.389   0.351   4.021
10435SOL     OW31330   3.616   1.223   5.312
10435SOL    HW131331   3.707   1.184   5.299
10435SOL    HW231332   3.624   1.319   5.336
10436SOL     OW31333   2.926   1.347   5.064
10436SOL    HW131334   2.846   1.324   5.119
10436SOL    HW231335   3.009   1.321   5.113
10437SOL     OW31336   3.454   1.629   5.349
10437SOL    HW131337   3.481   1.663   5.259
10437SOL    HW231338   3.533   1.591   5.395
10438SOL     OW31339   2.973   1.195   4.824
10438SOL    HW131340   2.933   1.239   4.905
10438SOL    HW231341   2.932   1.232   4.741
10439SOL     OW31342   3.500   1.099   4.803
10439SOL    HW131343   3.505   1.180   4.862
10439SOL    HW231344   3.414   1.101   4.752
10440SOL     OW31345   2.777   0.089   5.126
10440SOL    HW131346   2.802   0.069   5.031
10440SOL    HW231347   2.849   0.145   5.168
10441SOL     OW31348   2.842   1.116   5.443
10441SOL    HW131349   2.743   1.122   5.453
10441SOL    HW231350   2.865   1.036   5.387
10442SOL     OW31351   2.567   1.050   4.092
10442SOL    HW131352   2.553   1.057   4.191
10442SOL    HW231353   2.651   0.999   4.074
10443SOL     OW31354   2.272   0.813   4.975
10443SOL    HW131355   2.358   0.825   5.025
10443SOL    HW231356   2.230   0.726   5.002
10444SOL     OW31357   3.136   0.386   4.986
10444SOL    HW131358   3.157   0.460   5.050
10444SOL    HW231359   3.047   0.403   4.943
10445SOL     OW31360   1.926   1.564   5.055
10445SOL    HW131361   1.880   1.646   5.021
10445SOL    HW231362   2.024   1.583   5.064
10446SOL     OW31363   2.229   1.100   4.225
10446SOL    HW131364   2.222   1.183   4.169
10446SOL    HW231365   2.233   1.020   4.165
10447SOL     OW31366   2.428   0.537   4.589
10447SOL    HW131367   2.440   0.603   4.515
10447SOL    HW231368   2.474   0.571   4.672
10448SOL     OW31369   3.114   1.348   4.112
10448SOL    HW131370   3.164   1.425   4.152
10448SOL    HW231371   3.019   1.350   4.144
10449SOL     OW31372   3.134   1.445   4.866
10449SOL    HW131373   3.181   1.458   4.953
10449SOL    HW231374   3.068   1.371   4.875
10450SOL     OW31375   3.444   0.639   4.196
10450SOL    HW131376   3.413   0.700   4.269
10450SOL    HW231377   3.494   0.691   4.127
10451SOL     OW31378   2.216   1.510   5.053
10451SOL    HW131379   2.195   1.466   4.966
10451SOL    HW231380   2.313   1.536   5.056
10452SOL     OW31381   2.264   0.751   5.322
10452SOL    HW131382   2.332   0.806   5.275
10452SOL    HW231383   2.304   0.663   5.349
10453SOL     OW31384   3.449   0.779   5.394
10453SOL    HW131385   3.357   0.817   5.389
10453SOL    HW231386   3.509   0.826   5.329
10454SOL     OW31387   2.875   0.105   5.494
10454SOL    HW131388   2.881   0.190   5.442
10454SOL    HW231389   2.907   0.029   5.437
10455SOL     OW31390   2.366   0.050   5.464
10455SOL    HW131391   2.324  -0.007   5.394
10455SOL    HW231392   2.300   0.119   5.496
10456SOL     OW31393   2.435   0.870   4.753
10456SOL    HW131394   2.479   0.959   4.744
10456SOL    HW231395   2.372   0.870   4.830
10457SOL     OW31396   3.222   0.862   4.769
10457SOL    HW131397   3.147   0.862   4.703
10457SOL    HW231398   3.259   0.770   4.778
10458SOL     OW31399   3.071   0.525   3.999
10458SOL    HW131400   3.084   0.441   4.053
10458SOL    HW231401   3.042   0.599   4.059
10459SOL     OW31402   2.169   0.213   4.955
10459SOL    HW131403   2.146   0.250   5.045
10459SOL    HW231404   2.139   0.118   4.949
10460SOL     OW31405   1.899   1.310   5.006
10460SOL    HW131406   1.952   1.261   5.074
10460SOL    HW231407   1.921   1.408   5.011
10461SOL     OW31408   2.594   0.634   4.788
10461SOL    HW131409   2.653   0.608   4.712
10461SOL    HW231410   2.566   0.730   4.777
10462SOL     OW31411   3.590   0.935   5.578
10462SOL    HW131412   3.544   0.928   5.489
10462SOL    HW231413   3.528   0.979   5.644
10463SOL     OW31414   2.169   0.063   4.342
10463SOL    HW131415   2.158   0.157   4.375
10463SOL    HW231416   2.164   0.000   4.419
10464SOL     OW31417   3.484   0.367   4.098
10464SOL    HW131418   3.486   0.291   4.162
10464SOL    HW231419   3.436   0.444   4.138
10465SOL     OW31420   2.885   0.766   4.690
10465SOL    HW131421   2.900   0.787   4.786
10465SOL    HW231422   2.855   0.671   4.681
10466SOL     OW31423   2.842   1.573   5.424
10466SOL    HW131424   2.822   1.617   5.336
10466SOL    HW231425   2.881   1.482   5.408
10467SOL     OW31426   3.721   1.518   5.329
10467SOL    HW131427   3.735   1.545   5.234
10467SOL    HW231428   3.804   1.540   5.382
10468SOL     OW31429   2.212   0.898   5.528
10468SOL    HW131430   2.288   0.942   5.576
10468SOL    HW231431   2.247   0.851   5.446
10469SOL     OW31432   3.402   0.274   3.849
10469SOL    HW131433   3.341   0.199   3.872
10469SOL    HW231434   3.424   0.326   3.932
10470SOL     OW31435   3.165   0.838   3.766
10470SOL    HW131436   3.199   0.745   3.781
10470SOL    HW231437   3.183   0.865   3.671
10471SOL     OW31438   2.930   1.333   4.573
10471SOL    HW131439   2.937   1.249   4.518
10471SOL    HW231440   2.992   1.402   4.537
10472SOL     OW31441   2.181   0.810   4.673
10472SOL    HW131442   2.274   0.846   4.678
10472SOL    HW231443   2.175   0.725   4.725
10473SOL     OW31444   2.201   0.509   4.730
10473SOL    HW131445   2.149   0.426   4.713
10473SOL    HW231446   2.278   0.514   4.666
10474SOL     OW31447   3.000   0.380   5.402
10474SOL    HW131448   2.955   0.443   5.466
10474SOL    HW231449   3.093   0.411   5.385
10475SOL     OW31450   3.022   0.207   5.201
10475SOL    HW131451   3.022   0.271   5.278
10475SOL    HW231452   3.050   0.255   5.118
10476SOL     OW31453   1.870   1.326   3.924
10476SOL    HW131454   1.777   1.347   3.893
10476SOL    HW231455   1.880   1.227   3.937
10477SOL     OW31456   1.950   1.801   4.651
10477SOL    HW131457   1.908   1.715   4.624
10477SOL    HW231458   2.044   1.804   4.617
10478SOL     OW31459   2.366   1.568   4.634
10478SOL    HW131460   2.432   1.642   4.643
10478SOL    HW231461   2.410   1.489   4.592
10479SOL     OW31462   2.864   0.796   4.962
10479SOL    HW131463   2.905   0.764   5.048
10479SOL    HW231464   2.768   0.769   4.959
10480SOL     OW31465   1.902   0.544   4.838
10480SOL    HW131466   1.987   0.511   4.797
10480SOL    HW231467   1.915   0.559   4.936
10481SOL     OW31468   2.051   0.520   5.446
10481SOL    HW131469   2.110   0.480   5.376
10481SOL    HW231470   1.993   0.591   5.405
10482SOL     OW31471   3.231   0.950   5.384
10482SOL    HW131472   3.270   1.039   5.404
10482SOL    HW231473   3.241   0.930   5.287
10483SOL     OW31474   2.677   0.572   4.049
10483SOL    HW131475   2.684   0.483   4.003
10483SOL    HW231476   2.583   0.606   4.041
10484SOL     OW31477   3.519   0.604   4.930
10484SOL    HW131478   3.481   0.535   4.992
10484SOL    HW231479   3.601   0.568   4.886
10485SOL     OW31480   2.114   1.564   5.468
10485SOL    HW131481   2.084   1.621   5.544
10485SOL    HW231482   2.107   1.467   5.494
10486SOL     OW31483   2.533   0.464   4.993
10486SOL    HW131484   2.499   0.375   4.963
10486SOL    HW231485   2.559   0.518   4.913
10487SOL     OW31486   2.792   1.678   5.189
10487SOL    HW131487   2.768   1.660   5.094
10487SOL    HW231488   2.822   1.772   5.199
10488SOL     OW31489   2.335   0.500   3.915
10488SOL    HW131490   2.396   0.580   3.919
10488SOL    HW231491   2.240   0.531   3.922
10489SOL     OW31492   2.021   1.137   5.190
10489SOL    HW131493   2.043   1.076   5.266
10489SOL    HW231494   2.031   1.088   5.104
10490SOL     OW31495   3.209   1.059   4.958
10490SOL    HW131496   3.233   0.996   4.884
10490SOL    HW231497   3.119   1.099   4.940
10491SOL     OW31498   3.164   0.855   4.033
10491SOL    HW131499   3.078   0.824   4.075
10491SOL    HW231500   3.160   0.841   3.934
10492SOL     OW31501   3.621   1.747   4.878
10492SOL    HW131502   3.682   1.777   4.805
10492SOL    HW231503   3.583   1.658   4.856
10493SOL     OW31504   3.114   1.731   4.852
10493SOL    HW131505   3.198   1.736   4.798
10493SOL    HW231506   3.091   1.635   4.870
10494SOL     OW31507   1.945   1.258   4.746
10494SOL    HW131508   1.940   1.257   4.846
10494SOL    HW231509   1.862   1.217   4.708
10495SOL     OW31510   2.550   1.662   5.440
10495SOL    HW131511   2.494   1.743   5.449
10495SOL    HW231512   2.602   1.666   5.354
10496SOL     OW31513   3.588   0.135   4.247
10496SOL    HW131514   3.661   0.118   4.180
10496SOL    HW231515   3.557   0.048   4.285
10497SOL     OW31516   3.250   1.573   4.201
10497SOL    HW131517   3.317   1.585   4.127
10497SOL    HW231518   3.210   1.662   4.224
10498SOL     OW31519   1.992   1.794   5.575
10498SOL    HW131520   1.951   1.720   5.628
10498SOL    HW231521   2.056   1.845   5.633
10499SOL     OW31522   3.142   0.927   4.396
10499SOL    HW131523   3.202   0.846   4.398
10499SOL    HW231524   3.182   0.996   4.336
10500SOL     OW31525   2.692   1.273   5.146
10500SOL    HW131526   2.687   1.306   5.241
10500SOL    HW231527   2.606   1.292   5.100
10501SOL     OW31528   2.534   1.616   3.878
10501SOL    HW131529   2.543   1.626   3.779
10501SOL    HW231530   2.494   1.527   3.899
10502SOL     OW31531   3.512   1.720   5.118
10502SOL    HW131532   3.565   1.730   5.034
10502SOL    HW231533   3.485   1.810   5.152
10503SOL     OW31534   3.703   0.175   4.687
10503SOL    HW131535   3.742   0.090   4.651
10503SOL    HW231536   3.605   0.177   4.668
10504SOL     OW31537   2.125   0.326   4.444
10504SOL    HW131538   2.046   0.377   4.410
10504SOL    HW231539   2.116   0.311   4.542
10505SOL     OW31540   3.056   1.612   3.755
10505SOL    HW131541   3.062   1.519   3.792
10505SOL    HW231542   2.997   1.612   3.675
10506SOL     OW31543   2.684   1.002   5.096
10506SOL    HW131544   2.724   1.001   5.004
10506SOL    HW231545   2.694   1.094   5.136
10507SOL     OW31546   2.778   0.910   4.015
10507SOL    HW131547   2.841   0.948   3.947
10507SOL    HW231548   2.818   0.827   4.054
10508SOL     OW31549   3.366   1.607   3.768
10508SOL    HW131550   3.274   1.644   3.775
10508SOL    HW231551   3.404   1.627   3.678
10509SOL     OW31552   2.234   1.288   5.214
10509SOL    HW131553   2.221   1.381   5.180
10509SOL    HW231554   2.150   1.236   5.201
10510SOL     OW31555   3.476   1.292   5.013
10510SOL    HW131556   3.536   1.295   5.093
10510SOL    HW231557   3.401   1.356   5.026
10511SOL     OW31558   2.901   1.098   4.420
10511SOL    HW131559   2.831   1.051   4.474
10511SOL    HW231560   2.960   1.030   4.377
10512SOL     OW31561   2.876   0.236   4.695
10512SOL    HW131562   2.868   0.200   4.602
10512SOL    HW231563   2.874   0.160   4.760
10513SOL     OW31564   2.452   1.487   4.215
10513SOL    HW131565   2.494   1.429   4.145
10513SOL    HW231566   2.408   1.566   4.171
10514SOL     OW31567   3.571   0.385   5.105
10514SOL    HW131568   3.644   0.454   5.109
10514SOL    HW231569   3.599   0.310   5.046
10515SOL     OW31570   2.117   1.348   4.014
10515SOL    HW131571   2.021   1.349   3.987
10515SOL    HW231572   2.129   1.401   4.098
10516SOL     OW31573   1.967   1.013   5.450
10516SOL    HW131574   1.890   0.980   5.504
10516SOL    HW231575   2.052   0.983   5.492
10517SOL     OW31576   2.534   0.203   5.213
10517SOL    HW131577   2.624   0.187   5.173
10517SOL    HW231578   2.542   0.208   5.312
10518SOL     OW31579   1.937   0.345   3.757
10518SOL    HW131580   1.845   0.317   3.728
10518SOL    HW231581   1.968   0.422   3.701
10519SOL     OW31582   3.302   0.856   5.122
10519SOL    HW131583   3.245   0.908   5.059
10519SOL    HW231584   3.398   0.868   5.098
10520SOL     OW31585   1.934   0.166   4.042
10520SOL    HW131586   1.917   0.249   3.988
10520SOL    HW231587   2.024   0.129   4.020
10521SOL     OW31588   3.045   1.335   3.843
10521SOL    HW131589   2.946   1.324   3.845
10521SOL    HW231590   3.079   1.350   3.936
10522SOL     OW31591   2.475   0.842   5.155
10522SOL    HW131592   2.531   0.923   5.138
10522SOL    HW231593   2.534   0.762   5.158
10523SOL     OW31594   3.355   1.767   4.683
10523SOL    HW131595   3.388   1.831   4.614
10523SOL    HW231596   3.421   1.761   4.758
10524SOL     OW31597   2.578   0.565   5.432
10524SOL    HW131598   2.597   0.630   5.506
10524SOL    HW231599   2.638   0.485   5.441
10525SOL     OW31600   3.312   1.220   5.357
10525SOL    HW131601   3.303   1.210   5.456
10525SOL    HW231602   3.408   1.213   5.331
10526SOL     OW31603   2.252   1.741   5.284
10526SOL    HW131604   2.161   1.782   5.282
10526SOL    HW231605   2.245   1.647   5.316
10527SOL     OW31606   3.536   0.883   4.978
10527SOL    HW131607   3.509   0.794   4.941
10527SOL    HW231608   3.537   0.951   4.905
10528SOL     OW31609   3.087   0.325   4.173
10528SOL    HW131610   3.152   0.251   4.162
10528SOL    HW231611   3.107   0.375   4.257
10529SOL     OW31612   2.456   0.745   4.376
10529SOL    HW131613   2.506   0.830   4.357
10529SOL    HW231614   2.368   0.747   4.328
10530SOL     OW31615   3.639   0.342   5.366
10530SOL    HW131616   3.622   0.373   5.272
10530SOL    HW231617   3.555   0.305   5.404
10531SOL     OW31618   3.592   0.934   5.241
10531SOL    HW131619   3.630   1.025   5.256
10531SOL    HW231620   3.584   0.917   5.142
10532SOL     OW31621   2.721   1.374   3.740
10532SOL    HW131622   2.675   1.389   3.828
10532SOL    HW231623   2.765   1.459   3.710
10533SOL     OW31624   2.523   1.790   4.677
10533SOL    HW131625   2.477   1.878   4.664
10533SOL    HW231626   2.622   1.802   4.670
10534SOL     OW31627   2.721   0.956   4.585
10534SOL    HW131628   2.775   0.887   4.633
10534SOL    HW231629   2.689   1.025   4.651
10535SOL     OW31630   2.945   0.984   3.811
10535SOL    HW131631   2.922   1.037   3.729
10535SOL    HW231632   3.026   0.928   3.792
10536SOL     OW31633   3.723   1.569   4.575
10536SOL    HW131634   3.652   1.557   4.505
10536SOL    HW231635   3.724   1.490   4.635
10537SOL     OW31636   2.083   1.314   5.568
10537SOL    HW131637   2.018   1.241   5.547
10537SOL    HW231638   2.087   1.328   5.666
10538SOL     OW31639   1.941   1.240   4.377
10538SOL    HW131640   1.940   1.193   4.465
10538SOL    HW231641   2.023   1.212   4.326
10539SOL     OW31642   2.534   1.391   5.348
10539SOL    HW131643   2.456   1.341   5.386
10539SOL    HW231644   2.531   1.486   5.379
10540SOL     OW31645   3.686   0.192   4.951
10540SOL    HW131646   3.682   0.102   4.995
10540SOL    HW231647   3.689   0.181   4.852
10541SOL     OW31648   2.290   0.424   4.244
10541SOL    HW131649   2.320   0.352   4.182
10541SOL    HW231650   2.251   0.384   4.327
10542SOL     OW31651   3.567   1.487   4.828
10542SOL    HW131652   3.474   1.462   4.801
10542SOL    HW231653   3.593   1.437   4.910
10543SOL     OW31654   2.179   0.547   5.004
10543SOL    HW131655   2.217   0.488   5.076
10543SOL    HW231656   2.219   0.521   4.916
10544SOL     OW31657   2.674   1.586   4.411
10544SOL    HW131658   2.706   1.596   4.317
10544SOL    HW231659   2.595   1.524   4.413
10545SOL     OW31660   3.286   0.214   4.836
10545SOL    HW131661   3.338   0.149   4.891
10545SOL    HW231662   3.237   0.277   4.897
10546SOL     OW31663   2.863   0.034   4.878
10546SOL    HW131664   2.800  -0.038   4.847
10546SOL    HW231665   2.956  -0.002   4.878
10547SOL     OW31666   2.632   1.330   4.025
10547SOL    HW131667   2.586   1.243   4.042
10547SOL    HW231668   2.723   1.327   4.066
10548SOL     OW31669   2.480   1.567   5.008
10548SOL    HW131670   2.475   1.649   5.065
10548SOL    HW231671   2.569   1.564   4.963
10549SOL     OW31672   3.214   0.052   3.892
10549SOL    HW131673   3.249   0.011   3.808
10549SOL    HW231674   3.124   0.014   3.912
10550SOL     OW31675   3.162   0.453   4.415
10550SOL    HW131676   3.103   0.533   4.419
10550SOL    HW231677   3.177   0.418   4.508
10551SOL     OW31678   3.455   0.221   4.606
10551SOL    HW131679   3.371   0.220   4.660
10551SOL    HW231680   3.457   0.304   4.550
10552SOL     OW31681   1.901   1.077   4.024
10552SOL    HW131682   2.000   1.066   4.015
10552SOL    HW231683   1.861   0.991   4.056
10553SOL     OW31684   2.737   1.646   4.061
10553SOL    HW131685   2.660   1.611   4.007
10553SOL    HW231686   2.705   1.717   4.123
10554SOL     OW31687   2.092   0.628   5.699
10554SOL    HW131688   1.999   0.626   5.736
10554SOL    HW231689   2.093   0.589   5.607
10555SOL     OW31690   2.087   0.275   6.582
10555SOL    HW131691   2.122   0.258   6.674
10555SOL    HW231692   1.999   0.230   6.570
10556SOL     OW31693   1.881   0.368   6.233
10556SOL    HW131694   1.799   0.411   6.272
10556SOL    HW231695   1.853   0.295   6.170
10557SOL     OW31696   2.431   1.275   6.751
10557SOL    HW131697   2.338   1.268   6.714
10557SOL    HW231698   2.442   1.364   6.795
10558SOL     OW31699   3.417   1.511   6.289
10558SOL    HW131700   3.360   1.495   6.370
10558SOL    HW231701   3.358   1.521   6.209
10559SOL     OW31702   2.997   0.703   6.303
10559SOL    HW131703   3.054   0.781   6.278
10559SOL    HW231704   2.937   0.729   6.379
10560SOL     OW31705   3.617   0.607   5.817
10560SOL    HW131706   3.605   0.594   5.718
10560SOL    HW231707   3.587   0.526   5.866
10561SOL     OW31708   2.630   1.144   6.609
10561SOL    HW131709   2.552   1.161   6.669
10561SOL    HW231710   2.664   1.231   6.573
10562SOL     OW31711   2.712   0.798   7.409
10562SOL    HW131712   2.708   0.874   7.474
10562SOL    HW231713   2.734   0.834   7.318
10563SOL     OW31714   2.547   1.012   6.251
10563SOL    HW131715   2.616   0.996   6.321
10563SOL    HW231716   2.474   1.069   6.289
10564SOL     OW31717   2.548   1.161   7.389
10564SOL    HW131718   2.608   1.240   7.403
10564SOL    HW231719   2.462   1.192   7.348
10565SOL     OW31720   2.197   1.435   6.647
10565SOL    HW131721   2.119   1.404   6.594
10565SOL    HW231722   2.255   1.493   6.590
10566SOL     OW31723   3.322   1.505   6.925
10566SOL    HW131724   3.346   1.599   6.951
10566SOL    HW231725   3.306   1.451   7.007
10567SOL     OW31726   2.300   0.392   7.085
10567SOL    HW131727   2.382   0.336   7.094
10567SOL    HW231728   2.219   0.334   7.089
10568SOL     OW31729   3.465   0.447   6.323
10568SOL    HW131730   3.391   0.493   6.273
10568SOL    HW231731   3.516   0.515   6.376
10569SOL     OW31732   2.093   1.713   6.069
10569SOL    HW131733   2.127   1.790   6.123
10569SOL    HW231734   2.137   1.713   5.979
10570SOL     OW31735   2.989   1.341   7.276
10570SOL    HW131736   3.036   1.341   7.364
10570SOL    HW231737   2.941   1.254   7.265
10571SOL     OW31738   2.092   1.434   6.124
10571SOL    HW131739   2.066   1.530   6.124
10571SOL    HW231740   2.021   1.380   6.169
10572SOL     OW31741   2.102   1.091   6.472
10572SOL    HW131742   2.116   1.007   6.524
10572SOL    HW231743   2.047   1.155   6.527
10573SOL     OW31744   2.482   1.786   7.025
10573SOL    HW131745   2.390   1.769   7.060
10573SOL    HW231746   2.510   1.878   7.051
10574SOL     OW31747   2.468   0.964   5.709
10574SOL    HW131748   2.475   1.048   5.655
10574SOL    HW231749   2.514   0.977   5.797
10575SOL     OW31750   3.456   0.114   7.066
10575SOL    HW131751   3.438   0.181   6.994
10575SOL    HW231752   3.453   0.160   7.155
10576SOL     OW31753   1.984   0.643   6.149
10576SOL    HW131754   1.939   0.555   6.166
10576SOL    HW231755   1.983   0.697   6.233
10577SOL     OW31756   3.704   1.767   5.945
10577SOL    HW131757   3.758   1.738   6.025
10577SOL    HW231758   3.734   1.857   5.916
10578SOL     OW31759   1.889   1.596   5.703
10578SOL    HW131760   1.870   1.500   5.724
10578SOL    HW231761   1.856   1.654   5.778
10579SOL     OW31762   3.551   0.922   6.198
10579SOL    HW131763   3.646   0.893   6.206
10579SOL    HW231764   3.543   0.987   6.123
10580SOL     OW31765   3.503   1.108   6.018
10580SOL    HW131766   3.589   1.110   5.966
10580SOL    HW231767   3.517   1.155   6.106
10581SOL     OW31768   1.975   0.737   7.183
10581SOL    HW131769   2.063   0.724   7.228
10581SOL    HW231770   1.962   0.834   7.161
10582SOL     OW31771   2.475   1.365   6.312
10582SOL    HW131772   2.426   1.278   6.321
10582SOL    HW231773   2.452   1.408   6.225
10583SOL     OW31774   3.155   1.228   7.009
10583SOL    HW131775   3.192   1.155   6.951
10583SOL    HW231776   3.207   1.233   7.094
10584SOL     OW31777   2.671   0.004   6.088
10584SOL    HW131778   2.711   0.095   6.079
10584SOL    HW231779   2.571   0.012   6.094
10585SOL     OW31780   2.059   0.976   6.850
10585SOL    HW131781   2.148   0.931   6.836
10585SOL    HW231782   1.986   0.911   6.831
10586SOL     OW31783   3.387   0.999   5.776
10586SOL    HW131784   3.324   0.923   5.789
10586SOL    HW231785   3.435   1.017   5.862
10587SOL     OW31786   3.049   1.792   7.202
10587SOL    HW131787   3.073   1.852   7.126
10587SOL    HW231788   3.056   1.697   7.172
10588SOL     OW31789   2.179   0.251   7.387
10588SOL    HW131790   2.250   0.322   7.393
10588SOL    HW231791   2.091   0.290   7.415
10589SOL     OW31792   3.328   1.417   6.539
10589SOL    HW131793   3.269   1.423   6.619
10589SOL    HW231794   3.313   1.329   6.493
10590SOL     OW31795   3.529   1.714   6.158
10590SOL    HW131796   3.488   1.691   6.070
10590SOL    HW231797   3.511   1.640   6.223
10591SOL     OW31798   2.460   0.729   5.856
10591SOL    HW131799   2.484   0.798   5.788
10591SOL    HW231800   2.382   0.762   5.910
10592SOL     OW31801   3.143   0.345   6.530
10592SOL    HW131802   3.057   0.295   6.517
10592SOL    HW231803   3.205   0.291   6.586
10593SOL     OW31804   3.438   1.662   5.893
10593SOL    HW131805   3.527   1.708   5.896
10593SOL    HW231806   3.417   1.638   5.798
10594SOL     OW31807   2.669   0.605   7.051
10594SOL    HW131808   2.622   0.602   7.140
10594SOL    HW231809   2.618   0.550   6.985
10595SOL     OW31810   3.256   0.469   7.260
10595SOL    HW131811   3.236   0.512   7.348
10595SOL    HW231812   3.334   0.407   7.269
10596SOL     OW31813   2.835   0.890   7.158
10596SOL    HW131814   2.881   0.806   7.129
10596SOL    HW231815   2.779   0.924   7.083
10597SOL     OW31816   2.853   0.410   6.828
10597SOL    HW131817   2.776   0.444   6.882
10597SOL    HW231818   2.819   0.359   6.749
10598SOL     OW31819   2.903   0.701   6.015
10598SOL    HW131820   2.929   0.697   6.111
10598SOL    HW231821   2.818   0.650   6.001
10599SOL     OW31822   1.938   0.811   6.375
10599SOL    HW131823   2.037   0.799   6.384
10599SOL    HW231824   1.914   0.906   6.396
10600SOL     OW31825   1.992   1.821   7.157
10600SOL    HW131826   1.982   1.806   7.256
10600SOL    HW231827   1.906   1.857   7.121
10601SOL     OW31828   2.727   0.348   5.781
10601SOL    HW131829   2.786   0.411   5.732
10601SOL    HW231830   2.746   0.254   5.752
10602SOL     OW31831   3.581   0.585   7.417
10602SOL    HW131832   3.555   0.674   7.381
10602SOL    HW231833   3.579   0.517   7.344
10603SOL     OW31834   3.224   1.144   6.131
10603SOL    HW131835   3.307   1.115   6.083
10603SOL    HW231836   3.175   1.211   6.075
10604SOL     OW31837   2.412   0.196   6.471
10604SOL    HW131838   2.407   0.191   6.571
10604SOL    HW231839   2.414   0.292   6.442
10605SOL     OW31840   2.870   1.456   6.063
10605SOL    HW131841   2.824   1.528   6.011
10605SOL    HW231842   2.866   1.476   6.161
10606SOL     OW31843   2.213   1.801   6.439
10606SOL    HW131844   2.263   1.715   6.445
10606SOL    HW231845   2.278   1.878   6.436
10607SOL     OW31846   3.657   1.066   6.459
10607SOL    HW131847   3.595   1.051   6.383
10607SOL    HW231848   3.605   1.077   6.544
10608SOL     OW31849   3.089   1.550   7.092
10608SOL    HW131850   3.095   1.473   7.156
10608SOL    HW231851   3.037   1.524   7.012
10609SOL     OW31852   2.183   0.943   5.828
10609SOL    HW131853   2.265   0.982   5.786
10609SOL    HW231854   2.156   0.861   5.779
10610SOL     OW31855   3.320   0.735   6.314
10610SOL    HW131856   3.315   0.670   6.389
10610SOL    HW231857   3.400   0.794   6.327
10611SOL     OW31858   2.323   1.266   7.313
10611SOL    HW131859   2.273   1.267   7.227
10611SOL    HW231860   2.260   1.248   7.389
10612SOL     OW31861   2.973   1.776   5.823
10612SOL    HW131862   2.913   1.714   5.873
10612SOL    HW231863   3.004   1.732   5.738
10613SOL     OW31864   2.064   0.285   7.084
10613SOL    HW131865   1.984   0.345   7.071
10613SOL    HW231866   2.054   0.236   7.170
10614SOL     OW31867   3.494   1.377   5.667
10614SOL    HW131868   3.462   1.471   5.657
10614SOL    HW231869   3.418   1.314   5.655
10615SOL     OW31870   2.326   1.743   5.909
10615SOL    HW131871   2.359   1.782   5.995
10615SOL    HW231872   2.402   1.736   5.844
10616SOL     OW31873   3.262   0.107   6.012
10616SOL    HW131874   3.238   0.070   5.922
10616SOL    HW231875   3.361   0.123   6.016
10617SOL     OW31876   2.111   1.785   6.827
10617SOL    HW131877   2.168   1.720   6.877
10617SOL    HW231878   2.095   1.752   6.734
10618SOL     OW31879   2.802   1.698   6.490
10618SOL    HW131880   2.882   1.641   6.511
10618SOL    HW231881   2.753   1.658   6.413
10619SOL     OW31882   2.244   0.700   6.066
10619SOL    HW131883   2.289   0.610   6.063
10619SOL    HW231884   2.150   0.689   6.099
10620SOL     OW31885   3.409   0.222   7.315
10620SOL    HW131886   3.404   0.259   7.407
10620SOL    HW231887   3.337   0.153   7.303
10621SOL     OW31888   2.476   0.122   5.703
10621SOL    HW131889   2.574   0.100   5.710
10621SOL    HW231890   2.445   0.105   5.610
10622SOL     OW31891   2.643   0.264   7.335
10622SOL    HW131892   2.710   0.203   7.378
10622SOL    HW231893   2.570   0.283   7.400
10623SOL     OW31894   2.750   1.514   6.781
10623SOL    HW131895   2.727   1.489   6.687
10623SOL    HW231896   2.811   1.445   6.820
10624SOL     OW31897   3.213   0.590   7.019
10624SOL    HW131898   3.241   0.547   7.104
10624SOL    HW231899   3.238   0.686   7.020
10625SOL     OW31900   2.665   1.402   6.510
10625SOL    HW131901   2.755   1.416   6.468
10625SOL    HW231902   2.594   1.404   6.439
10626SOL     OW31903   2.784   0.503   6.485
10626SOL    HW131904   2.759   0.494   6.389
10626SOL    HW231905   2.832   0.421   6.516
10627SOL     OW31906   2.401   0.064   6.098
10627SOL    HW131907   2.320   0.065   6.156
10627SOL    HW231908   2.404   0.147   6.043
10628SOL     OW31909   3.296   1.188   5.627
10628SOL    HW131910   3.328   1.112   5.684
10628SOL    HW231911   3.204   1.215   5.657
10629SOL     OW31912   2.159   0.035   5.757
10629SOL    HW131913   2.208   0.119   5.736
10629SOL    HW231914   2.221  -0.030   5.802
10630SOL     OW31915   2.797   0.236   6.066
10630SOL    HW131916   2.749   0.277   5.988
10630SOL    HW231917   2.896   0.234   6.047
10631SOL     OW31918   2.938   0.683   7.050
10631SOL    HW131919   2.858   0.622   7.053
10631SOL    HW231920   3.019   0.630   7.026
10632SOL     OW31921   3.089   1.570   6.379
10632SOL    HW131922   3.110   1.644   6.314
10632SOL    HW231923   3.157   1.570   6.452
10633SOL     OW31924   2.321   1.152   6.327
10633SOL    HW131925   2.250   1.125   6.392
10633SOL    HW231926   2.295   1.124   6.234
10634SOL     OW31927   3.133   1.797   6.177
10634SOL    HW131928   3.177   1.861   6.113
10634SOL    HW231929   3.083   1.849   6.247
10635SOL     OW31930   2.894   0.549   5.602
10635SOL    HW131931   2.853   0.631   5.563
10635SOL    HW231932   2.958   0.575   5.675
10636SOL     OW31933   1.940   0.556   6.972
10636SOL    HW131934   2.032   0.555   6.931
10636SOL    HW231935   1.934   0.630   7.039
10637SOL     OW31936   2.423   0.222   6.733
10637SOL    HW131937   2.461   0.138   6.770
10637SOL    HW231938   2.335   0.241   6.777
10638SOL     OW31939   2.728   0.454   6.228
10638SOL    HW131940   2.696   0.526   6.166
10638SOL    HW231941   2.752   0.373   6.175
10639SOL     OW31942   2.879   0.039   6.339
10639SOL    HW131943   2.807   0.044   6.270
10639SOL    HW231944   2.855  -0.030   6.408
10640SOL     OW31945   3.291   1.173   6.453
10640SOL    HW131946   3.236   1.089   6.446
10640SOL    HW231947   3.317   1.202   6.361
10641SOL     OW31948   3.328   0.590   6.578
10641SOL    HW131949   3.298   0.495   6.585
10641SOL    HW231950   3.401   0.606   6.644
10642SOL     OW31951   3.719   0.833   5.963
10642SOL    HW131952   3.761   0.769   6.027
10642SOL    HW231953   3.681   0.782   5.885
10643SOL     OW31954   2.350   1.385   5.760
10643SOL    HW131955   2.263   1.370   5.807
10643SOL    HW231956   2.333   1.411   5.665
10644SOL     OW31957   3.526   1.280   6.243
10644SOL    HW131958   3.625   1.288   6.257
10644SOL    HW231959   3.481   1.364   6.274
10645SOL     OW31960   3.252   0.575   5.664
10645SOL    HW131961   3.198   0.554   5.745
10645SOL    HW231962   3.343   0.534   5.673
10646SOL     OW31963   2.389   0.256   5.914
10646SOL    HW131964   2.416   0.197   5.839
10646SOL    HW231965   2.389   0.351   5.883
10647SOL     OW31966   3.616   1.223   7.174
10647SOL    HW131967   3.707   1.184   7.161
10647SOL    HW231968   3.624   1.319   7.198
10648SOL     OW31969   2.926   1.347   6.926
10648SOL    HW131970   2.846   1.324   6.981
10648SOL    HW231971   3.009   1.321   6.975
10649SOL     OW31972   3.454   1.629   7.211
10649SOL    HW131973   3.481   1.663   7.121
10649SOL    HW231974   3.533   1.591   7.257
10650SOL     OW31975   2.973   1.195   6.686
10650SOL    HW131976   2.933   1.239   6.767
10650SOL    HW231977   2.932   1.232   6.603
10651SOL     OW31978   3.500   1.099   6.665
10651SOL    HW131979   3.505   1.180   6.724
10651SOL    HW231980   3.414   1.101   6.614
10652SOL     OW31981   2.777   0.089   6.988
10652SOL    HW131982   2.802   0.069   6.893
10652SOL    HW231983   2.849   0.145   7.030
10653SOL     OW31984   2.842   1.116   7.305
10653SOL    HW131985   2.743   1.122   7.315
10653SOL    HW231986   2.865   1.036   7.249
10654SOL     OW31987   2.567   1.050   5.954
10654SOL    HW131988   2.553   1.057   6.053
10654SOL    HW231989   2.651   0.999   5.936
10655SOL     OW31990   2.272   0.813   6.837
10655SOL    HW131991   2.358   0.825   6.887
10655SOL    HW231992   2.230   0.726   6.864
10656SOL     OW31993   3.136   0.386   6.848
10656SOL    HW131994   3.157   0.460   6.912
10656SOL    HW231995   3.047   0.403   6.805
10657SOL     OW31996   1.926   1.564   6.917
10657SOL    HW131997   1.880   1.646   6.883
10657SOL    HW231998   2.024   1.583   6.926
10658SOL     OW31999   2.229   1.100   6.087
10658SOL    HW132000   2.222   1.183   6.031
10658SOL    HW232001   2.233   1.020   6.027
10659SOL     OW32002   2.428   0.537   6.451
10659SOL    HW132003   2.440   0.603   6.377
10659SOL    HW232004   2.474   0.571   6.534
10660SOL     OW32005   3.114   1.348   5.974
10660SOL    HW132006   3.164   1.425   6.014
10660SOL    HW232007   3.019   1.350   6.006
10661SOL     OW32008   3.134   1.445   6.728
10661SOL    HW132009   3.181   1.458   6.815
10661SOL    HW232010   3.068   1.371   6.737
10662SOL     OW32011   3.444   0.639   6.058
10662SOL    HW132012   3.413   0.700   6.131
10662SOL    HW232013   3.494   0.691   5.989
10663SOL     OW32014   2.216   1.510   6.915
10663SOL    HW132015   2.195   1.466   6.828
10663SOL    HW232016   2.313   1.536   6.918
10664SOL     OW32017   2.264   0.751   7.184
10664SOL    HW132018   2.332   0.806   7.137
10664SOL    HW232019   2.304   0.663   7.211
10665SOL     OW32020   3.449   0.779   7.256
10665SOL    HW132021   3.357   0.817   7.251
10665SOL    HW232022   3.509   0.826   7.191
10666SOL     OW32023   2.875   0.105   7.356
10666SOL    HW132024   2.881   0.190   7.304
10666SOL    HW232025   2.907   0.029   7.299
10667SOL     OW32026   2.366   0.050   7.326
10667SOL    HW132027   2.324  -0.007   7.256
10667SOL    HW232028   2.300   0.119   7.358
10668SOL     OW32029   2.435   0.870   6.615
10668SOL    HW132030   2.479   0.959   6.606
10668SOL    HW232031   2.372   0.870   6.692
10669SOL     OW32032   3.222   0.862   6.631
10669SOL    HW132033   3.147   0.862   6.565
10669SOL    HW232034   3.259   0.770   6.640
10670SOL     OW32035   3.071   0.525   5.861
10670SOL    HW132036   3.084   0.441   5.915
10670SOL    HW232037   3.042   0.599   5.921
10671SOL     OW32038   2.169   0.213   6.817
10671SOL    HW132039   2.146   0.250   6.907
10671SOL    HW232040   2.139   0.118   6.811
10672SOL     OW32041   1.899   1.310   6.868
10672SOL    HW132042   1.952   1.261   6.936
10672SOL    HW232043   1.921   1.408   6.873
10673SOL     OW32044   2.594   0.634   6.650
10673SOL    HW132045   2.653   0.608   6.574
10673SOL    HW232046   2.566   0.730   6.639
10674SOL     OW32047   3.590   0.935   7.440
10674SOL    HW132048   3.544   0.928   7.351
10674SOL    HW232049   3.528   0.979   7.506
10675SOL     OW32050   2.169   0.063   6.204
10675SOL    HW132051   2.158   0.157   6.237
10675SOL    HW232052   2.164   0.000   6.281
10676SOL     OW32053   3.484   0.367   5.960
10676SOL    HW132054   3.486   0.291   6.024
10676SOL    HW232055   3.436   0.444   6.000
10677SOL     OW32056   2.885   0.766   6.552
10677SOL    HW132057   2.900   0.787   6.648
10677SOL    HW232058   2.855   0.671   6.543
10678SOL     OW32059   2.842   1.573   7.286
10678SOL    HW132060   2.822   1.617   7.198
10678SOL    HW232061   2.881   1.482   7.270
10679SOL     OW32062   3.721   1.518   7.191
10679SOL    HW132063   3.735   1.545   7.096
10679SOL    HW232064   3.804   1.540   7.244
10680SOL     OW32065   2.212   0.898   7.390
10680SOL    HW132066   2.288   0.942   7.438
10680SOL    HW232067   2.247   0.851   7.308
10681SOL     OW32068   3.402   0.274   5.711
10681SOL    HW132069   3.341   0.199   5.734
10681SOL    HW232070   3.424   0.326   5.794
10682SOL     OW32071   3.165   0.838   5.628
10682SOL    HW132072   3.199   0.745   5.643
10682SOL    HW232073   3.183   0.865   5.533
10683SOL     OW32074   2.930   1.333   6.435
10683SOL    HW132075   2.937   1.249   6.380
10683SOL    HW232076   2.992   1.402   6.399
10684SOL     OW32077   2.181   0.810   6.535
10684SOL    HW132078   2.274   0.846   6.540
10684SOL    HW232079   2.175   0.725   6.587
10685SOL     OW32080   2.201   0.509   6.592
10685SOL    HW132081   2.149   0.426   6.575
10685SOL    HW232082   2.278   0.514   6.528
10686SOL     OW32083   3.000   0.380   7.264
10686SOL    HW132084   2.955   0.443   7.328
10686SOL    HW232085   3.093   0.411   7.247
10687SOL     OW32086   3.022   0.207   7.063
10687SOL    HW132087   3.022   0.271   7.140
10687SOL    HW232088   3.050   0.255   6.980
10688SOL     OW32089   1.870   1.326   5.786
10688SOL    HW132090   1.777   1.347   5.755
10688SOL    HW232091   1.880   1.227   5.799
10689SOL     OW32092   1.950   1.801   6.513
10689SOL    HW132093   1.908   1.715   6.486
10689SOL    HW232094   2.044   1.804   6.479
10690SOL     OW32095   2.366   1.568   6.496
10690SOL    HW132096   2.432   1.642   6.505
10690SOL    HW232097   2.410   1.489   6.454
10691SOL     OW32098   2.864   0.796   6.824
10691SOL    HW132099   2.905   0.764   6.910
10691SOL    HW232100   2.768   0.769   6.821
10692SOL     OW32101   1.902   0.544   6.700
10692SOL    HW132102   1.987   0.511   6.659
10692SOL    HW232103   1.915   0.559   6.798
10693SOL     OW32104   2.051   0.520   7.308
10693SOL    HW132105   2.110   0.480   7.238
10693SOL    HW232106   1.993   0.591   7.267
10694SOL     OW32107   3.231   0.950   7.246
10694SOL    HW132108   3.270   1.039   7.266
10694SOL    HW232109   3.241   0.930   7.149
10695SOL     OW32110   2.677   0.572   5.911
10695SOL    HW132111   2.684   0.483   5.865
10695SOL    HW232112   2.583   0.606   5.903
10696SOL     OW32113   3.519   0.604   6.792
10696SOL    HW132114   3.481   0.535   6.854
10696SOL    HW232115   3.601   0.568   6.748
10697SOL     OW32116   2.114   1.564   7.330
10697SOL    HW132117   2.084   1.621   7.406
10697SOL    HW232118   2.107   1.467   7.356
10698SOL     OW32119   2.533   0.464   6.855
10698SOL    HW132120   2.499   0.375   6.825
10698SOL    HW232121   2.559   0.518   6.775
10699SOL     OW32122   2.792   1.678   7.051
10699SOL    HW132123   2.768   1.660   6.956
10699SOL    HW232124   2.822   1.772   7.061
10700SOL     OW32125   2.335   0.500   5.777
10700SOL    HW132126   2.396   0.580   5.781
10700SOL    HW232127   2.240   0.531   5.784
10701SOL     OW32128   2.021   1.137   7.052
10701SOL    HW132129   2.043   1.076   7.128
10701SOL    HW232130   2.031   1.088   6.966
10702SOL     OW32131   3.209   1.059   6.820
10702SOL    HW132132   3.233   0.996   6.746
10702SOL    HW232133   3.119   1.099   6.802
10703SOL     OW32134   3.164   0.855   5.895
10703SOL    HW132135   3.078   0.824   5.937
10703SOL    HW232136   3.160   0.841   5.796
10704SOL     OW32137   3.621   1.747   6.740
10704SOL    HW132138   3.682   1.777   6.667
10704SOL    HW232139   3.583   1.658   6.718
10705SOL     OW32140   3.114   1.731   6.714
10705SOL    HW132141   3.198   1.736   6.660
10705SOL    HW232142   3.091   1.635   6.732
10706SOL     OW32143   1.945   1.258   6.608
10706SOL    HW132144   1.940   1.257   6.708
10706SOL    HW232145   1.862   1.217   6.570
10707SOL     OW32146   2.550   1.662   7.302
10707SOL    HW132147   2.494   1.743   7.311
10707SOL    HW232148   2.602   1.666   7.216
10708SOL     OW32149   3.588   0.135   6.109
10708SOL    HW132150   3.661   0.118   6.042
10708SOL    HW232151   3.557   0.048   6.147
10709SOL     OW32152   3.250   1.573   6.063
10709SOL    HW132153   3.317   1.585   5.989
10709SOL    HW232154   3.210   1.662   6.086
10710SOL     OW32155   1.992   1.794   7.437
10710SOL    HW132156   1.951   1.720   7.490
10710SOL    HW232157   2.056   1.845   7.495
10711SOL     OW32158   3.142   0.927   6.258
10711SOL    HW132159   3.202   0.846   6.260
10711SOL    HW232160   3.182   0.996   6.198
10712SOL     OW32161   2.692   1.273   7.008
10712SOL    HW132162   2.687   1.306   7.103
10712SOL    HW232163   2.606   1.292   6.962
10713SOL     OW32164   2.534   1.616   5.740
10713SOL    HW132165   2.543   1.626   5.641
10713SOL    HW232166   2.494   1.527   5.761
10714SOL     OW32167   3.512   1.720   6.980
10714SOL    HW132168   3.565   1.730   6.896
10714SOL    HW232169   3.485   1.810   7.014
10715SOL     OW32170   3.703   0.175   6.549
10715SOL    HW132171   3.742   0.090   6.513
10715SOL    HW232172   3.605   0.177   6.530
10716SOL     OW32173   2.125   0.326   6.306
10716SOL    HW132174   2.046   0.377   6.272
10716SOL    HW232175   2.116   0.311   6.404
10717SOL     OW32176   3.056   1.612   5.617
10717SOL    HW132177   3.062   1.519   5.654
10717SOL    HW232178   2.997   1.612   5.537
10718SOL     OW32179   2.684   1.002   6.958
10718SOL    HW132180   2.724   1.001   6.866
10718SOL    HW232181   2.694   1.094   6.998
10719SOL     OW32182   2.778   0.910   5.877
10719SOL    HW132183   2.841   0.948   5.809
10719SOL    HW232184   2.818   0.827   5.916
10720SOL     OW32185   3.366   1.607   5.630
10720SOL    HW132186   3.274   1.644   5.637
10720SOL    HW232187   3.404   1.627   5.540
10721SOL     OW32188   2.234   1.288   7.076
10721SOL    HW132189   2.221   1.381   7.042
10721SOL    HW232190   2.150   1.236   7.063
10722SOL     OW32191   3.476   1.292   6.875
10722SOL    HW132192   3.536   1.295   6.955
10722SOL    HW232193   3.401   1.356   6.888
10723SOL     OW32194   2.901   1.098   6.282
10723SOL    HW132195   2.831   1.051   6.336
10723SOL    HW232196   2.960   1.030   6.239
10724SOL     OW32197   2.876   0.236   6.557
10724SOL    HW132198   2.868   0.200   6.464
10724SOL    HW232199   2.874   0.160   6.622
10725SOL     OW32200   2.452   1.487   6.077
10725SOL    HW132201   2.494   1.429   6.007
10725SOL    HW232202   2.408   1.566   6.033
10726SOL     OW32203   3.571   0.385   6.967
10726SOL    HW132204   3.644   0.454   6.971
10726SOL    HW232205   3.599   0.310   6.908
10727SOL     OW32206   2.117   1.348   5.876
10727SOL    HW132207   2.021   1.349   5.849
10727SOL    HW232208   2.129   1.401   5.960
10728SOL     OW32209   1.967   1.013   7.312
10728SOL    HW132210   1.890   0.980   7.366
10728SOL    HW232211   2.052   0.983   7.354
10729SOL     OW32212   2.534   0.203   7.075
10729SOL    HW132213   2.624   0.187   7.035
10729SOL    HW232214   2.542   0.208   7.174
10730SOL     OW32215   1.937   0.345   5.619
10730SOL    HW132216   1.845   0.317   5.590
10730SOL    HW232217   1.968   0.422   5.563
10731SOL     OW32218   3.302   0.856   6.984
10731SOL    HW132219   3.245   0.908   6.921
10731SOL    HW232220   3.398   0.868   6.960
10732SOL     OW32221   1.934   0.166   5.904
10732SOL    HW132222   1.917   0.249   5.850
10732SOL    HW232223   2.024   0.129   5.882
10733SOL     OW32224   3.045   1.335   5.705
10733SOL    HW132225   2.946   1.324   5.707
10733SOL    HW232226   3.079   1.350   5.798
10734SOL     OW32227   2.475   0.842   7.017
10734SOL    HW132228   2.531   0.923   7.000
10734SOL    HW232229   2.534   0.762   7.020
10735SOL     OW32230   3.355   1.767   6.545
10735SOL    HW132231   3.388   1.831   6.476
10735SOL    HW232232   3.421   1.761   6.620
10736SOL     OW32233   2.578   0.565   7.294
10736SOL    HW132234   2.597   0.630   7.368
10736SOL    HW232235   2.638   0.485   7.303
10737SOL     OW32236   3.312   1.220   7.219
10737SOL    HW132237   3.303   1.210   7.318
10737SOL    HW232238   3.408   1.213   7.193
10738SOL     OW32239   2.252   1.741   7.146
10738SOL    HW132240   2.161   1.782   7.144
10738SOL    HW232241   2.245   1.647   7.178
10739SOL     OW32242   3.536   0.883   6.840
10739SOL    HW132243   3.509   0.794   6.803
10739SOL    HW232244   3.537   0.951   6.767
10740SOL     OW32245   3.087   0.325   6.035
10740SOL    HW132246   3.152   0.251   6.024
10740SOL    HW232247   3.107   0.375   6.119
10741SOL     OW32248   2.456   0.745   6.238
10741SOL    HW132249   2.506   0.830   6.219
10741SOL    HW232250   2.368   0.747   6.190
10742SOL     OW32251   3.639   0.342   7.228
10742SOL    HW132252   3.622   0.373   7.134
10742SOL    HW232253   3.555   0.305   7.266
10743SOL     OW32254   3.592   0.934   7.103
10743SOL    HW132255   3.630   1.025   7.118
10743SOL    HW232256   3.584   0.917   7.004
10744SOL     OW32257   2.721   1.374   5.602
10744SOL    HW132258   2.675   1.389   5.690
10744SOL    HW232259   2.765   1.459   5.572
10745SOL     OW32260   2.523   1.790   6.539
10745SOL    HW132261   2.477   1.878   6.526
10745SOL    HW232262   2.622   1.802   6.532
10746SOL     OW32263   2.721   0.956   6.447
10746SOL    HW132264   2.775   0.887   6.495
10746SOL    HW232265   2.689   1.025   6.513
10747SOL     OW32266   2.945   0.984   5.673
10747SOL    HW132267   2.922   1.037   5.591
10747SOL    HW232268   3.026   0.928   5.654
10748SOL     OW32269   3.723   1.569   6.437
10748SOL    HW132270   3.652   1.557   6.367
10748SOL    HW232271   3.724   1.490   6.497
10749SOL     OW32272   2.083   1.314   7.430
10749SOL    HW132273   2.018   1.241   7.409
10749SOL    HW232274   2.087   1.328   7.528
10750SOL     OW32275   1.941   1.240   6.239
10750SOL    HW132276   1.940   1.193   6.327
10750SOL    HW232277   2.023   1.212   6.188
10751SOL     OW32278   2.534   1.391   7.210
10751SOL    HW132279   2.456   1.341   7.248
10751SOL    HW232280   2.531   1.486   7.241
10752SOL     OW32281   3.686   0.192   6.813
10752SOL    HW132282   3.682   0.102   6.857
10752SOL    HW232283   3.689   0.181   6.714
10753SOL     OW32284   2.290   0.424   6.106
10753SOL    HW132285   2.320   0.352   6.044
10753SOL    HW232286   2.251   0.384   6.189
10754SOL     OW32287   3.567   1.487   6.690
10754SOL    HW132288   3.474   1.462   6.663
10754SOL    HW232289   3.593   1.437   6.772
10755SOL     OW32290   2.179   0.547   6.866
10755SOL    HW132291   2.217   0.488   6.938
10755SOL    HW232292   2.219   0.521   6.778
10756SOL     OW32293   2.674   1.586   6.273
10756SOL    HW132294   2.706   1.596   6.179
10756SOL    HW232295   2.595   1.524   6.275
10757SOL     OW32296   3.286   0.214   6.698
10757SOL    HW132297   3.338   0.149   6.753
10757SOL    HW232298   3.237   0.277   6.759
10758SOL     OW32299   2.863   0.034   6.740
10758SOL    HW132300   2.800  -0.038   6.709
10758SOL    HW232301   2.956  -0.002   6.740
10759SOL     OW32302   2.632   1.330   5.887
10759SOL    HW132303   2.586   1.243   5.904
10759SOL    HW232304   2.723   1.327   5.928
10760SOL     OW32305   2.480   1.567   6.870
10760SOL    HW132306   2.475   1.649   6.927
10760SOL    HW232307   2.569   1.564   6.825
10761SOL     OW32308   3.214   0.052   5.754
10761SOL    HW132309   3.249   0.011   5.670
10761SOL    HW232310   3.124   0.014   5.774
10762SOL     OW32311   3.162   0.453   6.277
10762SOL    HW132312   3.103   0.533   6.281
10762SOL    HW232313   3.177   0.418   6.370
10763SOL     OW32314   3.455   0.221   6.468
10763SOL    HW132315   3.371   0.220   6.522
10763SOL    HW232316   3.457   0.304   6.412
10764SOL     OW32317   1.901   1.077   5.886
10764SOL    HW132318   2.000   1.066   5.877
10764SOL    HW232319   1.861   0.991   5.918
10765SOL     OW32320   2.737   1.646   5.923
10765SOL    HW132321   2.660   1.611   5.869
10765SOL    HW232322   2.705   1.717   5.985
10766SOL     OW32323   2.092   0.628   7.561
10766SOL    HW132324   1.999   0.626   7.598
10766SOL    HW232325   2.093   0.589   7.469
10767SOL     OW32326   2.087   0.275   8.444
10767SOL    HW132327   2.122   0.258   8.536
10767SOL    HW232328   1.999   0.230   8.432
10768SOL     OW32329   1.881   0.368   8.095
10768SOL    HW132330   1.799   0.411   8.134
10768SOL    HW232331   1.853   0.295   8.032
10769SOL     OW32332   2.431   1.275   8.613
10769SOL    HW132333   2.338   1.268   8.576
10769SOL    HW232334   2.442   1.364   8.657
10770SOL     OW32335   3.417   1.511   8.151
10770SOL    HW132336   3.360   1.495   8.232
10770SOL    HW232337   3.358   1.521   8.071
10771SOL     OW32338   2.997   0.703   8.165
10771SOL    HW132339   3.054   0.781   8.140
10771SOL    HW232340   2.937   0.729   8.241
10772SOL     OW32341   3.617   0.607   7.679
10772SOL    HW132342   3.605   0.594   7.580
10772SOL    HW232343   3.587   0.526   7.728
10773SOL     OW32344   2.630   1.144   8.471
10773SOL    HW132345   2.552   1.161   8.531
10773SOL    HW232346   2.664   1.231   8.435
10774SOL     OW32347   2.712   0.798   9.271
10774SOL    HW132348   2.708   0.874   9.336
10774SOL    HW232349   2.734   0.834   9.180
10775SOL     OW32350   2.547   1.012   8.113
10775SOL    HW132351   2.616   0.996   8.183
10775SOL    HW232352   2.474   1.069   8.151
10776SOL     OW32353   2.548   1.161   9.251
10776SOL    HW132354   2.608   1.240   9.265
10776SOL    HW232355   2.462   1.192   9.210
10777SOL     OW32356   2.197   1.435   8.509
10777SOL    HW132357   2.119   1.404   8.456
10777SOL    HW232358   2.255   1.493   8.452
10778SOL     OW32359   3.322   1.505   8.787
10778SOL    HW132360   3.346   1.599   8.813
10778SOL    HW232361   3.306   1.451   8.869
10779SOL     OW32362   2.300   0.392   8.947
10779SOL    HW132363   2.382   0.336   8.956
10779SOL    HW232364   2.219   0.334   8.951
10780SOL     OW32365   3.465   0.447   8.185
10780SOL    HW132366   3.391   0.493   8.135
10780SOL    HW232367   3.516   0.515   8.238
10781SOL     OW32368   2.093   1.713   7.931
10781SOL    HW132369   2.127   1.790   7.985
10781SOL    HW232370   2.137   1.713   7.841
10782SOL     OW32371   2.989   1.341   9.138
10782SOL    HW132372   3.036   1.341   9.226
10782SOL    HW232373   2.941   1.254   9.127
10783SOL     OW32374   2.092   1.434   7.986
10783SOL    HW132375   2.066   1.530   7.986
10783SOL    HW232376   2.021   1.380   8.031
10784SOL     OW32377   2.102   1.091   8.334
10784SOL    HW132378   2.116   1.007   8.386
10784SOL    HW232379   2.047   1.155   8.389
10785SOL     OW32380   2.482   1.786   8.887
10785SOL    HW132381   2.390   1.769   8.922
10785SOL    HW232382   2.510   1.878   8.913
10786SOL     OW32383   2.468   0.964   7.571
10786SOL    HW132384   2.475   1.048   7.517
10786SOL    HW232385   2.514   0.977   7.659
10787SOL     OW32386   3.456   0.114   8.928
10787SOL    HW132387   3.438   0.181   8.856
10787SOL    HW232388   3.453   0.160   9.017
10788SOL     OW32389   1.984   0.643   8.011
10788SOL    HW132390   1.939   0.555   8.028
10788SOL    HW232391   1.983   0.697   8.095
10789SOL     OW32392   3.704   1.767   7.807
10789SOL    HW132393   3.758   1.738   7.887
10789SOL    HW232394   3.734   1.857   7.778
10790SOL     OW32395   1.889   1.596   7.565
10790SOL    HW132396   1.870   1.500   7.586
10790SOL    HW232397   1.856   1.654   7.640
10791SOL     OW32398   3.551   0.922   8.060
10791SOL    HW132399   3.646   0.893   8.068
10791SOL    HW232400   3.543   0.987   7.985
10792SOL     OW32401   3.503   1.108   7.880
10792SOL    HW132402   3.589   1.110   7.828
10792SOL    HW232403   3.517   1.155   7.968
10793SOL     OW32404   1.975   0.737   9.045
10793SOL    HW132405   2.063   0.724   9.090
10793SOL    HW232406   1.962   0.834   9.023
10794SOL     OW32407   2.475   1.365   8.174
10794SOL    HW132408   2.426   1.278   8.183
10794SOL    HW232409   2.452   1.408   8.087
10795SOL     OW32410   3.155   1.228   8.871
10795SOL    HW132411   3.192   1.155   8.813
10795SOL    HW232412   3.207   1.233   8.956
10796SOL     OW32413   2.671   0.004   7.950
10796SOL    HW132414   2.711   0.095   7.941
10796SOL    HW232415   2.571   0.012   7.956
10797SOL     OW32416   2.059   0.976   8.712
10797SOL    HW132417   2.148   0.931   8.698
10797SOL    HW232418   1.986   0.911   8.693
10798SOL     OW32419   3.387   0.999   7.638
10798SOL    HW132420   3.324   0.923   7.651
10798SOL    HW232421   3.435   1.017   7.724
10799SOL     OW32422   3.049   1.792   9.064
10799SOL    HW132423   3.073   1.852   8.988
10799SOL    HW232424   3.056   1.697   9.034
10800SOL     OW32425   2.179   0.251   9.249
10800SOL    HW132426   2.250   0.322   9.255
10800SOL    HW232427   2.091   0.290   9.277
10801SOL     OW32428   3.328   1.417   8.401
10801SOL    HW132429   3.269   1.423   8.481
10801SOL    HW232430   3.313   1.329   8.355
10802SOL     OW32431   3.529   1.714   8.020
10802SOL    HW132432   3.488   1.691   7.932
10802SOL    HW232433   3.511   1.640   8.085
10803SOL     OW32434   2.460   0.729   7.718
10803SOL    HW132435   2.484   0.798   7.650
10803SOL    HW232436   2.382   0.762   7.772
10804SOL     OW32437   3.143   0.345   8.392
10804SOL    HW132438   3.057   0.295   8.379
10804SOL    HW232439   3.205   0.291   8.448
10805SOL     OW32440   3.438   1.662   7.755
10805SOL    HW132441   3.527   1.708   7.758
10805SOL    HW232442   3.417   1.638   7.660
10806SOL     OW32443   2.669   0.605   8.913
10806SOL    HW132444   2.622   0.602   9.002
10806SOL    HW232445   2.618   0.550   8.847
10807SOL     OW32446   3.256   0.469   9.122
10807SOL    HW132447   3.236   0.512   9.210
10807SOL    HW232448   3.334   0.407   9.131
10808SOL     OW32449   2.835   0.890   9.020
10808SOL    HW132450   2.881   0.806   8.991
10808SOL    HW232451   2.779   0.924   8.945
10809SOL     OW32452   2.853   0.410   8.690
10809SOL    HW132453   2.776   0.444   8.744
10809SOL    HW232454   2.819   0.359   8.611
10810SOL     OW32455   2.903   0.701   7.877
10810SOL    HW132456   2.929   0.697   7.973
10810SOL    HW232457   2.818   0.650   7.863
10811SOL     OW32458   1.938   0.811   8.237
10811SOL    HW132459   2.037   0.799   8.246
10811SOL    HW232460   1.914   0.906   8.258
10812SOL     OW32461   1.992   1.821   9.019
10812SOL    HW132462   1.982   1.806   9.118
10812SOL    HW232463   1.906   1.857   8.983
10813SOL     OW32464   2.727   0.348   7.643
10813SOL    HW132465   2.786   0.411   7.594
10813SOL    HW232466   2.746   0.254   7.614
10814SOL     OW32467   3.581   0.585   9.279
10814SOL    HW132468   3.555   0.674   9.243
10814SOL    HW232469   3.579   0.517   9.206
10815SOL     OW32470   3.224   1.144   7.993
10815SOL    HW132471   3.307   1.115   7.945
10815SOL    HW232472   3.175   1.211   7.937
10816SOL     OW32473   2.412   0.196   8.333
10816SOL    HW132474   2.407   0.191   8.433
10816SOL    HW232475   2.414   0.292   8.304
10817SOL     OW32476   2.870   1.456   7.925
10817SOL    HW132477   2.824   1.528   7.873
10817SOL    HW232478   2.866   1.476   8.023
10818SOL     OW32479   2.213   1.801   8.301
10818SOL    HW132480   2.263   1.715   8.307
10818SOL    HW232481   2.278   1.878   8.298
10819SOL     OW32482   3.657   1.066   8.321
10819SOL    HW132483   3.595   1.051   8.245
10819SOL    HW232484   3.605   1.077   8.406
10820SOL     OW32485   3.089   1.550   8.954
10820SOL    HW132486   3.095   1.473   9.018
10820SOL    HW232487   3.037   1.524   8.874
10821SOL     OW32488   2.183   0.943   7.690
10821SOL    HW132489   2.265   0.982   7.648
10821SOL    HW232490   2.156   0.861   7.641
10822SOL     OW32491   3.320   0.735   8.176
10822SOL    HW132492   3.315   0.670   8.251
10822SOL    HW232493   3.400   0.794   8.189
10823SOL     OW32494   2.323   1.266   9.175
10823SOL    HW132495   2.273   1.267   9.089
10823SOL    HW232496   2.260   1.248   9.251
10824SOL     OW32497   2.973   1.776   7.685
10824SOL    HW132498   2.913   1.714   7.735
10824SOL    HW232499   3.004   1.732   7.600
10825SOL     OW32500   2.064   0.285   8.946
10825SOL    HW132501   1.984   0.345   8.933
10825SOL    HW232502   2.054   0.236   9.032
10826SOL     OW32503   3.494   1.377   7.529
10826SOL    HW132504   3.462   1.471   7.519
10826SOL    HW232505   3.418   1.314   7.517
10827SOL     OW32506   2.326   1.743   7.771
10827SOL    HW132507   2.359   1.782   7.857
10827SOL    HW232508   2.402   1.736   7.706
10828SOL     OW32509   3.262   0.107   7.874
10828SOL    HW132510   3.238   0.070   7.784
10828SOL    HW232511   3.361   0.123   7.878
10829SOL     OW32512   2.111   1.785   8.689
10829SOL    HW132513   2.168   1.720   8.739
10829SOL    HW232514   2.095   1.752   8.596
10830SOL     OW32515   2.802   1.698   8.352
10830SOL    HW132516   2.882   1.641   8.373
10830SOL    HW232517   2.753   1.658   8.275
10831SOL     OW32518   2.244   0.700   7.928
10831SOL    HW132519   2.289   0.610   7.925
10831SOL    HW232520   2.150   0.689   7.961
10832SOL     OW32521   3.409   0.222   9.177
10832SOL    HW132522   3.404   0.259   9.269
10832SOL    HW232523   3.337   0.153   9.165
10833SOL     OW32524   2.476   0.122   7.565
10833SOL    HW132525   2.574   0.100   7.572
10833SOL    HW232526   2.445   0.105   7.472
10834SOL     OW32527   2.643   0.264   9.197
10834SOL    HW132528   2.710   0.203   9.240
10834SOL    HW232529   2.570   0.283   9.262
10835SOL     OW32530   2.750   1.514   8.643
10835SOL    HW132531   2.727   1.489   8.549
10835SOL    HW232532   2.811   1.445   8.682
10836SOL     OW32533   3.213   0.590   8.881
10836SOL    HW132534   3.241   0.547   8.966
10836SOL    HW232535   3.238   0.686   8.882
10837SOL     OW32536   2.665   1.402   8.372
10837SOL    HW132537   2.755   1.416   8.330
10837SOL    HW232538   2.594   1.404   8.301
10838SOL     OW32539   2.784   0.503   8.347
10838SOL    HW132540   2.759   0.494   8.251
10838SOL    HW232541   2.832   0.421   8.378
10839SOL     OW32542   2.401   0.064   7.960
10839SOL    HW132543   2.320   0.065   8.018
10839SOL    HW232544   2.404   0.147   7.905
10840SOL     OW32545   3.296   1.188   7.489
10840SOL    HW132546   3.328   1.112   7.546
10840SOL    HW232547   3.204   1.215   7.519
10841SOL     OW32548   2.159   0.035   7.619
10841SOL    HW132549   2.208   0.119   7.598
10841SOL    HW232550   2.221  -0.030   7.664
10842SOL     OW32551   2.797   0.236   7.928
10842SOL    HW132552   2.749   0.277   7.850
10842SOL    HW232553   2.896   0.234   7.909
10843SOL     OW32554   2.938   0.683   8.912
10843SOL    HW132555   2.858   0.622   8.915
10843SOL    HW232556   3.019   0.630   8.888
10844SOL     OW32557   3.089   1.570   8.241
10844SOL    HW132558   3.110   1.644   8.176
10844SOL    HW232559   3.157   1.570   8.314
10845SOL     OW32560   2.321   1.152   8.189
10845SOL    HW132561   2.250   1.125   8.254
10845SOL    HW232562   2.295   1.124   8.096
10846SOL     OW32563   3.133   1.797   8.039
10846SOL    HW132564   3.177   1.861   7.975
10846SOL    HW232565   3.083   1.849   8.109
10847SOL     OW32566   2.894   0.549   7.464
10847SOL    HW132567   2.853   0.631   7.425
10847SOL    HW232568   2.958   0.575   7.537
10848SOL     OW32569   1.940   0.556   8.834
10848SOL    HW132570   2.032   0.555   8.793
10848SOL    HW232571   1.934   0.630   8.901
10849SOL     OW32572   2.423   0.222   8.595
10849SOL    HW132573   2.461   0.138   8.632
10849SOL    HW232574   2.335   0.241   8.639
10850SOL     OW32575   2.728   0.454   8.090
10850SOL    HW132576   2.696   0.526   8.028
10850SOL    HW232577   2.752   0.373   8.037
10851SOL     OW32578   2.879   0.039   8.201
10851SOL    HW132579   2.807   0.044   8.132
10851SOL    HW232580   2.855  -0.030   8.270
10852SOL     OW32581   3.291   1.173   8.315
10852SOL    HW132582   3.236   1.089   8.308
10852SOL    HW232583   3.317   1.202   8.223
10853SOL     OW32584   3.328   0.590   8.440
10853SOL    HW132585   3.298   0.495   8.447
10853SOL    HW232586   3.401   0.606   8.506
10854SOL     OW32587   3.719   0.833   7.825
10854SOL    HW132588   3.761   0.769   7.889
10854SOL    HW232589   3.681   0.782   7.747
10855SOL     OW32590   2.350   1.385   7.622
10855SOL    HW132591   2.263   1.370   7.669
10855SOL    HW232592   2.333   1.411   7.527
10856SOL     OW32593   3.526   1.280   8.105
10856SOL    HW132594   3.625   1.288   8.119
10856SOL    HW232595   3.481   1.364   8.136
10857SOL     OW32596   3.252   0.575   7.526
10857SOL    HW132597   3.198   0.554   7.607
10857SOL    HW232598   3.343   0.534   7.535
10858SOL     OW32599   2.389   0.256   7.776
10858SOL    HW132600   2.416   0.197   7.701
10858SOL    HW232601   2.389   0.351   7.745
10859SOL     OW32602   3.616   1.223   9.036
10859SOL    HW132603   3.707   1.184   9.023
10859SOL    HW232604   3.624   1.319   9.060
10860SOL     OW32605   2.926   1.347   8.788
10860SOL    HW132606   2.846   1.324   8.843
10860SOL    HW232607   3.009   1.321   8.837
10861SOL     OW32608   3.454   1.629   9.073
10861SOL    HW132609   3.481   1.663   8.983
10861SOL    HW232610   3.533   1.591   9.119
10862SOL     OW32611   2.973   1.195   8.548
10862SOL    HW132612   2.933   1.239   8.629
10862SOL    HW232613   2.932   1.232   8.465
10863SOL     OW32614   3.500   1.099   8.527
10863SOL    HW132615   3.505   1.180   8.586
10863SOL    HW232616   3.414   1.101   8.476
10864SOL     OW32617   2.777   0.089   8.850
10864SOL    HW132618   2.802   0.069   8.755
10864SOL    HW232619   2.849   0.145   8.892
10865SOL     OW32620   2.842   1.116   9.167
10865SOL    HW132621   2.743   1.122   9.177
10865SOL    HW232622   2.865   1.036   9.111
10866SOL     OW32623   2.567   1.050   7.816
10866SOL    HW132624   2.553   1.057   7.915
10866SOL    HW232625   2.651   0.999   7.798
10867SOL     OW32626   2.272   0.813   8.699
10867SOL    HW132627   2.358   0.825   8.749
10867SOL    HW232628   2.230   0.726   8.726
10868SOL     OW32629   3.136   0.386   8.710
10868SOL    HW132630   3.157   0.460   8.774
10868SOL    HW232631   3.047   0.403   8.667
10869SOL     OW32632   1.926   1.564   8.779
10869SOL    HW132633   1.880   1.646   8.745
10869SOL    HW232634   2.024   1.583   8.788
10870SOL     OW32635   2.229   1.100   7.949
10870SOL    HW132636   2.222   1.183   7.893
10870SOL    HW232637   2.233   1.020   7.889
10871SOL     OW32638   2.428   0.537   8.313
10871SOL    HW132639   2.440   0.603   8.239
10871SOL    HW232640   2.474   0.571   8.396
10872SOL     OW32641   3.114   1.348   7.836
10872SOL    HW132642   3.164   1.425   7.876
10872SOL    HW232643   3.019   1.350   7.868
10873SOL     OW32644   3.134   1.445   8.590
10873SOL    HW132645   3.181   1.458   8.677
10873SOL    HW232646   3.068   1.371   8.599
10874SOL     OW32647   3.444   0.639   7.920
10874SOL    HW132648   3.413   0.700   7.993
10874SOL    HW232649   3.494   0.691   7.851
10875SOL     OW32650   2.216   1.510   8.777
10875SOL    HW132651   2.195   1.466   8.690
10875SOL    HW232652   2.313   1.536   8.780
10876SOL     OW32653   2.264   0.751   9.046
10876SOL    HW132654   2.332   0.806   8.999
10876SOL    HW232655   2.304   0.663   9.073
10877SOL     OW32656   3.449   0.779   9.118
10877SOL    HW132657   3.357   0.817   9.113
10877SOL    HW232658   3.509   0.826   9.053
10878SOL     OW32659   2.875   0.105   9.218
10878SOL    HW132660   2.881   0.190   9.166
10878SOL    HW232661   2.907   0.029   9.161
10879SOL     OW32662   2.366   0.050   9.188
10879SOL    HW132663   2.324  -0.007   9.118
10879SOL    HW232664   2.300   0.119   9.220
10880SOL     OW32665   2.435   0.870   8.477
10880SOL    HW132666   2.479   0.959   8.468
10880SOL    HW232667   2.372   0.870   8.554
10881SOL     OW32668   3.222   0.862   8.493
10881SOL    HW132669   3.147   0.862   8.427
10881SOL    HW232670   3.259   0.770   8.502
10882SOL     OW32671   3.071   0.525   7.723
10882SOL    HW132672   3.084   0.441   7.777
10882SOL    HW232673   3.042   0.599   7.783
10883SOL     OW32674   2.169   0.213   8.679
10883SOL    HW132675   2.146   0.250   8.769
10883SOL    HW232676   2.139   0.118   8.673
10884SOL     OW32677   1.899   1.310   8.730
10884SOL    HW132678   1.952   1.261   8.798
10884SOL    HW232679   1.921   1.408   8.735
10885SOL     OW32680   2.594   0.634   8.512
10885SOL    HW132681   2.653   0.608   8.436
10885SOL    HW232682   2.566   0.730   8.501
10886SOL     OW32683   3.590   0.935   9.302
10886SOL    HW132684   3.544   0.928   9.213
10886SOL    HW232685   3.528   0.979   9.368
10887SOL     OW32686   2.169   0.063   8.066
10887SOL    HW132687   2.158   0.157   8.099
10887SOL    HW232688   2.164   0.000   8.143
10888SOL     OW32689   3.484   0.367   7.822
10888SOL    HW132690   3.486   0.291   7.886
10888SOL    HW232691   3.436   0.444   7.862
10889SOL     OW32692   2.885   0.766   8.414
10889SOL    HW132693   2.900   0.787   8.510
10889SOL    HW232694   2.855   0.671   8.405
10890SOL     OW32695   2.842   1.573   9.148
10890SOL    HW132696   2.822   1.617   9.060
10890SOL    HW232697   2.881   1.482   9.132
10891SOL     OW32698   3.721   1.518   9.053
10891SOL    HW132699   3.735   1.545   8.958
10891SOL    HW232700   3.804   1.540   9.106
10892SOL     OW32701   2.212   0.898   9.252
10892SOL    HW132702   2.288   0.942   9.300
10892SOL    HW232703   2.247   0.851   9.170
10893SOL     OW32704   3.402   0.274   7.573
10893SOL    HW132705   3.341   0.199   7.596
10893SOL    HW232706   3.424   0.326   7.656
10894SOL     OW32707   3.165   0.838   7.490
10894SOL    HW132708   3.199   0.745   7.505
10894SOL    HW232709   3.183   0.865   7.395
10895SOL     OW32710   2.930   1.333   8.297
10895SOL    HW132711   2.937   1.249   8.242
10895SOL    HW232712   2.992   1.402   8.261
10896SOL     OW32713   2.181   0.810   8.397
10896SOL    HW132714   2.274   0.846   8.402
10896SOL    HW232715   2.175   0.725   8.449
10897SOL     OW32716   2.201   0.509   8.454
10897SOL    HW132717   2.149   0.426   8.437
10897SOL    HW232718   2.278   0.514   8.390
10898SOL     OW32719   3.000   0.380   9.126
10898SOL    HW132720   2.955   0.443   9.190
10898SOL    HW232721   3.093   0.411   9.109
10899SOL     OW32722   3.022   0.207   8.925
10899SOL    HW132723   3.022   0.271   9.002
10899SOL    HW232724   3.050   0.255   8.842
10900SOL     OW32725   1.870   1.326   7.648
10900SOL    HW132726   1.777   1.347   7.617
10900SOL    HW232727   1.880   1.227   7.661
10901SOL     OW32728   1.950   1.801   8.375
10901SOL    HW132729   1.908   1.715   8.348
10901SOL    HW232730   2.044   1.804   8.341
10902SOL     OW32731   2.366   1.568   8.358
10902SOL    HW132732   2.432   1.642   8.367
10902SOL    HW232733   2.410   1.489   8.316
10903SOL     OW32734   2.864   0.796   8.686
10903SOL    HW132735   2.905   0.764   8.772
10903SOL    HW232736   2.768   0.769   8.683
10904SOL     OW32737   1.902   0.544   8.562
10904SOL    HW132738   1.987   0.511   8.521
10904SOL    HW232739   1.915   0.559   8.660
10905SOL     OW32740   2.051   0.520   9.170
10905SOL    HW132741   2.110   0.480   9.100
10905SOL    HW232742   1.993   0.591   9.129
10906SOL     OW32743   3.231   0.950   9.108
10906SOL    HW132744   3.270   1.039   9.128
10906SOL    HW232745   3.241   0.930   9.011
10907SOL     OW32746   2.677   0.572   7.773
10907SOL    HW132747   2.684   0.483   7.727
10907SOL    HW232748   2.583   0.606   7.765
10908SOL     OW32749   3.519   0.604   8.654
10908SOL    HW132750   3.481   0.535   8.716
10908SOL    HW232751   3.601   0.568   8.610
10909SOL     OW32752   2.114   1.564   9.192
10909SOL    HW132753   2.084   1.621   9.268
10909SOL    HW232754   2.107   1.467   9.218
10910SOL     OW32755   2.533   0.464   8.717
10910SOL    HW132756   2.499   0.375   8.687
10910SOL    HW232757   2.559   0.518   8.637
10911SOL     OW32758   2.792   1.678   8.913
10911SOL    HW132759   2.768   1.660   8.818
10911SOL    HW232760   2.822   1.772   8.923
10912SOL     OW32761   2.335   0.500   7.639
10912SOL    HW132762   2.396   0.580   7.643
10912SOL    HW232763   2.240   0.531   7.646
10913SOL     OW32764   2.021   1.137   8.914
10913SOL    HW132765   2.043   1.076   8.990
10913SOL    HW232766   2.031   1.088   8.828
10914SOL     OW32767   3.209   1.059   8.682
10914SOL    HW132768   3.233   0.996   8.608
10914SOL    HW232769   3.119   1.099   8.664
10915SOL     OW32770   3.164   0.855   7.757
10915SOL    HW132771   3.078   0.824   7.799
10915SOL    HW232772   3.160   0.841   7.658
10916SOL     OW32773   3.621   1.747   8.602
10916SOL    HW132774   3.682   1.777   8.529
10916SOL    HW232775   3.583   1.658   8.580
10917SOL     OW32776   3.114   1.731   8.576
10917SOL    HW132777   3.198   1.736   8.522
10917SOL    HW232778   3.091   1.635   8.594
10918SOL     OW32779   1.945   1.258   8.470
10918SOL    HW132780   1.940   1.257   8.570
10918SOL    HW232781   1.862   1.217   8.432
10919SOL     OW32782   2.550   1.662   9.164
10919SOL    HW132783   2.494   1.743   9.173
10919SOL    HW232784   2.602   1.666   9.078
10920SOL     OW32785   3.588   0.135   7.971
10920SOL    HW132786   3.661   0.118   7.904
10920SOL    HW232787   3.557   0.048   8.009
10921SOL     OW32788   3.250   1.573   7.925
10921SOL    HW132789   3.317   1.585   7.851
10921SOL    HW232790   3.210   1.662   7.948
10922SOL     OW32791   1.992   1.794   9.299
10922SOL    HW132792   1.951   1.720   9.352
10922SOL    HW232793   2.056   1.845   9.357
10923SOL     OW32794   3.142   0.927   8.120
10923SOL    HW132795   3.202   0.846   8.122
10923SOL    HW232796   3.182   0.996   8.060
10924SOL     OW32797   2.692   1.273   8.870
10924SOL    HW132798   2.687   1.306   8.965
10924SOL    HW232799   2.606   1.292   8.824
10925SOL     OW32800   2.534   1.616   7.602
10925SOL    HW132801   2.543   1.626   7.503
10925SOL    HW232802   2.494   1.527   7.623
10926SOL     OW32803   3.512   1.720   8.842
10926SOL    HW132804   3.565   1.730   8.758
10926SOL    HW232805   3.485   1.810   8.876
10927SOL     OW32806   3.703   0.175   8.411
10927SOL    HW132807   3.742   0.090   8.375
10927SOL    HW232808   3.605   0.177   8.392
10928SOL     OW32809   2.125   0.326   8.168
10928SOL    HW132810   2.046   0.377   8.134
10928SOL    HW232811   2.116   0.311   8.266
10929SOL     OW32812   3.056   1.612   7.479
10929SOL    HW132813   3.062   1.519   7.516
10929SOL    HW232814   2.997   1.612   7.399
10930SOL     OW32815   2.684   1.002   8.820
10930SOL    HW132816   2.724   1.001   8.728
10930SOL    HW232817   2.694   1.094   8.860
10931SOL     OW32818   2.778   0.910   7.739
10931SOL    HW132819   2.841   0.948   7.671
10931SOL    HW232820   2.818   0.827   7.778
10932SOL     OW32821   3.366   1.607   7.492
10932SOL    HW132822   3.274   1.644   7.499
10932SOL    HW232823   3.404   1.627   7.402
10933SOL     OW32824   2.234   1.288   8.938
10933SOL    HW132825   2.221   1.381   8.904
10933SOL    HW232826   2.150   1.236   8.925
10934SOL     OW32827   3.476   1.292   8.737
10934SOL    HW132828   3.536   1.295   8.817
10934SOL    HW232829   3.401   1.356   8.750
10935SOL     OW32830   2.901   1.098   8.144
10935SOL    HW132831   2.831   1.051   8.198
10935SOL    HW232832   2.960   1.030   8.101
10936SOL     OW32833   2.876   0.236   8.419
10936SOL    HW132834   2.868   0.200   8.326
10936SOL    HW232835   2.874   0.160   8.484
10937SOL     OW32836   2.452   1.487   7.939
10937SOL    HW132837   2.494   1.429   7.869
10937SOL    HW232838   2.408   1.566   7.895
10938SOL     OW32839   3.571   0.385   8.829
10938SOL    HW132840   3.644   0.454   8.833
10938SOL    HW232841   3.599   0.310   8.770
10939SOL     OW32842   2.117   1.348   7.738
10939SOL    HW132843   2.021   1.349   7.711
10939SOL    HW232844   2.129   1.401   7.822
10940SOL     OW32845   1.967   1.013   9.174
10940SOL    HW132846   1.890   0.980   9.228
10940SOL    HW232847   2.052   0.983   9.216
10941SOL     OW32848   2.534   0.203   8.937
10941SOL    HW132849   2.624   0.187   8.897
10941SOL    HW232850   2.542   0.208   9.036
10942SOL     OW32851   1.937   0.345   7.481
10942SOL    HW132852   1.845   0.317   7.452
10942SOL    HW232853   1.968   0.422   7.425
10943SOL     OW32854   3.302   0.856   8.846
10943SOL    HW132855   3.245   0.908   8.783
10943SOL    HW232856   3.398   0.868   8.822
10944SOL     OW32857   1.934   0.166   7.766
10944SOL    HW132858   1.917   0.249   7.712
10944SOL    HW232859   2.024   0.129   7.744
10945SOL     OW32860   3.045   1.335   7.567
10945SOL    HW132861   2.946   1.324   7.569
10945SOL    HW232862   3.079   1.350   7.660
10946SOL     OW32863   2.475   0.842   8.879
10946SOL    HW132864   2.531   0.923   8.862
10946SOL    HW232865   2.534   0.762   8.882
10947SOL     OW32866   3.355   1.767   8.407
10947SOL    HW132867   3.388   1.831   8.338
10947SOL    HW232868   3.421   1.761   8.482
10948SOL     OW32869   2.578   0.565   9.156
10948SOL    HW132870   2.597   0.630   9.230
10948SOL    HW232871   2.638   0.485   9.165
10949SOL     OW32872   3.312   1.220   9.081
10949SOL    HW132873   3.303   1.210   9.180
10949SOL    HW232874   3.408   1.213   9.055
10950SOL     OW32875   2.252   1.741   9.008
10950SOL    HW132876   2.161   1.782   9.006
10950SOL    HW232877   2.245   1.647   9.040
10951SOL     OW32878   3.536   0.883   8.702
10951SOL    HW132879   3.509   0.794   8.665
10951SOL    HW232880   3.537   0.951   8.629
10952SOL     OW32881   3.087   0.325   7.897
10952SOL    HW132882   3.152   0.251   7.886
10952SOL    HW232883   3.107   0.375   7.981
10953SOL     OW32884   2.456   0.745   8.100
10953SOL    HW132885   2.506   0.830   8.081
10953SOL    HW232886   2.368   0.747   8.052
10954SOL     OW32887   3.639   0.342   9.090
10954SOL    HW132888   3.622   0.373   8.996
10954SOL    HW232889   3.555   0.305   9.128
10955SOL     OW32890   3.592   0.934   8.965
10955SOL    HW132891   3.630   1.025   8.980
10955SOL    HW232892   3.584   0.917   8.866
10956SOL     OW32893   2.721   1.374   7.464
10956SOL    HW132894   2.675   1.389   7.552
10956SOL    HW232895   2.765   1.459   7.434
10957SOL     OW32896   2.523   1.790   8.401
10957SOL    HW132897   2.477   1.878   8.388
10957SOL    HW232898   2.622   1.802   8.394
10958SOL     OW32899   2.721   0.956   8.309
10958SOL    HW132900   2.775   0.887   8.357
10958SOL    HW232901   2.689   1.025   8.375
10959SOL     OW32902   2.945   0.984   7.535
10959SOL    HW132903   2.922   1.037   7.453
10959SOL    HW232904   3.026   0.928   7.516
10960SOL     OW32905   3.723   1.569   8.299
10960SOL    HW132906   3.652   1.557   8.229
10960SOL    HW232907   3.724   1.490   8.359
10961SOL     OW32908   2.083   1.314   9.292
10961SOL    HW132909   2.018   1.241   9.271
10961SOL    HW232910   2.087   1.328   9.390
10962SOL     OW32911   1.941   1.240   8.101
10962SOL    HW132912   1.940   1.193   8.189
10962SOL    HW232913   2.023   1.212   8.050
10963SOL     OW32914   2.534   1.391   9.072
10963SOL    HW132915   2.456   1.341   9.110
10963SOL    HW232916   2.531   1.486   9.103
10964SOL     OW32917   3.686   0.192   8.675
10964SOL    HW132918   3.682   0.102   8.719
10964SOL    HW232919   3.689   0.181   8.576
10965SOL     OW32920   2.290   0.424   7.968
10965SOL    HW132921   2.320   0.352   7.906
10965SOL    HW232922   2.251   0.384   8.051
10966SOL     OW32923   3.567   1.487   8.552
10966SOL    HW132924   3.474   1.462   8.525
10966SOL    HW232925   3.593   1.437   8.634
10967SOL     OW32926   2.179   0.547   8.728
10967SOL    HW132927   2.217   0.488   8.800
10967SOL    HW232928   2.219   0.521   8.640
10968SOL     OW32929   2.674   1.586   8.135
10968SOL    HW132930   2.706   1.596   8.041
10968SOL    HW232931   2.595   1.524   8.137
10969SOL     OW32932   3.286   0.214   8.560
10969SOL    HW132933   3.338   0.149   8.615
10969SOL    HW232934   3.237   0.277   8.621
10970SOL     OW32935   2.863   0.034   8.602
10970SOL    HW132936   2.800  -0.038   8.571
10970SOL    HW232937   2.956  -0.002   8.602
10971SOL     OW32938   2.632   1.330   7.749
10971SOL    HW132939   2.586   1.243   7.766
10971SOL    HW232940   2.723   1.327   7.790
10972SOL     OW32941   2.480   1.567   8.732
10972SOL    HW132942   2.475   1.649   8.789
10972SOL    HW232943   2.569   1.564   8.687
10973SOL     OW32944   3.214   0.052   7.616
10973SOL    HW132945   3.249   0.011   7.532
10973SOL    HW232946   3.124   0.014   7.636
10974SOL     OW32947   3.162   0.453   8.139
10974SOL    HW132948   3.103   0.533   8.143
10974SOL    HW232949   3.177   0.418   8.232
10975SOL     OW32950   3.455   0.221   8.330
10975SOL    HW132951   3.371   0.220   8.384
10975SOL    HW232952   3.457   0.304   8.274
10976SOL     OW32953   1.901   1.077   7.748
10976SOL    HW132954   2.000   1.066   7.739
10976SOL    HW232955   1.861   0.991   7.780
10977SOL     OW32956   2.737   1.646   7.785
10977SOL    HW132957   2.660   1.611   7.731
10977SOL    HW232958   2.705   1.717   7.847
10978SOL     OW32959   2.092   0.628   9.423
10978SOL    HW132960   1.999   0.626   9.460
10978SOL    HW232961   2.093   0.589   9.331
10979SOL     OW32962   2.087   0.275  10.306
10979SOL    HW132963   2.122   0.258  10.398
10979SOL    HW232964   1.999   0.230  10.294
10980SOL     OW32965   1.881   0.368   9.957
10980SOL    HW132966   1.799   0.411   9.996
10980SOL    HW232967   1.853   0.295   9.894
10981SOL     OW32968   2.431   1.275  10.475
10981SOL    HW132969   2.338   1.268  10.438
10981SOL    HW232970   2.442   1.364  10.519
10982SOL     OW32971   3.417   1.511  10.013
10982SOL    HW132972   3.360   1.495  10.094
10982SOL    HW232973   3.358   1.521   9.933
10983SOL     OW32974   2.997   0.703  10.027
10983SOL    HW132975   3.054   0.781  10.002
10983SOL    HW232976   2.937   0.729  10.103
10984SOL     OW32977   3.617   0.607   9.541
10984SOL    HW132978   3.605   0.594   9.442
10984SOL    HW232979   3.587   0.526   9.590
10985SOL     OW32980   2.630   1.144  10.333
10985SOL    HW132981   2.552   1.161  10.393
10985SOL    HW232982   2.664   1.231  10.297
10986SOL     OW32983   2.712   0.798  11.133
10986SOL    HW132984   2.708   0.874  11.198
10986SOL    HW232985   2.734   0.834  11.042
10987SOL     OW32986   2.547   1.012   9.975
10987SOL    HW132987   2.616   0.996  10.045
10987SOL    HW232988   2.474   1.069  10.013
10988SOL     OW32989   2.548   1.161  11.113
10988SOL    HW132990   2.608   1.240  11.127
10988SOL    HW232991   2.462   1.192  11.072
10989SOL     OW32992   2.197   1.435  10.371
10989SOL    HW132993   2.119   1.404  10.318
10989SOL    HW232994   2.255   1.493  10.314
10990SOL     OW32995   3.322   1.505  10.649
10990SOL    HW132996   3.346   1.599  10.675
10990SOL    HW232997   3.306   1.451  10.731
10991SOL     OW32998   2.300   0.392  10.809
10991SOL    HW132999   2.382   0.336  10.818
10991SOL    HW233000   2.219   0.334  10.813
10992SOL     OW33001   3.465   0.447  10.047
10992SOL    HW133002   3.391   0.493   9.997
10992SOL    HW233003   3.516   0.515  10.100
10993SOL     OW33004   2.093   1.713   9.793
10993SOL    HW133005   2.127   1.790   9.847
10993SOL    HW233006   2.137   1.713   9.703
10994SOL     OW33007   2.989   1.341  11.000
10994SOL    HW133008   3.036   1.341  11.088
10994SOL    HW233009   2.941   1.254  10.989
10995SOL     OW33010   2.092   1.434   9.848
10995SOL    HW133011   2.066   1.530   9.848
10995SOL    HW233012   2.021   1.380   9.893
10996SOL     OW33013   2.102   1.091  10.196
10996SOL    HW133014   2.116   1.007  10.248
10996SOL    HW233015   2.047   1.155  10.251
10997SOL     OW33016   2.482   1.786  10.749
10997SOL    HW133017   2.390   1.769  10.784
10997SOL    HW233018   2.510   1.878  10.775
10998SOL     OW33019   2.468   0.964   9.433
10998SOL    HW133020   2.475   1.048   9.379
10998SOL    HW233021   2.514   0.977   9.521
10999SOL     OW33022   3.456   0.114  10.790
10999SOL    HW133023   3.438   0.181  10.718
10999SOL    HW233024   3.453   0.160  10.879
11000SOL     OW33025   1.984   0.643   9.873
11000SOL    HW133026   1.939   0.555   9.890
11000SOL    HW233027   1.983   0.697   9.957
11001SOL     OW33028   3.704   1.767   9.669
11001SOL    HW133029   3.758   1.738   9.749
11001SOL    HW233030   3.734   1.857   9.640
11002SOL     OW33031   1.889   1.596   9.427
11002SOL    HW133032   1.870   1.500   9.448
11002SOL    HW233033   1.856   1.654   9.502
11003SOL     OW33034   3.551   0.922   9.922
11003SOL    HW133035   3.646   0.893   9.930
11003SOL    HW233036   3.543   0.987   9.847
11004SOL     OW33037   3.503   1.108   9.742
11004SOL    HW133038   3.589   1.110   9.690
11004SOL    HW233039   3.517   1.155   9.830
11005SOL     OW33040   1.975   0.737  10.907
11005SOL    HW133041   2.063   0.724  10.952
11005SOL    HW233042   1.962   0.834  10.885
11006SOL     OW33043   2.475   1.365  10.036
11006SOL    HW133044   2.426   1.278  10.045
11006SOL    HW233045   2.452   1.408   9.949
11007SOL     OW33046   3.155   1.228  10.733
11007SOL    HW133047   3.192   1.155  10.675
11007SOL    HW233048   3.207   1.233  10.818
11008SOL     OW33049   2.671   0.004   9.812
11008SOL    HW133050   2.711   0.095   9.803
11008SOL    HW233051   2.571   0.012   9.818
11009SOL     OW33052   2.059   0.976  10.574
11009SOL    HW133053   2.148   0.931  10.560
11009SOL    HW233054   1.986   0.911  10.555
11010SOL     OW33055   3.387   0.999   9.500
11010SOL    HW133056   3.324   0.923   9.513
11010SOL    HW233057   3.435   1.017   9.586
11011SOL     OW33058   3.049   1.792  10.926
11011SOL    HW133059   3.073   1.852  10.850
11011SOL    HW233060   3.056   1.697  10.896
11012SOL     OW33061   2.179   0.251  11.111
11012SOL    HW133062   2.250   0.322  11.117
11012SOL    HW233063   2.091   0.290  11.139
11013SOL     OW33064   3.328   1.417  10.263
11013SOL    HW133065   3.269   1.423  10.343
11013SOL    HW233066   3.313   1.329  10.217
11014SOL     OW33067   3.529   1.714   9.882
11014SOL    HW133068   3.488   1.691   9.794
11014SOL    HW233069   3.511   1.640   9.947
11015SOL     OW33070   2.460   0.729   9.580
11015SOL    HW133071   2.484   0.798   9.512
11015SOL    HW233072   2.382   0.762   9.634
11016SOL     OW33073   3.143   0.345  10.254
11016SOL    HW133074   3.057   0.295  10.241
11016SOL    HW233075   3.205   0.291  10.310
11017SOL     OW33076   3.438   1.662   9.617
11017SOL    HW133077   3.527   1.708   9.620
11017SOL    HW233078   3.417   1.638   9.522
11018SOL     OW33079   2.669   0.605  10.775
11018SOL    HW133080   2.622   0.602  10.864
11018SOL    HW233081   2.618   0.550  10.709
11019SOL     OW33082   3.256   0.469  10.984
11019SOL    HW133083   3.236   0.512  11.072
11019SOL    HW233084   3.334   0.407  10.993
11020SOL     OW33085   2.835   0.890  10.882
11020SOL    HW133086   2.881   0.806  10.853
11020SOL    HW233087   2.779   0.924  10.807
11021SOL     OW33088   2.853   0.410  10.552
11021SOL    HW133089   2.776   0.444  10.606
11021SOL    HW233090   2.819   0.359  10.473
11022SOL     OW33091   2.903   0.701   9.739
11022SOL    HW133092   2.929   0.697   9.835
11022SOL    HW233093   2.818   0.650   9.725
11023SOL     OW33094   1.938   0.811  10.099
11023SOL    HW133095   2.037   0.799  10.108
11023SOL    HW233096   1.914   0.906  10.120
11024SOL     OW33097   1.992   1.821  10.881
11024SOL    HW133098   1.982   1.806  10.980
11024SOL    HW233099   1.906   1.857  10.845
11025SOL     OW33100   2.727   0.348   9.505
11025SOL    HW133101   2.786   0.411   9.456
11025SOL    HW233102   2.746   0.254   9.476
11026SOL     OW33103   3.581   0.585  11.141
11026SOL    HW133104   3.555   0.674  11.105
11026SOL    HW233105   3.579   0.517  11.068
11027SOL     OW33106   3.224   1.144   9.855
11027SOL    HW133107   3.307   1.115   9.807
11027SOL    HW233108   3.175   1.211   9.799
11028SOL     OW33109   2.412   0.196  10.195
11028SOL    HW133110   2.407   0.191  10.295
11028SOL    HW233111   2.414   0.292  10.166
11029SOL     OW33112   2.870   1.456   9.787
11029SOL    HW133113   2.824   1.528   9.735
11029SOL    HW233114   2.866   1.476   9.885
11030SOL     OW33115   2.213   1.801  10.163
11030SOL    HW133116   2.263   1.715  10.169
11030SOL    HW233117   2.278   1.878  10.160
11031SOL     OW33118   3.657   1.066  10.183
11031SOL    HW133119   3.595   1.051  10.107
11031SOL    HW233120   3.605   1.077  10.268
11032SOL     OW33121   3.089   1.550  10.816
11032SOL    HW133122   3.095   1.473  10.880
11032SOL    HW233123   3.037   1.524  10.736
11033SOL     OW33124   2.183   0.943   9.552
11033SOL    HW133125   2.265   0.982   9.510
11033SOL    HW233126   2.156   0.861   9.503
11034SOL     OW33127   3.320   0.735  10.038
11034SOL    HW133128   3.315   0.670  10.113
11034SOL    HW233129   3.400   0.794  10.051
11035SOL     OW33130   2.323   1.266  11.037
11035SOL    HW133131   2.273   1.267  10.951
11035SOL    HW233132   2.260   1.248  11.113
11036SOL     OW33133   2.973   1.776   9.547
11036SOL    HW133134   2.913   1.714   9.597
11036SOL    HW233135   3.004   1.732   9.462
11037SOL     OW33136   2.064   0.285  10.808
11037SOL    HW133137   1.984   0.345  10.795
11037SOL    HW233138   2.054   0.236  10.894
11038SOL     OW33139   3.494   1.377   9.391
11038SOL    HW133140   3.462   1.471   9.381
11038SOL    HW233141   3.418   1.314   9.379
11039SOL     OW33142   2.326   1.743   9.633
11039SOL    HW133143   2.359   1.782   9.719
11039SOL    HW233144   2.402   1.736   9.568
11040SOL     OW33145   3.262   0.107   9.736
11040SOL    HW133146   3.238   0.070   9.646
11040SOL    HW233147   3.361   0.123   9.740
11041SOL     OW33148   2.111   1.785  10.551
11041SOL    HW133149   2.168   1.720  10.601
11041SOL    HW233150   2.095   1.752  10.458
11042SOL     OW33151   2.802   1.698  10.214
11042SOL    HW133152   2.882   1.641  10.235
11042SOL    HW233153   2.753   1.658  10.137
11043SOL     OW33154   2.244   0.700   9.790
11043SOL    HW133155   2.289   0.610   9.787
11043SOL    HW233156   2.150   0.689   9.823
11044SOL     OW33157   3.409   0.222  11.039
11044SOL    HW133158   3.404   0.259  11.131
11044SOL    HW233159   3.337   0.153  11.027
11045SOL     OW33160   2.476   0.122   9.427
11045SOL    HW133161   2.574   0.100   9.434
11045SOL    HW233162   2.445   0.105   9.334
11046SOL     OW33163   2.643   0.264  11.059
11046SOL    HW133164   2.710   0.203  11.102
11046SOL    HW233165   2.570   0.283  11.124
11047SOL     OW33166   2.750   1.514  10.505
11047SOL    HW133167   2.727   1.489  10.411
11047SOL    HW233168   2.811   1.445  10.544
11048SOL     OW33169   3.213   0.590  10.743
11048SOL    HW133170   3.241   0.547  10.828
11048SOL    HW233171   3.238   0.686  10.744
11049SOL     OW33172   2.665   1.402  10.234
11049SOL    HW133173   2.755   1.416  10.192
11049SOL    HW233174   2.594   1.404  10.163
11050SOL     OW33175   2.784   0.503  10.209
11050SOL    HW133176   2.759   0.494  10.113
11050SOL    HW233177   2.832   0.421  10.240
11051SOL     OW33178   2.401   0.064   9.822
11051SOL    HW133179   2.320   0.065   9.880
11051SOL    HW233180   2.404   0.147   9.767
11052SOL     OW33181   3.296   1.188   9.351
11052SOL    HW133182   3.328   1.112   9.408
11052SOL    HW233183   3.204   1.215   9.381
11053SOL     OW33184   2.159   0.035   9.481
11053SOL    HW133185   2.208   0.119   9.460
11053SOL    HW233186   2.221  -0.030   9.526
11054SOL     OW33187   2.797   0.236   9.790
11054SOL    HW133188   2.749   0.277   9.712
11054SOL    HW233189   2.896   0.234   9.771
11055SOL     OW33190   2.938   0.683  10.774
11055SOL    HW133191   2.858   0.622  10.777
11055SOL    HW233192   3.019   0.630  10.750
11056SOL     OW33193   3.089   1.570  10.103
11056SOL    HW133194   3.110   1.644  10.038
11056SOL    HW233195   3.157   1.570  10.176
11057SOL     OW33196   2.321   1.152  10.051
11057SOL    HW133197   2.250   1.125  10.116
11057SOL    HW233198   2.295   1.124   9.958
11058SOL     OW33199   3.133   1.797   9.901
11058SOL    HW133200   3.177   1.861   9.837
11058SOL    HW233201   3.083   1.849   9.971
11059SOL     OW33202   2.894   0.549   9.326
11059SOL    HW133203   2.853   0.631   9.287
11059SOL    HW233204   2.958   0.575   9.399
11060SOL     OW33205   1.940   0.556  10.696
11060SOL    HW133206   2.032   0.555  10.655
11060SOL    HW233207   1.934   0.630  10.763
11061SOL     OW33208   2.423   0.222  10.457
11061SOL    HW133209   2.461   0.138  10.494
11061SOL    HW233210   2.335   0.241  10.501
11062SOL     OW33211   2.728   0.454   9.952
11062SOL    HW133212   2.696   0.526   9.890
11062SOL    HW233213   2.752   0.373   9.899
11063SOL     OW33214   2.879   0.039  10.063
11063SOL    HW133215   2.807   0.044   9.994
11063SOL    HW233216   2.855  -0.030  10.132
11064SOL     OW33217   3.291   1.173  10.177
11064SOL    HW133218   3.236   1.089  10.170
11064SOL    HW233219   3.317   1.202  10.085
11065SOL     OW33220   3.328   0.590  10.302
11065SOL    HW133221   3.298   0.495  10.309
11065SOL    HW233222   3.401   0.606  10.368
11066SOL     OW33223   3.719   0.833   9.687
11066SOL    HW133224   3.761   0.769   9.751
11066SOL    HW233225   3.681   0.782   9.609
11067SOL     OW33226   2.350   1.385   9.484
11067SOL    HW133227   2.263   1.370   9.531
11067SOL    HW233228   2.333   1.411   9.389
11068SOL     OW33229   3.526   1.280   9.967
11068SOL    HW133230   3.625   1.288   9.981
11068SOL    HW233231   3.481   1.364   9.998
11069SOL     OW33232   3.252   0.575   9.388
11069SOL    HW133233   3.198   0.554   9.469
11069SOL    HW233234   3.343   0.534   9.397
11070SOL     OW33235   2.389   0.256   9.638
11070SOL    HW133236   2.416   0.197   9.563
11070SOL    HW233237   2.389   0.351   9.607
11071SOL     OW33238   3.616   1.223  10.898
11071SOL    HW133239   3.707   1.184  10.885
11071SOL    HW233240   3.624   1.319  10.922
11072SOL     OW33241   2.926   1.347  10.650
11072SOL    HW133242   2.846   1.324  10.705
11072SOL    HW233243   3.009   1.321  10.699
11073SOL     OW33244   3.454   1.629  10.935
11073SOL    HW133245   3.481   1.663  10.845
11073SOL    HW233246   3.533   1.591  10.981
11074SOL     OW33247   2.973   1.195  10.410
11074SOL    HW133248   2.933   1.239  10.491
11074SOL    HW233249   2.932   1.232  10.327
11075SOL     OW33250   3.500   1.099  10.389
11075SOL    HW133251   3.505   1.180  10.448
11075SOL    HW233252   3.414   1.101  10.338
11076SOL     OW33253   2.777   0.089  10.712
11076SOL    HW133254   2.802   0.069  10.617
11076SOL    HW233255   2.849   0.145  10.754
11077SOL     OW33256   2.842   1.116  11.029
11077SOL    HW133257   2.743   1.122  11.039
11077SOL    HW233258   2.865   1.036  10.973
11078SOL     OW33259   2.567   1.050   9.678
11078SOL    HW133260   2.553   1.057   9.777
11078SOL    HW233261   2.651   0.999   9.660
11079SOL     OW33262   2.272   0.813  10.561
11079SOL    HW133263   2.358   0.825  10.611
11079SOL    HW233264   2.230   0.726  10.588
11080SOL     OW33265   3.136   0.386  10.572
11080SOL    HW133266   3.157   0.460  10.636
11080SOL    HW233267   3.047   0.403  10.529
11081SOL     OW33268   1.926   1.564  10.641
11081SOL    HW133269   1.880   1.646  10.607
11081SOL    HW233270   2.024   1.583  10.650
11082SOL     OW33271   2.229   1.100   9.811
11082SOL    HW133272   2.222   1.183   9.755
11082SOL    HW233273   2.233   1.020   9.751
11083SOL     OW33274   2.428   0.537  10.175
11083SOL    HW133275   2.440   0.603  10.101
11083SOL    HW233276   2.474   0.571  10.258
11084SOL     OW33277   3.114   1.348   9.698
11084SOL    HW133278   3.164   1.425   9.738
11084SOL    HW233279   3.019   1.350   9.730
11085SOL     OW33280   3.134   1.445  10.452
11085SOL    HW133281   3.181   1.458  10.539
11085SOL    HW233282   3.068   1.371  10.461
11086SOL     OW33283   3.444   0.639   9.782
11086SOL    HW133284   3.413   0.700   9.855
11086SOL    HW233285   3.494   0.691   9.713
11087SOL     OW33286   2.216   1.510  10.639
11087SOL    HW133287   2.195   1.466  10.552
11087SOL    HW233288   2.313   1.536  10.642
11088SOL     OW33289   2.264   0.751  10.908
11088SOL    HW133290   2.332   0.806  10.861
11088SOL    HW233291   2.304   0.663  10.935
11089SOL     OW33292   3.449   0.779  10.980
11089SOL    HW133293   3.357   0.817  10.975
11089SOL    HW233294   3.509   0.826  10.915
11090SOL     OW33295   2.875   0.105  11.080
11090SOL    HW133296   2.881   0.190  11.028
11090SOL    HW233297   2.907   0.029  11.023
11091SOL     OW33298   2.366   0.050  11.050
11091SOL    HW133299   2.324  -0.007  10.980
11091SOL    HW233300   2.300   0.119  11.082
11092SOL     OW33301   2.435   0.870  10.339
11092SOL    HW133302   2.479   0.959  10.330
11092SOL    HW233303   2.372   0.870  10.416
11093SOL     OW33304   3.222   0.862  10.355
11093SOL    HW133305   3.147   0.862  10.289
11093SOL    HW233306   3.259   0.770  10.364
11094SOL     OW33307   3.071   0.525   9.585
11094SOL    HW133308   3.084   0.441   9.639
11094SOL    HW233309   3.042   0.599   9.645
11095SOL     OW33310   2.169   0.213  10.541
11095SOL    HW133311   2.146   0.250  10.631
11095SOL    HW233312   2.139   0.118  10.535
11096SOL     OW33313   1.899   1.310  10.592
11096SOL    HW133314   1.952   1.261  10.660
11096SOL    HW233315   1.921   1.408  10.597
11097SOL     OW33316   2.594   0.634  10.374
11097SOL    HW133317   2.653   0.608  10.298
11097SOL    HW233318   2.566   0.730  10.363
11098SOL     OW33319   3.590   0.935  11.164
11098SOL    HW133320   3.544   0.928  11.075
11098SOL    HW233321   3.528   0.979  11.230
11099SOL     OW33322   2.169   0.063   9.928
11099SOL    HW133323   2.158   0.157   9.961
11099SOL    HW233324   2.164   0.000  10.005
11100SOL     OW33325   3.484   0.367   9.684
11100SOL    HW133326   3.486   0.291   9.748
11100SOL    HW233327   3.436   0.444   9.724
11101SOL     OW33328   2.885   0.766  10.276
11101SOL    HW133329   2.900   0.787  10.372
11101SOL    HW233330   2.855   0.671  10.267
11102SOL     OW33331   2.842   1.573  11.010
11102SOL    HW133332   2.822   1.617  10.922
11102SOL    HW233333   2.881   1.482  10.994
11103SOL     OW33334   3.721   1.518  10.915
11103SOL    HW133335   3.735   1.545  10.820
11103SOL    HW233336   3.804   1.540  10.968
11104SOL     OW33337   2.212   0.898  11.114
11104SOL    HW133338   2.288   0.942  11.162
11104SOL    HW233339   2.247   0.851  11.032
11105SOL     OW33340   3.402   0.274   9.435
11105SOL    HW133341   3.341   0.199   9.458
11105SOL    HW233342   3.424   0.326   9.518
11106SOL     OW33343   3.165   0.838   9.352
11106SOL    HW133344   3.199   0.745   9.367
11106SOL    HW233345   3.183   0.865   9.257
11107SOL     OW33346   2.930   1.333  10.159
11107SOL    HW133347   2.937   1.249  10.104
11107SOL    HW233348   2.992   1.402  10.123
11108SOL     OW33349   2.181   0.810  10.259
11108SOL    HW133350   2.274   0.846  10.264
11108SOL    HW233351   2.175   0.725  10.311
11109SOL     OW33352   2.201   0.509  10.316
11109SOL    HW133353   2.149   0.426  10.299
11109SOL    HW233354   2.278   0.514  10.252
11110SOL     OW33355   3.000   0.380  10.988
11110SOL    HW133356   2.955   0.443  11.052
11110SOL    HW233357   3.093   0.411  10.971
11111SOL     OW33358   3.022   0.207  10.787
11111SOL    HW133359   3.022   0.271  10.864
11111SOL    HW233360   3.050   0.255  10.704
11112SOL     OW33361   1.870   1.326   9.510
11112SOL    HW133362   1.777   1.347   9.479
11112SOL    HW233363   1.880   1.227   9.523
11113SOL     OW33364   1.950   1.801  10.237
11113SOL    HW133365   1.908   1.715  10.210
11113SOL    HW233366   2.044   1.804  10.203
11114SOL     OW33367   2.366   1.568  10.220
11114SOL    HW133368   2.432   1.642  10.229
11114SOL    HW233369   2.410   1.489  10.178
11115SOL     OW33370   2.864   0.796  10.548
11115SOL    HW133371   2.905   0.764  10.634
11115SOL    HW233372   2.768   0.769  10.545
11116SOL     OW33373   1.902   0.544  10.424
11116SOL    HW133374   1.987   0.511  10.383
11116SOL    HW233375   1.915   0.559  10.522
11117SOL     OW33376   2.051   0.520  11.032
11117SOL    HW133377   2.110   0.480  10.962
11117SOL    HW233378   1.993   0.591  10.991
11118SOL     OW33379   3.231   0.950  10.970
11118SOL    HW133380   3.270   1.039  10.990
11118SOL    HW233381   3.241   0.930  10.873
11119SOL     OW33382   2.677   0.572   9.635
11119SOL    HW133383   2.684   0.483   9.589
11119SOL    HW233384   2.583   0.606   9.627
11120SOL     OW33385   3.519   0.604  10.516
11120SOL    HW133386   3.481   0.535  10.578
11120SOL    HW233387   3.601   0.568  10.472
11121SOL     OW33388   2.114   1.564  11.054
11121SOL    HW133389   2.084   1.621  11.130
11121SOL    HW233390   2.107   1.467  11.080
11122SOL     OW33391   2.533   0.464  10.579
11122SOL    HW133392   2.499   0.375  10.549
11122SOL    HW233393   2.559   0.518  10.499
11123SOL     OW33394   2.792   1.678  10.775
11123SOL    HW133395   2.768   1.660  10.680
11123SOL    HW233396   2.822   1.772  10.785
11124SOL     OW33397   2.335   0.500   9.501
11124SOL    HW133398   2.396   0.580   9.505
11124SOL    HW233399   2.240   0.531   9.508
11125SOL     OW33400   2.021   1.137  10.776
11125SOL    HW133401   2.043   1.076  10.852
11125SOL    HW233402   2.031   1.088  10.690
11126SOL     OW33403   3.209   1.059  10.544
11126SOL    HW133404   3.233   0.996  10.470
11126SOL    HW233405   3.119   1.099  10.526
11127SOL     OW33406   3.164   0.855   9.619
11127SOL    HW133407   3.078   0.824   9.661
11127SOL    HW233408   3.160   0.841   9.520
11128SOL     OW33409   3.621   1.747  10.464
11128SOL    HW133410   3.682   1.777  10.391
11128SOL    HW233411   3.583   1.658  10.442
11129SOL     OW33412   3.114   1.731  10.438
11129SOL    HW133413   3.198   1.736  10.384
11129SOL    HW233414   3.091   1.635  10.456
11130SOL     OW33415   1.945   1.258  10.332
11130SOL    HW133416   1.940   1.257  10.432
11130SOL    HW233417   1.862   1.217  10.294
11131SOL     OW33418   2.550   1.662  11.026
11131SOL    HW133419   2.494   1.743  11.035
11131SOL    HW233420   2.602   1.666  10.940
11132SOL     OW33421   3.588   0.135   9.833
11132SOL    HW133422   3.661   0.118   9.766
11132SOL    HW233423   3.557   0.048   9.871
11133SOL     OW33424   3.250   1.573   9.787
11133SOL    HW133425   3.317   1.585   9.713
11133SOL    HW233426   3.210   1.662   9.810
11134SOL     OW33427   1.992   1.794  11.161
11134SOL    HW133428   1.951   1.720  11.214
11134SOL    HW233429   2.056   1.845  11.219
11135SOL     OW33430   3.142   0.927   9.982
11135SOL    HW133431   3.202   0.846   9.984
11135SOL    HW233432   3.182   0.996   9.922
11136SOL     OW33433   2.692   1.273  10.732
11136SOL    HW133434   2.687   1.306  10.827
11136SOL    HW233435   2.606   1.292  10.686
11137SOL     OW33436   2.534   1.616   9.464
11137SOL    HW133437   2.543   1.626   9.365
11137SOL    HW233438   2.494   1.527   9.485
11138SOL     OW33439   3.512   1.720  10.704
11138SOL    HW133440   3.565   1.730  10.620
11138SOL    HW233441   3.485   1.810  10.738
11139SOL     OW33442   3.703   0.175  10.273
11139SOL    HW133443   3.742   0.090  10.237
11139SOL    HW233444   3.605   0.177  10.254
11140SOL     OW33445   2.125   0.326  10.030
11140SOL    HW133446   2.046   0.377   9.996
11140SOL    HW233447   2.116   0.311  10.128
11141SOL     OW33448   3.056   1.612   9.341
11141SOL    HW133449   3.062   1.519   9.378
11141SOL    HW233450   2.997   1.612   9.261
11142SOL     OW33451   2.684   1.002  10.682
11142SOL    HW133452   2.724   1.001  10.590
11142SOL    HW233453   2.694   1.094  10.722
11143SOL     OW33454   2.778   0.910   9.601
11143SOL    HW133455   2.841   0.948   9.533
11143SOL    HW233456   2.818   0.827   9.640
11144SOL     OW33457   3.366   1.607   9.354
11144SOL    HW133458   3.274   1.644   9.361
11144SOL    HW233459   3.404   1.627   9.264
11145SOL     OW33460   2.234   1.288  10.800
11145SOL    HW133461   2.221   1.381  10.766
11145SOL    HW233462   2.150   1.236  10.787
11146SOL     OW33463   3.476   1.292  10.599
11146SOL    HW133464   3.536   1.295  10.679
11146SOL    HW233465   3.401   1.356  10.612
11147SOL     OW33466   2.901   1.098  10.006
11147SOL    HW133467   2.831   1.051  10.060
11147SOL    HW233468   2.960   1.030   9.963
11148SOL     OW33469   2.876   0.236  10.281
11148SOL    HW133470   2.868   0.200  10.188
11148SOL    HW233471   2.874   0.160  10.346
11149SOL     OW33472   2.452   1.487   9.801
11149SOL    HW133473   2.494   1.429   9.731
11149SOL    HW233474   2.408   1.566   9.757
11150SOL     OW33475   3.571   0.385  10.691
11150SOL    HW133476   3.644   0.454  10.695
11150SOL    HW233477   3.599   0.310  10.632
11151SOL     OW33478   2.117   1.348   9.600
11151SOL    HW133479   2.021   1.349   9.573
11151SOL    HW233480   2.129   1.401   9.684
11152SOL     OW33481   1.967   1.013  11.036
11152SOL    HW133482   1.890   0.980  11.090
11152SOL    HW233483   2.052   0.983  11.078
11153SOL     OW33484   2.534   0.203  10.799
11153SOL    HW133485   2.624   0.187  10.759
11153SOL    HW233486   2.542   0.208  10.898
11154SOL     OW33487   1.937   0.345   9.343
11154SOL    HW133488   1.845   0.317   9.314
11154SOL    HW233489   1.968   0.422   9.287
11155SOL     OW33490   3.302   0.856  10.708
11155SOL    HW133491   3.245   0.908  10.645
11155SOL    HW233492   3.398   0.868  10.684
11156SOL     OW33493   1.934   0.166   9.628
11156SOL    HW133494   1.917   0.249   9.574
11156SOL    HW233495   2.024   0.129   9.606
11157SOL     OW33496   3.045   1.335   9.429
11157SOL    HW133497   2.946   1.324   9.431
11157SOL    HW233498   3.079   1.350   9.522
11158SOL     OW33499   2.475   0.842  10.741
11158SOL    HW133500   2.531   0.923  10.724
11158SOL    HW233501   2.534   0.762  10.744
11159SOL     OW33502   3.355   1.767  10.269
11159SOL    HW133503   3.388   1.831  10.200
11159SOL    HW233504   3.421   1.761  10.344
11160SOL     OW33505   2.578   0.565  11.018
11160SOL    HW133506   2.597   0.630  11.092
11160SOL    HW233507   2.638   0.485  11.027
11161SOL     OW33508   3.312   1.220  10.943
11161SOL    HW133509   3.303   1.210  11.042
11161SOL    HW233510   3.408   1.213  10.917
11162SOL     OW33511   2.252   1.741  10.870
11162SOL    HW133512   2.161   1.782  10.868
11162SOL    HW233513   2.245   1.647  10.902
11163SOL     OW33514   3.536   0.883  10.564
11163SOL    HW133515   3.509   0.794  10.527
11163SOL    HW233516   3.537   0.951  10.491
11164SOL     OW33517   3.087   0.325   9.759
11164SOL    HW133518   3.152   0.251   9.748
11164SOL    HW233519   3.107   0.375   9.843
11165SOL     OW33520   2.456   0.745   9.962
11165SOL    HW133521   2.506   0.830   9.943
11165SOL    HW233522   2.368   0.747   9.914
11166SOL     OW33523   3.639   0.342  10.952
11166SOL    HW133524   3.622   0.373  10.858
11166SOL    HW233525   3.555   0.305  10.990
11167SOL     OW33526   3.592   0.934  10.827
11167SOL    HW133527   3.630   1.025  10.842
11167SOL    HW233528   3.584   0.917  10.728
11168SOL     OW33529   2.721   1.374   9.326
11168SOL    HW133530   2.675   1.389   9.414
11168SOL    HW233531   2.765   1.459   9.296
11169SOL     OW33532   2.523   1.790  10.263
11169SOL    HW133533   2.477   1.878  10.250
11169SOL    HW233534   2.622   1.802  10.256
11170SOL     OW33535   2.721   0.956  10.171
11170SOL    HW133536   2.775   0.887  10.219
11170SOL    HW233537   2.689   1.025  10.237
11171SOL     OW33538   2.945   0.984   9.397
11171SOL    HW133539   2.922   1.037   9.315
11171SOL    HW233540   3.026   0.928   9.378
11172SOL     OW33541   3.723   1.569  10.161
11172SOL    HW133542   3.652   1.557  10.091
11172SOL    HW233543   3.724   1.490  10.221
11173SOL     OW33544   2.083   1.314  11.154
11173SOL    HW133545   2.018   1.241  11.133
11173SOL    HW233546   2.087   1.328  11.252
11174SOL     OW33547   1.941   1.240   9.963
11174SOL    HW133548   1.940   1.193  10.051
11174SOL    HW233549   2.023   1.212   9.912
11175SOL     OW33550   2.534   1.391  10.934
11175SOL    HW133551   2.456   1.341  10.972
11175SOL    HW233552   2.531   1.486  10.965
11176SOL     OW33553   3.686   0.192  10.537
11176SOL    HW133554   3.682   0.102  10.581
11176SOL    HW233555   3.689   0.181  10.438
11177SOL     OW33556   2.290   0.424   9.830
11177SOL    HW133557   2.320   0.352   9.768
11177SOL    HW233558   2.251   0.384   9.913
11178SOL     OW33559   3.567   1.487  10.414
11178SOL    HW133560   3.474   1.462  10.387
11178SOL    HW233561   3.593   1.437  10.496
11179SOL     OW33562   2.179   0.547  10.590
11179SOL    HW133563   2.217   0.488  10.662
11179SOL    HW233564   2.219   0.521  10.502
11180SOL     OW33565   2.674   1.586   9.997
11180SOL    HW133566   2.706   1.596   9.903
11180SOL    HW233567   2.595   1.524   9.999
11181SOL     OW33568   3.286   0.214  10.422
11181SOL    HW133569   3.338   0.149  10.477
11181SOL    HW233570   3.237   0.277  10.483
11182SOL     OW33571   2.863   0.034  10.464
11182SOL    HW133572   2.800  -0.038  10.433
11182SOL    HW233573   2.956  -0.002  10.464
11183SOL     OW33574   2.632   1.330   9.611
11183SOL    HW133575   2.586   1.243   9.628
11183SOL    HW233576   2.723   1.327   9.652
11184SOL     OW33577   2.480   1.567  10.594
11184SOL    HW133578   2.475   1.649  10.651
11184SOL    HW233579   2.569   1.564  10.549
11185SOL     OW33580   3.214   0.052   9.478
11185SOL    HW133581   3.249   0.011   9.394
11185SOL    HW233582   3.124   0.014   9.498
11186SOL     OW33583   3.162   0.453  10.001
11186SOL    HW133584   3.103   0.533  10.005
11186SOL    HW233585   3.177   0.418  10.094
11187SOL     OW33586   3.455   0.221  10.192
11187SOL    HW133587   3.371   0.220  10.246
11187SOL    HW233588   3.457   0.304  10.136
11188SOL     OW33589   1.901   1.077   9.610
11188SOL    HW133590   2.000   1.066   9.601
11188SOL    HW233591   1.861   0.991   9.642
11189SOL     OW33592   2.737   1.646   9.647
11189SOL    HW133593   2.660   1.611   9.593
11189SOL    HW233594   2.705   1.717   9.709
11190SOL     OW33595   2.092   0.628  11.285
11190SOL    HW133596   1.999   0.626  11.322
11190SOL    HW233597   2.093   0.589  11.193
11191SOL     OW33598   2.087   0.275  12.168
11191SOL    HW133599   2.122   0.258  12.260
11191SOL    HW233600   1.999   0.230  12.156
11192SOL     OW33601   1.881   0.368  11.819
11192SOL    HW133602   1.799   0.411  11.858
11192SOL    HW233603   1.853   0.295  11.756
11193SOL     OW33604   2.431   1.275  12.337
11193SOL    HW133605   2.338   1.268  12.300
11193SOL    HW233606   2.442   1.364  12.381
11194SOL     OW33607   3.417   1.511  11.875
11194SOL    HW133608   3.360   1.495  11.956
11194SOL    HW233609   3.358   1.521  11.795
11195SOL     OW33610   2.997   0.703  11.889
11195SOL    HW133611   3.054   0.781  11.864
11195SOL    HW233612   2.937   0.729  11.965
11196SOL     OW33613   3.617   0.607  11.403
11196SOL    HW133614   3.605   0.594  11.304
11196SOL    HW233615   3.587   0.526  11.452
11197SOL     OW33616   2.630   1.144  12.195
11197SOL    HW133617   2.552   1.161  12.255
11197SOL    HW233618   2.664   1.231  12.159
11198SOL     OW33619   2.547   1.012  11.837
11198SOL    HW133620   2.616   0.996  11.907
11198SOL    HW233621   2.474   1.069  11.875
11199SOL     OW33622   2.197   1.435  12.233
11199SOL    HW133623   2.119   1.404  12.180
11199SOL    HW233624   2.255   1.493  12.176
11200SOL     OW33625   3.322   1.505  12.511
11200SOL    HW133626   3.346   1.599  12.537
11200SOL    HW233627   3.306   1.451  12.593
11201SOL     OW33628   2.300   0.392  12.671
11201SOL    HW133629   2.382   0.336  12.680
11201SOL    HW233630   2.219   0.334  12.675
11202SOL     OW33631   3.465   0.447  11.909
11202SOL    HW133632   3.391   0.493  11.859
11202SOL    HW233633   3.516   0.515  11.962
11203SOL     OW33634   2.093   1.713  11.655
11203SOL    HW133635   2.127   1.790  11.709
11203SOL    HW233636   2.137   1.713  11.565
11204SOL     OW33637   2.092   1.434  11.710
11204SOL    HW133638   2.066   1.530  11.710
11204SOL    HW233639   2.021   1.380  11.755
11205SOL     OW33640   2.102   1.091  12.058
11205SOL    HW133641   2.116   1.007  12.110
11205SOL    HW233642   2.047   1.155  12.113
11206SOL     OW33643   2.482   1.786  12.611
11206SOL    HW133644   2.390   1.769  12.646
11206SOL    HW233645   2.510   1.878  12.637
11207SOL     OW33646   2.468   0.964  11.295
11207SOL    HW133647   2.475   1.048  11.241
11207SOL    HW233648   2.514   0.977  11.383
11208SOL     OW33649   3.456   0.114  12.652
11208SOL    HW133650   3.438   0.181  12.580
11208SOL    HW233651   3.453   0.160  12.741
11209SOL     OW33652   1.984   0.643  11.735
11209SOL    HW133653   1.939   0.555  11.752
11209SOL    HW233654   1.983   0.697  11.819
11210SOL     OW33655   3.704   1.767  11.531
11210SOL    HW133656   3.758   1.738  11.611
11210SOL    HW233657   3.734   1.857  11.502
11211SOL     OW33658   1.889   1.596  11.289
11211SOL    HW133659   1.870   1.500  11.310
11211SOL    HW233660   1.856   1.654  11.364
11212SOL     OW33661   3.551   0.922  11.784
11212SOL    HW133662   3.646   0.893  11.792
11212SOL    HW233663   3.543   0.987  11.709
11213SOL     OW33664   3.503   1.108  11.604
11213SOL    HW133665   3.589   1.110  11.552
11213SOL    HW233666   3.517   1.155  11.692
11214SOL     OW33667   2.475   1.365  11.898
11214SOL    HW133668   2.426   1.278  11.907
11214SOL    HW233669   2.452   1.408  11.811
11215SOL     OW33670   2.671   0.004  11.674
11215SOL    HW133671   2.711   0.095  11.665
11215SOL    HW233672   2.571   0.012  11.680
11216SOL     OW33673   2.059   0.976  12.436
11216SOL    HW133674   2.148   0.931  12.422
11216SOL    HW233675   1.986   0.911  12.417
11217SOL     OW33676   3.387   0.999  11.362
11217SOL    HW133677   3.324   0.923  11.375
11217SOL    HW233678   3.435   1.017  11.448
11218SOL     OW33679   2.179   0.251  12.973
11218SOL    HW133680   2.250   0.322  12.979
11218SOL    HW233681   2.091   0.290  13.001
11219SOL     OW33682   3.328   1.417  12.125
11219SOL    HW133683   3.269   1.423  12.205
11219SOL    HW233684   3.313   1.329  12.079
11220SOL     OW33685   3.529   1.714  11.744
11220SOL    HW133686   3.488   1.691  11.656
11220SOL    HW233687   3.511   1.640  11.809
11221SOL     OW33688   2.460   0.729  11.442
11221SOL    HW133689   2.484   0.798  11.374
11221SOL    HW233690   2.382   0.762  11.496
11222SOL     OW33691   3.143   0.345  12.116
11222SOL    HW133692   3.057   0.295  12.103
11222SOL    HW233693   3.205   0.291  12.172
11223SOL     OW33694   3.438   1.662  11.479
11223SOL    HW133695   3.527   1.708  11.482
11223SOL    HW233696   3.417   1.638  11.384
11224SOL     OW33697   2.669   0.605  12.637
11224SOL    HW133698   2.622   0.602  12.726
11224SOL    HW233699   2.618   0.550  12.571
11225SOL     OW33700   2.853   0.410  12.414
11225SOL    HW133701   2.776   0.444  12.468
11225SOL    HW233702   2.819   0.359  12.335
11226SOL     OW33703   2.903   0.701  11.601
11226SOL    HW133704   2.929   0.697  11.697
11226SOL    HW233705   2.818   0.650  11.587
11227SOL     OW33706   1.938   0.811  11.961
11227SOL    HW133707   2.037   0.799  11.970
11227SOL    HW233708   1.914   0.906  11.982
11228SOL     OW33709   1.992   1.821  12.743
11228SOL    HW133710   1.982   1.806  12.842
11228SOL    HW233711   1.906   1.857  12.707
11229SOL     OW33712   2.727   0.348  11.367
11229SOL    HW133713   2.786   0.411  11.318
11229SOL    HW233714   2.746   0.254  11.338
11230SOL     OW33715   3.224   1.144  11.717
11230SOL    HW133716   3.307   1.115  11.669
11230SOL    HW233717   3.175   1.211  11.661
11231SOL     OW33718   2.412   0.196  12.057
11231SOL    HW133719   2.407   0.191  12.157
11231SOL    HW233720   2.414   0.292  12.028
11232SOL     OW33721   2.870   1.456  11.649
11232SOL    HW133722   2.824   1.528  11.597
11232SOL    HW233723   2.866   1.476  11.747
11233SOL     OW33724   2.213   1.801  12.025
11233SOL    HW133725   2.263   1.715  12.031
11233SOL    HW233726   2.278   1.878  12.022
11234SOL     OW33727   3.657   1.066  12.045
11234SOL    HW133728   3.595   1.051  11.969
11234SOL    HW233729   3.605   1.077  12.130
11235SOL     OW33730   2.183   0.943  11.414
11235SOL    HW133731   2.265   0.982  11.372
11235SOL    HW233732   2.156   0.861  11.365
11236SOL     OW33733   3.320   0.735  11.900
11236SOL    HW133734   3.315   0.670  11.975
11236SOL    HW233735   3.400   0.794  11.913
11237SOL     OW33736   2.973   1.776  11.409
11237SOL    HW133737   2.913   1.714  11.459
11237SOL    HW233738   3.004   1.732  11.324
11238SOL     OW33739   2.064   0.285  12.670
11238SOL    HW133740   1.984   0.345  12.657
11238SOL    HW233741   2.054   0.236  12.756
11239SOL     OW33742   3.494   1.377  11.253
11239SOL    HW133743   3.462   1.471  11.243
11239SOL    HW233744   3.418   1.314  11.241
11240SOL     OW33745   2.326   1.743  11.495
11240SOL    HW133746   2.359   1.782  11.581
11240SOL    HW233747   2.402   1.736  11.430
11241SOL     OW33748   3.262   0.107  11.598
11241SOL    HW133749   3.238   0.070  11.508
11241SOL    HW233750   3.361   0.123  11.602
11242SOL     OW33751   2.111   1.785  12.413
11242SOL    HW133752   2.168   1.720  12.463
11242SOL    HW233753   2.095   1.752  12.320
11243SOL     OW33754   2.802   1.698  12.076
11243SOL    HW133755   2.882   1.641  12.097
11243SOL    HW233756   2.753   1.658  11.999
11244SOL     OW33757   2.244   0.700  11.652
11244SOL    HW133758   2.289   0.610  11.649
11244SOL    HW233759   2.150   0.689  11.685
11245SOL     OW33760   2.476   0.122  11.289
11245SOL    HW133761   2.574   0.100  11.296
11245SOL    HW233762   2.445   0.105  11.196
11246SOL     OW33763   2.750   1.514  12.367
11246SOL    HW133764   2.727   1.489  12.273
11246SOL    HW233765   2.811   1.445  12.406
11247SOL     OW33766   2.665   1.402  12.096
11247SOL    HW133767   2.755   1.416  12.054
11247SOL    HW233768   2.594   1.404  12.025
11248SOL     OW33769   2.784   0.503  12.071
11248SOL    HW133770   2.759   0.494  11.975
11248SOL    HW233771   2.832   0.421  12.102
11249SOL     OW33772   2.401   0.064  11.684
11249SOL    HW133773   2.320   0.065  11.742
11249SOL    HW233774   2.404   0.147  11.629
11250SOL     OW33775   3.296   1.188  11.213
11250SOL    HW133776   3.328   1.112  11.270
11250SOL    HW233777   3.204   1.215  11.243
11251SOL     OW33778   2.159   0.035  11.343
11251SOL    HW133779   2.208   0.119  11.322
11251SOL    HW233780   2.221  -0.030  11.388
11252SOL     OW33781   2.797   0.236  11.652
11252SOL    HW133782   2.749   0.277  11.574
11252SOL    HW233783   2.896   0.234  11.633
11253SOL     OW33784   3.089   1.570  11.965
11253SOL    HW133785   3.110   1.644  11.900
11253SOL    HW233786   3.157   1.570  12.038
11254SOL     OW33787   2.321   1.152  11.913
11254SOL    HW133788   2.250   1.125  11.978
11254SOL    HW233789   2.295   1.124  11.820
11255SOL     OW33790   3.133   1.797  11.763
11255SOL    HW133791   3.177   1.861  11.699
11255SOL    HW233792   3.083   1.849  11.833
11256SOL     OW33793   2.894   0.549  11.188
11256SOL    HW133794   2.853   0.631  11.149
11256SOL    HW233795   2.958   0.575  11.261
11257SOL     OW33796   1.940   0.556  12.558
11257SOL    HW133797   2.032   0.555  12.517
11257SOL    HW233798   1.934   0.630  12.625
11258SOL     OW33799   2.423   0.222  12.319
11258SOL    HW133800   2.461   0.138  12.356
11258SOL    HW233801   2.335   0.241  12.363
11259SOL     OW33802   2.728   0.454  11.814
11259SOL    HW133803   2.696   0.526  11.752
11259SOL    HW233804   2.752   0.373  11.761
11260SOL     OW33805   2.879   0.039  11.925
11260SOL    HW133806   2.807   0.044  11.856
11260SOL    HW233807   2.855  -0.030  11.994
11261SOL     OW33808   3.291   1.173  12.039
11261SOL    HW133809   3.236   1.089  12.032
11261SOL    HW233810   3.317   1.202  11.947
11262SOL     OW33811   3.328   0.590  12.164
11262SOL    HW133812   3.298   0.495  12.171
11262SOL    HW233813   3.401   0.606  12.230
11263SOL     OW33814   3.719   0.833  11.549
11263SOL    HW133815   3.761   0.769  11.613
11263SOL    HW233816   3.681   0.782  11.471
11264SOL     OW33817   2.350   1.385  11.346
11264SOL    HW133818   2.263   1.370  11.393
11264SOL    HW233819   2.333   1.411  11.251
11265SOL     OW33820   3.526   1.280  11.829
11265SOL    HW133821   3.625   1.288  11.843
11265SOL    HW233822   3.481   1.364  11.860
11266SOL     OW33823   3.252   0.575  11.250
11266SOL    HW133824   3.198   0.554  11.331
11266SOL    HW233825   3.343   0.534  11.259
11267SOL     OW33826   2.389   0.256  11.500
11267SOL    HW133827   2.416   0.197  11.425
11267SOL    HW233828   2.389   0.351  11.469
11268SOL     OW33829   2.926   1.347  12.512
11268SOL    HW133830   2.846   1.324  12.567
11268SOL    HW233831   3.009   1.321  12.561
11269SOL     OW33832   2.973   1.195  12.272
11269SOL    HW133833   2.933   1.239  12.353
11269SOL    HW233834   2.932   1.232  12.189
11270SOL     OW33835   3.500   1.099  12.251
11270SOL    HW133836   3.505   1.180  12.310
11270SOL    HW233837   3.414   1.101  12.200
11271SOL     OW33838   2.777   0.089  12.574
11271SOL    HW133839   2.802   0.069  12.479
11271SOL    HW233840   2.849   0.145  12.616
11272SOL     OW33841   2.567   1.050  11.540
11272SOL    HW133842   2.553   1.057  11.639
11272SOL    HW233843   2.651   0.999  11.522
11273SOL     OW33844   2.272   0.813  12.423
11273SOL    HW133845   2.358   0.825  12.473
11273SOL    HW233846   2.230   0.726  12.450
11274SOL     OW33847   3.136   0.386  12.434
11274SOL    HW133848   3.157   0.460  12.498
11274SOL    HW233849   3.047   0.403  12.391
11275SOL     OW33850   1.926   1.564  12.503
11275SOL    HW133851   1.880   1.646  12.469
11275SOL    HW233852   2.024   1.583  12.512
11276SOL     OW33853   2.229   1.100  11.673
11276SOL    HW133854   2.222   1.183  11.617
11276SOL    HW233855   2.233   1.020  11.613
11277SOL     OW33856   2.428   0.537  12.037
11277SOL    HW133857   2.440   0.603  11.963
11277SOL    HW233858   2.474   0.571  12.120
11278SOL     OW33859   3.114   1.348  11.560
11278SOL    HW133860   3.164   1.425  11.600
11278SOL    HW233861   3.019   1.350  11.592
11279SOL     OW33862   3.134   1.445  12.314
11279SOL    HW133863   3.181   1.458  12.401
11279SOL    HW233864   3.068   1.371  12.323
11280SOL     OW33865   3.444   0.639  11.644
11280SOL    HW133866   3.413   0.700  11.717
11280SOL    HW233867   3.494   0.691  11.575
11281SOL     OW33868   2.216   1.510  12.501
11281SOL    HW133869   2.195   1.466  12.414
11281SOL    HW233870   2.313   1.536  12.504
11282SOL     OW33871   2.264   0.751  12.770
11282SOL    HW133872   2.332   0.806  12.723
11282SOL    HW233873   2.304   0.663  12.797
11283SOL     OW33874   3.449   0.779  12.842
11283SOL    HW133875   3.357   0.817  12.837
11283SOL    HW233876   3.509   0.826  12.777
11284SOL     OW33877   2.435   0.870  12.201
11284SOL    HW133878   2.479   0.959  12.192
11284SOL    HW233879   2.372   0.870  12.278
11285SOL     OW33880   3.222   0.862  12.217
11285SOL    HW133881   3.147   0.862  12.151
11285SOL    HW233882   3.259   0.770  12.226
11286SOL     OW33883   3.071   0.525  11.447
11286SOL    HW133884   3.084   0.441  11.501
11286SOL    HW233885   3.042   0.599  11.507
11287SOL     OW33886   2.169   0.213  12.403
11287SOL    HW133887   2.146   0.250  12.493
11287SOL    HW233888   2.139   0.118  12.397
11288SOL     OW33889   1.899   1.310  12.454
11288SOL    HW133890   1.952   1.261  12.522
11288SOL    HW233891   1.921   1.408  12.459
11289SOL     OW33892   2.594   0.634  12.236
11289SOL    HW133893   2.653   0.608  12.160
11289SOL    HW233894   2.566   0.730  12.225
11290SOL     OW33895   2.169   0.063  11.790
11290SOL    HW133896   2.158   0.157  11.823
11290SOL    HW233897   2.164   0.000  11.867
11291SOL     OW33898   3.484   0.367  11.546
11291SOL    HW133899   3.486   0.291  11.610
11291SOL    HW233900   3.436   0.444  11.586
11292SOL     OW33901   2.885   0.766  12.138
11292SOL    HW133902   2.900   0.787  12.234
11292SOL    HW233903   2.855   0.671  12.129
11293SOL     OW33904   2.842   1.573  12.872
11293SOL    HW133905   2.822   1.617  12.784
11293SOL    HW233906   2.881   1.482  12.856
11294SOL     OW33907   3.402   0.274  11.297
11294SOL    HW133908   3.341   0.199  11.320
11294SOL    HW233909   3.424   0.326  11.380
11295SOL     OW33910   3.165   0.838  11.214
11295SOL    HW133911   3.199   0.745  11.229
11295SOL    HW233912   3.183   0.865  11.119
11296SOL     OW33913   2.930   1.333  12.021
11296SOL    HW133914   2.937   1.249  11.966
11296SOL    HW233915   2.992   1.402  11.985
11297SOL     OW33916   2.181   0.810  12.121
11297SOL    HW133917   2.274   0.846  12.126
11297SOL    HW233918   2.175   0.725  12.173
11298SOL     OW33919   2.201   0.509  12.178
11298SOL    HW133920   2.149   0.426  12.161
11298SOL    HW233921   2.278   0.514  12.114
11299SOL     OW33922   3.000   0.380  12.850
11299SOL    HW133923   2.955   0.443  12.914
11299SOL    HW233924   3.093   0.411  12.833
11300SOL     OW33925   3.022   0.207  12.649
11300SOL    HW133926   3.022   0.271  12.726
11300SOL    HW233927   3.050   0.255  12.566
11301SOL     OW33928   1.870   1.326  11.372
11301SOL    HW133929   1.777   1.347  11.341
11301SOL    HW233930   1.880   1.227  11.385
11302SOL     OW33931   1.950   1.801  12.099
11302SOL    HW133932   1.908   1.715  12.072
11302SOL    HW233933   2.044   1.804  12.065
11303SOL     OW33934   2.366   1.568  12.082
11303SOL    HW133935   2.432   1.642  12.091
11303SOL    HW233936   2.410   1.489  12.040
11304SOL     OW33937   2.864   0.796  12.410
11304SOL    HW133938   2.905   0.764  12.496
11304SOL    HW233939   2.768   0.769  12.407
11305SOL     OW33940   1.902   0.544  12.286
11305SOL    HW133941   1.987   0.511  12.245
11305SOL    HW233942   1.915   0.559  12.384
11306SOL     OW33943   2.677   0.572  11.497
11306SOL    HW133944   2.684   0.483  11.451
11306SOL    HW233945   2.583   0.606  11.489
11307SOL     OW33946   3.519   0.604  12.378
11307SOL    HW133947   3.481   0.535  12.440
11307SOL    HW233948   3.601   0.568  12.334
11308SOL     OW33949   2.533   0.464  12.441
11308SOL    HW133950   2.499   0.375  12.411
11308SOL    HW233951   2.559   0.518  12.361
11309SOL     OW33952   2.792   1.678  12.637
11309SOL    HW133953   2.768   1.660  12.542
11309SOL    HW233954   2.822   1.772  12.647
11310SOL     OW33955   2.335   0.500  11.363
11310SOL    HW133956   2.396   0.580  11.367
11310SOL    HW233957   2.240   0.531  11.370
11311SOL     OW33958   2.021   1.137  12.638
11311SOL    HW133959   2.043   1.076  12.714
11311SOL    HW233960   2.031   1.088  12.552
11312SOL     OW33961   3.209   1.059  12.406
11312SOL    HW133962   3.233   0.996  12.332
11312SOL    HW233963   3.119   1.099  12.388
11313SOL     OW33964   3.164   0.855  11.481
11313SOL    HW133965   3.078   0.824  11.523
11313SOL    HW233966   3.160   0.841  11.382
11314SOL     OW33967   3.621   1.747  12.326
11314SOL    HW133968   3.682   1.777  12.253
11314SOL    HW233969   3.583   1.658  12.304
11315SOL     OW33970   3.114   1.731  12.300
11315SOL    HW133971   3.198   1.736  12.246
11315SOL    HW233972   3.091   1.635  12.318
11316SOL     OW33973   1.945   1.258  12.194
11316SOL    HW133974   1.940   1.257  12.294
11316SOL    HW233975   1.862   1.217  12.156
11317SOL     OW33976   3.588   0.135  11.695
11317SOL    HW133977   3.661   0.118  11.628
11317SOL    HW233978   3.557   0.048  11.733
11318SOL     OW33979   3.250   1.573  11.649
11318SOL    HW133980   3.317   1.585  11.575
11318SOL    HW233981   3.210   1.662  11.672
11319SOL     OW33982   3.142   0.927  11.844
11319SOL    HW133983   3.202   0.846  11.846
11319SOL    HW233984   3.182   0.996  11.784
11320SOL     OW33985   2.534   1.616  11.326
11320SOL    HW133986   2.543   1.626  11.227
11320SOL    HW233987   2.494   1.527  11.347
11321SOL     OW33988   3.512   1.720  12.566
11321SOL    HW133989   3.565   1.730  12.482
11321SOL    HW233990   3.485   1.810  12.600
11322SOL     OW33991   3.703   0.175  12.135
11322SOL    HW133992   3.742   0.090  12.099
11322SOL    HW233993   3.605   0.177  12.116
11323SOL     OW33994   2.125   0.326  11.892
11323SOL    HW133995   2.046   0.377  11.858
11323SOL    HW233996   2.116   0.311  11.990
11324SOL     OW33997   3.056   1.612  11.203
11324SOL    HW133998   3.062   1.519  11.240
11324SOL    HW233999   2.997   1.612  11.123
11325SOL     OW34000   2.684   1.002  12.544
11325SOL    HW134001   2.724   1.001  12.452
11325SOL    HW234002   2.694   1.094  12.584
11326SOL     OW34003   2.778   0.910  11.463
11326SOL    HW134004   2.841   0.948  11.395
11326SOL    HW234005   2.818   0.827  11.502
11327SOL     OW34006   3.366   1.607  11.216
11327SOL    HW134007   3.274   1.644  11.223
11327SOL    HW234008   3.404   1.627  11.126
11328SOL     OW34009   2.234   1.288  12.662
11328SOL    HW134010   2.221   1.381  12.628
11328SOL    HW234011   2.150   1.236  12.649
11329SOL     OW34012   3.476   1.292  12.461
11329SOL    HW134013   3.536   1.295  12.541
11329SOL    HW234014   3.401   1.356  12.474
11330SOL     OW34015   2.901   1.098  11.868
11330SOL    HW134016   2.831   1.051  11.922
11330SOL    HW234017   2.960   1.030  11.825
11331SOL     OW34018   2.876   0.236  12.143
11331SOL    HW134019   2.868   0.200  12.050
11331SOL    HW234020   2.874   0.160  12.208
11332SOL     OW34021   2.452   1.487  11.663
11332SOL    HW134022   2.494   1.429  11.593
11332SOL    HW234023   2.408   1.566  11.619
11333SOL     OW34024   3.571   0.385  12.553
11333SOL    HW134025   3.644   0.454  12.557
11333SOL    HW234026   3.599   0.310  12.494
11334SOL     OW34027   2.117   1.348  11.462
11334SOL    HW134028   2.021   1.349  11.435
11334SOL    HW234029   2.129   1.401  11.546
11335SOL     OW34030   1.937   0.345  11.205
11335SOL    HW134031   1.845   0.317  11.176
11335SOL    HW234032   1.968   0.422  11.149
11336SOL     OW34033   3.302   0.856  12.570
11336SOL    HW134034   3.245   0.908  12.507
11336SOL    HW234035   3.398   0.868  12.546
11337SOL     OW34036   1.934   0.166  11.490
11337SOL    HW134037   1.917   0.249  11.436
11337SOL    HW234038   2.024   0.129  11.468
11338SOL     OW34039   3.045   1.335  11.291
11338SOL    HW134040   2.946   1.324  11.293
11338SOL    HW234041   3.079   1.350  11.384
11339SOL     OW34042   2.475   0.842  12.603
11339SOL    HW134043   2.531   0.923  12.586
11339SOL    HW234044   2.534   0.762  12.606
11340SOL     OW34045   3.355   1.767  12.131
11340SOL    HW134046   3.388   1.831  12.062
11340SOL    HW234047   3.421   1.761  12.206
11341SOL     OW34048   2.252   1.741  12.732
11341SOL    HW134049   2.161   1.782  12.730
11341SOL    HW234050   2.245   1.647  12.764
11342SOL     OW34051   3.536   0.883  12.426
11342SOL    HW134052   3.509   0.794  12.389
11342SOL    HW234053   3.537   0.951  12.353
11343SOL     OW34054   3.087   0.325  11.621
11343SOL    HW134055   3.152   0.251  11.610
11343SOL    HW234056   3.107   0.375  11.705
11344SOL     OW34057   2.456   0.745  11.824
11344SOL    HW134058   2.506   0.830  11.805
11344SOL    HW234059   2.368   0.747  11.776
11345SOL     OW34060   3.639   0.342  12.814
11345SOL    HW134061   3.622   0.373  12.720
11345SOL    HW234062   3.555   0.305  12.852
11346SOL     OW34063   3.592   0.934  12.689
11346SOL    HW134064   3.630   1.025  12.704
11346SOL    HW234065   3.584   0.917  12.590
11347SOL     OW34066   2.721   1.374  11.188
11347SOL    HW134067   2.675   1.389  11.276
11347SOL    HW234068   2.765   1.459  11.158
11348SOL     OW34069   2.523   1.790  12.125
11348SOL    HW134070   2.477   1.878  12.112
11348SOL    HW234071   2.622   1.802  12.118
11349SOL     OW34072   2.721   0.956  12.033
11349SOL    HW134073   2.775   0.887  12.081
11349SOL    HW234074   2.689   1.025  12.099
11350SOL     OW34075   2.945   0.984  11.259
11350SOL    HW134076   2.922   1.037  11.177
11350SOL    HW234077   3.026   0.928  11.240
11351SOL     OW34078   3.723   1.569  12.023
11351SOL    HW134079   3.652   1.557  11.953
11351SOL    HW234080   3.724   1.490  12.083
11352SOL     OW34081   1.941   1.240  11.825
11352SOL    HW134082   1.940   1.193  11.913
11352SOL    HW234083   2.023   1.212  11.774
11353SOL     OW34084   3.686   0.192  12.399
11353SOL    HW134085   3.682   0.102  12.443
11353SOL    HW234086   3.689   0.181  12.300
11354SOL     OW34087   2.290   0.424  11.692
11354SOL    HW134088   2.320   0.352  11.630
11354SOL    HW234089   2.251   0.384  11.775
11355SOL     OW34090   3.567   1.487  12.276
11355SOL    HW134091   3.474   1.462  12.249
11355SOL    HW234092   3.593   1.437  12.358
11356SOL     OW34093   2.179   0.547  12.452
11356SOL    HW134094   2.217   0.488  12.524
11356SOL    HW234095   2.219   0.521  12.364
11357SOL     OW34096   2.674   1.586  11.859
11357SOL    HW134097   2.706   1.596  11.765
11357SOL    HW234098   2.595   1.524  11.861
11358SOL     OW34099   3.286   0.214  12.284
11358SOL    HW134100   3.338   0.149  12.339
11358SOL    HW234101   3.237   0.277  12.345
11359SOL     OW34102   2.863   0.034  12.326
11359SOL    HW134103   2.800  -0.038  12.295
11359SOL    HW234104   2.956  -0.002  12.326
11360SOL     OW34105   2.632   1.330  11.473
11360SOL    HW134106   2.586   1.243  11.490
11360SOL    HW234107   2.723   1.327  11.514
11361SOL     OW34108   2.480   1.567  12.456
11361SOL    HW134109   2.475   1.649  12.513
11361SOL    HW234110   2.569   1.564  12.411
11362SOL     OW34111   3.214   0.052  11.340
11362SOL    HW134112   3.249   0.011  11.256
11362SOL    HW234113   3.124   0.014  11.360
11363SOL     OW34114   3.162   0.453  11.863
11363SOL    HW134115   3.103   0.533  11.867
11363SOL    HW234116   3.177   0.418  11.956
11364SOL     OW34117   3.455   0.221  12.054
11364SOL    HW134118   3.371   0.220  12.108
11364SOL    HW234119   3.457   0.304  11.998
11365SOL     OW34120   1.901   1.077  11.472
11365SOL    HW134121   2.000   1.066  11.463
11365SOL    HW234122   1.861   0.991  11.504
11366SOL     OW34123   2.737   1.646  11.509
11366SOL    HW134124   2.660   1.611  11.455
11366SOL    HW234125   2.705   1.717  11.571
11367SOL     OW34126   2.092   2.490   0.113
11367SOL    HW134127   1.999   2.488   0.150
11367SOL    HW234128   2.093   2.451   0.021
11368SOL     OW34129   2.087   2.137   0.996
11368SOL    HW134130   2.122   2.120   1.088
11368SOL    HW234131   1.999   2.092   0.984
11369SOL     OW34132   1.881   2.230   0.647
11369SOL    HW134133   1.799   2.273   0.686
11369SOL    HW234134   1.853   2.157   0.584
11370SOL     OW34135   2.431   3.137   1.165
11370SOL    HW134136   2.338   3.130   1.128
11370SOL    HW234137   2.442   3.226   1.209
11371SOL     OW34138   3.417   3.373   0.703
11371SOL    HW134139   3.360   3.357   0.784
11371SOL    HW234140   3.358   3.383   0.623
11372SOL     OW34141   2.997   2.565   0.717
11372SOL    HW134142   3.054   2.643   0.692
11372SOL    HW234143   2.937   2.591   0.793
11373SOL     OW34144   3.617   2.469   0.231
11373SOL    HW134145   3.605   2.456   0.132
11373SOL    HW234146   3.587   2.388   0.280
11374SOL     OW34147   2.630   3.006   1.023
11374SOL    HW134148   2.552   3.023   1.083
11374SOL    HW234149   2.664   3.093   0.987
11375SOL     OW34150   2.712   2.660   1.823
11375SOL    HW134151   2.708   2.736   1.888
11375SOL    HW234152   2.734   2.696   1.732
11376SOL     OW34153   2.547   2.874   0.665
11376SOL    HW134154   2.616   2.858   0.735
11376SOL    HW234155   2.474   2.931   0.703
11377SOL     OW34156   2.548   3.023   1.803
11377SOL    HW134157   2.608   3.102   1.817
11377SOL    HW234158   2.462   3.054   1.762
11378SOL     OW34159   2.197   3.297   1.061
11378SOL    HW134160   2.119   3.266   1.008
11378SOL    HW234161   2.255   3.355   1.004
11379SOL     OW34162   3.322   3.367   1.339
11379SOL    HW134163   3.346   3.461   1.365
11379SOL    HW234164   3.306   3.313   1.421
11380SOL     OW34165   2.300   2.254   1.499
11380SOL    HW134166   2.382   2.198   1.508
11380SOL    HW234167   2.219   2.196   1.503
11381SOL     OW34168   3.465   2.309   0.737
11381SOL    HW134169   3.391   2.355   0.687
11381SOL    HW234170   3.516   2.377   0.790
11382SOL     OW34171   2.093   3.575   0.483
11382SOL    HW134172   2.127   3.652   0.537
11382SOL    HW234173   2.137   3.575   0.393
11383SOL     OW34174   2.989   3.203   1.690
11383SOL    HW134175   3.036   3.203   1.778
11383SOL    HW234176   2.941   3.116   1.679
11384SOL     OW34177   2.092   3.296   0.538
11384SOL    HW134178   2.066   3.392   0.538
11384SOL    HW234179   2.021   3.242   0.583
11385SOL     OW34180   2.102   2.953   0.886
11385SOL    HW134181   2.116   2.869   0.938
11385SOL    HW234182   2.047   3.017   0.941
11386SOL     OW34183   2.482   3.648   1.439
11386SOL    HW134184   2.390   3.631   1.474
11386SOL    HW234185   2.510   3.740   1.465
11387SOL     OW34186   2.468   2.826   0.123
11387SOL    HW134187   2.475   2.910   0.069
11387SOL    HW234188   2.514   2.839   0.211
11388SOL     OW34189   3.456   1.976   1.480
11388SOL    HW134190   3.438   2.043   1.408
11388SOL    HW234191   3.453   2.022   1.569
11389SOL     OW34192   1.984   2.505   0.563
11389SOL    HW134193   1.939   2.417   0.580
11389SOL    HW234194   1.983   2.559   0.647
11390SOL     OW34195   3.704   3.629   0.359
11390SOL    HW134196   3.758   3.600   0.439
11390SOL    HW234197   3.734   3.719   0.330
11391SOL     OW34198   1.889   3.458   0.117
11391SOL    HW134199   1.870   3.362   0.138
11391SOL    HW234200   1.856   3.516   0.192
11392SOL     OW34201   3.551   2.784   0.612
11392SOL    HW134202   3.646   2.755   0.620
11392SOL    HW234203   3.543   2.849   0.537
11393SOL     OW34204   3.503   2.970   0.432
11393SOL    HW134205   3.589   2.972   0.380
11393SOL    HW234206   3.517   3.017   0.520
11394SOL     OW34207   1.975   2.599   1.597
11394SOL    HW134208   2.063   2.586   1.642
11394SOL    HW234209   1.962   2.696   1.575
11395SOL     OW34210   2.475   3.227   0.726
11395SOL    HW134211   2.426   3.140   0.735
11395SOL    HW234212   2.452   3.270   0.639
11396SOL     OW34213   3.155   3.090   1.423
11396SOL    HW134214   3.192   3.017   1.365
11396SOL    HW234215   3.207   3.095   1.508
11397SOL     OW34216   2.671   1.866   0.502
11397SOL    HW134217   2.711   1.957   0.493
11397SOL    HW234218   2.571   1.874   0.508
11398SOL     OW34219   2.059   2.838   1.264
11398SOL    HW134220   2.148   2.793   1.250
11398SOL    HW234221   1.986   2.773   1.245
11399SOL     OW34222   3.387   2.861   0.190
11399SOL    HW134223   3.324   2.785   0.203
11399SOL    HW234224   3.435   2.879   0.276
11400SOL     OW34225   3.049   3.654   1.616
11400SOL    HW134226   3.073   3.714   1.540
11400SOL    HW234227   3.056   3.559   1.586
11401SOL     OW34228   2.179   2.113   1.801
11401SOL    HW134229   2.250   2.184   1.807
11401SOL    HW234230   2.091   2.152   1.829
11402SOL     OW34231   3.328   3.279   0.953
11402SOL    HW134232   3.269   3.285   1.033
11402SOL    HW234233   3.313   3.191   0.907
11403SOL     OW34234   3.529   3.576   0.572
11403SOL    HW134235   3.488   3.553   0.484
11403SOL    HW234236   3.511   3.502   0.637
11404SOL     OW34237   2.460   2.591   0.270
11404SOL    HW134238   2.484   2.660   0.202
11404SOL    HW234239   2.382   2.624   0.324
11405SOL     OW34240   3.143   2.207   0.944
11405SOL    HW134241   3.057   2.157   0.931
11405SOL    HW234242   3.205   2.153   1.000
11406SOL     OW34243   3.438   3.524   0.307
11406SOL    HW134244   3.527   3.570   0.310
11406SOL    HW234245   3.417   3.500   0.212
11407SOL     OW34246   2.669   2.467   1.465
11407SOL    HW134247   2.622   2.464   1.554
11407SOL    HW234248   2.618   2.412   1.399
11408SOL     OW34249   3.256   2.331   1.674
11408SOL    HW134250   3.236   2.374   1.762
11408SOL    HW234251   3.334   2.269   1.683
11409SOL     OW34252   2.835   2.752   1.572
11409SOL    HW134253   2.881   2.668   1.543
11409SOL    HW234254   2.779   2.786   1.497
11410SOL     OW34255   2.853   2.272   1.242
11410SOL    HW134256   2.776   2.306   1.296
11410SOL    HW234257   2.819   2.221   1.163
11411SOL     OW34258   2.903   2.563   0.429
11411SOL    HW134259   2.929   2.559   0.525
11411SOL    HW234260   2.818   2.512   0.415
11412SOL     OW34261   1.938   2.673   0.789
11412SOL    HW134262   2.037   2.661   0.798
11412SOL    HW234263   1.914   2.768   0.810
11413SOL     OW34264   1.992   3.683   1.571
11413SOL    HW134265   1.982   3.668   1.670
11413SOL    HW234266   1.906   3.719   1.535
11414SOL     OW34267   2.727   2.210   0.195
11414SOL    HW134268   2.786   2.273   0.146
11414SOL    HW234269   2.746   2.116   0.166
11415SOL     OW34270   3.581   2.447   1.831
11415SOL    HW134271   3.555   2.536   1.795
11415SOL    HW234272   3.579   2.379   1.758
11416SOL     OW34273   3.224   3.006   0.545
11416SOL    HW134274   3.307   2.977   0.497
11416SOL    HW234275   3.175   3.073   0.489
11417SOL     OW34276   2.412   2.058   0.885
11417SOL    HW134277   2.407   2.053   0.985
11417SOL    HW234278   2.414   2.154   0.856
11418SOL     OW34279   2.870   3.318   0.477
11418SOL    HW134280   2.824   3.390   0.425
11418SOL    HW234281   2.866   3.338   0.575
11419SOL     OW34282   2.213   3.663   0.853
11419SOL    HW134283   2.263   3.577   0.859
11419SOL    HW234284   2.278   3.740   0.850
11420SOL     OW34285   3.657   2.928   0.873
11420SOL    HW134286   3.595   2.913   0.797
11420SOL    HW234287   3.605   2.939   0.958
11421SOL     OW34288   3.089   3.412   1.506
11421SOL    HW134289   3.095   3.335   1.570
11421SOL    HW234290   3.037   3.386   1.426
11422SOL     OW34291   2.183   2.805   0.242
11422SOL    HW134292   2.265   2.844   0.200
11422SOL    HW234293   2.156   2.723   0.193
11423SOL     OW34294   3.320   2.597   0.728
11423SOL    HW134295   3.315   2.532   0.803
11423SOL    HW234296   3.400   2.656   0.741
11424SOL     OW34297   2.323   3.128   1.727
11424SOL    HW134298   2.273   3.129   1.641
11424SOL    HW234299   2.260   3.110   1.803
11425SOL     OW34300   2.973   3.638   0.237
11425SOL    HW134301   2.913   3.576   0.287
11425SOL    HW234302   3.004   3.594   0.152
11426SOL     OW34303   2.064   2.147   1.498
11426SOL    HW134304   1.984   2.207   1.485
11426SOL    HW234305   2.054   2.098   1.584
11427SOL     OW34306   3.494   3.239   0.081
11427SOL    HW134307   3.462   3.333   0.071
11427SOL    HW234308   3.418   3.176   0.069
11428SOL     OW34309   2.326   3.605   0.323
11428SOL    HW134310   2.359   3.644   0.409
11428SOL    HW234311   2.402   3.598   0.258
11429SOL     OW34312   3.262   1.969   0.426
11429SOL    HW134313   3.238   1.932   0.336
11429SOL    HW234314   3.361   1.985   0.430
11430SOL     OW34315   2.111   3.647   1.241
11430SOL    HW134316   2.168   3.582   1.291
11430SOL    HW234317   2.095   3.614   1.148
11431SOL     OW34318   2.802   3.560   0.904
11431SOL    HW134319   2.882   3.503   0.925
11431SOL    HW234320   2.753   3.520   0.827
11432SOL     OW34321   2.244   2.562   0.480
11432SOL    HW134322   2.289   2.472   0.477
11432SOL    HW234323   2.150   2.551   0.513
11433SOL     OW34324   3.409   2.084   1.729
11433SOL    HW134325   3.404   2.121   1.821
11433SOL    HW234326   3.337   2.015   1.717
11434SOL     OW34327   2.476   1.984   0.117
11434SOL    HW134328   2.574   1.962   0.124
11434SOL    HW234329   2.445   1.967   0.024
11435SOL     OW34330   2.643   2.126   1.749
11435SOL    HW134331   2.710   2.065   1.792
11435SOL    HW234332   2.570   2.145   1.814
11436SOL     OW34333   2.750   3.376   1.195
11436SOL    HW134334   2.727   3.351   1.101
11436SOL    HW234335   2.811   3.307   1.234
11437SOL     OW34336   3.213   2.452   1.433
11437SOL    HW134337   3.241   2.409   1.518
11437SOL    HW234338   3.238   2.548   1.434
11438SOL     OW34339   2.665   3.264   0.924
11438SOL    HW134340   2.755   3.278   0.882
11438SOL    HW234341   2.594   3.266   0.853
11439SOL     OW34342   2.784   2.365   0.899
11439SOL    HW134343   2.759   2.356   0.803
11439SOL    HW234344   2.832   2.283   0.930
11440SOL     OW34345   2.401   1.926   0.512
11440SOL    HW134346   2.320   1.927   0.570
11440SOL    HW234347   2.404   2.009   0.457
11441SOL     OW34348   3.296   3.050   0.041
11441SOL    HW134349   3.328   2.974   0.098
11441SOL    HW234350   3.204   3.077   0.071
11442SOL     OW34351   2.159   1.897   0.171
11442SOL    HW134352   2.208   1.981   0.150
11442SOL    HW234353   2.221   1.832   0.216
11443SOL     OW34354   2.797   2.098   0.480
11443SOL    HW134355   2.749   2.139   0.402
11443SOL    HW234356   2.896   2.096   0.461
11444SOL     OW34357   2.938   2.545   1.464
11444SOL    HW134358   2.858   2.484   1.467
11444SOL    HW234359   3.019   2.492   1.440
11445SOL     OW34360   3.089   3.432   0.793
11445SOL    HW134361   3.110   3.506   0.728
11445SOL    HW234362   3.157   3.432   0.866
11446SOL     OW34363   2.321   3.014   0.741
11446SOL    HW134364   2.250   2.987   0.806
11446SOL    HW234365   2.295   2.986   0.648
11447SOL     OW34366   3.133   3.659   0.591
11447SOL    HW134367   3.177   3.723   0.527
11447SOL    HW234368   3.083   3.711   0.661
11448SOL     OW34369   2.894   2.411   0.016
11448SOL    HW134370   2.853   2.493  -0.023
11448SOL    HW234371   2.958   2.437   0.089
11449SOL     OW34372   1.940   2.418   1.386
11449SOL    HW134373   2.032   2.417   1.345
11449SOL    HW234374   1.934   2.492   1.453
11450SOL     OW34375   2.423   2.084   1.147
11450SOL    HW134376   2.461   2.000   1.184
11450SOL    HW234377   2.335   2.103   1.191
11451SOL     OW34378   2.728   2.316   0.642
11451SOL    HW134379   2.696   2.388   0.580
11451SOL    HW234380   2.752   2.235   0.589
11452SOL     OW34381   2.879   1.901   0.753
11452SOL    HW134382   2.807   1.906   0.684
11452SOL    HW234383   2.855   1.832   0.822
11453SOL     OW34384   3.291   3.035   0.867
11453SOL    HW134385   3.236   2.951   0.860
11453SOL    HW234386   3.317   3.064   0.775
11454SOL     OW34387   3.328   2.452   0.992
11454SOL    HW134388   3.298   2.357   0.999
11454SOL    HW234389   3.401   2.468   1.058
11455SOL     OW34390   3.719   2.695   0.377
11455SOL    HW134391   3.761   2.631   0.441
11455SOL    HW234392   3.681   2.644   0.299
11456SOL     OW34393   2.350   3.247   0.174
11456SOL    HW134394   2.263   3.232   0.221
11456SOL    HW234395   2.333   3.273   0.079
11457SOL     OW34396   3.526   3.142   0.657
11457SOL    HW134397   3.625   3.150   0.671
11457SOL    HW234398   3.481   3.226   0.688
11458SOL     OW34399   3.252   2.437   0.078
11458SOL    HW134400   3.198   2.416   0.159
11458SOL    HW234401   3.343   2.396   0.087
11459SOL     OW34402   2.389   2.118   0.328
11459SOL    HW134403   2.416   2.059   0.253
11459SOL    HW234404   2.389   2.213   0.297
11460SOL     OW34405   3.616   3.085   1.588
11460SOL    HW134406   3.707   3.046   1.575
11460SOL    HW234407   3.624   3.181   1.612
11461SOL     OW34408   2.926   3.209   1.340
11461SOL    HW134409   2.846   3.186   1.395
11461SOL    HW234410   3.009   3.183   1.389
11462SOL     OW34411   3.454   3.491   1.625
11462SOL    HW134412   3.481   3.525   1.535
11462SOL    HW234413   3.533   3.453   1.671
11463SOL     OW34414   2.973   3.057   1.100
11463SOL    HW134415   2.933   3.101   1.181
11463SOL    HW234416   2.932   3.094   1.017
11464SOL     OW34417   3.500   2.961   1.079
11464SOL    HW134418   3.505   3.042   1.138
11464SOL    HW234419   3.414   2.963   1.028
11465SOL     OW34420   2.777   1.951   1.402
11465SOL    HW134421   2.802   1.931   1.307
11465SOL    HW234422   2.849   2.007   1.444
11466SOL     OW34423   2.842   2.978   1.719
11466SOL    HW134424   2.743   2.984   1.729
11466SOL    HW234425   2.865   2.898   1.663
11467SOL     OW34426   2.567   2.912   0.368
11467SOL    HW134427   2.553   2.919   0.467
11467SOL    HW234428   2.651   2.861   0.350
11468SOL     OW34429   2.272   2.675   1.251
11468SOL    HW134430   2.358   2.687   1.301
11468SOL    HW234431   2.230   2.588   1.278
11469SOL     OW34432   3.136   2.248   1.262
11469SOL    HW134433   3.157   2.322   1.326
11469SOL    HW234434   3.047   2.265   1.219
11470SOL     OW34435   1.926   3.426   1.331
11470SOL    HW134436   1.880   3.508   1.297
11470SOL    HW234437   2.024   3.445   1.340
11471SOL     OW34438   2.229   2.962   0.501
11471SOL    HW134439   2.222   3.045   0.445
11471SOL    HW234440   2.233   2.882   0.441
11472SOL     OW34441   2.428   2.399   0.865
11472SOL    HW134442   2.440   2.465   0.791
11472SOL    HW234443   2.474   2.433   0.948
11473SOL     OW34444   3.114   3.210   0.388
11473SOL    HW134445   3.164   3.287   0.428
11473SOL    HW234446   3.019   3.212   0.420
11474SOL     OW34447   3.134   3.307   1.142
11474SOL    HW134448   3.181   3.320   1.229
11474SOL    HW234449   3.068   3.233   1.151
11475SOL     OW34450   3.444   2.501   0.472
11475SOL    HW134451   3.413   2.562   0.545
11475SOL    HW234452   3.494   2.553   0.403
11476SOL     OW34453   2.216   3.372   1.329
11476SOL    HW134454   2.195   3.328   1.242
11476SOL    HW234455   2.313   3.398   1.332
11477SOL     OW34456   2.264   2.613   1.598
11477SOL    HW134457   2.332   2.668   1.551
11477SOL    HW234458   2.304   2.525   1.625
11478SOL     OW34459   3.449   2.641   1.670
11478SOL    HW134460   3.357   2.679   1.665
11478SOL    HW234461   3.509   2.688   1.605
11479SOL     OW34462   2.875   1.967   1.770
11479SOL    HW134463   2.881   2.052   1.718
11479SOL    HW234464   2.907   1.891   1.713
11480SOL     OW34465   2.366   1.912   1.740
11480SOL    HW134466   2.324   1.855   1.670
11480SOL    HW234467   2.300   1.981   1.772
11481SOL     OW34468   2.435   2.732   1.029
11481SOL    HW134469   2.479   2.821   1.020
11481SOL    HW234470   2.372   2.732   1.106
11482SOL     OW34471   3.222   2.724   1.045
11482SOL    HW134472   3.147   2.724   0.979
11482SOL    HW234473   3.259   2.632   1.054
11483SOL     OW34474   3.071   2.387   0.275
11483SOL    HW134475   3.084   2.303   0.329
11483SOL    HW234476   3.042   2.461   0.335
11484SOL     OW34477   2.169   2.075   1.231
11484SOL    HW134478   2.146   2.112   1.321
11484SOL    HW234479   2.139   1.980   1.225
11485SOL     OW34480   1.899   3.172   1.282
11485SOL    HW134481   1.952   3.123   1.350
11485SOL    HW234482   1.921   3.270   1.287
11486SOL     OW34483   2.594   2.496   1.064
11486SOL    HW134484   2.653   2.470   0.988
11486SOL    HW234485   2.566   2.592   1.053
11487SOL     OW34486   3.590   2.797   1.854
11487SOL    HW134487   3.544   2.790   1.765
11487SOL    HW234488   3.528   2.841   1.920
11488SOL     OW34489   2.169   1.925   0.618
11488SOL    HW134490   2.158   2.019   0.651
11488SOL    HW234491   2.164   1.862   0.695
11489SOL     OW34492   3.484   2.229   0.374
11489SOL    HW134493   3.486   2.153   0.438
11489SOL    HW234494   3.436   2.306   0.414
11490SOL     OW34495   2.885   2.628   0.966
11490SOL    HW134496   2.900   2.649   1.062
11490SOL    HW234497   2.855   2.533   0.957
11491SOL     OW34498   2.842   3.435   1.700
11491SOL    HW134499   2.822   3.479   1.612
11491SOL    HW234500   2.881   3.344   1.684
11492SOL     OW34501   3.721   3.380   1.605
11492SOL    HW134502   3.735   3.407   1.510
11492SOL    HW234503   3.804   3.402   1.658
11493SOL     OW34504   2.212   2.760   1.804
11493SOL    HW134505   2.288   2.804   1.852
11493SOL    HW234506   2.247   2.713   1.722
11494SOL     OW34507   3.402   2.136   0.125
11494SOL    HW134508   3.341   2.061   0.148
11494SOL    HW234509   3.424   2.188   0.208
11495SOL     OW34510   3.165   2.700   0.042
11495SOL    HW134511   3.199   2.607   0.057
11495SOL    HW234512   3.183   2.727  -0.053
11496SOL     OW34513   2.930   3.195   0.849
11496SOL    HW134514   2.937   3.111   0.794
11496SOL    HW234515   2.992   3.264   0.813
11497SOL     OW34516   2.181   2.672   0.949
11497SOL    HW134517   2.274   2.708   0.954
11497SOL    HW234518   2.175   2.587   1.001
11498SOL     OW34519   2.201   2.371   1.006
11498SOL    HW134520   2.149   2.288   0.989
11498SOL    HW234521   2.278   2.376   0.942
11499SOL     OW34522   3.000   2.242   1.678
11499SOL    HW134523   2.955   2.305   1.742
11499SOL    HW234524   3.093   2.273   1.661
11500SOL     OW34525   3.022   2.069   1.477
11500SOL    HW134526   3.022   2.133   1.554
11500SOL    HW234527   3.050   2.117   1.394
11501SOL     OW34528   1.870   3.188   0.200
11501SOL    HW134529   1.777   3.209   0.169
11501SOL    HW234530   1.880   3.089   0.213
11502SOL     OW34531   1.950   3.663   0.927
11502SOL    HW134532   1.908   3.577   0.900
11502SOL    HW234533   2.044   3.666   0.893
11503SOL     OW34534   2.366   3.430   0.910
11503SOL    HW134535   2.432   3.504   0.919
11503SOL    HW234536   2.410   3.351   0.868
11504SOL     OW34537   2.864   2.658   1.238
11504SOL    HW134538   2.905   2.626   1.324
11504SOL    HW234539   2.768   2.631   1.235
11505SOL     OW34540   1.902   2.406   1.114
11505SOL    HW134541   1.987   2.373   1.073
11505SOL    HW234542   1.915   2.421   1.212
11506SOL     OW34543   2.051   2.382   1.722
11506SOL    HW134544   2.110   2.342   1.652
11506SOL    HW234545   1.993   2.453   1.681
11507SOL     OW34546   3.231   2.812   1.660
11507SOL    HW134547   3.270   2.901   1.680
11507SOL    HW234548   3.241   2.792   1.563
11508SOL     OW34549   2.677   2.434   0.325
11508SOL    HW134550   2.684   2.345   0.279
11508SOL    HW234551   2.583   2.468   0.317
11509SOL     OW34552   3.519   2.466   1.206
11509SOL    HW134553   3.481   2.397   1.268
11509SOL    HW234554   3.601   2.430   1.162
11510SOL     OW34555   2.114   3.426   1.744
11510SOL    HW134556   2.084   3.483   1.820
11510SOL    HW234557   2.107   3.329   1.770
11511SOL     OW34558   2.533   2.326   1.269
11511SOL    HW134559   2.499   2.237   1.239
11511SOL    HW234560   2.559   2.380   1.189
11512SOL     OW34561   2.792   3.540   1.465
11512SOL    HW134562   2.768   3.522   1.370
11512SOL    HW234563   2.822   3.634   1.475
11513SOL     OW34564   2.335   2.362   0.191
11513SOL    HW134565   2.396   2.442   0.195
11513SOL    HW234566   2.240   2.393   0.198
11514SOL     OW34567   2.021   2.999   1.466
11514SOL    HW134568   2.043   2.938   1.542
11514SOL    HW234569   2.031   2.950   1.380
11515SOL     OW34570   3.209   2.921   1.234
11515SOL    HW134571   3.233   2.858   1.160
11515SOL    HW234572   3.119   2.961   1.216
11516SOL     OW34573   3.164   2.717   0.309
11516SOL    HW134574   3.078   2.686   0.351
11516SOL    HW234575   3.160   2.703   0.210
11517SOL     OW34576   3.621   3.609   1.154
11517SOL    HW134577   3.682   3.639   1.081
11517SOL    HW234578   3.583   3.520   1.132
11518SOL     OW34579   3.114   3.593   1.128
11518SOL    HW134580   3.198   3.598   1.074
11518SOL    HW234581   3.091   3.497   1.146
11519SOL     OW34582   1.945   3.120   1.022
11519SOL    HW134583   1.940   3.119   1.122
11519SOL    HW234584   1.862   3.079   0.984
11520SOL     OW34585   2.550   3.524   1.716
11520SOL    HW134586   2.494   3.605   1.725
11520SOL    HW234587   2.602   3.528   1.630
11521SOL     OW34588   2.765   1.948   0.133
11521SOL    HW134589   2.816   1.949   0.047
11521SOL    HW234590   2.821   1.906   0.204
11522SOL     OW34591   3.588   1.997   0.523
11522SOL    HW134592   3.661   1.980   0.456
11522SOL    HW234593   3.557   1.910   0.561
11523SOL     OW34594   3.250   3.435   0.477
11523SOL    HW134595   3.317   3.447   0.403
11523SOL    HW234596   3.210   3.524   0.500
11524SOL     OW34597   1.992   3.656   1.851
11524SOL    HW134598   1.951   3.582   1.904
11524SOL    HW234599   2.056   3.707   1.909
11525SOL     OW34600   3.142   2.789   0.672
11525SOL    HW134601   3.202   2.708   0.674
11525SOL    HW234602   3.182   2.858   0.612
11526SOL     OW34603   2.692   3.135   1.422
11526SOL    HW134604   2.687   3.168   1.517
11526SOL    HW234605   2.606   3.154   1.376
11527SOL     OW34606   2.534   3.478   0.154
11527SOL    HW134607   2.543   3.488   0.055
11527SOL    HW234608   2.494   3.389   0.175
11528SOL     OW34609   3.512   3.582   1.394
11528SOL    HW134610   3.565   3.592   1.310
11528SOL    HW234611   3.485   3.672   1.428
11529SOL     OW34612   3.703   2.037   0.963
11529SOL    HW134613   3.742   1.952   0.927
11529SOL    HW234614   3.605   2.039   0.944
11530SOL     OW34615   2.125   2.188   0.720
11530SOL    HW134616   2.046   2.239   0.686
11530SOL    HW234617   2.116   2.173   0.818
11531SOL     OW34618   3.056   3.474   0.031
11531SOL    HW134619   3.062   3.381   0.068
11531SOL    HW234620   2.997   3.474  -0.049
11532SOL     OW34621   2.684   2.864   1.372
11532SOL    HW134622   2.724   2.863   1.280
11532SOL    HW234623   2.694   2.956   1.412
11533SOL     OW34624   2.778   2.772   0.291
11533SOL    HW134625   2.841   2.810   0.223
11533SOL    HW234626   2.818   2.689   0.330
11534SOL     OW34627   3.366   3.469   0.044
11534SOL    HW134628   3.274   3.506   0.051
11534SOL    HW234629   3.404   3.489  -0.046
11535SOL     OW34630   2.234   3.150   1.490
11535SOL    HW134631   2.221   3.243   1.456
11535SOL    HW234632   2.150   3.098   1.477
11536SOL     OW34633   3.476   3.154   1.289
11536SOL    HW134634   3.536   3.157   1.369
11536SOL    HW234635   3.401   3.218   1.302
11537SOL     OW34636   2.901   2.960   0.696
11537SOL    HW134637   2.831   2.913   0.750
11537SOL    HW234638   2.960   2.892   0.653
11538SOL     OW34639   2.876   2.098   0.971
11538SOL    HW134640   2.868   2.062   0.878
11538SOL    HW234641   2.874   2.022   1.036
11539SOL     OW34642   2.452   3.349   0.491
11539SOL    HW134643   2.494   3.291   0.421
11539SOL    HW234644   2.408   3.428   0.447
11540SOL     OW34645   3.571   2.247   1.381
11540SOL    HW134646   3.644   2.316   1.385
11540SOL    HW234647   3.599   2.172   1.322
11541SOL     OW34648   2.117   3.210   0.290
11541SOL    HW134649   2.021   3.211   0.263
11541SOL    HW234650   2.129   3.263   0.374
11542SOL     OW34651   1.967   2.875   1.726
11542SOL    HW134652   1.890   2.842   1.780
11542SOL    HW234653   2.052   2.845   1.768
11543SOL     OW34654   2.534   2.065   1.489
11543SOL    HW134655   2.624   2.049   1.449
11543SOL    HW234656   2.542   2.070   1.588
11544SOL     OW34657   3.302   2.718   1.398
11544SOL    HW134658   3.245   2.770   1.335
11544SOL    HW234659   3.398   2.730   1.374
11545SOL     OW34660   1.934   2.028   0.318
11545SOL    HW134661   1.917   2.111   0.264
11545SOL    HW234662   2.024   1.991   0.296
11546SOL     OW34663   3.045   3.197   0.119
11546SOL    HW134664   2.946   3.186   0.121
11546SOL    HW234665   3.079   3.212   0.212
11547SOL     OW34666   2.475   2.704   1.431
11547SOL    HW134667   2.531   2.785   1.414
11547SOL    HW234668   2.534   2.624   1.434
11548SOL     OW34669   3.355   3.629   0.959
11548SOL    HW134670   3.388   3.693   0.890
11548SOL    HW234671   3.421   3.623   1.034
11549SOL     OW34672   2.578   2.427   1.708
11549SOL    HW134673   2.597   2.492   1.782
11549SOL    HW234674   2.638   2.347   1.717
11550SOL     OW34675   3.312   3.082   1.633
11550SOL    HW134676   3.303   3.072   1.732
11550SOL    HW234677   3.408   3.075   1.607
11551SOL     OW34678   2.252   3.603   1.560
11551SOL    HW134679   2.161   3.644   1.558
11551SOL    HW234680   2.245   3.509   1.592
11552SOL     OW34681   3.536   2.745   1.254
11552SOL    HW134682   3.509   2.656   1.217
11552SOL    HW234683   3.537   2.813   1.181
11553SOL     OW34684   3.087   2.187   0.449
11553SOL    HW134685   3.152   2.113   0.438
11553SOL    HW234686   3.107   2.237   0.533
11554SOL     OW34687   2.456   2.607   0.652
11554SOL    HW134688   2.506   2.692   0.633
11554SOL    HW234689   2.368   2.609   0.604
11555SOL     OW34690   3.639   2.204   1.642
11555SOL    HW134691   3.622   2.235   1.548
11555SOL    HW234692   3.555   2.167   1.680
11556SOL     OW34693   3.592   2.796   1.517
11556SOL    HW134694   3.630   2.887   1.532
11556SOL    HW234695   3.584   2.779   1.418
11557SOL     OW34696   2.721   3.236   0.016
11557SOL    HW134697   2.675   3.251   0.104
11557SOL    HW234698   2.765   3.321  -0.014
11558SOL     OW34699   2.523   3.652   0.953
11558SOL    HW134700   2.477   3.740   0.940
11558SOL    HW234701   2.622   3.664   0.946
11559SOL     OW34702   2.721   2.818   0.861
11559SOL    HW134703   2.775   2.749   0.909
11559SOL    HW234704   2.689   2.887   0.927
11560SOL     OW34705   2.945   2.846   0.087
11560SOL    HW134706   2.922   2.899   0.005
11560SOL    HW234707   3.026   2.790   0.068
11561SOL     OW34708   3.723   3.431   0.851
11561SOL    HW134709   3.652   3.419   0.781
11561SOL    HW234710   3.724   3.352   0.911
11562SOL     OW34711   2.083   3.176   1.844
11562SOL    HW134712   2.018   3.103   1.823
11562SOL    HW234713   2.087   3.190   1.942
11563SOL     OW34714   1.941   3.102   0.653
11563SOL    HW134715   1.940   3.055   0.741
11563SOL    HW234716   2.023   3.074   0.602
11564SOL     OW34717   2.534   3.253   1.624
11564SOL    HW134718   2.456   3.203   1.662
11564SOL    HW234719   2.531   3.348   1.655
11565SOL     OW34720   3.686   2.054   1.227
11565SOL    HW134721   3.682   1.964   1.271
11565SOL    HW234722   3.689   2.043   1.128
11566SOL     OW34723   2.290   2.286   0.520
11566SOL    HW134724   2.320   2.214   0.458
11566SOL    HW234725   2.251   2.246   0.603
11567SOL     OW34726   3.567   3.349   1.104
11567SOL    HW134727   3.474   3.324   1.077
11567SOL    HW234728   3.593   3.299   1.186
11568SOL     OW34729   2.179   2.409   1.280
11568SOL    HW134730   2.217   2.350   1.352
11568SOL    HW234731   2.219   2.383   1.192
11569SOL     OW34732   2.674   3.448   0.687
11569SOL    HW134733   2.706   3.458   0.593
11569SOL    HW234734   2.595   3.386   0.689
11570SOL     OW34735   3.286   2.076   1.112
11570SOL    HW134736   3.338   2.011   1.167
11570SOL    HW234737   3.237   2.139   1.173
11571SOL     OW34738   2.863   1.896   1.154
11571SOL    HW134739   2.800   1.824   1.123
11571SOL    HW234740   2.956   1.860   1.154
11572SOL     OW34741   2.632   3.192   0.301
11572SOL    HW134742   2.586   3.105   0.318
11572SOL    HW234743   2.723   3.189   0.342
11573SOL     OW34744   2.480   3.429   1.284
11573SOL    HW134745   2.475   3.511   1.341
11573SOL    HW234746   2.569   3.426   1.239
11574SOL     OW34747   3.214   1.914   0.168
11574SOL    HW134748   3.249   1.873   0.084
11574SOL    HW234749   3.124   1.876   0.188
11575SOL     OW34750   3.162   2.315   0.691
11575SOL    HW134751   3.103   2.395   0.695
11575SOL    HW234752   3.177   2.280   0.784
11576SOL     OW34753   3.455   2.083   0.882
11576SOL    HW134754   3.371   2.082   0.936
11576SOL    HW234755   3.457   2.166   0.826
11577SOL     OW34756   1.901   2.939   0.300
11577SOL    HW134757   2.000   2.928   0.291
11577SOL    HW234758   1.861   2.853   0.332
11578SOL     OW34759   2.737   3.508   0.337
11578SOL    HW134760   2.660   3.473   0.283
11578SOL    HW234761   2.705   3.579   0.399
11579SOL     OW34762   2.092   2.490   1.975
11579SOL    HW134763   1.999   2.488   2.012
11579SOL    HW234764   2.093   2.451   1.883
11580SOL     OW34765   2.087   2.137   2.858
11580SOL    HW134766   2.122   2.120   2.950
11580SOL    HW234767   1.999   2.092   2.846
11581SOL     OW34768   1.881   2.230   2.509
11581SOL    HW134769   1.799   2.273   2.548
11581SOL    HW234770   1.853   2.157   2.446
11582SOL     OW34771   2.431   3.137   3.027
11582SOL    HW134772   2.338   3.130   2.990
11582SOL    HW234773   2.442   3.226   3.071
11583SOL     OW34774   3.417   3.373   2.565
11583SOL    HW134775   3.360   3.357   2.646
11583SOL    HW234776   3.358   3.383   2.485
11584SOL     OW34777   2.997   2.565   2.579
11584SOL    HW134778   3.054   2.643   2.554
11584SOL    HW234779   2.937   2.591   2.655
11585SOL     OW34780   3.617   2.469   2.093
11585SOL    HW134781   3.605   2.456   1.994
11585SOL    HW234782   3.587   2.388   2.142
11586SOL     OW34783   2.630   3.006   2.885
11586SOL    HW134784   2.552   3.023   2.945
11586SOL    HW234785   2.664   3.093   2.849
11587SOL     OW34786   2.712   2.660   3.685
11587SOL    HW134787   2.708   2.736   3.750
11587SOL    HW234788   2.734   2.696   3.594
11588SOL     OW34789   2.547   2.874   2.527
11588SOL    HW134790   2.616   2.858   2.597
11588SOL    HW234791   2.474   2.931   2.565
11589SOL     OW34792   2.548   3.023   3.665
11589SOL    HW134793   2.608   3.102   3.679
11589SOL    HW234794   2.462   3.054   3.624
11590SOL     OW34795   2.197   3.297   2.923
11590SOL    HW134796   2.119   3.266   2.870
11590SOL    HW234797   2.255   3.355   2.866
11591SOL     OW34798   3.322   3.367   3.201
11591SOL    HW134799   3.346   3.461   3.227
11591SOL    HW234800   3.306   3.313   3.283
11592SOL     OW34801   2.300   2.254   3.361
11592SOL    HW134802   2.382   2.198   3.370
11592SOL    HW234803   2.219   2.196   3.365
11593SOL     OW34804   3.465   2.309   2.599
11593SOL    HW134805   3.391   2.355   2.549
11593SOL    HW234806   3.516   2.377   2.652
11594SOL     OW34807   2.093   3.575   2.345
11594SOL    HW134808   2.127   3.652   2.399
11594SOL    HW234809   2.137   3.575   2.255
11595SOL     OW34810   2.989   3.203   3.552
11595SOL    HW134811   3.036   3.203   3.640
11595SOL    HW234812   2.941   3.116   3.541
11596SOL     OW34813   2.092   3.296   2.400
11596SOL    HW134814   2.066   3.392   2.400
11596SOL    HW234815   2.021   3.242   2.445
11597SOL     OW34816   2.102   2.953   2.748
11597SOL    HW134817   2.116   2.869   2.800
11597SOL    HW234818   2.047   3.017   2.803
11598SOL     OW34819   2.482   3.648   3.301
11598SOL    HW134820   2.390   3.631   3.336
11598SOL    HW234821   2.510   3.740   3.327
11599SOL     OW34822   2.468   2.826   1.985
11599SOL    HW134823   2.475   2.910   1.931
11599SOL    HW234824   2.514   2.839   2.073
11600SOL     OW34825   3.456   1.976   3.342
11600SOL    HW134826   3.438   2.043   3.270
11600SOL    HW234827   3.453   2.022   3.431
11601SOL     OW34828   1.984   2.505   2.425
11601SOL    HW134829   1.939   2.417   2.442
11601SOL    HW234830   1.983   2.559   2.509
11602SOL     OW34831   3.704   3.629   2.221
11602SOL    HW134832   3.758   3.600   2.301
11602SOL    HW234833   3.734   3.719   2.192
11603SOL     OW34834   1.889   3.458   1.979
11603SOL    HW134835   1.870   3.362   2.000
11603SOL    HW234836   1.856   3.516   2.054
11604SOL     OW34837   3.551   2.784   2.474
11604SOL    HW134838   3.646   2.755   2.482
11604SOL    HW234839   3.543   2.849   2.399
11605SOL     OW34840   3.503   2.970   2.294
11605SOL    HW134841   3.589   2.972   2.242
11605SOL    HW234842   3.517   3.017   2.382
11606SOL     OW34843   1.975   2.599   3.459
11606SOL    HW134844   2.063   2.586   3.504
11606SOL    HW234845   1.962   2.696   3.437
11607SOL     OW34846   2.475   3.227   2.588
11607SOL    HW134847   2.426   3.140   2.597
11607SOL    HW234848   2.452   3.270   2.501
11608SOL     OW34849   3.155   3.090   3.285
11608SOL    HW134850   3.192   3.017   3.227
11608SOL    HW234851   3.207   3.095   3.370
11609SOL     OW34852   2.671   1.866   2.364
11609SOL    HW134853   2.711   1.957   2.355
11609SOL    HW234854   2.571   1.874   2.370
11610SOL     OW34855   2.059   2.838   3.126
11610SOL    HW134856   2.148   2.793   3.112
11610SOL    HW234857   1.986   2.773   3.107
11611SOL     OW34858   3.387   2.861   2.052
11611SOL    HW134859   3.324   2.785   2.065
11611SOL    HW234860   3.435   2.879   2.138
11612SOL     OW34861   3.049   3.654   3.478
11612SOL    HW134862   3.073   3.714   3.402
11612SOL    HW234863   3.056   3.559   3.448
11613SOL     OW34864   2.179   2.113   3.663
11613SOL    HW134865   2.250   2.184   3.669
11613SOL    HW234866   2.091   2.152   3.691
11614SOL     OW34867   3.328   3.279   2.815
11614SOL    HW134868   3.269   3.285   2.895
11614SOL    HW234869   3.313   3.191   2.769
11615SOL     OW34870   3.529   3.576   2.434
11615SOL    HW134871   3.488   3.553   2.346
11615SOL    HW234872   3.511   3.502   2.499
11616SOL     OW34873   2.460   2.591   2.132
11616SOL    HW134874   2.484   2.660   2.064
11616SOL    HW234875   2.382   2.624   2.186
11617SOL     OW34876   3.143   2.207   2.806
11617SOL    HW134877   3.057   2.157   2.793
11617SOL    HW234878   3.205   2.153   2.862
11618SOL     OW34879   3.438   3.524   2.169
11618SOL    HW134880   3.527   3.570   2.172
11618SOL    HW234881   3.417   3.500   2.074
11619SOL     OW34882   2.669   2.467   3.327
11619SOL    HW134883   2.622   2.464   3.416
11619SOL    HW234884   2.618   2.412   3.261
11620SOL     OW34885   3.256   2.331   3.536
11620SOL    HW134886   3.236   2.374   3.624
11620SOL    HW234887   3.334   2.269   3.545
11621SOL     OW34888   2.835   2.752   3.434
11621SOL    HW134889   2.881   2.668   3.405
11621SOL    HW234890   2.779   2.786   3.359
11622SOL     OW34891   2.853   2.272   3.104
11622SOL    HW134892   2.776   2.306   3.158
11622SOL    HW234893   2.819   2.221   3.025
11623SOL     OW34894   2.903   2.563   2.291
11623SOL    HW134895   2.929   2.559   2.387
11623SOL    HW234896   2.818   2.512   2.277
11624SOL     OW34897   1.938   2.673   2.651
11624SOL    HW134898   2.037   2.661   2.660
11624SOL    HW234899   1.914   2.768   2.672
11625SOL     OW34900   1.992   3.683   3.433
11625SOL    HW134901   1.982   3.668   3.532
11625SOL    HW234902   1.906   3.719   3.397
11626SOL     OW34903   2.727   2.210   2.057
11626SOL    HW134904   2.786   2.273   2.008
11626SOL    HW234905   2.746   2.116   2.028
11627SOL     OW34906   3.581   2.447   3.693
11627SOL    HW134907   3.555   2.536   3.657
11627SOL    HW234908   3.579   2.379   3.620
11628SOL     OW34909   3.224   3.006   2.407
11628SOL    HW134910   3.307   2.977   2.359
11628SOL    HW234911   3.175   3.073   2.351
11629SOL     OW34912   2.412   2.058   2.747
11629SOL    HW134913   2.407   2.053   2.847
11629SOL    HW234914   2.414   2.154   2.718
11630SOL     OW34915   2.870   3.318   2.339
11630SOL    HW134916   2.824   3.390   2.287
11630SOL    HW234917   2.866   3.338   2.437
11631SOL     OW34918   2.213   3.663   2.715
11631SOL    HW134919   2.263   3.577   2.721
11631SOL    HW234920   2.278   3.740   2.712
11632SOL     OW34921   3.657   2.928   2.735
11632SOL    HW134922   3.595   2.913   2.659
11632SOL    HW234923   3.605   2.939   2.820
11633SOL     OW34924   3.089   3.412   3.368
11633SOL    HW134925   3.095   3.335   3.432
11633SOL    HW234926   3.037   3.386   3.288
11634SOL     OW34927   2.183   2.805   2.104
11634SOL    HW134928   2.265   2.844   2.062
11634SOL    HW234929   2.156   2.723   2.055
11635SOL     OW34930   3.320   2.597   2.590
11635SOL    HW134931   3.315   2.532   2.665
11635SOL    HW234932   3.400   2.656   2.603
11636SOL     OW34933   2.323   3.128   3.589
11636SOL    HW134934   2.273   3.129   3.503
11636SOL    HW234935   2.260   3.110   3.665
11637SOL     OW34936   2.973   3.638   2.099
11637SOL    HW134937   2.913   3.576   2.149
11637SOL    HW234938   3.004   3.594   2.014
11638SOL     OW34939   2.064   2.147   3.360
11638SOL    HW134940   1.984   2.207   3.347
11638SOL    HW234941   2.054   2.098   3.446
11639SOL     OW34942   3.494   3.239   1.943
11639SOL    HW134943   3.462   3.333   1.933
11639SOL    HW234944   3.418   3.176   1.931
11640SOL     OW34945   2.326   3.605   2.185
11640SOL    HW134946   2.359   3.644   2.271
11640SOL    HW234947   2.402   3.598   2.120
11641SOL     OW34948   3.262   1.969   2.288
11641SOL    HW134949   3.238   1.932   2.198
11641SOL    HW234950   3.361   1.985   2.292
11642SOL     OW34951   2.111   3.647   3.103
11642SOL    HW134952   2.168   3.582   3.153
11642SOL    HW234953   2.095   3.614   3.010
11643SOL     OW34954   2.802   3.560   2.766
11643SOL    HW134955   2.882   3.503   2.787
11643SOL    HW234956   2.753   3.520   2.689
11644SOL     OW34957   2.244   2.562   2.342
11644SOL    HW134958   2.289   2.472   2.339
11644SOL    HW234959   2.150   2.551   2.375
11645SOL     OW34960   3.409   2.084   3.591
11645SOL    HW134961   3.404   2.121   3.683
11645SOL    HW234962   3.337   2.015   3.579
11646SOL     OW34963   2.476   1.984   1.979
11646SOL    HW134964   2.574   1.962   1.986
11646SOL    HW234965   2.445   1.967   1.886
11647SOL     OW34966   2.643   2.126   3.611
11647SOL    HW134967   2.710   2.065   3.654
11647SOL    HW234968   2.570   2.145   3.676
11648SOL     OW34969   2.750   3.376   3.057
11648SOL    HW134970   2.727   3.351   2.963
11648SOL    HW234971   2.811   3.307   3.096
11649SOL     OW34972   3.213   2.452   3.295
11649SOL    HW134973   3.241   2.409   3.380
11649SOL    HW234974   3.238   2.548   3.296
11650SOL     OW34975   2.665   3.264   2.786
11650SOL    HW134976   2.755   3.278   2.744
11650SOL    HW234977   2.594   3.266   2.715
11651SOL     OW34978   2.784   2.365   2.761
11651SOL    HW134979   2.759   2.356   2.665
11651SOL    HW234980   2.832   2.283   2.792
11652SOL     OW34981   2.401   1.926   2.374
11652SOL    HW134982   2.320   1.927   2.432
11652SOL    HW234983   2.404   2.009   2.319
11653SOL     OW34984   3.296   3.050   1.903
11653SOL    HW134985   3.328   2.974   1.960
11653SOL    HW234986   3.204   3.077   1.933
11654SOL     OW34987   2.159   1.897   2.033
11654SOL    HW134988   2.208   1.981   2.012
11654SOL    HW234989   2.221   1.832   2.078
11655SOL     OW34990   2.797   2.098   2.342
11655SOL    HW134991   2.749   2.139   2.264
11655SOL    HW234992   2.896   2.096   2.323
11656SOL     OW34993   2.938   2.545   3.326
11656SOL    HW134994   2.858   2.484   3.329
11656SOL    HW234995   3.019   2.492   3.302
11657SOL     OW34996   3.089   3.432   2.655
11657SOL    HW134997   3.110   3.506   2.590
11657SOL    HW234998   3.157   3.432   2.728
11658SOL     OW34999   2.321   3.014   2.603
11658SOL    HW135000   2.250   2.987   2.668
11658SOL    HW235001   2.295   2.986   2.510
11659SOL     OW35002   3.133   3.659   2.453
11659SOL    HW135003   3.177   3.723   2.389
11659SOL    HW235004   3.083   3.711   2.523
11660SOL     OW35005   2.894   2.411   1.878
11660SOL    HW135006   2.853   2.493   1.839
11660SOL    HW235007   2.958   2.437   1.951
11661SOL     OW35008   1.940   2.418   3.248
11661SOL    HW135009   2.032   2.417   3.207
11661SOL    HW235010   1.934   2.492   3.315
11662SOL     OW35011   2.423   2.084   3.009
11662SOL    HW135012   2.461   2.000   3.046
11662SOL    HW235013   2.335   2.103   3.053
11663SOL     OW35014   2.728   2.316   2.504
11663SOL    HW135015   2.696   2.388   2.442
11663SOL    HW235016   2.752   2.235   2.451
11664SOL     OW35017   2.879   1.901   2.615
11664SOL    HW135018   2.807   1.906   2.546
11664SOL    HW235019   2.855   1.832   2.684
11665SOL     OW35020   3.291   3.035   2.729
11665SOL    HW135021   3.236   2.951   2.722
11665SOL    HW235022   3.317   3.064   2.637
11666SOL     OW35023   3.328   2.452   2.854
11666SOL    HW135024   3.298   2.357   2.861
11666SOL    HW235025   3.401   2.468   2.920
11667SOL     OW35026   3.719   2.695   2.239
11667SOL    HW135027   3.761   2.631   2.303
11667SOL    HW235028   3.681   2.644   2.161
11668SOL     OW35029   2.350   3.247   2.036
11668SOL    HW135030   2.263   3.232   2.083
11668SOL    HW235031   2.333   3.273   1.941
11669SOL     OW35032   3.526   3.142   2.519
11669SOL    HW135033   3.625   3.150   2.533
11669SOL    HW235034   3.481   3.226   2.550
11670SOL     OW35035   3.252   2.437   1.940
11670SOL    HW135036   3.198   2.416   2.021
11670SOL    HW235037   3.343   2.396   1.949
11671SOL     OW35038   2.389   2.118   2.190
11671SOL    HW135039   2.416   2.059   2.115
11671SOL    HW235040   2.389   2.213   2.159
11672SOL     OW35041   3.616   3.085   3.450
11672SOL    HW135042   3.707   3.046   3.437
11672SOL    HW235043   3.624   3.181   3.474
11673SOL     OW35044   2.926   3.209   3.202
11673SOL    HW135045   2.846   3.186   3.257
11673SOL    HW235046   3.009   3.183   3.251
11674SOL     OW35047   3.454   3.491   3.487
11674SOL    HW135048   3.481   3.525   3.397
11674SOL    HW235049   3.533   3.453   3.533
11675SOL     OW35050   2.973   3.057   2.962
11675SOL    HW135051   2.933   3.101   3.043
11675SOL    HW235052   2.932   3.094   2.879
11676SOL     OW35053   3.500   2.961   2.941
11676SOL    HW135054   3.505   3.042   3.000
11676SOL    HW235055   3.414   2.963   2.890
11677SOL     OW35056   2.777   1.951   3.264
11677SOL    HW135057   2.802   1.931   3.169
11677SOL    HW235058   2.849   2.007   3.306
11678SOL     OW35059   2.842   2.978   3.581
11678SOL    HW135060   2.743   2.984   3.591
11678SOL    HW235061   2.865   2.898   3.525
11679SOL     OW35062   2.567   2.912   2.230
11679SOL    HW135063   2.553   2.919   2.329
11679SOL    HW235064   2.651   2.861   2.212
11680SOL     OW35065   2.272   2.675   3.113
11680SOL    HW135066   2.358   2.687   3.163
11680SOL    HW235067   2.230   2.588   3.140
11681SOL     OW35068   3.136   2.248   3.124
11681SOL    HW135069   3.157   2.322   3.188
11681SOL    HW235070   3.047   2.265   3.081
11682SOL     OW35071   1.926   3.426   3.193
11682SOL    HW135072   1.880   3.508   3.159
11682SOL    HW235073   2.024   3.445   3.202
11683SOL     OW35074   2.229   2.962   2.363
11683SOL    HW135075   2.222   3.045   2.307
11683SOL    HW235076   2.233   2.882   2.303
11684SOL     OW35077   2.428   2.399   2.727
11684SOL    HW135078   2.440   2.465   2.653
11684SOL    HW235079   2.474   2.433   2.810
11685SOL     OW35080   3.114   3.210   2.250
11685SOL    HW135081   3.164   3.287   2.290
11685SOL    HW235082   3.019   3.212   2.282
11686SOL     OW35083   3.134   3.307   3.004
11686SOL    HW135084   3.181   3.320   3.091
11686SOL    HW235085   3.068   3.233   3.013
11687SOL     OW35086   3.444   2.501   2.334
11687SOL    HW135087   3.413   2.562   2.407
11687SOL    HW235088   3.494   2.553   2.265
11688SOL     OW35089   2.216   3.372   3.191
11688SOL    HW135090   2.195   3.328   3.104
11688SOL    HW235091   2.313   3.398   3.194
11689SOL     OW35092   2.264   2.613   3.460
11689SOL    HW135093   2.332   2.668   3.413
11689SOL    HW235094   2.304   2.525   3.487
11690SOL     OW35095   3.449   2.641   3.532
11690SOL    HW135096   3.357   2.679   3.527
11690SOL    HW235097   3.509   2.688   3.467
11691SOL     OW35098   2.875   1.967   3.632
11691SOL    HW135099   2.881   2.052   3.580
11691SOL    HW235100   2.907   1.891   3.575
11692SOL     OW35101   2.366   1.912   3.602
11692SOL    HW135102   2.324   1.855   3.532
11692SOL    HW235103   2.300   1.981   3.634
11693SOL     OW35104   2.435   2.732   2.891
11693SOL    HW135105   2.479   2.821   2.882
11693SOL    HW235106   2.372   2.732   2.968
11694SOL     OW35107   3.222   2.724   2.907
11694SOL    HW135108   3.147   2.724   2.841
11694SOL    HW235109   3.259   2.632   2.916
11695SOL     OW35110   3.071   2.387   2.137
11695SOL    HW135111   3.084   2.303   2.191
11695SOL    HW235112   3.042   2.461   2.197
11696SOL     OW35113   2.169   2.075   3.093
11696SOL    HW135114   2.146   2.112   3.183
11696SOL    HW235115   2.139   1.980   3.087
11697SOL     OW35116   1.899   3.172   3.144
11697SOL    HW135117   1.952   3.123   3.212
11697SOL    HW235118   1.921   3.270   3.149
11698SOL     OW35119   2.594   2.496   2.926
11698SOL    HW135120   2.653   2.470   2.850
11698SOL    HW235121   2.566   2.592   2.915
11699SOL     OW35122   3.590   2.797   3.716
11699SOL    HW135123   3.544   2.790   3.627
11699SOL    HW235124   3.528   2.841   3.782
11700SOL     OW35125   2.169   1.925   2.480
11700SOL    HW135126   2.158   2.019   2.513
11700SOL    HW235127   2.164   1.862   2.557
11701SOL     OW35128   3.484   2.229   2.236
11701SOL    HW135129   3.486   2.153   2.300
11701SOL    HW235130   3.436   2.306   2.276
11702SOL     OW35131   2.885   2.628   2.828
11702SOL    HW135132   2.900   2.649   2.924
11702SOL    HW235133   2.855   2.533   2.819
11703SOL     OW35134   2.842   3.435   3.562
11703SOL    HW135135   2.822   3.479   3.474
11703SOL    HW235136   2.881   3.344   3.546
11704SOL     OW35137   3.721   3.380   3.467
11704SOL    HW135138   3.735   3.407   3.372
11704SOL    HW235139   3.804   3.402   3.520
11705SOL     OW35140   2.212   2.760   3.666
11705SOL    HW135141   2.288   2.804   3.714
11705SOL    HW235142   2.247   2.713   3.584
11706SOL     OW35143   3.402   2.136   1.987
11706SOL    HW135144   3.341   2.061   2.010
11706SOL    HW235145   3.424   2.188   2.070
11707SOL     OW35146   3.165   2.700   1.904
11707SOL    HW135147   3.199   2.607   1.919
11707SOL    HW235148   3.183   2.727   1.809
11708SOL     OW35149   2.930   3.195   2.711
11708SOL    HW135150   2.937   3.111   2.656
11708SOL    HW235151   2.992   3.264   2.675
11709SOL     OW35152   2.181   2.672   2.811
11709SOL    HW135153   2.274   2.708   2.816
11709SOL    HW235154   2.175   2.587   2.863
11710SOL     OW35155   2.201   2.371   2.868
11710SOL    HW135156   2.149   2.288   2.851
11710SOL    HW235157   2.278   2.376   2.804
11711SOL     OW35158   3.000   2.242   3.540
11711SOL    HW135159   2.955   2.305   3.604
11711SOL    HW235160   3.093   2.273   3.523
11712SOL     OW35161   3.022   2.069   3.339
11712SOL    HW135162   3.022   2.133   3.416
11712SOL    HW235163   3.050   2.117   3.256
11713SOL     OW35164   1.870   3.188   2.062
11713SOL    HW135165   1.777   3.209   2.031
11713SOL    HW235166   1.880   3.089   2.075
11714SOL     OW35167   1.950   3.663   2.789
11714SOL    HW135168   1.908   3.577   2.762
11714SOL    HW235169   2.044   3.666   2.755
11715SOL     OW35170   2.366   3.430   2.772
11715SOL    HW135171   2.432   3.504   2.781
11715SOL    HW235172   2.410   3.351   2.730
11716SOL     OW35173   2.864   2.658   3.100
11716SOL    HW135174   2.905   2.626   3.186
11716SOL    HW235175   2.768   2.631   3.097
11717SOL     OW35176   1.902   2.406   2.976
11717SOL    HW135177   1.987   2.373   2.935
11717SOL    HW235178   1.915   2.421   3.074
11718SOL     OW35179   2.051   2.382   3.584
11718SOL    HW135180   2.110   2.342   3.514
11718SOL    HW235181   1.993   2.453   3.543
11719SOL     OW35182   3.231   2.812   3.522
11719SOL    HW135183   3.270   2.901   3.542
11719SOL    HW235184   3.241   2.792   3.425
11720SOL     OW35185   2.677   2.434   2.187
11720SOL    HW135186   2.684   2.345   2.141
11720SOL    HW235187   2.583   2.468   2.179
11721SOL     OW35188   3.519   2.466   3.068
11721SOL    HW135189   3.481   2.397   3.130
11721SOL    HW235190   3.601   2.430   3.024
11722SOL     OW35191   2.114   3.426   3.606
11722SOL    HW135192   2.084   3.483   3.682
11722SOL    HW235193   2.107   3.329   3.632
11723SOL     OW35194   2.533   2.326   3.131
11723SOL    HW135195   2.499   2.237   3.101
11723SOL    HW235196   2.559   2.380   3.051
11724SOL     OW35197   2.792   3.540   3.327
11724SOL    HW135198   2.768   3.522   3.232
11724SOL    HW235199   2.822   3.634   3.337
11725SOL     OW35200   2.335   2.362   2.053
11725SOL    HW135201   2.396   2.442   2.057
11725SOL    HW235202   2.240   2.393   2.060
11726SOL     OW35203   2.021   2.999   3.328
11726SOL    HW135204   2.043   2.938   3.404
11726SOL    HW235205   2.031   2.950   3.242
11727SOL     OW35206   3.209   2.921   3.096
11727SOL    HW135207   3.233   2.858   3.022
11727SOL    HW235208   3.119   2.961   3.078
11728SOL     OW35209   3.164   2.717   2.171
11728SOL    HW135210   3.078   2.686   2.213
11728SOL    HW235211   3.160   2.703   2.072
11729SOL     OW35212   3.621   3.609   3.016
11729SOL    HW135213   3.682   3.639   2.943
11729SOL    HW235214   3.583   3.520   2.994
11730SOL     OW35215   3.114   3.593   2.990
11730SOL    HW135216   3.198   3.598   2.936
11730SOL    HW235217   3.091   3.497   3.008
11731SOL     OW35218   1.945   3.120   2.884
11731SOL    HW135219   1.940   3.119   2.984
11731SOL    HW235220   1.862   3.079   2.846
11732SOL     OW35221   2.550   3.524   3.578
11732SOL    HW135222   2.494   3.605   3.587
11732SOL    HW235223   2.602   3.528   3.492
11733SOL     OW35224   3.588   1.997   2.385
11733SOL    HW135225   3.661   1.980   2.318
11733SOL    HW235226   3.557   1.910   2.423
11734SOL     OW35227   3.250   3.435   2.339
11734SOL    HW135228   3.317   3.447   2.265
11734SOL    HW235229   3.210   3.524   2.362
11735SOL     OW35230   1.992   3.656   3.713
11735SOL    HW135231   1.951   3.582   3.766
11735SOL    HW235232   2.056   3.707   3.771
11736SOL     OW35233   3.142   2.789   2.534
11736SOL    HW135234   3.202   2.708   2.536
11736SOL    HW235235   3.182   2.858   2.474
11737SOL     OW35236   2.692   3.135   3.284
11737SOL    HW135237   2.687   3.168   3.379
11737SOL    HW235238   2.606   3.154   3.238
11738SOL     OW35239   2.534   3.478   2.016
11738SOL    HW135240   2.543   3.488   1.917
11738SOL    HW235241   2.494   3.389   2.037
11739SOL     OW35242   3.512   3.582   3.256
11739SOL    HW135243   3.565   3.592   3.172
11739SOL    HW235244   3.485   3.672   3.290
11740SOL     OW35245   3.703   2.037   2.825
11740SOL    HW135246   3.742   1.952   2.789
11740SOL    HW235247   3.605   2.039   2.806
11741SOL     OW35248   2.125   2.188   2.582
11741SOL    HW135249   2.046   2.239   2.548
11741SOL    HW235250   2.116   2.173   2.680
11742SOL     OW35251   3.056   3.474   1.893
11742SOL    HW135252   3.062   3.381   1.930
11742SOL    HW235253   2.997   3.474   1.813
11743SOL     OW35254   2.684   2.864   3.234
11743SOL    HW135255   2.724   2.863   3.142
11743SOL    HW235256   2.694   2.956   3.274
11744SOL     OW35257   2.778   2.772   2.153
11744SOL    HW135258   2.841   2.810   2.085
11744SOL    HW235259   2.818   2.689   2.192
11745SOL     OW35260   3.366   3.469   1.906
11745SOL    HW135261   3.274   3.506   1.913
11745SOL    HW235262   3.404   3.489   1.816
11746SOL     OW35263   2.234   3.150   3.352
11746SOL    HW135264   2.221   3.243   3.318
11746SOL    HW235265   2.150   3.098   3.339
11747SOL     OW35266   3.476   3.154   3.151
11747SOL    HW135267   3.536   3.157   3.231
11747SOL    HW235268   3.401   3.218   3.164
11748SOL     OW35269   2.901   2.960   2.558
11748SOL    HW135270   2.831   2.913   2.612
11748SOL    HW235271   2.960   2.892   2.515
11749SOL     OW35272   2.876   2.098   2.833
11749SOL    HW135273   2.868   2.062   2.740
11749SOL    HW235274   2.874   2.022   2.898
11750SOL     OW35275   2.452   3.349   2.353
11750SOL    HW135276   2.494   3.291   2.283
11750SOL    HW235277   2.408   3.428   2.309
11751SOL     OW35278   3.571   2.247   3.243
11751SOL    HW135279   3.644   2.316   3.247
11751SOL    HW235280   3.599   2.172   3.184
11752SOL     OW35281   2.117   3.210   2.152
11752SOL    HW135282   2.021   3.211   2.125
11752SOL    HW235283   2.129   3.263   2.236
11753SOL     OW35284   1.967   2.875   3.588
11753SOL    HW135285   1.890   2.842   3.642
11753SOL    HW235286   2.052   2.845   3.630
11754SOL     OW35287   2.534   2.065   3.351
11754SOL    HW135288   2.624   2.049   3.311
11754SOL    HW235289   2.542   2.070   3.450
11755SOL     OW35290   1.937   2.207   1.895
11755SOL    HW135291   1.845   2.179   1.866
11755SOL    HW235292   1.968   2.284   1.839
11756SOL     OW35293   3.302   2.718   3.260
11756SOL    HW135294   3.245   2.770   3.197
11756SOL    HW235295   3.398   2.730   3.236
11757SOL     OW35296   1.934   2.028   2.180
11757SOL    HW135297   1.917   2.111   2.126
11757SOL    HW235298   2.024   1.991   2.158
11758SOL     OW35299   3.045   3.197   1.981
11758SOL    HW135300   2.946   3.186   1.983
11758SOL    HW235301   3.079   3.212   2.074
11759SOL     OW35302   2.475   2.704   3.293
11759SOL    HW135303   2.531   2.785   3.276
11759SOL    HW235304   2.534   2.624   3.296
11760SOL     OW35305   3.355   3.629   2.821
11760SOL    HW135306   3.388   3.693   2.752
11760SOL    HW235307   3.421   3.623   2.896
11761SOL     OW35308   2.578   2.427   3.570
11761SOL    HW135309   2.597   2.492   3.644
11761SOL    HW235310   2.638   2.347   3.579
11762SOL     OW35311   3.312   3.082   3.495
11762SOL    HW135312   3.303   3.072   3.594
11762SOL    HW235313   3.408   3.075   3.469
11763SOL     OW35314   2.252   3.603   3.422
11763SOL    HW135315   2.161   3.644   3.420
11763SOL    HW235316   2.245   3.509   3.454
11764SOL     OW35317   3.536   2.745   3.116
11764SOL    HW135318   3.509   2.656   3.079
11764SOL    HW235319   3.537   2.813   3.043
11765SOL     OW35320   3.087   2.187   2.311
11765SOL    HW135321   3.152   2.113   2.300
11765SOL    HW235322   3.107   2.237   2.395
11766SOL     OW35323   2.456   2.607   2.514
11766SOL    HW135324   2.506   2.692   2.495
11766SOL    HW235325   2.368   2.609   2.466
11767SOL     OW35326   3.639   2.204   3.504
11767SOL    HW135327   3.622   2.235   3.410
11767SOL    HW235328   3.555   2.167   3.542
11768SOL     OW35329   3.592   2.796   3.379
11768SOL    HW135330   3.630   2.887   3.394
11768SOL    HW235331   3.584   2.779   3.280
11769SOL     OW35332   2.721   3.236   1.878
11769SOL    HW135333   2.675   3.251   1.966
11769SOL    HW235334   2.765   3.321   1.848
11770SOL     OW35335   2.523   3.652   2.815
11770SOL    HW135336   2.477   3.740   2.802
11770SOL    HW235337   2.622   3.664   2.808
11771SOL     OW35338   2.721   2.818   2.723
11771SOL    HW135339   2.775   2.749   2.771
11771SOL    HW235340   2.689   2.887   2.789
11772SOL     OW35341   2.945   2.846   1.949
11772SOL    HW135342   2.922   2.899   1.867
11772SOL    HW235343   3.026   2.790   1.930
11773SOL     OW35344   3.723   3.431   2.713
11773SOL    HW135345   3.652   3.419   2.643
11773SOL    HW235346   3.724   3.352   2.773
11774SOL     OW35347   2.083   3.176   3.706
11774SOL    HW135348   2.018   3.103   3.685
11774SOL    HW235349   2.087   3.190   3.804
11775SOL     OW35350   1.941   3.102   2.515
11775SOL    HW135351   1.940   3.055   2.603
11775SOL    HW235352   2.023   3.074   2.464
11776SOL     OW35353   2.534   3.253   3.486
11776SOL    HW135354   2.456   3.203   3.524
11776SOL    HW235355   2.531   3.348   3.517
11777SOL     OW35356   3.686   2.054   3.089
11777SOL    HW135357   3.682   1.964   3.133
11777SOL    HW235358   3.689   2.043   2.990
11778SOL     OW35359   2.290   2.286   2.382
11778SOL    HW135360   2.320   2.214   2.320
11778SOL    HW235361   2.251   2.246   2.465
11779SOL     OW35362   3.567   3.349   2.966
11779SOL    HW135363   3.474   3.324   2.939
11779SOL    HW235364   3.593   3.299   3.048
11780SOL     OW35365   2.179   2.409   3.142
11780SOL    HW135366   2.217   2.350   3.214
11780SOL    HW235367   2.219   2.383   3.054
11781SOL     OW35368   2.674   3.448   2.549
11781SOL    HW135369   2.706   3.458   2.455
11781SOL    HW235370   2.595   3.386   2.551
11782SOL     OW35371   3.286   2.076   2.974
11782SOL    HW135372   3.338   2.011   3.029
11782SOL    HW235373   3.237   2.139   3.035
11783SOL     OW35374   2.863   1.896   3.016
11783SOL    HW135375   2.800   1.824   2.985
11783SOL    HW235376   2.956   1.860   3.016
11784SOL     OW35377   2.632   3.192   2.163
11784SOL    HW135378   2.586   3.105   2.180
11784SOL    HW235379   2.723   3.189   2.204
11785SOL     OW35380   2.480   3.429   3.146
11785SOL    HW135381   2.475   3.511   3.203
11785SOL    HW235382   2.569   3.426   3.101
11786SOL     OW35383   3.214   1.914   2.030
11786SOL    HW135384   3.249   1.873   1.946
11786SOL    HW235385   3.124   1.876   2.050
11787SOL     OW35386   3.162   2.315   2.553
11787SOL    HW135387   3.103   2.395   2.557
11787SOL    HW235388   3.177   2.280   2.646
11788SOL     OW35389   3.455   2.083   2.744
11788SOL    HW135390   3.371   2.082   2.798
11788SOL    HW235391   3.457   2.166   2.688
11789SOL     OW35392   1.901   2.939   2.162
11789SOL    HW135393   2.000   2.928   2.153
11789SOL    HW235394   1.861   2.853   2.194
11790SOL     OW35395   2.737   3.508   2.199
11790SOL    HW135396   2.660   3.473   2.145
11790SOL    HW235397   2.705   3.579   2.261
11791SOL     OW35398   2.092   2.490   3.837
11791SOL    HW135399   1.999   2.488   3.874
11791SOL    HW235400   2.093   2.451   3.745
11792SOL     OW35401   2.087   2.137   4.720
11792SOL    HW135402   2.122   2.120   4.812
11792SOL    HW235403   1.999   2.092   4.708
11793SOL     OW35404   1.881   2.230   4.371
11793SOL    HW135405   1.799   2.273   4.410
11793SOL    HW235406   1.853   2.157   4.308
11794SOL     OW35407   2.431   3.137   4.889
11794SOL    HW135408   2.338   3.130   4.852
11794SOL    HW235409   2.442   3.226   4.933
11795SOL     OW35410   3.417   3.373   4.427
11795SOL    HW135411   3.360   3.357   4.508
11795SOL    HW235412   3.358   3.383   4.347
11796SOL     OW35413   2.997   2.565   4.441
11796SOL    HW135414   3.054   2.643   4.416
11796SOL    HW235415   2.937   2.591   4.517
11797SOL     OW35416   3.617   2.469   3.955
11797SOL    HW135417   3.605   2.456   3.856
11797SOL    HW235418   3.587   2.388   4.004
11798SOL     OW35419   2.630   3.006   4.747
11798SOL    HW135420   2.552   3.023   4.807
11798SOL    HW235421   2.664   3.093   4.711
11799SOL     OW35422   2.712   2.660   5.547
11799SOL    HW135423   2.708   2.736   5.612
11799SOL    HW235424   2.734   2.696   5.456
11800SOL     OW35425   2.547   2.874   4.389
11800SOL    HW135426   2.616   2.858   4.459
11800SOL    HW235427   2.474   2.931   4.427
11801SOL     OW35428   2.548   3.023   5.527
11801SOL    HW135429   2.608   3.102   5.541
11801SOL    HW235430   2.462   3.054   5.486
11802SOL     OW35431   2.197   3.297   4.785
11802SOL    HW135432   2.119   3.266   4.732
11802SOL    HW235433   2.255   3.355   4.728
11803SOL     OW35434   3.322   3.367   5.063
11803SOL    HW135435   3.346   3.461   5.089
11803SOL    HW235436   3.306   3.313   5.145
11804SOL     OW35437   2.300   2.254   5.223
11804SOL    HW135438   2.382   2.198   5.232
11804SOL    HW235439   2.219   2.196   5.227
11805SOL     OW35440   3.465   2.309   4.461
11805SOL    HW135441   3.391   2.355   4.411
11805SOL    HW235442   3.516   2.377   4.514
11806SOL     OW35443   2.093   3.575   4.207
11806SOL    HW135444   2.127   3.652   4.261
11806SOL    HW235445   2.137   3.575   4.117
11807SOL     OW35446   2.989   3.203   5.414
11807SOL    HW135447   3.036   3.203   5.502
11807SOL    HW235448   2.941   3.116   5.403
11808SOL     OW35449   2.092   3.296   4.262
11808SOL    HW135450   2.066   3.392   4.262
11808SOL    HW235451   2.021   3.242   4.307
11809SOL     OW35452   2.102   2.953   4.610
11809SOL    HW135453   2.116   2.869   4.662
11809SOL    HW235454   2.047   3.017   4.665
11810SOL     OW35455   2.482   3.648   5.163
11810SOL    HW135456   2.390   3.631   5.198
11810SOL    HW235457   2.510   3.740   5.189
11811SOL     OW35458   2.468   2.826   3.847
11811SOL    HW135459   2.475   2.910   3.793
11811SOL    HW235460   2.514   2.839   3.935
11812SOL     OW35461   3.456   1.976   5.204
11812SOL    HW135462   3.438   2.043   5.132
11812SOL    HW235463   3.453   2.022   5.293
11813SOL     OW35464   1.984   2.505   4.287
11813SOL    HW135465   1.939   2.417   4.304
11813SOL    HW235466   1.983   2.559   4.371
11814SOL     OW35467   3.704   3.629   4.083
11814SOL    HW135468   3.758   3.600   4.163
11814SOL    HW235469   3.734   3.719   4.054
11815SOL     OW35470   1.889   3.458   3.841
11815SOL    HW135471   1.870   3.362   3.862
11815SOL    HW235472   1.856   3.516   3.916
11816SOL     OW35473   3.551   2.784   4.336
11816SOL    HW135474   3.646   2.755   4.344
11816SOL    HW235475   3.543   2.849   4.261
11817SOL     OW35476   3.503   2.970   4.156
11817SOL    HW135477   3.589   2.972   4.104
11817SOL    HW235478   3.517   3.017   4.244
11818SOL     OW35479   1.975   2.599   5.321
11818SOL    HW135480   2.063   2.586   5.366
11818SOL    HW235481   1.962   2.696   5.299
11819SOL     OW35482   2.475   3.227   4.450
11819SOL    HW135483   2.426   3.140   4.459
11819SOL    HW235484   2.452   3.270   4.363
11820SOL     OW35485   3.155   3.090   5.147
11820SOL    HW135486   3.192   3.017   5.089
11820SOL    HW235487   3.207   3.095   5.232
11821SOL     OW35488   2.671   1.866   4.226
11821SOL    HW135489   2.711   1.957   4.217
11821SOL    HW235490   2.571   1.874   4.232
11822SOL     OW35491   2.059   2.838   4.988
11822SOL    HW135492   2.148   2.793   4.974
11822SOL    HW235493   1.986   2.773   4.969
11823SOL     OW35494   3.387   2.861   3.914
11823SOL    HW135495   3.324   2.785   3.927
11823SOL    HW235496   3.435   2.879   4.000
11824SOL     OW35497   3.049   3.654   5.340
11824SOL    HW135498   3.073   3.714   5.264
11824SOL    HW235499   3.056   3.559   5.310
11825SOL     OW35500   2.179   2.113   5.525
11825SOL    HW135501   2.250   2.184   5.531
11825SOL    HW235502   2.091   2.152   5.553
11826SOL     OW35503   3.328   3.279   4.677
11826SOL    HW135504   3.269   3.285   4.757
11826SOL    HW235505   3.313   3.191   4.631
11827SOL     OW35506   3.529   3.576   4.296
11827SOL    HW135507   3.488   3.553   4.208
11827SOL    HW235508   3.511   3.502   4.361
11828SOL     OW35509   2.460   2.591   3.994
11828SOL    HW135510   2.484   2.660   3.926
11828SOL    HW235511   2.382   2.624   4.048
11829SOL     OW35512   3.143   2.207   4.668
11829SOL    HW135513   3.057   2.157   4.655
11829SOL    HW235514   3.205   2.153   4.724
11830SOL     OW35515   3.438   3.524   4.031
11830SOL    HW135516   3.527   3.570   4.034
11830SOL    HW235517   3.417   3.500   3.936
11831SOL     OW35518   2.669   2.467   5.189
11831SOL    HW135519   2.622   2.464   5.278
11831SOL    HW235520   2.618   2.412   5.123
11832SOL     OW35521   3.256   2.331   5.398
11832SOL    HW135522   3.236   2.374   5.486
11832SOL    HW235523   3.334   2.269   5.407
11833SOL     OW35524   2.835   2.752   5.296
11833SOL    HW135525   2.881   2.668   5.267
11833SOL    HW235526   2.779   2.786   5.221
11834SOL     OW35527   2.853   2.272   4.966
11834SOL    HW135528   2.776   2.306   5.020
11834SOL    HW235529   2.819   2.221   4.887
11835SOL     OW35530   2.903   2.563   4.153
11835SOL    HW135531   2.929   2.559   4.249
11835SOL    HW235532   2.818   2.512   4.139
11836SOL     OW35533   1.938   2.673   4.513
11836SOL    HW135534   2.037   2.661   4.522
11836SOL    HW235535   1.914   2.768   4.534
11837SOL     OW35536   1.992   3.683   5.295
11837SOL    HW135537   1.982   3.668   5.394
11837SOL    HW235538   1.906   3.719   5.259
11838SOL     OW35539   2.727   2.210   3.919
11838SOL    HW135540   2.786   2.273   3.870
11838SOL    HW235541   2.746   2.116   3.890
11839SOL     OW35542   3.581   2.447   5.555
11839SOL    HW135543   3.555   2.536   5.519
11839SOL    HW235544   3.579   2.379   5.482
11840SOL     OW35545   3.224   3.006   4.269
11840SOL    HW135546   3.307   2.977   4.221
11840SOL    HW235547   3.175   3.073   4.213
11841SOL     OW35548   2.412   2.058   4.609
11841SOL    HW135549   2.407   2.053   4.709
11841SOL    HW235550   2.414   2.154   4.580
11842SOL     OW35551   2.870   3.318   4.201
11842SOL    HW135552   2.824   3.390   4.149
11842SOL    HW235553   2.866   3.338   4.299
11843SOL     OW35554   2.213   3.663   4.577
11843SOL    HW135555   2.263   3.577   4.583
11843SOL    HW235556   2.278   3.740   4.574
11844SOL     OW35557   3.657   2.928   4.597
11844SOL    HW135558   3.595   2.913   4.521
11844SOL    HW235559   3.605   2.939   4.682
11845SOL     OW35560   3.089   3.412   5.230
11845SOL    HW135561   3.095   3.335   5.294
11845SOL    HW235562   3.037   3.386   5.150
11846SOL     OW35563   2.183   2.805   3.966
11846SOL    HW135564   2.265   2.844   3.924
11846SOL    HW235565   2.156   2.723   3.917
11847SOL     OW35566   3.320   2.597   4.452
11847SOL    HW135567   3.315   2.532   4.527
11847SOL    HW235568   3.400   2.656   4.465
11848SOL     OW35569   2.323   3.128   5.451
11848SOL    HW135570   2.273   3.129   5.365
11848SOL    HW235571   2.260   3.110   5.527
11849SOL     OW35572   2.973   3.638   3.961
11849SOL    HW135573   2.913   3.576   4.011
11849SOL    HW235574   3.004   3.594   3.876
11850SOL     OW35575   2.064   2.147   5.222
11850SOL    HW135576   1.984   2.207   5.209
11850SOL    HW235577   2.054   2.098   5.308
11851SOL     OW35578   3.494   3.239   3.805
11851SOL    HW135579   3.462   3.333   3.795
11851SOL    HW235580   3.418   3.176   3.793
11852SOL     OW35581   2.326   3.605   4.047
11852SOL    HW135582   2.359   3.644   4.133
11852SOL    HW235583   2.402   3.598   3.982
11853SOL     OW35584   3.262   1.969   4.150
11853SOL    HW135585   3.238   1.932   4.060
11853SOL    HW235586   3.361   1.985   4.154
11854SOL     OW35587   2.111   3.647   4.965
11854SOL    HW135588   2.168   3.582   5.015
11854SOL    HW235589   2.095   3.614   4.872
11855SOL     OW35590   2.802   3.560   4.628
11855SOL    HW135591   2.882   3.503   4.649
11855SOL    HW235592   2.753   3.520   4.551
11856SOL     OW35593   2.244   2.562   4.204
11856SOL    HW135594   2.289   2.472   4.201
11856SOL    HW235595   2.150   2.551   4.237
11857SOL     OW35596   3.409   2.084   5.453
11857SOL    HW135597   3.404   2.121   5.545
11857SOL    HW235598   3.337   2.015   5.441
11858SOL     OW35599   2.476   1.984   3.841
11858SOL    HW135600   2.574   1.962   3.848
11858SOL    HW235601   2.445   1.967   3.748
11859SOL     OW35602   2.643   2.126   5.473
11859SOL    HW135603   2.710   2.065   5.516
11859SOL    HW235604   2.570   2.145   5.538
11860SOL     OW35605   2.750   3.376   4.919
11860SOL    HW135606   2.727   3.351   4.825
11860SOL    HW235607   2.811   3.307   4.958
11861SOL     OW35608   3.213   2.452   5.157
11861SOL    HW135609   3.241   2.409   5.242
11861SOL    HW235610   3.238   2.548   5.158
11862SOL     OW35611   2.665   3.264   4.648
11862SOL    HW135612   2.755   3.278   4.606
11862SOL    HW235613   2.594   3.266   4.577
11863SOL     OW35614   2.784   2.365   4.623
11863SOL    HW135615   2.759   2.356   4.527
11863SOL    HW235616   2.832   2.283   4.654
11864SOL     OW35617   2.401   1.926   4.236
11864SOL    HW135618   2.320   1.927   4.294
11864SOL    HW235619   2.404   2.009   4.181
11865SOL     OW35620   3.296   3.050   3.765
11865SOL    HW135621   3.328   2.974   3.822
11865SOL    HW235622   3.204   3.077   3.795
11866SOL     OW35623   2.159   1.897   3.895
11866SOL    HW135624   2.208   1.981   3.874
11866SOL    HW235625   2.221   1.832   3.940
11867SOL     OW35626   2.797   2.098   4.204
11867SOL    HW135627   2.749   2.139   4.126
11867SOL    HW235628   2.896   2.096   4.185
11868SOL     OW35629   2.938   2.545   5.188
11868SOL    HW135630   2.858   2.484   5.191
11868SOL    HW235631   3.019   2.492   5.164
11869SOL     OW35632   3.089   3.432   4.517
11869SOL    HW135633   3.110   3.506   4.452
11869SOL    HW235634   3.157   3.432   4.590
11870SOL     OW35635   2.321   3.014   4.465
11870SOL    HW135636   2.250   2.987   4.530
11870SOL    HW235637   2.295   2.986   4.372
11871SOL     OW35638   3.133   3.659   4.315
11871SOL    HW135639   3.177   3.723   4.251
11871SOL    HW235640   3.083   3.711   4.385
11872SOL     OW35641   2.894   2.411   3.740
11872SOL    HW135642   2.853   2.493   3.701
11872SOL    HW235643   2.958   2.437   3.813
11873SOL     OW35644   1.940   2.418   5.110
11873SOL    HW135645   2.032   2.417   5.069
11873SOL    HW235646   1.934   2.492   5.177
11874SOL     OW35647   2.423   2.084   4.871
11874SOL    HW135648   2.461   2.000   4.908
11874SOL    HW235649   2.335   2.103   4.915
11875SOL     OW35650   2.728   2.316   4.366
11875SOL    HW135651   2.696   2.388   4.304
11875SOL    HW235652   2.752   2.235   4.313
11876SOL     OW35653   2.879   1.901   4.477
11876SOL    HW135654   2.807   1.906   4.408
11876SOL    HW235655   2.855   1.832   4.546
11877SOL     OW35656   3.291   3.035   4.591
11877SOL    HW135657   3.236   2.951   4.584
11877SOL    HW235658   3.317   3.064   4.499
11878SOL     OW35659   3.328   2.452   4.716
11878SOL    HW135660   3.298   2.357   4.723
11878SOL    HW235661   3.401   2.468   4.782
11879SOL     OW35662   3.719   2.695   4.101
11879SOL    HW135663   3.761   2.631   4.165
11879SOL    HW235664   3.681   2.644   4.023
11880SOL     OW35665   2.350   3.247   3.898
11880SOL    HW135666   2.263   3.232   3.945
11880SOL    HW235667   2.333   3.273   3.803
11881SOL     OW35668   3.526   3.142   4.381
11881SOL    HW135669   3.625   3.150   4.395
11881SOL    HW235670   3.481   3.226   4.412
11882SOL     OW35671   3.252   2.437   3.802
11882SOL    HW135672   3.198   2.416   3.883
11882SOL    HW235673   3.343   2.396   3.811
11883SOL     OW35674   2.389   2.118   4.052
11883SOL    HW135675   2.416   2.059   3.977
11883SOL    HW235676   2.389   2.213   4.021
11884SOL     OW35677   3.616   3.085   5.312
11884SOL    HW135678   3.707   3.046   5.299
11884SOL    HW235679   3.624   3.181   5.336
11885SOL     OW35680   2.926   3.209   5.064
11885SOL    HW135681   2.846   3.186   5.119
11885SOL    HW235682   3.009   3.183   5.113
11886SOL     OW35683   3.454   3.491   5.349
11886SOL    HW135684   3.481   3.525   5.259
11886SOL    HW235685   3.533   3.453   5.395
11887SOL     OW35686   2.973   3.057   4.824
11887SOL    HW135687   2.933   3.101   4.905
11887SOL    HW235688   2.932   3.094   4.741
11888SOL     OW35689   3.500   2.961   4.803
11888SOL    HW135690   3.505   3.042   4.862
11888SOL    HW235691   3.414   2.963   4.752
11889SOL     OW35692   2.777   1.951   5.126
11889SOL    HW135693   2.802   1.931   5.031
11889SOL    HW235694   2.849   2.007   5.168
11890SOL     OW35695   2.842   2.978   5.443
11890SOL    HW135696   2.743   2.984   5.453
11890SOL    HW235697   2.865   2.898   5.387
11891SOL     OW35698   2.567   2.912   4.092
11891SOL    HW135699   2.553   2.919   4.191
11891SOL    HW235700   2.651   2.861   4.074
11892SOL     OW35701   2.272   2.675   4.975
11892SOL    HW135702   2.358   2.687   5.025
11892SOL    HW235703   2.230   2.588   5.002
11893SOL     OW35704   3.136   2.248   4.986
11893SOL    HW135705   3.157   2.322   5.050
11893SOL    HW235706   3.047   2.265   4.943
11894SOL     OW35707   1.926   3.426   5.055
11894SOL    HW135708   1.880   3.508   5.021
11894SOL    HW235709   2.024   3.445   5.064
11895SOL     OW35710   2.229   2.962   4.225
11895SOL    HW135711   2.222   3.045   4.169
11895SOL    HW235712   2.233   2.882   4.165
11896SOL     OW35713   2.428   2.399   4.589
11896SOL    HW135714   2.440   2.465   4.515
11896SOL    HW235715   2.474   2.433   4.672
11897SOL     OW35716   3.114   3.210   4.112
11897SOL    HW135717   3.164   3.287   4.152
11897SOL    HW235718   3.019   3.212   4.144
11898SOL     OW35719   3.134   3.307   4.866
11898SOL    HW135720   3.181   3.320   4.953
11898SOL    HW235721   3.068   3.233   4.875
11899SOL     OW35722   3.444   2.501   4.196
11899SOL    HW135723   3.413   2.562   4.269
11899SOL    HW235724   3.494   2.553   4.127
11900SOL     OW35725   2.216   3.372   5.053
11900SOL    HW135726   2.195   3.328   4.966
11900SOL    HW235727   2.313   3.398   5.056
11901SOL     OW35728   2.264   2.613   5.322
11901SOL    HW135729   2.332   2.668   5.275
11901SOL    HW235730   2.304   2.525   5.349
11902SOL     OW35731   3.449   2.641   5.394
11902SOL    HW135732   3.357   2.679   5.389
11902SOL    HW235733   3.509   2.688   5.329
11903SOL     OW35734   2.875   1.967   5.494
11903SOL    HW135735   2.881   2.052   5.442
11903SOL    HW235736   2.907   1.891   5.437
11904SOL     OW35737   2.366   1.912   5.464
11904SOL    HW135738   2.324   1.855   5.394
11904SOL    HW235739   2.300   1.981   5.496
11905SOL     OW35740   2.435   2.732   4.753
11905SOL    HW135741   2.479   2.821   4.744
11905SOL    HW235742   2.372   2.732   4.830
11906SOL     OW35743   3.222   2.724   4.769
11906SOL    HW135744   3.147   2.724   4.703
11906SOL    HW235745   3.259   2.632   4.778
11907SOL     OW35746   3.071   2.387   3.999
11907SOL    HW135747   3.084   2.303   4.053
11907SOL    HW235748   3.042   2.461   4.059
11908SOL     OW35749   2.169   2.075   4.955
11908SOL    HW135750   2.146   2.112   5.045
11908SOL    HW235751   2.139   1.980   4.949
11909SOL     OW35752   1.899   3.172   5.006
11909SOL    HW135753   1.952   3.123   5.074
11909SOL    HW235754   1.921   3.270   5.011
11910SOL     OW35755   2.594   2.496   4.788
11910SOL    HW135756   2.653   2.470   4.712
11910SOL    HW235757   2.566   2.592   4.777
11911SOL     OW35758   3.590   2.797   5.578
11911SOL    HW135759   3.544   2.790   5.489
11911SOL    HW235760   3.528   2.841   5.644
11912SOL     OW35761   2.169   1.925   4.342
11912SOL    HW135762   2.158   2.019   4.375
11912SOL    HW235763   2.164   1.862   4.419
11913SOL     OW35764   3.484   2.229   4.098
11913SOL    HW135765   3.486   2.153   4.162
11913SOL    HW235766   3.436   2.306   4.138
11914SOL     OW35767   2.885   2.628   4.690
11914SOL    HW135768   2.900   2.649   4.786
11914SOL    HW235769   2.855   2.533   4.681
11915SOL     OW35770   2.842   3.435   5.424
11915SOL    HW135771   2.822   3.479   5.336
11915SOL    HW235772   2.881   3.344   5.408
11916SOL     OW35773   3.721   3.380   5.329
11916SOL    HW135774   3.735   3.407   5.234
11916SOL    HW235775   3.804   3.402   5.382
11917SOL     OW35776   2.212   2.760   5.528
11917SOL    HW135777   2.288   2.804   5.576
11917SOL    HW235778   2.247   2.713   5.446
11918SOL     OW35779   3.402   2.136   3.849
11918SOL    HW135780   3.341   2.061   3.872
11918SOL    HW235781   3.424   2.188   3.932
11919SOL     OW35782   3.165   2.700   3.766
11919SOL    HW135783   3.199   2.607   3.781
11919SOL    HW235784   3.183   2.727   3.671
11920SOL     OW35785   2.930   3.195   4.573
11920SOL    HW135786   2.937   3.111   4.518
11920SOL    HW235787   2.992   3.264   4.537
11921SOL     OW35788   2.181   2.672   4.673
11921SOL    HW135789   2.274   2.708   4.678
11921SOL    HW235790   2.175   2.587   4.725
11922SOL     OW35791   2.201   2.371   4.730
11922SOL    HW135792   2.149   2.288   4.713
11922SOL    HW235793   2.278   2.376   4.666
11923SOL     OW35794   3.000   2.242   5.402
11923SOL    HW135795   2.955   2.305   5.466
11923SOL    HW235796   3.093   2.273   5.385
11924SOL     OW35797   3.022   2.069   5.201
11924SOL    HW135798   3.022   2.133   5.278
11924SOL    HW235799   3.050   2.117   5.118
11925SOL     OW35800   1.870   3.188   3.924
11925SOL    HW135801   1.777   3.209   3.893
11925SOL    HW235802   1.880   3.089   3.937
11926SOL     OW35803   1.950   3.663   4.651
11926SOL    HW135804   1.908   3.577   4.624
11926SOL    HW235805   2.044   3.666   4.617
11927SOL     OW35806   2.366   3.430   4.634
11927SOL    HW135807   2.432   3.504   4.643
11927SOL    HW235808   2.410   3.351   4.592
11928SOL     OW35809   2.864   2.658   4.962
11928SOL    HW135810   2.905   2.626   5.048
11928SOL    HW235811   2.768   2.631   4.959
11929SOL     OW35812   1.902   2.406   4.838
11929SOL    HW135813   1.987   2.373   4.797
11929SOL    HW235814   1.915   2.421   4.936
11930SOL     OW35815   2.051   2.382   5.446
11930SOL    HW135816   2.110   2.342   5.376
11930SOL    HW235817   1.993   2.453   5.405
11931SOL     OW35818   3.231   2.812   5.384
11931SOL    HW135819   3.270   2.901   5.404
11931SOL    HW235820   3.241   2.792   5.287
11932SOL     OW35821   2.677   2.434   4.049
11932SOL    HW135822   2.684   2.345   4.003
11932SOL    HW235823   2.583   2.468   4.041
11933SOL     OW35824   3.519   2.466   4.930
11933SOL    HW135825   3.481   2.397   4.992
11933SOL    HW235826   3.601   2.430   4.886
11934SOL     OW35827   2.114   3.426   5.468
11934SOL    HW135828   2.084   3.483   5.544
11934SOL    HW235829   2.107   3.329   5.494
11935SOL     OW35830   2.533   2.326   4.993
11935SOL    HW135831   2.499   2.237   4.963
11935SOL    HW235832   2.559   2.380   4.913
11936SOL     OW35833   2.792   3.540   5.189
11936SOL    HW135834   2.768   3.522   5.094
11936SOL    HW235835   2.822   3.634   5.199
11937SOL     OW35836   2.335   2.362   3.915
11937SOL    HW135837   2.396   2.442   3.919
11937SOL    HW235838   2.240   2.393   3.922
11938SOL     OW35839   2.021   2.999   5.190
11938SOL    HW135840   2.043   2.938   5.266
11938SOL    HW235841   2.031   2.950   5.104
11939SOL     OW35842   3.209   2.921   4.958
11939SOL    HW135843   3.233   2.858   4.884
11939SOL    HW235844   3.119   2.961   4.940
11940SOL     OW35845   3.164   2.717   4.033
11940SOL    HW135846   3.078   2.686   4.075
11940SOL    HW235847   3.160   2.703   3.934
11941SOL     OW35848   3.621   3.609   4.878
11941SOL    HW135849   3.682   3.639   4.805
11941SOL    HW235850   3.583   3.520   4.856
11942SOL     OW35851   3.114   3.593   4.852
11942SOL    HW135852   3.198   3.598   4.798
11942SOL    HW235853   3.091   3.497   4.870
11943SOL     OW35854   1.945   3.120   4.746
11943SOL    HW135855   1.940   3.119   4.846
11943SOL    HW235856   1.862   3.079   4.708
11944SOL     OW35857   2.550   3.524   5.440
11944SOL    HW135858   2.494   3.605   5.449
11944SOL    HW235859   2.602   3.528   5.354
11945SOL     OW35860   3.588   1.997   4.247
11945SOL    HW135861   3.661   1.980   4.180
11945SOL    HW235862   3.557   1.910   4.285
11946SOL     OW35863   3.250   3.435   4.201
11946SOL    HW135864   3.317   3.447   4.127
11946SOL    HW235865   3.210   3.524   4.224
11947SOL     OW35866   1.992   3.656   5.575
11947SOL    HW135867   1.951   3.582   5.628
11947SOL    HW235868   2.056   3.707   5.633
11948SOL     OW35869   3.142   2.789   4.396
11948SOL    HW135870   3.202   2.708   4.398
11948SOL    HW235871   3.182   2.858   4.336
11949SOL     OW35872   2.692   3.135   5.146
11949SOL    HW135873   2.687   3.168   5.241
11949SOL    HW235874   2.606   3.154   5.100
11950SOL     OW35875   2.534   3.478   3.878
11950SOL    HW135876   2.543   3.488   3.779
11950SOL    HW235877   2.494   3.389   3.899
11951SOL     OW35878   3.512   3.582   5.118
11951SOL    HW135879   3.565   3.592   5.034
11951SOL    HW235880   3.485   3.672   5.152
11952SOL     OW35881   3.703   2.037   4.687
11952SOL    HW135882   3.742   1.952   4.651
11952SOL    HW235883   3.605   2.039   4.668
11953SOL     OW35884   2.125   2.188   4.444
11953SOL    HW135885   2.046   2.239   4.410
11953SOL    HW235886   2.116   2.173   4.542
11954SOL     OW35887   3.056   3.474   3.755
11954SOL    HW135888   3.062   3.381   3.792
11954SOL    HW235889   2.997   3.474   3.675
11955SOL     OW35890   2.684   2.864   5.096
11955SOL    HW135891   2.724   2.863   5.004
11955SOL    HW235892   2.694   2.956   5.136
11956SOL     OW35893   2.778   2.772   4.015
11956SOL    HW135894   2.841   2.810   3.947
11956SOL    HW235895   2.818   2.689   4.054
11957SOL     OW35896   3.366   3.469   3.768
11957SOL    HW135897   3.274   3.506   3.775
11957SOL    HW235898   3.404   3.489   3.678
11958SOL     OW35899   2.234   3.150   5.214
11958SOL    HW135900   2.221   3.243   5.180
11958SOL    HW235901   2.150   3.098   5.201
11959SOL     OW35902   3.476   3.154   5.013
11959SOL    HW135903   3.536   3.157   5.093
11959SOL    HW235904   3.401   3.218   5.026
11960SOL     OW35905   2.901   2.960   4.420
11960SOL    HW135906   2.831   2.913   4.474
11960SOL    HW235907   2.960   2.892   4.377
11961SOL     OW35908   2.876   2.098   4.695
11961SOL    HW135909   2.868   2.062   4.602
11961SOL    HW235910   2.874   2.022   4.760
11962SOL     OW35911   2.452   3.349   4.215
11962SOL    HW135912   2.494   3.291   4.145
11962SOL    HW235913   2.408   3.428   4.171
11963SOL     OW35914   3.571   2.247   5.105
11963SOL    HW135915   3.644   2.316   5.109
11963SOL    HW235916   3.599   2.172   5.046
11964SOL     OW35917   2.117   3.210   4.014
11964SOL    HW135918   2.021   3.211   3.987
11964SOL    HW235919   2.129   3.263   4.098
11965SOL     OW35920   1.967   2.875   5.450
11965SOL    HW135921   1.890   2.842   5.504
11965SOL    HW235922   2.052   2.845   5.492
11966SOL     OW35923   2.534   2.065   5.213
11966SOL    HW135924   2.624   2.049   5.173
11966SOL    HW235925   2.542   2.070   5.312
11967SOL     OW35926   1.937   2.207   3.757
11967SOL    HW135927   1.845   2.179   3.728
11967SOL    HW235928   1.968   2.284   3.701
11968SOL     OW35929   3.302   2.718   5.122
11968SOL    HW135930   3.245   2.770   5.059
11968SOL    HW235931   3.398   2.730   5.098
11969SOL     OW35932   1.934   2.028   4.042
11969SOL    HW135933   1.917   2.111   3.988
11969SOL    HW235934   2.024   1.991   4.020
11970SOL     OW35935   3.045   3.197   3.843
11970SOL    HW135936   2.946   3.186   3.845
11970SOL    HW235937   3.079   3.212   3.936
11971SOL     OW35938   2.475   2.704   5.155
11971SOL    HW135939   2.531   2.785   5.138
11971SOL    HW235940   2.534   2.624   5.158
11972SOL     OW35941   3.355   3.629   4.683
11972SOL    HW135942   3.388   3.693   4.614
11972SOL    HW235943   3.421   3.623   4.758
11973SOL     OW35944   2.578   2.427   5.432
11973SOL    HW135945   2.597   2.492   5.506
11973SOL    HW235946   2.638   2.347   5.441
11974SOL     OW35947   3.312   3.082   5.357
11974SOL    HW135948   3.303   3.072   5.456
11974SOL    HW235949   3.408   3.075   5.331
11975SOL     OW35950   2.252   3.603   5.284
11975SOL    HW135951   2.161   3.644   5.282
11975SOL    HW235952   2.245   3.509   5.316
11976SOL     OW35953   3.536   2.745   4.978
11976SOL    HW135954   3.509   2.656   4.941
11976SOL    HW235955   3.537   2.813   4.905
11977SOL     OW35956   3.087   2.187   4.173
11977SOL    HW135957   3.152   2.113   4.162
11977SOL    HW235958   3.107   2.237   4.257
11978SOL     OW35959   2.456   2.607   4.376
11978SOL    HW135960   2.506   2.692   4.357
11978SOL    HW235961   2.368   2.609   4.328
11979SOL     OW35962   3.639   2.204   5.366
11979SOL    HW135963   3.622   2.235   5.272
11979SOL    HW235964   3.555   2.167   5.404
11980SOL     OW35965   3.592   2.796   5.241
11980SOL    HW135966   3.630   2.887   5.256
11980SOL    HW235967   3.584   2.779   5.142
11981SOL     OW35968   2.721   3.236   3.740
11981SOL    HW135969   2.675   3.251   3.828
11981SOL    HW235970   2.765   3.321   3.710
11982SOL     OW35971   2.523   3.652   4.677
11982SOL    HW135972   2.477   3.740   4.664
11982SOL    HW235973   2.622   3.664   4.670
11983SOL     OW35974   2.721   2.818   4.585
11983SOL    HW135975   2.775   2.749   4.633
11983SOL    HW235976   2.689   2.887   4.651
11984SOL     OW35977   2.945   2.846   3.811
11984SOL    HW135978   2.922   2.899   3.729
11984SOL    HW235979   3.026   2.790   3.792
11985SOL     OW35980   3.723   3.431   4.575
11985SOL    HW135981   3.652   3.419   4.505
11985SOL    HW235982   3.724   3.352   4.635
11986SOL     OW35983   2.083   3.176   5.568
11986SOL    HW135984   2.018   3.103   5.547
11986SOL    HW235985   2.087   3.190   5.666
11987SOL     OW35986   1.941   3.102   4.377
11987SOL    HW135987   1.940   3.055   4.465
11987SOL    HW235988   2.023   3.074   4.326
11988SOL     OW35989   2.534   3.253   5.348
11988SOL    HW135990   2.456   3.203   5.386
11988SOL    HW235991   2.531   3.348   5.379
11989SOL     OW35992   3.686   2.054   4.951
11989SOL    HW135993   3.682   1.964   4.995
11989SOL    HW235994   3.689   2.043   4.852
11990SOL     OW35995   2.290   2.286   4.244
11990SOL    HW135996   2.320   2.214   4.182
11990SOL    HW235997   2.251   2.246   4.327
11991SOL     OW35998   3.567   3.349   4.828
11991SOL    HW135999   3.474   3.324   4.801
11991SOL    HW236000   3.593   3.299   4.910
11992SOL     OW36001   2.179   2.409   5.004
11992SOL    HW136002   2.217   2.350   5.076
11992SOL    HW236003   2.219   2.383   4.916
11993SOL     OW36004   2.674   3.448   4.411
11993SOL    HW136005   2.706   3.458   4.317
11993SOL    HW236006   2.595   3.386   4.413
11994SOL     OW36007   3.286   2.076   4.836
11994SOL    HW136008   3.338   2.011   4.891
11994SOL    HW236009   3.237   2.139   4.897
11995SOL     OW36010   2.863   1.896   4.878
11995SOL    HW136011   2.800   1.824   4.847
11995SOL    HW236012   2.956   1.860   4.878
11996SOL     OW36013   2.632   3.192   4.025
11996SOL    HW136014   2.586   3.105   4.042
11996SOL    HW236015   2.723   3.189   4.066
11997SOL     OW36016   2.480   3.429   5.008
11997SOL    HW136017   2.475   3.511   5.065
11997SOL    HW236018   2.569   3.426   4.963
11998SOL     OW36019   3.214   1.914   3.892
11998SOL    HW136020   3.249   1.873   3.808
11998SOL    HW236021   3.124   1.876   3.912
11999SOL     OW36022   3.162   2.315   4.415
11999SOL    HW136023   3.103   2.395   4.419
11999SOL    HW236024   3.177   2.280   4.508
12000SOL     OW36025   3.455   2.083   4.606
12000SOL    HW136026   3.371   2.082   4.660
12000SOL    HW236027   3.457   2.166   4.550
12001SOL     OW36028   1.901   2.939   4.024
12001SOL    HW136029   2.000   2.928   4.015
12001SOL    HW236030   1.861   2.853   4.056
12002SOL     OW36031   2.737   3.508   4.061
12002SOL    HW136032   2.660   3.473   4.007
12002SOL    HW236033   2.705   3.579   4.123
12003SOL     OW36034   2.092   2.490   5.699
12003SOL    HW136035   1.999   2.488   5.736
12003SOL    HW236036   2.093   2.451   5.607
12004SOL     OW36037   2.087   2.137   6.582
12004SOL    HW136038   2.122   2.120   6.674
12004SOL    HW236039   1.999   2.092   6.570
12005SOL     OW36040   1.881   2.230   6.233
12005SOL    HW136041   1.799   2.273   6.272
12005SOL    HW236042   1.853   2.157   6.170
12006SOL     OW36043   2.431   3.137   6.751
12006SOL    HW136044   2.338   3.130   6.714
12006SOL    HW236045   2.442   3.226   6.795
12007SOL     OW36046   3.417   3.373   6.289
12007SOL    HW136047   3.360   3.357   6.370
12007SOL    HW236048   3.358   3.383   6.209
12008SOL     OW36049   2.997   2.565   6.303
12008SOL    HW136050   3.054   2.643   6.278
12008SOL    HW236051   2.937   2.591   6.379
12009SOL     OW36052   3.617   2.469   5.817
12009SOL    HW136053   3.605   2.456   5.718
12009SOL    HW236054   3.587   2.388   5.866
12010SOL     OW36055   2.630   3.006   6.609
12010SOL    HW136056   2.552   3.023   6.669
12010SOL    HW236057   2.664   3.093   6.573
12011SOL     OW36058   2.712   2.660   7.409
12011SOL    HW136059   2.708   2.736   7.474
12011SOL    HW236060   2.734   2.696   7.318
12012SOL     OW36061   2.547   2.874   6.251
12012SOL    HW136062   2.616   2.858   6.321
12012SOL    HW236063   2.474   2.931   6.289
12013SOL     OW36064   2.548   3.023   7.389
12013SOL    HW136065   2.608   3.102   7.403
12013SOL    HW236066   2.462   3.054   7.348
12014SOL     OW36067   2.197   3.297   6.647
12014SOL    HW136068   2.119   3.266   6.594
12014SOL    HW236069   2.255   3.355   6.590
12015SOL     OW36070   3.322   3.367   6.925
12015SOL    HW136071   3.346   3.461   6.951
12015SOL    HW236072   3.306   3.313   7.007
12016SOL     OW36073   2.300   2.254   7.085
12016SOL    HW136074   2.382   2.198   7.094
12016SOL    HW236075   2.219   2.196   7.089
12017SOL     OW36076   3.465   2.309   6.323
12017SOL    HW136077   3.391   2.355   6.273
12017SOL    HW236078   3.516   2.377   6.376
12018SOL     OW36079   2.093   3.575   6.069
12018SOL    HW136080   2.127   3.652   6.123
12018SOL    HW236081   2.137   3.575   5.979
12019SOL     OW36082   2.989   3.203   7.276
12019SOL    HW136083   3.036   3.203   7.364
12019SOL    HW236084   2.941   3.116   7.265
12020SOL     OW36085   2.092   3.296   6.124
12020SOL    HW136086   2.066   3.392   6.124
12020SOL    HW236087   2.021   3.242   6.169
12021SOL     OW36088   2.102   2.953   6.472
12021SOL    HW136089   2.116   2.869   6.524
12021SOL    HW236090   2.047   3.017   6.527
12022SOL     OW36091   2.482   3.648   7.025
12022SOL    HW136092   2.390   3.631   7.060
12022SOL    HW236093   2.510   3.740   7.051
12023SOL     OW36094   2.468   2.826   5.709
12023SOL    HW136095   2.475   2.910   5.655
12023SOL    HW236096   2.514   2.839   5.797
12024SOL     OW36097   3.456   1.976   7.066
12024SOL    HW136098   3.438   2.043   6.994
12024SOL    HW236099   3.453   2.022   7.155
12025SOL     OW36100   1.984   2.505   6.149
12025SOL    HW136101   1.939   2.417   6.166
12025SOL    HW236102   1.983   2.559   6.233
12026SOL     OW36103   3.704   3.629   5.945
12026SOL    HW136104   3.758   3.600   6.025
12026SOL    HW236105   3.734   3.719   5.916
12027SOL     OW36106   1.889   3.458   5.703
12027SOL    HW136107   1.870   3.362   5.724
12027SOL    HW236108   1.856   3.516   5.778
12028SOL     OW36109   3.551   2.784   6.198
12028SOL    HW136110   3.646   2.755   6.206
12028SOL    HW236111   3.543   2.849   6.123
12029SOL     OW36112   3.503   2.970   6.018
12029SOL    HW136113   3.589   2.972   5.966
12029SOL    HW236114   3.517   3.017   6.106
12030SOL     OW36115   1.975   2.599   7.183
12030SOL    HW136116   2.063   2.586   7.228
12030SOL    HW236117   1.962   2.696   7.161
12031SOL     OW36118   2.475   3.227   6.312
12031SOL    HW136119   2.426   3.140   6.321
12031SOL    HW236120   2.452   3.270   6.225
12032SOL     OW36121   3.155   3.090   7.009
12032SOL    HW136122   3.192   3.017   6.951
12032SOL    HW236123   3.207   3.095   7.094
12033SOL     OW36124   2.671   1.866   6.088
12033SOL    HW136125   2.711   1.957   6.079
12033SOL    HW236126   2.571   1.874   6.094
12034SOL     OW36127   2.059   2.838   6.850
12034SOL    HW136128   2.148   2.793   6.836
12034SOL    HW236129   1.986   2.773   6.831
12035SOL     OW36130   3.387   2.861   5.776
12035SOL    HW136131   3.324   2.785   5.789
12035SOL    HW236132   3.435   2.879   5.862
12036SOL     OW36133   3.049   3.654   7.202
12036SOL    HW136134   3.073   3.714   7.126
12036SOL    HW236135   3.056   3.559   7.172
12037SOL     OW36136   2.179   2.113   7.387
12037SOL    HW136137   2.250   2.184   7.393
12037SOL    HW236138   2.091   2.152   7.415
12038SOL     OW36139   3.328   3.279   6.539
12038SOL    HW136140   3.269   3.285   6.619
12038SOL    HW236141   3.313   3.191   6.493
12039SOL     OW36142   3.529   3.576   6.158
12039SOL    HW136143   3.488   3.553   6.070
12039SOL    HW236144   3.511   3.502   6.223
12040SOL     OW36145   2.460   2.591   5.856
12040SOL    HW136146   2.484   2.660   5.788
12040SOL    HW236147   2.382   2.624   5.910
12041SOL     OW36148   3.143   2.207   6.530
12041SOL    HW136149   3.057   2.157   6.517
12041SOL    HW236150   3.205   2.153   6.586
12042SOL     OW36151   3.438   3.524   5.893
12042SOL    HW136152   3.527   3.570   5.896
12042SOL    HW236153   3.417   3.500   5.798
12043SOL     OW36154   2.669   2.467   7.051
12043SOL    HW136155   2.622   2.464   7.140
12043SOL    HW236156   2.618   2.412   6.985
12044SOL     OW36157   3.256   2.331   7.260
12044SOL    HW136158   3.236   2.374   7.348
12044SOL    HW236159   3.334   2.269   7.269
12045SOL     OW36160   2.835   2.752   7.158
12045SOL    HW136161   2.881   2.668   7.129
12045SOL    HW236162   2.779   2.786   7.083
12046SOL     OW36163   2.853   2.272   6.828
12046SOL    HW136164   2.776   2.306   6.882
12046SOL    HW236165   2.819   2.221   6.749
12047SOL     OW36166   2.903   2.563   6.015
12047SOL    HW136167   2.929   2.559   6.111
12047SOL    HW236168   2.818   2.512   6.001
12048SOL     OW36169   1.938   2.673   6.375
12048SOL    HW136170   2.037   2.661   6.384
12048SOL    HW236171   1.914   2.768   6.396
12049SOL     OW36172   1.992   3.683   7.157
12049SOL    HW136173   1.982   3.668   7.256
12049SOL    HW236174   1.906   3.719   7.121
12050SOL     OW36175   2.727   2.210   5.781
12050SOL    HW136176   2.786   2.273   5.732
12050SOL    HW236177   2.746   2.116   5.752
12051SOL     OW36178   3.581   2.447   7.417
12051SOL    HW136179   3.555   2.536   7.381
12051SOL    HW236180   3.579   2.379   7.344
12052SOL     OW36181   3.224   3.006   6.131
12052SOL    HW136182   3.307   2.977   6.083
12052SOL    HW236183   3.175   3.073   6.075
12053SOL     OW36184   2.412   2.058   6.471
12053SOL    HW136185   2.407   2.053   6.571
12053SOL    HW236186   2.414   2.154   6.442
12054SOL     OW36187   2.870   3.318   6.063
12054SOL    HW136188   2.824   3.390   6.011
12054SOL    HW236189   2.866   3.338   6.161
12055SOL     OW36190   2.213   3.663   6.439
12055SOL    HW136191   2.263   3.577   6.445
12055SOL    HW236192   2.278   3.740   6.436
12056SOL     OW36193   3.657   2.928   6.459
12056SOL    HW136194   3.595   2.913   6.383
12056SOL    HW236195   3.605   2.939   6.544
12057SOL     OW36196   3.089   3.412   7.092
12057SOL    HW136197   3.095   3.335   7.156
12057SOL    HW236198   3.037   3.386   7.012
12058SOL     OW36199   2.183   2.805   5.828
12058SOL    HW136200   2.265   2.844   5.786
12058SOL    HW236201   2.156   2.723   5.779
12059SOL     OW36202   3.320   2.597   6.314
12059SOL    HW136203   3.315   2.532   6.389
12059SOL    HW236204   3.400   2.656   6.327
12060SOL     OW36205   2.323   3.128   7.313
12060SOL    HW136206   2.273   3.129   7.227
12060SOL    HW236207   2.260   3.110   7.389
12061SOL     OW36208   2.973   3.638   5.823
12061SOL    HW136209   2.913   3.576   5.873
12061SOL    HW236210   3.004   3.594   5.738
12062SOL     OW36211   2.064   2.147   7.084
12062SOL    HW136212   1.984   2.207   7.071
12062SOL    HW236213   2.054   2.098   7.170
12063SOL     OW36214   3.494   3.239   5.667
12063SOL    HW136215   3.462   3.333   5.657
12063SOL    HW236216   3.418   3.176   5.655
12064SOL     OW36217   2.326   3.605   5.909
12064SOL    HW136218   2.359   3.644   5.995
12064SOL    HW236219   2.402   3.598   5.844
12065SOL     OW36220   3.262   1.969   6.012
12065SOL    HW136221   3.238   1.932   5.922
12065SOL    HW236222   3.361   1.985   6.016
12066SOL     OW36223   2.111   3.647   6.827
12066SOL    HW136224   2.168   3.582   6.877
12066SOL    HW236225   2.095   3.614   6.734
12067SOL     OW36226   2.802   3.560   6.490
12067SOL    HW136227   2.882   3.503   6.511
12067SOL    HW236228   2.753   3.520   6.413
12068SOL     OW36229   2.244   2.562   6.066
12068SOL    HW136230   2.289   2.472   6.063
12068SOL    HW236231   2.150   2.551   6.099
12069SOL     OW36232   3.409   2.084   7.315
12069SOL    HW136233   3.404   2.121   7.407
12069SOL    HW236234   3.337   2.015   7.303
12070SOL     OW36235   2.476   1.984   5.703
12070SOL    HW136236   2.574   1.962   5.710
12070SOL    HW236237   2.445   1.967   5.610
12071SOL     OW36238   2.643   2.126   7.335
12071SOL    HW136239   2.710   2.065   7.378
12071SOL    HW236240   2.570   2.145   7.400
12072SOL     OW36241   2.750   3.376   6.781
12072SOL    HW136242   2.727   3.351   6.687
12072SOL    HW236243   2.811   3.307   6.820
12073SOL     OW36244   3.213   2.452   7.019
12073SOL    HW136245   3.241   2.409   7.104
12073SOL    HW236246   3.238   2.548   7.020
12074SOL     OW36247   2.665   3.264   6.510
12074SOL    HW136248   2.755   3.278   6.468
12074SOL    HW236249   2.594   3.266   6.439
12075SOL     OW36250   2.784   2.365   6.485
12075SOL    HW136251   2.759   2.356   6.389
12075SOL    HW236252   2.832   2.283   6.516
12076SOL     OW36253   2.401   1.926   6.098
12076SOL    HW136254   2.320   1.927   6.156
12076SOL    HW236255   2.404   2.009   6.043
12077SOL     OW36256   3.296   3.050   5.627
12077SOL    HW136257   3.328   2.974   5.684
12077SOL    HW236258   3.204   3.077   5.657
12078SOL     OW36259   2.159   1.897   5.757
12078SOL    HW136260   2.208   1.981   5.736
12078SOL    HW236261   2.221   1.832   5.802
12079SOL     OW36262   2.797   2.098   6.066
12079SOL    HW136263   2.749   2.139   5.988
12079SOL    HW236264   2.896   2.096   6.047
12080SOL     OW36265   2.938   2.545   7.050
12080SOL    HW136266   2.858   2.484   7.053
12080SOL    HW236267   3.019   2.492   7.026
12081SOL     OW36268   3.089   3.432   6.379
12081SOL    HW136269   3.110   3.506   6.314
12081SOL    HW236270   3.157   3.432   6.452
12082SOL     OW36271   2.321   3.014   6.327
12082SOL    HW136272   2.250   2.987   6.392
12082SOL    HW236273   2.295   2.986   6.234
12083SOL     OW36274   3.133   3.659   6.177
12083SOL    HW136275   3.177   3.723   6.113
12083SOL    HW236276   3.083   3.711   6.247
12084SOL     OW36277   2.894   2.411   5.602
12084SOL    HW136278   2.853   2.493   5.563
12084SOL    HW236279   2.958   2.437   5.675
12085SOL     OW36280   1.940   2.418   6.972
12085SOL    HW136281   2.032   2.417   6.931
12085SOL    HW236282   1.934   2.492   7.039
12086SOL     OW36283   2.423   2.084   6.733
12086SOL    HW136284   2.461   2.000   6.770
12086SOL    HW236285   2.335   2.103   6.777
12087SOL     OW36286   2.728   2.316   6.228
12087SOL    HW136287   2.696   2.388   6.166
12087SOL    HW236288   2.752   2.235   6.175
12088SOL     OW36289   2.879   1.901   6.339
12088SOL    HW136290   2.807   1.906   6.270
12088SOL    HW236291   2.855   1.832   6.408
12089SOL     OW36292   3.291   3.035   6.453
12089SOL    HW136293   3.236   2.951   6.446
12089SOL    HW236294   3.317   3.064   6.361
12090SOL     OW36295   3.328   2.452   6.578
12090SOL    HW136296   3.298   2.357   6.585
12090SOL    HW236297   3.401   2.468   6.644
12091SOL     OW36298   3.719   2.695   5.963
12091SOL    HW136299   3.761   2.631   6.027
12091SOL    HW236300   3.681   2.644   5.885
12092SOL     OW36301   2.350   3.247   5.760
12092SOL    HW136302   2.263   3.232   5.807
12092SOL    HW236303   2.333   3.273   5.665
12093SOL     OW36304   3.526   3.142   6.243
12093SOL    HW136305   3.625   3.150   6.257
12093SOL    HW236306   3.481   3.226   6.274
12094SOL     OW36307   3.252   2.437   5.664
12094SOL    HW136308   3.198   2.416   5.745
12094SOL    HW236309   3.343   2.396   5.673
12095SOL     OW36310   2.389   2.118   5.914
12095SOL    HW136311   2.416   2.059   5.839
12095SOL    HW236312   2.389   2.213   5.883
12096SOL     OW36313   3.616   3.085   7.174
12096SOL    HW136314   3.707   3.046   7.161
12096SOL    HW236315   3.624   3.181   7.198
12097SOL     OW36316   2.926   3.209   6.926
12097SOL    HW136317   2.846   3.186   6.981
12097SOL    HW236318   3.009   3.183   6.975
12098SOL     OW36319   3.454   3.491   7.211
12098SOL    HW136320   3.481   3.525   7.121
12098SOL    HW236321   3.533   3.453   7.257
12099SOL     OW36322   2.973   3.057   6.686
12099SOL    HW136323   2.933   3.101   6.767
12099SOL    HW236324   2.932   3.094   6.603
12100SOL     OW36325   3.500   2.961   6.665
12100SOL    HW136326   3.505   3.042   6.724
12100SOL    HW236327   3.414   2.963   6.614
12101SOL     OW36328   2.777   1.951   6.988
12101SOL    HW136329   2.802   1.931   6.893
12101SOL    HW236330   2.849   2.007   7.030
12102SOL     OW36331   2.842   2.978   7.305
12102SOL    HW136332   2.743   2.984   7.315
12102SOL    HW236333   2.865   2.898   7.249
12103SOL     OW36334   2.567   2.912   5.954
12103SOL    HW136335   2.553   2.919   6.053
12103SOL    HW236336   2.651   2.861   5.936
12104SOL     OW36337   2.272   2.675   6.837
12104SOL    HW136338   2.358   2.687   6.887
12104SOL    HW236339   2.230   2.588   6.864
12105SOL     OW36340   3.136   2.248   6.848
12105SOL    HW136341   3.157   2.322   6.912
12105SOL    HW236342   3.047   2.265   6.805
12106SOL     OW36343   1.926   3.426   6.917
12106SOL    HW136344   1.880   3.508   6.883
12106SOL    HW236345   2.024   3.445   6.926
12107SOL     OW36346   2.229   2.962   6.087
12107SOL    HW136347   2.222   3.045   6.031
12107SOL    HW236348   2.233   2.882   6.027
12108SOL     OW36349   2.428   2.399   6.451
12108SOL    HW136350   2.440   2.465   6.377
12108SOL    HW236351   2.474   2.433   6.534
12109SOL     OW36352   3.114   3.210   5.974
12109SOL    HW136353   3.164   3.287   6.014
12109SOL    HW236354   3.019   3.212   6.006
12110SOL     OW36355   3.134   3.307   6.728
12110SOL    HW136356   3.181   3.320   6.815
12110SOL    HW236357   3.068   3.233   6.737
12111SOL     OW36358   3.444   2.501   6.058
12111SOL    HW136359   3.413   2.562   6.131
12111SOL    HW236360   3.494   2.553   5.989
12112SOL     OW36361   2.216   3.372   6.915
12112SOL    HW136362   2.195   3.328   6.828
12112SOL    HW236363   2.313   3.398   6.918
12113SOL     OW36364   2.264   2.613   7.184
12113SOL    HW136365   2.332   2.668   7.137
12113SOL    HW236366   2.304   2.525   7.211
12114SOL     OW36367   3.449   2.641   7.256
12114SOL    HW136368   3.357   2.679   7.251
12114SOL    HW236369   3.509   2.688   7.191
12115SOL     OW36370   2.875   1.967   7.356
12115SOL    HW136371   2.881   2.052   7.304
12115SOL    HW236372   2.907   1.891   7.299
12116SOL     OW36373   2.366   1.912   7.326
12116SOL    HW136374   2.324   1.855   7.256
12116SOL    HW236375   2.300   1.981   7.358
12117SOL     OW36376   2.435   2.732   6.615
12117SOL    HW136377   2.479   2.821   6.606
12117SOL    HW236378   2.372   2.732   6.692
12118SOL     OW36379   3.222   2.724   6.631
12118SOL    HW136380   3.147   2.724   6.565
12118SOL    HW236381   3.259   2.632   6.640
12119SOL     OW36382   3.071   2.387   5.861
12119SOL    HW136383   3.084   2.303   5.915
12119SOL    HW236384   3.042   2.461   5.921
12120SOL     OW36385   2.169   2.075   6.817
12120SOL    HW136386   2.146   2.112   6.907
12120SOL    HW236387   2.139   1.980   6.811
12121SOL     OW36388   1.899   3.172   6.868
12121SOL    HW136389   1.952   3.123   6.936
12121SOL    HW236390   1.921   3.270   6.873
12122SOL     OW36391   2.594   2.496   6.650
12122SOL    HW136392   2.653   2.470   6.574
12122SOL    HW236393   2.566   2.592   6.639
12123SOL     OW36394   3.590   2.797   7.440
12123SOL    HW136395   3.544   2.790   7.351
12123SOL    HW236396   3.528   2.841   7.506
12124SOL     OW36397   2.169   1.925   6.204
12124SOL    HW136398   2.158   2.019   6.237
12124SOL    HW236399   2.164   1.862   6.281
12125SOL     OW36400   3.484   2.229   5.960
12125SOL    HW136401   3.486   2.153   6.024
12125SOL    HW236402   3.436   2.306   6.000
12126SOL     OW36403   2.885   2.628   6.552
12126SOL    HW136404   2.900   2.649   6.648
12126SOL    HW236405   2.855   2.533   6.543
12127SOL     OW36406   2.842   3.435   7.286
12127SOL    HW136407   2.822   3.479   7.198
12127SOL    HW236408   2.881   3.344   7.270
12128SOL     OW36409   3.721   3.380   7.191
12128SOL    HW136410   3.735   3.407   7.096
12128SOL    HW236411   3.804   3.402   7.244
12129SOL     OW36412   2.212   2.760   7.390
12129SOL    HW136413   2.288   2.804   7.438
12129SOL    HW236414   2.247   2.713   7.308
12130SOL     OW36415   3.402   2.136   5.711
12130SOL    HW136416   3.341   2.061   5.734
12130SOL    HW236417   3.424   2.188   5.794
12131SOL     OW36418   3.165   2.700   5.628
12131SOL    HW136419   3.199   2.607   5.643
12131SOL    HW236420   3.183   2.727   5.533
12132SOL     OW36421   2.930   3.195   6.435
12132SOL    HW136422   2.937   3.111   6.380
12132SOL    HW236423   2.992   3.264   6.399
12133SOL     OW36424   2.181   2.672   6.535
12133SOL    HW136425   2.274   2.708   6.540
12133SOL    HW236426   2.175   2.587   6.587
12134SOL     OW36427   2.201   2.371   6.592
12134SOL    HW136428   2.149   2.288   6.575
12134SOL    HW236429   2.278   2.376   6.528
12135SOL     OW36430   3.000   2.242   7.264
12135SOL    HW136431   2.955   2.305   7.328
12135SOL    HW236432   3.093   2.273   7.247
12136SOL     OW36433   3.022   2.069   7.063
12136SOL    HW136434   3.022   2.133   7.140
12136SOL    HW236435   3.050   2.117   6.980
12137SOL     OW36436   1.870   3.188   5.786
12137SOL    HW136437   1.777   3.209   5.755
12137SOL    HW236438   1.880   3.089   5.799
12138SOL     OW36439   1.950   3.663   6.513
12138SOL    HW136440   1.908   3.577   6.486
12138SOL    HW236441   2.044   3.666   6.479
12139SOL     OW36442   2.366   3.430   6.496
12139SOL    HW136443   2.432   3.504   6.505
12139SOL    HW236444   2.410   3.351   6.454
12140SOL     OW36445   2.864   2.658   6.824
12140SOL    HW136446   2.905   2.626   6.910
12140SOL    HW236447   2.768   2.631   6.821
12141SOL     OW36448   1.902   2.406   6.700
12141SOL    HW136449   1.987   2.373   6.659
12141SOL    HW236450   1.915   2.421   6.798
12142SOL     OW36451   2.051   2.382   7.308
12142SOL    HW136452   2.110   2.342   7.238
12142SOL    HW236453   1.993   2.453   7.267
12143SOL     OW36454   3.231   2.812   7.246
12143SOL    HW136455   3.270   2.901   7.266
12143SOL    HW236456   3.241   2.792   7.149
12144SOL     OW36457   2.677   2.434   5.911
12144SOL    HW136458   2.684   2.345   5.865
12144SOL    HW236459   2.583   2.468   5.903
12145SOL     OW36460   3.519   2.466   6.792
12145SOL    HW136461   3.481   2.397   6.854
12145SOL    HW236462   3.601   2.430   6.748
12146SOL     OW36463   2.114   3.426   7.330
12146SOL    HW136464   2.084   3.483   7.406
12146SOL    HW236465   2.107   3.329   7.356
12147SOL     OW36466   2.533   2.326   6.855
12147SOL    HW136467   2.499   2.237   6.825
12147SOL    HW236468   2.559   2.380   6.775
12148SOL     OW36469   2.792   3.540   7.051
12148SOL    HW136470   2.768   3.522   6.956
12148SOL    HW236471   2.822   3.634   7.061
12149SOL     OW36472   2.335   2.362   5.777
12149SOL    HW136473   2.396   2.442   5.781
12149SOL    HW236474   2.240   2.393   5.784
12150SOL     OW36475   2.021   2.999   7.052
12150SOL    HW136476   2.043   2.938   7.128
12150SOL    HW236477   2.031   2.950   6.966
12151SOL     OW36478   3.209   2.921   6.820
12151SOL    HW136479   3.233   2.858   6.746
12151SOL    HW236480   3.119   2.961   6.802
12152SOL     OW36481   3.164   2.717   5.895
12152SOL    HW136482   3.078   2.686   5.937
12152SOL    HW236483   3.160   2.703   5.796
12153SOL     OW36484   3.621   3.609   6.740
12153SOL    HW136485   3.682   3.639   6.667
12153SOL    HW236486   3.583   3.520   6.718
12154SOL     OW36487   3.114   3.593   6.714
12154SOL    HW136488   3.198   3.598   6.660
12154SOL    HW236489   3.091   3.497   6.732
12155SOL     OW36490   1.945   3.120   6.608
12155SOL    HW136491   1.940   3.119   6.708
12155SOL    HW236492   1.862   3.079   6.570
12156SOL     OW36493   2.550   3.524   7.302
12156SOL    HW136494   2.494   3.605   7.311
12156SOL    HW236495   2.602   3.528   7.216
12157SOL     OW36496   3.588   1.997   6.109
12157SOL    HW136497   3.661   1.980   6.042
12157SOL    HW236498   3.557   1.910   6.147
12158SOL     OW36499   3.250   3.435   6.063
12158SOL    HW136500   3.317   3.447   5.989
12158SOL    HW236501   3.210   3.524   6.086
12159SOL     OW36502   1.992   3.656   7.437
12159SOL    HW136503   1.951   3.582   7.490
12159SOL    HW236504   2.056   3.707   7.495
12160SOL     OW36505   3.142   2.789   6.258
12160SOL    HW136506   3.202   2.708   6.260
12160SOL    HW236507   3.182   2.858   6.198
12161SOL     OW36508   2.692   3.135   7.008
12161SOL    HW136509   2.687   3.168   7.103
12161SOL    HW236510   2.606   3.154   6.962
12162SOL     OW36511   2.534   3.478   5.740
12162SOL    HW136512   2.543   3.488   5.641
12162SOL    HW236513   2.494   3.389   5.761
12163SOL     OW36514   3.512   3.582   6.980
12163SOL    HW136515   3.565   3.592   6.896
12163SOL    HW236516   3.485   3.672   7.014
12164SOL     OW36517   3.703   2.037   6.549
12164SOL    HW136518   3.742   1.952   6.513
12164SOL    HW236519   3.605   2.039   6.530
12165SOL     OW36520   2.125   2.188   6.306
12165SOL    HW136521   2.046   2.239   6.272
12165SOL    HW236522   2.116   2.173   6.404
12166SOL     OW36523   3.056   3.474   5.617
12166SOL    HW136524   3.062   3.381   5.654
12166SOL    HW236525   2.997   3.474   5.537
12167SOL     OW36526   2.684   2.864   6.958
12167SOL    HW136527   2.724   2.863   6.866
12167SOL    HW236528   2.694   2.956   6.998
12168SOL     OW36529   2.778   2.772   5.877
12168SOL    HW136530   2.841   2.810   5.809
12168SOL    HW236531   2.818   2.689   5.916
12169SOL     OW36532   3.366   3.469   5.630
12169SOL    HW136533   3.274   3.506   5.637
12169SOL    HW236534   3.404   3.489   5.540
12170SOL     OW36535   2.234   3.150   7.076
12170SOL    HW136536   2.221   3.243   7.042
12170SOL    HW236537   2.150   3.098   7.063
12171SOL     OW36538   3.476   3.154   6.875
12171SOL    HW136539   3.536   3.157   6.955
12171SOL    HW236540   3.401   3.218   6.888
12172SOL     OW36541   2.901   2.960   6.282
12172SOL    HW136542   2.831   2.913   6.336
12172SOL    HW236543   2.960   2.892   6.239
12173SOL     OW36544   2.876   2.098   6.557
12173SOL    HW136545   2.868   2.062   6.464
12173SOL    HW236546   2.874   2.022   6.622
12174SOL     OW36547   2.452   3.349   6.077
12174SOL    HW136548   2.494   3.291   6.007
12174SOL    HW236549   2.408   3.428   6.033
12175SOL     OW36550   3.571   2.247   6.967
12175SOL    HW136551   3.644   2.316   6.971
12175SOL    HW236552   3.599   2.172   6.908
12176SOL     OW36553   2.117   3.210   5.876
12176SOL    HW136554   2.021   3.211   5.849
12176SOL    HW236555   2.129   3.263   5.960
12177SOL     OW36556   1.967   2.875   7.312
12177SOL    HW136557   1.890   2.842   7.366
12177SOL    HW236558   2.052   2.845   7.354
12178SOL     OW36559   2.534   2.065   7.075
12178SOL    HW136560   2.624   2.049   7.035
12178SOL    HW236561   2.542   2.070   7.174
12179SOL     OW36562   1.937   2.207   5.619
12179SOL    HW136563   1.845   2.179   5.590
12179SOL    HW236564   1.968   2.284   5.563
12180SOL     OW36565   3.302   2.718   6.984
12180SOL    HW136566   3.245   2.770   6.921
12180SOL    HW236567   3.398   2.730   6.960
12181SOL     OW36568   1.934   2.028   5.904
12181SOL    HW136569   1.917   2.111   5.850
12181SOL    HW236570   2.024   1.991   5.882
12182SOL     OW36571   3.045   3.197   5.705
12182SOL    HW136572   2.946   3.186   5.707
12182SOL    HW236573   3.079   3.212   5.798
12183SOL     OW36574   2.475   2.704   7.017
12183SOL    HW136575   2.531   2.785   7.000
12183SOL    HW236576   2.534   2.624   7.020
12184SOL     OW36577   3.355   3.629   6.545
12184SOL    HW136578   3.388   3.693   6.476
12184SOL    HW236579   3.421   3.623   6.620
12185SOL     OW36580   2.578   2.427   7.294
12185SOL    HW136581   2.597   2.492   7.368
12185SOL    HW236582   2.638   2.347   7.303
12186SOL     OW36583   3.312   3.082   7.219
12186SOL    HW136584   3.303   3.072   7.318
12186SOL    HW236585   3.408   3.075   7.193
12187SOL     OW36586   2.252   3.603   7.146
12187SOL    HW136587   2.161   3.644   7.144
12187SOL    HW236588   2.245   3.509   7.178
12188SOL     OW36589   3.536   2.745   6.840
12188SOL    HW136590   3.509   2.656   6.803
12188SOL    HW236591   3.537   2.813   6.767
12189SOL     OW36592   3.087   2.187   6.035
12189SOL    HW136593   3.152   2.113   6.024
12189SOL    HW236594   3.107   2.237   6.119
12190SOL     OW36595   2.456   2.607   6.238
12190SOL    HW136596   2.506   2.692   6.219
12190SOL    HW236597   2.368   2.609   6.190
12191SOL     OW36598   3.639   2.204   7.228
12191SOL    HW136599   3.622   2.235   7.134
12191SOL    HW236600   3.555   2.167   7.266
12192SOL     OW36601   3.592   2.796   7.103
12192SOL    HW136602   3.630   2.887   7.118
12192SOL    HW236603   3.584   2.779   7.004
12193SOL     OW36604   2.721   3.236   5.602
12193SOL    HW136605   2.675   3.251   5.690
12193SOL    HW236606   2.765   3.321   5.572
12194SOL     OW36607   2.523   3.652   6.539
12194SOL    HW136608   2.477   3.740   6.526
12194SOL    HW236609   2.622   3.664   6.532
12195SOL     OW36610   2.721   2.818   6.447
12195SOL    HW136611   2.775   2.749   6.495
12195SOL    HW236612   2.689   2.887   6.513
12196SOL     OW36613   2.945   2.846   5.673
12196SOL    HW136614   2.922   2.899   5.591
12196SOL    HW236615   3.026   2.790   5.654
12197SOL     OW36616   3.723   3.431   6.437
12197SOL    HW136617   3.652   3.419   6.367
12197SOL    HW236618   3.724   3.352   6.497
12198SOL     OW36619   2.083   3.176   7.430
12198SOL    HW136620   2.018   3.103   7.409
12198SOL    HW236621   2.087   3.190   7.528
12199SOL     OW36622   1.941   3.102   6.239
12199SOL    HW136623   1.940   3.055   6.327
12199SOL    HW236624   2.023   3.074   6.188
12200SOL     OW36625   2.534   3.253   7.210
12200SOL    HW136626   2.456   3.203   7.248
12200SOL    HW236627   2.531   3.348   7.241
12201SOL     OW36628   3.686   2.054   6.813
12201SOL    HW136629   3.682   1.964   6.857
12201SOL    HW236630   3.689   2.043   6.714
12202SOL     OW36631   2.290   2.286   6.106
12202SOL    HW136632   2.320   2.214   6.044
12202SOL    HW236633   2.251   2.246   6.189
12203SOL     OW36634   3.567   3.349   6.690
12203SOL    HW136635   3.474   3.324   6.663
12203SOL    HW236636   3.593   3.299   6.772
12204SOL     OW36637   2.179   2.409   6.866
12204SOL    HW136638   2.217   2.350   6.938
12204SOL    HW236639   2.219   2.383   6.778
12205SOL     OW36640   2.674   3.448   6.273
12205SOL    HW136641   2.706   3.458   6.179
12205SOL    HW236642   2.595   3.386   6.275
12206SOL     OW36643   3.286   2.076   6.698
12206SOL    HW136644   3.338   2.011   6.753
12206SOL    HW236645   3.237   2.139   6.759
12207SOL     OW36646   2.863   1.896   6.740
12207SOL    HW136647   2.800   1.824   6.709
12207SOL    HW236648   2.956   1.860   6.740
12208SOL     OW36649   2.632   3.192   5.887
12208SOL    HW136650   2.586   3.105   5.904
12208SOL    HW236651   2.723   3.189   5.928
12209SOL     OW36652   2.480   3.429   6.870
12209SOL    HW136653   2.475   3.511   6.927
12209SOL    HW236654   2.569   3.426   6.825
12210SOL     OW36655   3.214   1.914   5.754
12210SOL    HW136656   3.249   1.873   5.670
12210SOL    HW236657   3.124   1.876   5.774
12211SOL     OW36658   3.162   2.315   6.277
12211SOL    HW136659   3.103   2.395   6.281
12211SOL    HW236660   3.177   2.280   6.370
12212SOL     OW36661   3.455   2.083   6.468
12212SOL    HW136662   3.371   2.082   6.522
12212SOL    HW236663   3.457   2.166   6.412
12213SOL     OW36664   1.901   2.939   5.886
12213SOL    HW136665   2.000   2.928   5.877
12213SOL    HW236666   1.861   2.853   5.918
12214SOL     OW36667   2.737   3.508   5.923
12214SOL    HW136668   2.660   3.473   5.869
12214SOL    HW236669   2.705   3.579   5.985
12215SOL     OW36670   2.092   2.490   7.561
12215SOL    HW136671   1.999   2.488   7.598
12215SOL    HW236672   2.093   2.451   7.469
12216SOL     OW36673   2.087   2.137   8.444
12216SOL    HW136674   2.122   2.120   8.536
12216SOL    HW236675   1.999   2.092   8.432
12217SOL     OW36676   1.881   2.230   8.095
12217SOL    HW136677   1.799   2.273   8.134
12217SOL    HW236678   1.853   2.157   8.032
12218SOL     OW36679   2.431   3.137   8.613
12218SOL    HW136680   2.338   3.130   8.576
12218SOL    HW236681   2.442   3.226   8.657
12219SOL     OW36682   3.417   3.373   8.151
12219SOL    HW136683   3.360   3.357   8.232
12219SOL    HW236684   3.358   3.383   8.071
12220SOL     OW36685   2.997   2.565   8.165
12220SOL    HW136686   3.054   2.643   8.140
12220SOL    HW236687   2.937   2.591   8.241
12221SOL     OW36688   3.617   2.469   7.679
12221SOL    HW136689   3.605   2.456   7.580
12221SOL    HW236690   3.587   2.388   7.728
12222SOL     OW36691   2.630   3.006   8.471
12222SOL    HW136692   2.552   3.023   8.531
12222SOL    HW236693   2.664   3.093   8.435
12223SOL     OW36694   2.712   2.660   9.271
12223SOL    HW136695   2.708   2.736   9.336
12223SOL    HW236696   2.734   2.696   9.180
12224SOL     OW36697   2.547   2.874   8.113
12224SOL    HW136698   2.616   2.858   8.183
12224SOL    HW236699   2.474   2.931   8.151
12225SOL     OW36700   2.548   3.023   9.251
12225SOL    HW136701   2.608   3.102   9.265
12225SOL    HW236702   2.462   3.054   9.210
12226SOL     OW36703   2.197   3.297   8.509
12226SOL    HW136704   2.119   3.266   8.456
12226SOL    HW236705   2.255   3.355   8.452
12227SOL     OW36706   3.322   3.367   8.787
12227SOL    HW136707   3.346   3.461   8.813
12227SOL    HW236708   3.306   3.313   8.869
12228SOL     OW36709   2.300   2.254   8.947
12228SOL    HW136710   2.382   2.198   8.956
12228SOL    HW236711   2.219   2.196   8.951
12229SOL     OW36712   3.465   2.309   8.185
12229SOL    HW136713   3.391   2.355   8.135
12229SOL    HW236714   3.516   2.377   8.238
12230SOL     OW36715   2.093   3.575   7.931
12230SOL    HW136716   2.127   3.652   7.985
12230SOL    HW236717   2.137   3.575   7.841
12231SOL     OW36718   2.989   3.203   9.138
12231SOL    HW136719   3.036   3.203   9.226
12231SOL    HW236720   2.941   3.116   9.127
12232SOL     OW36721   2.092   3.296   7.986
12232SOL    HW136722   2.066   3.392   7.986
12232SOL    HW236723   2.021   3.242   8.031
12233SOL     OW36724   2.102   2.953   8.334
12233SOL    HW136725   2.116   2.869   8.386
12233SOL    HW236726   2.047   3.017   8.389
12234SOL     OW36727   2.482   3.648   8.887
12234SOL    HW136728   2.390   3.631   8.922
12234SOL    HW236729   2.510   3.740   8.913
12235SOL     OW36730   2.468   2.826   7.571
12235SOL    HW136731   2.475   2.910   7.517
12235SOL    HW236732   2.514   2.839   7.659
12236SOL     OW36733   3.456   1.976   8.928
12236SOL    HW136734   3.438   2.043   8.856
12236SOL    HW236735   3.453   2.022   9.017
12237SOL     OW36736   1.984   2.505   8.011
12237SOL    HW136737   1.939   2.417   8.028
12237SOL    HW236738   1.983   2.559   8.095
12238SOL     OW36739   3.704   3.629   7.807
12238SOL    HW136740   3.758   3.600   7.887
12238SOL    HW236741   3.734   3.719   7.778
12239SOL     OW36742   1.889   3.458   7.565
12239SOL    HW136743   1.870   3.362   7.586
12239SOL    HW236744   1.856   3.516   7.640
12240SOL     OW36745   3.551   2.784   8.060
12240SOL    HW136746   3.646   2.755   8.068
12240SOL    HW236747   3.543   2.849   7.985
12241SOL     OW36748   3.503   2.970   7.880
12241SOL    HW136749   3.589   2.972   7.828
12241SOL    HW236750   3.517   3.017   7.968
12242SOL     OW36751   1.975   2.599   9.045
12242SOL    HW136752   2.063   2.586   9.090
12242SOL    HW236753   1.962   2.696   9.023
12243SOL     OW36754   2.475   3.227   8.174
12243SOL    HW136755   2.426   3.140   8.183
12243SOL    HW236756   2.452   3.270   8.087
12244SOL     OW36757   3.155   3.090   8.871
12244SOL    HW136758   3.192   3.017   8.813
12244SOL    HW236759   3.207   3.095   8.956
12245SOL     OW36760   2.671   1.866   7.950
12245SOL    HW136761   2.711   1.957   7.941
12245SOL    HW236762   2.571   1.874   7.956
12246SOL     OW36763   2.059   2.838   8.712
12246SOL    HW136764   2.148   2.793   8.698
12246SOL    HW236765   1.986   2.773   8.693
12247SOL     OW36766   3.387   2.861   7.638
12247SOL    HW136767   3.324   2.785   7.651
12247SOL    HW236768   3.435   2.879   7.724
12248SOL     OW36769   3.049   3.654   9.064
12248SOL    HW136770   3.073   3.714   8.988
12248SOL    HW236771   3.056   3.559   9.034
12249SOL     OW36772   2.179   2.113   9.249
12249SOL    HW136773   2.250   2.184   9.255
12249SOL    HW236774   2.091   2.152   9.277
12250SOL     OW36775   3.328   3.279   8.401
12250SOL    HW136776   3.269   3.285   8.481
12250SOL    HW236777   3.313   3.191   8.355
12251SOL     OW36778   3.529   3.576   8.020
12251SOL    HW136779   3.488   3.553   7.932
12251SOL    HW236780   3.511   3.502   8.085
12252SOL     OW36781   2.460   2.591   7.718
12252SOL    HW136782   2.484   2.660   7.650
12252SOL    HW236783   2.382   2.624   7.772
12253SOL     OW36784   3.143   2.207   8.392
12253SOL    HW136785   3.057   2.157   8.379
12253SOL    HW236786   3.205   2.153   8.448
12254SOL     OW36787   3.438   3.524   7.755
12254SOL    HW136788   3.527   3.570   7.758
12254SOL    HW236789   3.417   3.500   7.660
12255SOL     OW36790   2.669   2.467   8.913
12255SOL    HW136791   2.622   2.464   9.002
12255SOL    HW236792   2.618   2.412   8.847
12256SOL     OW36793   3.256   2.331   9.122
12256SOL    HW136794   3.236   2.374   9.210
12256SOL    HW236795   3.334   2.269   9.131
12257SOL     OW36796   2.835   2.752   9.020
12257SOL    HW136797   2.881   2.668   8.991
12257SOL    HW236798   2.779   2.786   8.945
12258SOL     OW36799   2.853   2.272   8.690
12258SOL    HW136800   2.776   2.306   8.744
12258SOL    HW236801   2.819   2.221   8.611
12259SOL     OW36802   2.903   2.563   7.877
12259SOL    HW136803   2.929   2.559   7.973
12259SOL    HW236804   2.818   2.512   7.863
12260SOL     OW36805   1.938   2.673   8.237
12260SOL    HW136806   2.037   2.661   8.246
12260SOL    HW236807   1.914   2.768   8.258
12261SOL     OW36808   1.992   3.683   9.019
12261SOL    HW136809   1.982   3.668   9.118
12261SOL    HW236810   1.906   3.719   8.983
12262SOL     OW36811   2.727   2.210   7.643
12262SOL    HW136812   2.786   2.273   7.594
12262SOL    HW236813   2.746   2.116   7.614
12263SOL     OW36814   3.581   2.447   9.279
12263SOL    HW136815   3.555   2.536   9.243
12263SOL    HW236816   3.579   2.379   9.206
12264SOL     OW36817   3.224   3.006   7.993
12264SOL    HW136818   3.307   2.977   7.945
12264SOL    HW236819   3.175   3.073   7.937
12265SOL     OW36820   2.412   2.058   8.333
12265SOL    HW136821   2.407   2.053   8.433
12265SOL    HW236822   2.414   2.154   8.304
12266SOL     OW36823   2.870   3.318   7.925
12266SOL    HW136824   2.824   3.390   7.873
12266SOL    HW236825   2.866   3.338   8.023
12267SOL     OW36826   2.213   3.663   8.301
12267SOL    HW136827   2.263   3.577   8.307
12267SOL    HW236828   2.278   3.740   8.298
12268SOL     OW36829   3.657   2.928   8.321
12268SOL    HW136830   3.595   2.913   8.245
12268SOL    HW236831   3.605   2.939   8.406
12269SOL     OW36832   3.089   3.412   8.954
12269SOL    HW136833   3.095   3.335   9.018
12269SOL    HW236834   3.037   3.386   8.874
12270SOL     OW36835   2.183   2.805   7.690
12270SOL    HW136836   2.265   2.844   7.648
12270SOL    HW236837   2.156   2.723   7.641
12271SOL     OW36838   3.320   2.597   8.176
12271SOL    HW136839   3.315   2.532   8.251
12271SOL    HW236840   3.400   2.656   8.189
12272SOL     OW36841   2.323   3.128   9.175
12272SOL    HW136842   2.273   3.129   9.089
12272SOL    HW236843   2.260   3.110   9.251
12273SOL     OW36844   2.973   3.638   7.685
12273SOL    HW136845   2.913   3.576   7.735
12273SOL    HW236846   3.004   3.594   7.600
12274SOL     OW36847   2.064   2.147   8.946
12274SOL    HW136848   1.984   2.207   8.933
12274SOL    HW236849   2.054   2.098   9.032
12275SOL     OW36850   3.494   3.239   7.529
12275SOL    HW136851   3.462   3.333   7.519
12275SOL    HW236852   3.418   3.176   7.517
12276SOL     OW36853   2.326   3.605   7.771
12276SOL    HW136854   2.359   3.644   7.857
12276SOL    HW236855   2.402   3.598   7.706
12277SOL     OW36856   3.262   1.969   7.874
12277SOL    HW136857   3.238   1.932   7.784
12277SOL    HW236858   3.361   1.985   7.878
12278SOL     OW36859   2.111   3.647   8.689
12278SOL    HW136860   2.168   3.582   8.739
12278SOL    HW236861   2.095   3.614   8.596
12279SOL     OW36862   2.802   3.560   8.352
12279SOL    HW136863   2.882   3.503   8.373
12279SOL    HW236864   2.753   3.520   8.275
12280SOL     OW36865   2.244   2.562   7.928
12280SOL    HW136866   2.289   2.472   7.925
12280SOL    HW236867   2.150   2.551   7.961
12281SOL     OW36868   3.409   2.084   9.177
12281SOL    HW136869   3.404   2.121   9.269
12281SOL    HW236870   3.337   2.015   9.165
12282SOL     OW36871   2.476   1.984   7.565
12282SOL    HW136872   2.574   1.962   7.572
12282SOL    HW236873   2.445   1.967   7.472
12283SOL     OW36874   2.643   2.126   9.197
12283SOL    HW136875   2.710   2.065   9.240
12283SOL    HW236876   2.570   2.145   9.262
12284SOL     OW36877   2.750   3.376   8.643
12284SOL    HW136878   2.727   3.351   8.549
12284SOL    HW236879   2.811   3.307   8.682
12285SOL     OW36880   3.213   2.452   8.881
12285SOL    HW136881   3.241   2.409   8.966
12285SOL    HW236882   3.238   2.548   8.882
12286SOL     OW36883   2.665   3.264   8.372
12286SOL    HW136884   2.755   3.278   8.330
12286SOL    HW236885   2.594   3.266   8.301
12287SOL     OW36886   2.784   2.365   8.347
12287SOL    HW136887   2.759   2.356   8.251
12287SOL    HW236888   2.832   2.283   8.378
12288SOL     OW36889   2.401   1.926   7.960
12288SOL    HW136890   2.320   1.927   8.018
12288SOL    HW236891   2.404   2.009   7.905
12289SOL     OW36892   3.296   3.050   7.489
12289SOL    HW136893   3.328   2.974   7.546
12289SOL    HW236894   3.204   3.077   7.519
12290SOL     OW36895   2.159   1.897   7.619
12290SOL    HW136896   2.208   1.981   7.598
12290SOL    HW236897   2.221   1.832   7.664
12291SOL     OW36898   2.797   2.098   7.928
12291SOL    HW136899   2.749   2.139   7.850
12291SOL    HW236900   2.896   2.096   7.909
12292SOL     OW36901   2.938   2.545   8.912
12292SOL    HW136902   2.858   2.484   8.915
12292SOL    HW236903   3.019   2.492   8.888
12293SOL     OW36904   3.089   3.432   8.241
12293SOL    HW136905   3.110   3.506   8.176
12293SOL    HW236906   3.157   3.432   8.314
12294SOL     OW36907   2.321   3.014   8.189
12294SOL    HW136908   2.250   2.987   8.254
12294SOL    HW236909   2.295   2.986   8.096
12295SOL     OW36910   3.133   3.659   8.039
12295SOL    HW136911   3.177   3.723   7.975
12295SOL    HW236912   3.083   3.711   8.109
12296SOL     OW36913   2.894   2.411   7.464
12296SOL    HW136914   2.853   2.493   7.425
12296SOL    HW236915   2.958   2.437   7.537
12297SOL     OW36916   1.940   2.418   8.834
12297SOL    HW136917   2.032   2.417   8.793
12297SOL    HW236918   1.934   2.492   8.901
12298SOL     OW36919   2.423   2.084   8.595
12298SOL    HW136920   2.461   2.000   8.632
12298SOL    HW236921   2.335   2.103   8.639
12299SOL     OW36922   2.728   2.316   8.090
12299SOL    HW136923   2.696   2.388   8.028
12299SOL    HW236924   2.752   2.235   8.037
12300SOL     OW36925   2.879   1.901   8.201
12300SOL    HW136926   2.807   1.906   8.132
12300SOL    HW236927   2.855   1.832   8.270
12301SOL     OW36928   3.291   3.035   8.315
12301SOL    HW136929   3.236   2.951   8.308
12301SOL    HW236930   3.317   3.064   8.223
12302SOL     OW36931   3.328   2.452   8.440
12302SOL    HW136932   3.298   2.357   8.447
12302SOL    HW236933   3.401   2.468   8.506
12303SOL     OW36934   3.719   2.695   7.825
12303SOL    HW136935   3.761   2.631   7.889
12303SOL    HW236936   3.681   2.644   7.747
12304SOL     OW36937   2.350   3.247   7.622
12304SOL    HW136938   2.263   3.232   7.669
12304SOL    HW236939   2.333   3.273   7.527
12305SOL     OW36940   3.526   3.142   8.105
12305SOL    HW136941   3.625   3.150   8.119
12305SOL    HW236942   3.481   3.226   8.136
12306SOL     OW36943   3.252   2.437   7.526
12306SOL    HW136944   3.198   2.416   7.607
12306SOL    HW236945   3.343   2.396   7.535
12307SOL     OW36946   2.389   2.118   7.776
12307SOL    HW136947   2.416   2.059   7.701
12307SOL    HW236948   2.389   2.213   7.745
12308SOL     OW36949   3.616   3.085   9.036
12308SOL    HW136950   3.707   3.046   9.023
12308SOL    HW236951   3.624   3.181   9.060
12309SOL     OW36952   2.926   3.209   8.788
12309SOL    HW136953   2.846   3.186   8.843
12309SOL    HW236954   3.009   3.183   8.837
12310SOL     OW36955   3.454   3.491   9.073
12310SOL    HW136956   3.481   3.525   8.983
12310SOL    HW236957   3.533   3.453   9.119
12311SOL     OW36958   2.973   3.057   8.548
12311SOL    HW136959   2.933   3.101   8.629
12311SOL    HW236960   2.932   3.094   8.465
12312SOL     OW36961   3.500   2.961   8.527
12312SOL    HW136962   3.505   3.042   8.586
12312SOL    HW236963   3.414   2.963   8.476
12313SOL     OW36964   2.777   1.951   8.850
12313SOL    HW136965   2.802   1.931   8.755
12313SOL    HW236966   2.849   2.007   8.892
12314SOL     OW36967   2.842   2.978   9.167
12314SOL    HW136968   2.743   2.984   9.177
12314SOL    HW236969   2.865   2.898   9.111
12315SOL     OW36970   2.567   2.912   7.816
12315SOL    HW136971   2.553   2.919   7.915
12315SOL    HW236972   2.651   2.861   7.798
12316SOL     OW36973   2.272   2.675   8.699
12316SOL    HW136974   2.358   2.687   8.749
12316SOL    HW236975   2.230   2.588   8.726
12317SOL     OW36976   3.136   2.248   8.710
12317SOL    HW136977   3.157   2.322   8.774
12317SOL    HW236978   3.047   2.265   8.667
12318SOL     OW36979   1.926   3.426   8.779
12318SOL    HW136980   1.880   3.508   8.745
12318SOL    HW236981   2.024   3.445   8.788
12319SOL     OW36982   2.229   2.962   7.949
12319SOL    HW136983   2.222   3.045   7.893
12319SOL    HW236984   2.233   2.882   7.889
12320SOL     OW36985   2.428   2.399   8.313
12320SOL    HW136986   2.440   2.465   8.239
12320SOL    HW236987   2.474   2.433   8.396
12321SOL     OW36988   3.114   3.210   7.836
12321SOL    HW136989   3.164   3.287   7.876
12321SOL    HW236990   3.019   3.212   7.868
12322SOL     OW36991   3.134   3.307   8.590
12322SOL    HW136992   3.181   3.320   8.677
12322SOL    HW236993   3.068   3.233   8.599
12323SOL     OW36994   3.444   2.501   7.920
12323SOL    HW136995   3.413   2.562   7.993
12323SOL    HW236996   3.494   2.553   7.851
12324SOL     OW36997   2.216   3.372   8.777
12324SOL    HW136998   2.195   3.328   8.690
12324SOL    HW236999   2.313   3.398   8.780
12325SOL     OW37000   2.264   2.613   9.046
12325SOL    HW137001   2.332   2.668   8.999
12325SOL    HW237002   2.304   2.525   9.073
12326SOL     OW37003   3.449   2.641   9.118
12326SOL    HW137004   3.357   2.679   9.113
12326SOL    HW237005   3.509   2.688   9.053
12327SOL     OW37006   2.875   1.967   9.218
12327SOL    HW137007   2.881   2.052   9.166
12327SOL    HW237008   2.907   1.891   9.161
12328SOL     OW37009   2.366   1.912   9.188
12328SOL    HW137010   2.324   1.855   9.118
12328SOL    HW237011   2.300   1.981   9.220
12329SOL     OW37012   2.435   2.732   8.477
12329SOL    HW137013   2.479   2.821   8.468
12329SOL    HW237014   2.372   2.732   8.554
12330SOL     OW37015   3.222   2.724   8.493
12330SOL    HW137016   3.147   2.724   8.427
12330SOL    HW237017   3.259   2.632   8.502
12331SOL     OW37018   3.071   2.387   7.723
12331SOL    HW137019   3.084   2.303   7.777
12331SOL    HW237020   3.042   2.461   7.783
12332SOL     OW37021   2.169   2.075   8.679
12332SOL    HW137022   2.146   2.112   8.769
12332SOL    HW237023   2.139   1.980   8.673
12333SOL     OW37024   1.899   3.172   8.730
12333SOL    HW137025   1.952   3.123   8.798
12333SOL    HW237026   1.921   3.270   8.735
12334SOL     OW37027   2.594   2.496   8.512
12334SOL    HW137028   2.653   2.470   8.436
12334SOL    HW237029   2.566   2.592   8.501
12335SOL     OW37030   3.590   2.797   9.302
12335SOL    HW137031   3.544   2.790   9.213
12335SOL    HW237032   3.528   2.841   9.368
12336SOL     OW37033   2.169   1.925   8.066
12336SOL    HW137034   2.158   2.019   8.099
12336SOL    HW237035   2.164   1.862   8.143
12337SOL     OW37036   3.484   2.229   7.822
12337SOL    HW137037   3.486   2.153   7.886
12337SOL    HW237038   3.436   2.306   7.862
12338SOL     OW37039   2.885   2.628   8.414
12338SOL    HW137040   2.900   2.649   8.510
12338SOL    HW237041   2.855   2.533   8.405
12339SOL     OW37042   2.842   3.435   9.148
12339SOL    HW137043   2.822   3.479   9.060
12339SOL    HW237044   2.881   3.344   9.132
12340SOL     OW37045   3.721   3.380   9.053
12340SOL    HW137046   3.735   3.407   8.958
12340SOL    HW237047   3.804   3.402   9.106
12341SOL     OW37048   2.212   2.760   9.252
12341SOL    HW137049   2.288   2.804   9.300
12341SOL    HW237050   2.247   2.713   9.170
12342SOL     OW37051   3.402   2.136   7.573
12342SOL    HW137052   3.341   2.061   7.596
12342SOL    HW237053   3.424   2.188   7.656
12343SOL     OW37054   3.165   2.700   7.490
12343SOL    HW137055   3.199   2.607   7.505
12343SOL    HW237056   3.183   2.727   7.395
12344SOL     OW37057   2.930   3.195   8.297
12344SOL    HW137058   2.937   3.111   8.242
12344SOL    HW237059   2.992   3.264   8.261
12345SOL     OW37060   2.181   2.672   8.397
12345SOL    HW137061   2.274   2.708   8.402
12345SOL    HW237062   2.175   2.587   8.449
12346SOL     OW37063   2.201   2.371   8.454
12346SOL    HW137064   2.149   2.288   8.437
12346SOL    HW237065   2.278   2.376   8.390
12347SOL     OW37066   3.000   2.242   9.126
12347SOL    HW137067   2.955   2.305   9.190
12347SOL    HW237068   3.093   2.273   9.109
12348SOL     OW37069   3.022   2.069   8.925
12348SOL    HW137070   3.022   2.133   9.002
12348SOL    HW237071   3.050   2.117   8.842
12349SOL     OW37072   1.870   3.188   7.648
12349SOL    HW137073   1.777   3.209   7.617
12349SOL    HW237074   1.880   3.089   7.661
12350SOL     OW37075   1.950   3.663   8.375
12350SOL    HW137076   1.908   3.577   8.348
12350SOL    HW237077   2.044   3.666   8.341
12351SOL     OW37078   2.366   3.430   8.358
12351SOL    HW137079   2.432   3.504   8.367
12351SOL    HW237080   2.410   3.351   8.316
12352SOL     OW37081   2.864   2.658   8.686
12352SOL    HW137082   2.905   2.626   8.772
12352SOL    HW237083   2.768   2.631   8.683
12353SOL     OW37084   1.902   2.406   8.562
12353SOL    HW137085   1.987   2.373   8.521
12353SOL    HW237086   1.915   2.421   8.660
12354SOL     OW37087   2.051   2.382   9.170
12354SOL    HW137088   2.110   2.342   9.100
12354SOL    HW237089   1.993   2.453   9.129
12355SOL     OW37090   3.231   2.812   9.108
12355SOL    HW137091   3.270   2.901   9.128
12355SOL    HW237092   3.241   2.792   9.011
12356SOL     OW37093   2.677   2.434   7.773
12356SOL    HW137094   2.684   2.345   7.727
12356SOL    HW237095   2.583   2.468   7.765
12357SOL     OW37096   3.519   2.466   8.654
12357SOL    HW137097   3.481   2.397   8.716
12357SOL    HW237098   3.601   2.430   8.610
12358SOL     OW37099   2.114   3.426   9.192
12358SOL    HW137100   2.084   3.483   9.268
12358SOL    HW237101   2.107   3.329   9.218
12359SOL     OW37102   2.533   2.326   8.717
12359SOL    HW137103   2.499   2.237   8.687
12359SOL    HW237104   2.559   2.380   8.637
12360SOL     OW37105   2.792   3.540   8.913
12360SOL    HW137106   2.768   3.522   8.818
12360SOL    HW237107   2.822   3.634   8.923
12361SOL     OW37108   2.335   2.362   7.639
12361SOL    HW137109   2.396   2.442   7.643
12361SOL    HW237110   2.240   2.393   7.646
12362SOL     OW37111   2.021   2.999   8.914
12362SOL    HW137112   2.043   2.938   8.990
12362SOL    HW237113   2.031   2.950   8.828
12363SOL     OW37114   3.209   2.921   8.682
12363SOL    HW137115   3.233   2.858   8.608
12363SOL    HW237116   3.119   2.961   8.664
12364SOL     OW37117   3.164   2.717   7.757
12364SOL    HW137118   3.078   2.686   7.799
12364SOL    HW237119   3.160   2.703   7.658
12365SOL     OW37120   3.621   3.609   8.602
12365SOL    HW137121   3.682   3.639   8.529
12365SOL    HW237122   3.583   3.520   8.580
12366SOL     OW37123   3.114   3.593   8.576
12366SOL    HW137124   3.198   3.598   8.522
12366SOL    HW237125   3.091   3.497   8.594
12367SOL     OW37126   1.945   3.120   8.470
12367SOL    HW137127   1.940   3.119   8.570
12367SOL    HW237128   1.862   3.079   8.432
12368SOL     OW37129   2.550   3.524   9.164
12368SOL    HW137130   2.494   3.605   9.173
12368SOL    HW237131   2.602   3.528   9.078
12369SOL     OW37132   3.588   1.997   7.971
12369SOL    HW137133   3.661   1.980   7.904
12369SOL    HW237134   3.557   1.910   8.009
12370SOL     OW37135   3.250   3.435   7.925
12370SOL    HW137136   3.317   3.447   7.851
12370SOL    HW237137   3.210   3.524   7.948
12371SOL     OW37138   1.992   3.656   9.299
12371SOL    HW137139   1.951   3.582   9.352
12371SOL    HW237140   2.056   3.707   9.357
12372SOL     OW37141   3.142   2.789   8.120
12372SOL    HW137142   3.202   2.708   8.122
12372SOL    HW237143   3.182   2.858   8.060
12373SOL     OW37144   2.692   3.135   8.870
12373SOL    HW137145   2.687   3.168   8.965
12373SOL    HW237146   2.606   3.154   8.824
12374SOL     OW37147   2.534   3.478   7.602
12374SOL    HW137148   2.543   3.488   7.503
12374SOL    HW237149   2.494   3.389   7.623
12375SOL     OW37150   3.512   3.582   8.842
12375SOL    HW137151   3.565   3.592   8.758
12375SOL    HW237152   3.485   3.672   8.876
12376SOL     OW37153   3.703   2.037   8.411
12376SOL    HW137154   3.742   1.952   8.375
12376SOL    HW237155   3.605   2.039   8.392
12377SOL     OW37156   2.125   2.188   8.168
12377SOL    HW137157   2.046   2.239   8.134
12377SOL    HW237158   2.116   2.173   8.266
12378SOL     OW37159   3.056   3.474   7.479
12378SOL    HW137160   3.062   3.381   7.516
12378SOL    HW237161   2.997   3.474   7.399
12379SOL     OW37162   2.684   2.864   8.820
12379SOL    HW137163   2.724   2.863   8.728
12379SOL    HW237164   2.694   2.956   8.860
12380SOL     OW37165   2.778   2.772   7.739
12380SOL    HW137166   2.841   2.810   7.671
12380SOL    HW237167   2.818   2.689   7.778
12381SOL     OW37168   3.366   3.469   7.492
12381SOL    HW137169   3.274   3.506   7.499
12381SOL    HW237170   3.404   3.489   7.402
12382SOL     OW37171   2.234   3.150   8.938
12382SOL    HW137172   2.221   3.243   8.904
12382SOL    HW237173   2.150   3.098   8.925
12383SOL     OW37174   3.476   3.154   8.737
12383SOL    HW137175   3.536   3.157   8.817
12383SOL    HW237176   3.401   3.218   8.750
12384SOL     OW37177   2.901   2.960   8.144
12384SOL    HW137178   2.831   2.913   8.198
12384SOL    HW237179   2.960   2.892   8.101
12385SOL     OW37180   2.876   2.098   8.419
12385SOL    HW137181   2.868   2.062   8.326
12385SOL    HW237182   2.874   2.022   8.484
12386SOL     OW37183   2.452   3.349   7.939
12386SOL    HW137184   2.494   3.291   7.869
12386SOL    HW237185   2.408   3.428   7.895
12387SOL     OW37186   3.571   2.247   8.829
12387SOL    HW137187   3.644   2.316   8.833
12387SOL    HW237188   3.599   2.172   8.770
12388SOL     OW37189   2.117   3.210   7.738
12388SOL    HW137190   2.021   3.211   7.711
12388SOL    HW237191   2.129   3.263   7.822
12389SOL     OW37192   1.967   2.875   9.174
12389SOL    HW137193   1.890   2.842   9.228
12389SOL    HW237194   2.052   2.845   9.216
12390SOL     OW37195   2.534   2.065   8.937
12390SOL    HW137196   2.624   2.049   8.897
12390SOL    HW237197   2.542   2.070   9.036
12391SOL     OW37198   1.937   2.207   7.481
12391SOL    HW137199   1.845   2.179   7.452
12391SOL    HW237200   1.968   2.284   7.425
12392SOL     OW37201   3.302   2.718   8.846
12392SOL    HW137202   3.245   2.770   8.783
12392SOL    HW237203   3.398   2.730   8.822
12393SOL     OW37204   1.934   2.028   7.766
12393SOL    HW137205   1.917   2.111   7.712
12393SOL    HW237206   2.024   1.991   7.744
12394SOL     OW37207   3.045   3.197   7.567
12394SOL    HW137208   2.946   3.186   7.569
12394SOL    HW237209   3.079   3.212   7.660
12395SOL     OW37210   2.475   2.704   8.879
12395SOL    HW137211   2.531   2.785   8.862
12395SOL    HW237212   2.534   2.624   8.882
12396SOL     OW37213   3.355   3.629   8.407
12396SOL    HW137214   3.388   3.693   8.338
12396SOL    HW237215   3.421   3.623   8.482
12397SOL     OW37216   2.578   2.427   9.156
12397SOL    HW137217   2.597   2.492   9.230
12397SOL    HW237218   2.638   2.347   9.165
12398SOL     OW37219   3.312   3.082   9.081
12398SOL    HW137220   3.303   3.072   9.180
12398SOL    HW237221   3.408   3.075   9.055
12399SOL     OW37222   2.252   3.603   9.008
12399SOL    HW137223   2.161   3.644   9.006
12399SOL    HW237224   2.245   3.509   9.040
12400SOL     OW37225   3.536   2.745   8.702
12400SOL    HW137226   3.509   2.656   8.665
12400SOL    HW237227   3.537   2.813   8.629
12401SOL     OW37228   3.087   2.187   7.897
12401SOL    HW137229   3.152   2.113   7.886
12401SOL    HW237230   3.107   2.237   7.981
12402SOL     OW37231   2.456   2.607   8.100
12402SOL    HW137232   2.506   2.692   8.081
12402SOL    HW237233   2.368   2.609   8.052
12403SOL     OW37234   3.639   2.204   9.090
12403SOL    HW137235   3.622   2.235   8.996
12403SOL    HW237236   3.555   2.167   9.128
12404SOL     OW37237   3.592   2.796   8.965
12404SOL    HW137238   3.630   2.887   8.980
12404SOL    HW237239   3.584   2.779   8.866
12405SOL     OW37240   2.721   3.236   7.464
12405SOL    HW137241   2.675   3.251   7.552
12405SOL    HW237242   2.765   3.321   7.434
12406SOL     OW37243   2.523   3.652   8.401
12406SOL    HW137244   2.477   3.740   8.388
12406SOL    HW237245   2.622   3.664   8.394
12407SOL     OW37246   2.721   2.818   8.309
12407SOL    HW137247   2.775   2.749   8.357
12407SOL    HW237248   2.689   2.887   8.375
12408SOL     OW37249   2.945   2.846   7.535
12408SOL    HW137250   2.922   2.899   7.453
12408SOL    HW237251   3.026   2.790   7.516
12409SOL     OW37252   3.723   3.431   8.299
12409SOL    HW137253   3.652   3.419   8.229
12409SOL    HW237254   3.724   3.352   8.359
12410SOL     OW37255   2.083   3.176   9.292
12410SOL    HW137256   2.018   3.103   9.271
12410SOL    HW237257   2.087   3.190   9.390
12411SOL     OW37258   1.941   3.102   8.101
12411SOL    HW137259   1.940   3.055   8.189
12411SOL    HW237260   2.023   3.074   8.050
12412SOL     OW37261   2.534   3.253   9.072
12412SOL    HW137262   2.456   3.203   9.110
12412SOL    HW237263   2.531   3.348   9.103
12413SOL     OW37264   3.686   2.054   8.675
12413SOL    HW137265   3.682   1.964   8.719
12413SOL    HW237266   3.689   2.043   8.576
12414SOL     OW37267   2.290   2.286   7.968
12414SOL    HW137268   2.320   2.214   7.906
12414SOL    HW237269   2.251   2.246   8.051
12415SOL     OW37270   3.567   3.349   8.552
12415SOL    HW137271   3.474   3.324   8.525
12415SOL    HW237272   3.593   3.299   8.634
12416SOL     OW37273   2.179   2.409   8.728
12416SOL    HW137274   2.217   2.350   8.800
12416SOL    HW237275   2.219   2.383   8.640
12417SOL     OW37276   2.674   3.448   8.135
12417SOL    HW137277   2.706   3.458   8.041
12417SOL    HW237278   2.595   3.386   8.137
12418SOL     OW37279   3.286   2.076   8.560
12418SOL    HW137280   3.338   2.011   8.615
12418SOL    HW237281   3.237   2.139   8.621
12419SOL     OW37282   2.863   1.896   8.602
12419SOL    HW137283   2.800   1.824   8.571
12419SOL    HW237284   2.956   1.860   8.602
12420SOL     OW37285   2.632   3.192   7.749
12420SOL    HW137286   2.586   3.105   7.766
12420SOL    HW237287   2.723   3.189   7.790
12421SOL     OW37288   2.480   3.429   8.732
12421SOL    HW137289   2.475   3.511   8.789
12421SOL    HW237290   2.569   3.426   8.687
12422SOL     OW37291   3.214   1.914   7.616
12422SOL    HW137292   3.249   1.873   7.532
12422SOL    HW237293   3.124   1.876   7.636
12423SOL     OW37294   3.162   2.315   8.139
12423SOL    HW137295   3.103   2.395   8.143
12423SOL    HW237296   3.177   2.280   8.232
12424SOL     OW37297   3.455   2.083   8.330
12424SOL    HW137298   3.371   2.082   8.384
12424SOL    HW237299   3.457   2.166   8.274
12425SOL     OW37300   1.901   2.939   7.748
12425SOL    HW137301   2.000   2.928   7.739
12425SOL    HW237302   1.861   2.853   7.780
12426SOL     OW37303   2.737   3.508   7.785
12426SOL    HW137304   2.660   3.473   7.731
12426SOL    HW237305   2.705   3.579   7.847
12427SOL     OW37306   2.092   2.490   9.423
12427SOL    HW137307   1.999   2.488   9.460
12427SOL    HW237308   2.093   2.451   9.331
12428SOL     OW37309   2.087   2.137  10.306
12428SOL    HW137310   2.122   2.120  10.398
12428SOL    HW237311   1.999   2.092  10.294
12429SOL     OW37312   1.881   2.230   9.957
12429SOL    HW137313   1.799   2.273   9.996
12429SOL    HW237314   1.853   2.157   9.894
12430SOL     OW37315   2.431   3.137  10.475
12430SOL    HW137316   2.338   3.130  10.438
12430SOL    HW237317   2.442   3.226  10.519
12431SOL     OW37318   3.417   3.373  10.013
12431SOL    HW137319   3.360   3.357  10.094
12431SOL    HW237320   3.358   3.383   9.933
12432SOL     OW37321   2.997   2.565  10.027
12432SOL    HW137322   3.054   2.643  10.002
12432SOL    HW237323   2.937   2.591  10.103
12433SOL     OW37324   3.617   2.469   9.541
12433SOL    HW137325   3.605   2.456   9.442
12433SOL    HW237326   3.587   2.388   9.590
12434SOL     OW37327   2.630   3.006  10.333
12434SOL    HW137328   2.552   3.023  10.393
12434SOL    HW237329   2.664   3.093  10.297
12435SOL     OW37330   2.712   2.660  11.133
12435SOL    HW137331   2.708   2.736  11.198
12435SOL    HW237332   2.734   2.696  11.042
12436SOL     OW37333   2.547   2.874   9.975
12436SOL    HW137334   2.616   2.858  10.045
12436SOL    HW237335   2.474   2.931  10.013
12437SOL     OW37336   2.548   3.023  11.113
12437SOL    HW137337   2.608   3.102  11.127
12437SOL    HW237338   2.462   3.054  11.072
12438SOL     OW37339   2.197   3.297  10.371
12438SOL    HW137340   2.119   3.266  10.318
12438SOL    HW237341   2.255   3.355  10.314
12439SOL     OW37342   3.322   3.367  10.649
12439SOL    HW137343   3.346   3.461  10.675
12439SOL    HW237344   3.306   3.313  10.731
12440SOL     OW37345   2.300   2.254  10.809
12440SOL    HW137346   2.382   2.198  10.818
12440SOL    HW237347   2.219   2.196  10.813
12441SOL     OW37348   3.465   2.309  10.047
12441SOL    HW137349   3.391   2.355   9.997
12441SOL    HW237350   3.516   2.377  10.100
12442SOL     OW37351   2.093   3.575   9.793
12442SOL    HW137352   2.127   3.652   9.847
12442SOL    HW237353   2.137   3.575   9.703
12443SOL     OW37354   2.989   3.203  11.000
12443SOL    HW137355   3.036   3.203  11.088
12443SOL    HW237356   2.941   3.116  10.989
12444SOL     OW37357   2.092   3.296   9.848
12444SOL    HW137358   2.066   3.392   9.848
12444SOL    HW237359   2.021   3.242   9.893
12445SOL     OW37360   2.102   2.953  10.196
12445SOL    HW137361   2.116   2.869  10.248
12445SOL    HW237362   2.047   3.017  10.251
12446SOL     OW37363   2.482   3.648  10.749
12446SOL    HW137364   2.390   3.631  10.784
12446SOL    HW237365   2.510   3.740  10.775
12447SOL     OW37366   2.468   2.826   9.433
12447SOL    HW137367   2.475   2.910   9.379
12447SOL    HW237368   2.514   2.839   9.521
12448SOL     OW37369   3.456   1.976  10.790
12448SOL    HW137370   3.438   2.043  10.718
12448SOL    HW237371   3.453   2.022  10.879
12449SOL     OW37372   1.984   2.505   9.873
12449SOL    HW137373   1.939   2.417   9.890
12449SOL    HW237374   1.983   2.559   9.957
12450SOL     OW37375   3.704   3.629   9.669
12450SOL    HW137376   3.758   3.600   9.749
12450SOL    HW237377   3.734   3.719   9.640
12451SOL     OW37378   1.889   3.458   9.427
12451SOL    HW137379   1.870   3.362   9.448
12451SOL    HW237380   1.856   3.516   9.502
12452SOL     OW37381   3.551   2.784   9.922
12452SOL    HW137382   3.646   2.755   9.930
12452SOL    HW237383   3.543   2.849   9.847
12453SOL     OW37384   3.503   2.970   9.742
12453SOL    HW137385   3.589   2.972   9.690
12453SOL    HW237386   3.517   3.017   9.830
12454SOL     OW37387   1.975   2.599  10.907
12454SOL    HW137388   2.063   2.586  10.952
12454SOL    HW237389   1.962   2.696  10.885
12455SOL     OW37390   2.475   3.227  10.036
12455SOL    HW137391   2.426   3.140  10.045
12455SOL    HW237392   2.452   3.270   9.949
12456SOL     OW37393   3.155   3.090  10.733
12456SOL    HW137394   3.192   3.017  10.675
12456SOL    HW237395   3.207   3.095  10.818
12457SOL     OW37396   2.671   1.866   9.812
12457SOL    HW137397   2.711   1.957   9.803
12457SOL    HW237398   2.571   1.874   9.818
12458SOL     OW37399   2.059   2.838  10.574
12458SOL    HW137400   2.148   2.793  10.560
12458SOL    HW237401   1.986   2.773  10.555
12459SOL     OW37402   3.387   2.861   9.500
12459SOL    HW137403   3.324   2.785   9.513
12459SOL    HW237404   3.435   2.879   9.586
12460SOL     OW37405   3.049   3.654  10.926
12460SOL    HW137406   3.073   3.714  10.850
12460SOL    HW237407   3.056   3.559  10.896
12461SOL     OW37408   2.179   2.113  11.111
12461SOL    HW137409   2.250   2.184  11.117
12461SOL    HW237410   2.091   2.152  11.139
12462SOL     OW37411   3.328   3.279  10.263
12462SOL    HW137412   3.269   3.285  10.343
12462SOL    HW237413   3.313   3.191  10.217
12463SOL     OW37414   3.529   3.576   9.882
12463SOL    HW137415   3.488   3.553   9.794
12463SOL    HW237416   3.511   3.502   9.947
12464SOL     OW37417   2.460   2.591   9.580
12464SOL    HW137418   2.484   2.660   9.512
12464SOL    HW237419   2.382   2.624   9.634
12465SOL     OW37420   3.143   2.207  10.254
12465SOL    HW137421   3.057   2.157  10.241
12465SOL    HW237422   3.205   2.153  10.310
12466SOL     OW37423   3.438   3.524   9.617
12466SOL    HW137424   3.527   3.570   9.620
12466SOL    HW237425   3.417   3.500   9.522
12467SOL     OW37426   2.669   2.467  10.775
12467SOL    HW137427   2.622   2.464  10.864
12467SOL    HW237428   2.618   2.412  10.709
12468SOL     OW37429   3.256   2.331  10.984
12468SOL    HW137430   3.236   2.374  11.072
12468SOL    HW237431   3.334   2.269  10.993
12469SOL     OW37432   2.835   2.752  10.882
12469SOL    HW137433   2.881   2.668  10.853
12469SOL    HW237434   2.779   2.786  10.807
12470SOL     OW37435   2.853   2.272  10.552
12470SOL    HW137436   2.776   2.306  10.606
12470SOL    HW237437   2.819   2.221  10.473
12471SOL     OW37438   2.903   2.563   9.739
12471SOL    HW137439   2.929   2.559   9.835
12471SOL    HW237440   2.818   2.512   9.725
12472SOL     OW37441   1.938   2.673  10.099
12472SOL    HW137442   2.037   2.661  10.108
12472SOL    HW237443   1.914   2.768  10.120
12473SOL     OW37444   1.992   3.683  10.881
12473SOL    HW137445   1.982   3.668  10.980
12473SOL    HW237446   1.906   3.719  10.845
12474SOL     OW37447   2.727   2.210   9.505
12474SOL    HW137448   2.786   2.273   9.456
12474SOL    HW237449   2.746   2.116   9.476
12475SOL     OW37450   3.581   2.447  11.141
12475SOL    HW137451   3.555   2.536  11.105
12475SOL    HW237452   3.579   2.379  11.068
12476SOL     OW37453   3.224   3.006   9.855
12476SOL    HW137454   3.307   2.977   9.807
12476SOL    HW237455   3.175   3.073   9.799
12477SOL     OW37456   2.412   2.058  10.195
12477SOL    HW137457   2.407   2.053  10.295
12477SOL    HW237458   2.414   2.154  10.166
12478SOL     OW37459   2.870   3.318   9.787
12478SOL    HW137460   2.824   3.390   9.735
12478SOL    HW237461   2.866   3.338   9.885
12479SOL     OW37462   2.213   3.663  10.163
12479SOL    HW137463   2.263   3.577  10.169
12479SOL    HW237464   2.278   3.740  10.160
12480SOL     OW37465   3.657   2.928  10.183
12480SOL    HW137466   3.595   2.913  10.107
12480SOL    HW237467   3.605   2.939  10.268
12481SOL     OW37468   3.089   3.412  10.816
12481SOL    HW137469   3.095   3.335  10.880
12481SOL    HW237470   3.037   3.386  10.736
12482SOL     OW37471   2.183   2.805   9.552
12482SOL    HW137472   2.265   2.844   9.510
12482SOL    HW237473   2.156   2.723   9.503
12483SOL     OW37474   3.320   2.597  10.038
12483SOL    HW137475   3.315   2.532  10.113
12483SOL    HW237476   3.400   2.656  10.051
12484SOL     OW37477   2.323   3.128  11.037
12484SOL    HW137478   2.273   3.129  10.951
12484SOL    HW237479   2.260   3.110  11.113
12485SOL     OW37480   2.973   3.638   9.547
12485SOL    HW137481   2.913   3.576   9.597
12485SOL    HW237482   3.004   3.594   9.462
12486SOL     OW37483   2.064   2.147  10.808
12486SOL    HW137484   1.984   2.207  10.795
12486SOL    HW237485   2.054   2.098  10.894
12487SOL     OW37486   3.494   3.239   9.391
12487SOL    HW137487   3.462   3.333   9.381
12487SOL    HW237488   3.418   3.176   9.379
12488SOL     OW37489   2.326   3.605   9.633
12488SOL    HW137490   2.359   3.644   9.719
12488SOL    HW237491   2.402   3.598   9.568
12489SOL     OW37492   3.262   1.969   9.736
12489SOL    HW137493   3.238   1.932   9.646
12489SOL    HW237494   3.361   1.985   9.740
12490SOL     OW37495   2.111   3.647  10.551
12490SOL    HW137496   2.168   3.582  10.601
12490SOL    HW237497   2.095   3.614  10.458
12491SOL     OW37498   2.802   3.560  10.214
12491SOL    HW137499   2.882   3.503  10.235
12491SOL    HW237500   2.753   3.520  10.137
12492SOL     OW37501   2.244   2.562   9.790
12492SOL    HW137502   2.289   2.472   9.787
12492SOL    HW237503   2.150   2.551   9.823
12493SOL     OW37504   3.409   2.084  11.039
12493SOL    HW137505   3.404   2.121  11.131
12493SOL    HW237506   3.337   2.015  11.027
12494SOL     OW37507   2.476   1.984   9.427
12494SOL    HW137508   2.574   1.962   9.434
12494SOL    HW237509   2.445   1.967   9.334
12495SOL     OW37510   2.643   2.126  11.059
12495SOL    HW137511   2.710   2.065  11.102
12495SOL    HW237512   2.570   2.145  11.124
12496SOL     OW37513   2.750   3.376  10.505
12496SOL    HW137514   2.727   3.351  10.411
12496SOL    HW237515   2.811   3.307  10.544
12497SOL     OW37516   3.213   2.452  10.743
12497SOL    HW137517   3.241   2.409  10.828
12497SOL    HW237518   3.238   2.548  10.744
12498SOL     OW37519   2.665   3.264  10.234
12498SOL    HW137520   2.755   3.278  10.192
12498SOL    HW237521   2.594   3.266  10.163
12499SOL     OW37522   2.784   2.365  10.209
12499SOL    HW137523   2.759   2.356  10.113
12499SOL    HW237524   2.832   2.283  10.240
12500SOL     OW37525   2.401   1.926   9.822
12500SOL    HW137526   2.320   1.927   9.880
12500SOL    HW237527   2.404   2.009   9.767
12501SOL     OW37528   3.296   3.050   9.351
12501SOL    HW137529   3.328   2.974   9.408
12501SOL    HW237530   3.204   3.077   9.381
12502SOL     OW37531   2.159   1.897   9.481
12502SOL    HW137532   2.208   1.981   9.460
12502SOL    HW237533   2.221   1.832   9.526
12503SOL     OW37534   2.797   2.098   9.790
12503SOL    HW137535   2.749   2.139   9.712
12503SOL    HW237536   2.896   2.096   9.771
12504SOL     OW37537   2.938   2.545  10.774
12504SOL    HW137538   2.858   2.484  10.777
12504SOL    HW237539   3.019   2.492  10.750
12505SOL     OW37540   3.089   3.432  10.103
12505SOL    HW137541   3.110   3.506  10.038
12505SOL    HW237542   3.157   3.432  10.176
12506SOL     OW37543   2.321   3.014  10.051
12506SOL    HW137544   2.250   2.987  10.116
12506SOL    HW237545   2.295   2.986   9.958
12507SOL     OW37546   3.133   3.659   9.901
12507SOL    HW137547   3.177   3.723   9.837
12507SOL    HW237548   3.083   3.711   9.971
12508SOL     OW37549   2.894   2.411   9.326
12508SOL    HW137550   2.853   2.493   9.287
12508SOL    HW237551   2.958   2.437   9.399
12509SOL     OW37552   1.940   2.418  10.696
12509SOL    HW137553   2.032   2.417  10.655
12509SOL    HW237554   1.934   2.492  10.763
12510SOL     OW37555   2.423   2.084  10.457
12510SOL    HW137556   2.461   2.000  10.494
12510SOL    HW237557   2.335   2.103  10.501
12511SOL     OW37558   2.728   2.316   9.952
12511SOL    HW137559   2.696   2.388   9.890
12511SOL    HW237560   2.752   2.235   9.899
12512SOL     OW37561   2.879   1.901  10.063
12512SOL    HW137562   2.807   1.906   9.994
12512SOL    HW237563   2.855   1.832  10.132
12513SOL     OW37564   3.291   3.035  10.177
12513SOL    HW137565   3.236   2.951  10.170
12513SOL    HW237566   3.317   3.064  10.085
12514SOL     OW37567   3.328   2.452  10.302
12514SOL    HW137568   3.298   2.357  10.309
12514SOL    HW237569   3.401   2.468  10.368
12515SOL     OW37570   3.719   2.695   9.687
12515SOL    HW137571   3.761   2.631   9.751
12515SOL    HW237572   3.681   2.644   9.609
12516SOL     OW37573   2.350   3.247   9.484
12516SOL    HW137574   2.263   3.232   9.531
12516SOL    HW237575   2.333   3.273   9.389
12517SOL     OW37576   3.526   3.142   9.967
12517SOL    HW137577   3.625   3.150   9.981
12517SOL    HW237578   3.481   3.226   9.998
12518SOL     OW37579   3.252   2.437   9.388
12518SOL    HW137580   3.198   2.416   9.469
12518SOL    HW237581   3.343   2.396   9.397
12519SOL     OW37582   2.389   2.118   9.638
12519SOL    HW137583   2.416   2.059   9.563
12519SOL    HW237584   2.389   2.213   9.607
12520SOL     OW37585   3.616   3.085  10.898
12520SOL    HW137586   3.707   3.046  10.885
12520SOL    HW237587   3.624   3.181  10.922
12521SOL     OW37588   2.926   3.209  10.650
12521SOL    HW137589   2.846   3.186  10.705
12521SOL    HW237590   3.009   3.183  10.699
12522SOL     OW37591   3.454   3.491  10.935
12522SOL    HW137592   3.481   3.525  10.845
12522SOL    HW237593   3.533   3.453  10.981
12523SOL     OW37594   2.973   3.057  10.410
12523SOL    HW137595   2.933   3.101  10.491
12523SOL    HW237596   2.932   3.094  10.327
12524SOL     OW37597   3.500   2.961  10.389
12524SOL    HW137598   3.505   3.042  10.448
12524SOL    HW237599   3.414   2.963  10.338
12525SOL     OW37600   2.777   1.951  10.712
12525SOL    HW137601   2.802   1.931  10.617
12525SOL    HW237602   2.849   2.007  10.754
12526SOL     OW37603   2.842   2.978  11.029
12526SOL    HW137604   2.743   2.984  11.039
12526SOL    HW237605   2.865   2.898  10.973
12527SOL     OW37606   2.567   2.912   9.678
12527SOL    HW137607   2.553   2.919   9.777
12527SOL    HW237608   2.651   2.861   9.660
12528SOL     OW37609   2.272   2.675  10.561
12528SOL    HW137610   2.358   2.687  10.611
12528SOL    HW237611   2.230   2.588  10.588
12529SOL     OW37612   3.136   2.248  10.572
12529SOL    HW137613   3.157   2.322  10.636
12529SOL    HW237614   3.047   2.265  10.529
12530SOL     OW37615   1.926   3.426  10.641
12530SOL    HW137616   1.880   3.508  10.607
12530SOL    HW237617   2.024   3.445  10.650
12531SOL     OW37618   2.229   2.962   9.811
12531SOL    HW137619   2.222   3.045   9.755
12531SOL    HW237620   2.233   2.882   9.751
12532SOL     OW37621   2.428   2.399  10.175
12532SOL    HW137622   2.440   2.465  10.101
12532SOL    HW237623   2.474   2.433  10.258
12533SOL     OW37624   3.114   3.210   9.698
12533SOL    HW137625   3.164   3.287   9.738
12533SOL    HW237626   3.019   3.212   9.730
12534SOL     OW37627   3.134   3.307  10.452
12534SOL    HW137628   3.181   3.320  10.539
12534SOL    HW237629   3.068   3.233  10.461
12535SOL     OW37630   3.444   2.501   9.782
12535SOL    HW137631   3.413   2.562   9.855
12535SOL    HW237632   3.494   2.553   9.713
12536SOL     OW37633   2.216   3.372  10.639
12536SOL    HW137634   2.195   3.328  10.552
12536SOL    HW237635   2.313   3.398  10.642
12537SOL     OW37636   2.264   2.613  10.908
12537SOL    HW137637   2.332   2.668  10.861
12537SOL    HW237638   2.304   2.525  10.935
12538SOL     OW37639   3.449   2.641  10.980
12538SOL    HW137640   3.357   2.679  10.975
12538SOL    HW237641   3.509   2.688  10.915
12539SOL     OW37642   2.875   1.967  11.080
12539SOL    HW137643   2.881   2.052  11.028
12539SOL    HW237644   2.907   1.891  11.023
12540SOL     OW37645   2.366   1.912  11.050
12540SOL    HW137646   2.324   1.855  10.980
12540SOL    HW237647   2.300   1.981  11.082
12541SOL     OW37648   2.435   2.732  10.339
12541SOL    HW137649   2.479   2.821  10.330
12541SOL    HW237650   2.372   2.732  10.416
12542SOL     OW37651   3.222   2.724  10.355
12542SOL    HW137652   3.147   2.724  10.289
12542SOL    HW237653   3.259   2.632  10.364
12543SOL     OW37654   3.071   2.387   9.585
12543SOL    HW137655   3.084   2.303   9.639
12543SOL    HW237656   3.042   2.461   9.645
12544SOL     OW37657   2.169   2.075  10.541
12544SOL    HW137658   2.146   2.112  10.631
12544SOL    HW237659   2.139   1.980  10.535
12545SOL     OW37660   1.899   3.172  10.592
12545SOL    HW137661   1.952   3.123  10.660
12545SOL    HW237662   1.921   3.270  10.597
12546SOL     OW37663   2.594   2.496  10.374
12546SOL    HW137664   2.653   2.470  10.298
12546SOL    HW237665   2.566   2.592  10.363
12547SOL     OW37666   3.590   2.797  11.164
12547SOL    HW137667   3.544   2.790  11.075
12547SOL    HW237668   3.528   2.841  11.230
12548SOL     OW37669   2.169   1.925   9.928
12548SOL    HW137670   2.158   2.019   9.961
12548SOL    HW237671   2.164   1.862  10.005
12549SOL     OW37672   3.484   2.229   9.684
12549SOL    HW137673   3.486   2.153   9.748
12549SOL    HW237674   3.436   2.306   9.724
12550SOL     OW37675   2.885   2.628  10.276
12550SOL    HW137676   2.900   2.649  10.372
12550SOL    HW237677   2.855   2.533  10.267
12551SOL     OW37678   2.842   3.435  11.010
12551SOL    HW137679   2.822   3.479  10.922
12551SOL    HW237680   2.881   3.344  10.994
12552SOL     OW37681   3.721   3.380  10.915
12552SOL    HW137682   3.735   3.407  10.820
12552SOL    HW237683   3.804   3.402  10.968
12553SOL     OW37684   2.212   2.760  11.114
12553SOL    HW137685   2.288   2.804  11.162
12553SOL    HW237686   2.247   2.713  11.032
12554SOL     OW37687   3.402   2.136   9.435
12554SOL    HW137688   3.341   2.061   9.458
12554SOL    HW237689   3.424   2.188   9.518
12555SOL     OW37690   3.165   2.700   9.352
12555SOL    HW137691   3.199   2.607   9.367
12555SOL    HW237692   3.183   2.727   9.257
12556SOL     OW37693   2.930   3.195  10.159
12556SOL    HW137694   2.937   3.111  10.104
12556SOL    HW237695   2.992   3.264  10.123
12557SOL     OW37696   2.181   2.672  10.259
12557SOL    HW137697   2.274   2.708  10.264
12557SOL    HW237698   2.175   2.587  10.311
12558SOL     OW37699   2.201   2.371  10.316
12558SOL    HW137700   2.149   2.288  10.299
12558SOL    HW237701   2.278   2.376  10.252
12559SOL     OW37702   3.000   2.242  10.988
12559SOL    HW137703   2.955   2.305  11.052
12559SOL    HW237704   3.093   2.273  10.971
12560SOL     OW37705   3.022   2.069  10.787
12560SOL    HW137706   3.022   2.133  10.864
12560SOL    HW237707   3.050   2.117  10.704
12561SOL     OW37708   1.870   3.188   9.510
12561SOL    HW137709   1.777   3.209   9.479
12561SOL    HW237710   1.880   3.089   9.523
12562SOL     OW37711   1.950   3.663  10.237
12562SOL    HW137712   1.908   3.577  10.210
12562SOL    HW237713   2.044   3.666  10.203
12563SOL     OW37714   2.366   3.430  10.220
12563SOL    HW137715   2.432   3.504  10.229
12563SOL    HW237716   2.410   3.351  10.178
12564SOL     OW37717   2.864   2.658  10.548
12564SOL    HW137718   2.905   2.626  10.634
12564SOL    HW237719   2.768   2.631  10.545
12565SOL     OW37720   1.902   2.406  10.424
12565SOL    HW137721   1.987   2.373  10.383
12565SOL    HW237722   1.915   2.421  10.522
12566SOL     OW37723   2.051   2.382  11.032
12566SOL    HW137724   2.110   2.342  10.962
12566SOL    HW237725   1.993   2.453  10.991
12567SOL     OW37726   3.231   2.812  10.970
12567SOL    HW137727   3.270   2.901  10.990
12567SOL    HW237728   3.241   2.792  10.873
12568SOL     OW37729   2.677   2.434   9.635
12568SOL    HW137730   2.684   2.345   9.589
12568SOL    HW237731   2.583   2.468   9.627
12569SOL     OW37732   3.519   2.466  10.516
12569SOL    HW137733   3.481   2.397  10.578
12569SOL    HW237734   3.601   2.430  10.472
12570SOL     OW37735   2.114   3.426  11.054
12570SOL    HW137736   2.084   3.483  11.130
12570SOL    HW237737   2.107   3.329  11.080
12571SOL     OW37738   2.533   2.326  10.579
12571SOL    HW137739   2.499   2.237  10.549
12571SOL    HW237740   2.559   2.380  10.499
12572SOL     OW37741   2.792   3.540  10.775
12572SOL    HW137742   2.768   3.522  10.680
12572SOL    HW237743   2.822   3.634  10.785
12573SOL     OW37744   2.335   2.362   9.501
12573SOL    HW137745   2.396   2.442   9.505
12573SOL    HW237746   2.240   2.393   9.508
12574SOL     OW37747   2.021   2.999  10.776
12574SOL    HW137748   2.043   2.938  10.852
12574SOL    HW237749   2.031   2.950  10.690
12575SOL     OW37750   3.209   2.921  10.544
12575SOL    HW137751   3.233   2.858  10.470
12575SOL    HW237752   3.119   2.961  10.526
12576SOL     OW37753   3.164   2.717   9.619
12576SOL    HW137754   3.078   2.686   9.661
12576SOL    HW237755   3.160   2.703   9.520
12577SOL     OW37756   3.621   3.609  10.464
12577SOL    HW137757   3.682   3.639  10.391
12577SOL    HW237758   3.583   3.520  10.442
12578SOL     OW37759   3.114   3.593  10.438
12578SOL    HW137760   3.198   3.598  10.384
12578SOL    HW237761   3.091   3.497  10.456
12579SOL     OW37762   1.945   3.120  10.332
12579SOL    HW137763   1.940   3.119  10.432
12579SOL    HW237764   1.862   3.079  10.294
12580SOL     OW37765   2.550   3.524  11.026
12580SOL    HW137766   2.494   3.605  11.035
12580SOL    HW237767   2.602   3.528  10.940
12581SOL     OW37768   3.588   1.997   9.833
12581SOL    HW137769   3.661   1.980   9.766
12581SOL    HW237770   3.557   1.910   9.871
12582SOL     OW37771   3.250   3.435   9.787
12582SOL    HW137772   3.317   3.447   9.713
12582SOL    HW237773   3.210   3.524   9.810
12583SOL     OW37774   1.992   3.656  11.161
12583SOL    HW137775   1.951   3.582  11.214
12583SOL    HW237776   2.056   3.707  11.219
12584SOL     OW37777   3.142   2.789   9.982
12584SOL    HW137778   3.202   2.708   9.984
12584SOL    HW237779   3.182   2.858   9.922
12585SOL     OW37780   2.692   3.135  10.732
12585SOL    HW137781   2.687   3.168  10.827
12585SOL    HW237782   2.606   3.154  10.686
12586SOL     OW37783   2.534   3.478   9.464
12586SOL    HW137784   2.543   3.488   9.365
12586SOL    HW237785   2.494   3.389   9.485
12587SOL     OW37786   3.512   3.582  10.704
12587SOL    HW137787   3.565   3.592  10.620
12587SOL    HW237788   3.485   3.672  10.738
12588SOL     OW37789   3.703   2.037  10.273
12588SOL    HW137790   3.742   1.952  10.237
12588SOL    HW237791   3.605   2.039  10.254
12589SOL     OW37792   2.125   2.188  10.030
12589SOL    HW137793   2.046   2.239   9.996
12589SOL    HW237794   2.116   2.173  10.128
12590SOL     OW37795   3.056   3.474   9.341
12590SOL    HW137796   3.062   3.381   9.378
12590SOL    HW237797   2.997   3.474   9.261
12591SOL     OW37798   2.684   2.864  10.682
12591SOL    HW137799   2.724   2.863  10.590
12591SOL    HW237800   2.694   2.956  10.722
12592SOL     OW37801   2.778   2.772   9.601
12592SOL    HW137802   2.841   2.810   9.533
12592SOL    HW237803   2.818   2.689   9.640
12593SOL     OW37804   3.366   3.469   9.354
12593SOL    HW137805   3.274   3.506   9.361
12593SOL    HW237806   3.404   3.489   9.264
12594SOL     OW37807   2.234   3.150  10.800
12594SOL    HW137808   2.221   3.243  10.766
12594SOL    HW237809   2.150   3.098  10.787
12595SOL     OW37810   3.476   3.154  10.599
12595SOL    HW137811   3.536   3.157  10.679
12595SOL    HW237812   3.401   3.218  10.612
12596SOL     OW37813   2.901   2.960  10.006
12596SOL    HW137814   2.831   2.913  10.060
12596SOL    HW237815   2.960   2.892   9.963
12597SOL     OW37816   2.876   2.098  10.281
12597SOL    HW137817   2.868   2.062  10.188
12597SOL    HW237818   2.874   2.022  10.346
12598SOL     OW37819   2.452   3.349   9.801
12598SOL    HW137820   2.494   3.291   9.731
12598SOL    HW237821   2.408   3.428   9.757
12599SOL     OW37822   3.571   2.247  10.691
12599SOL    HW137823   3.644   2.316  10.695
12599SOL    HW237824   3.599   2.172  10.632
12600SOL     OW37825   2.117   3.210   9.600
12600SOL    HW137826   2.021   3.211   9.573
12600SOL    HW237827   2.129   3.263   9.684
12601SOL     OW37828   1.967   2.875  11.036
12601SOL    HW137829   1.890   2.842  11.090
12601SOL    HW237830   2.052   2.845  11.078
12602SOL     OW37831   2.534   2.065  10.799
12602SOL    HW137832   2.624   2.049  10.759
12602SOL    HW237833   2.542   2.070  10.898
12603SOL     OW37834   1.937   2.207   9.343
12603SOL    HW137835   1.845   2.179   9.314
12603SOL    HW237836   1.968   2.284   9.287
12604SOL     OW37837   3.302   2.718  10.708
12604SOL    HW137838   3.245   2.770  10.645
12604SOL    HW237839   3.398   2.730  10.684
12605SOL     OW37840   1.934   2.028   9.628
12605SOL    HW137841   1.917   2.111   9.574
12605SOL    HW237842   2.024   1.991   9.606
12606SOL     OW37843   3.045   3.197   9.429
12606SOL    HW137844   2.946   3.186   9.431
12606SOL    HW237845   3.079   3.212   9.522
12607SOL     OW37846   2.475   2.704  10.741
12607SOL    HW137847   2.531   2.785  10.724
12607SOL    HW237848   2.534   2.624  10.744
12608SOL     OW37849   3.355   3.629  10.269
12608SOL    HW137850   3.388   3.693  10.200
12608SOL    HW237851   3.421   3.623  10.344
12609SOL     OW37852   2.578   2.427  11.018
12609SOL    HW137853   2.597   2.492  11.092
12609SOL    HW237854   2.638   2.347  11.027
12610SOL     OW37855   3.312   3.082  10.943
12610SOL    HW137856   3.303   3.072  11.042
12610SOL    HW237857   3.408   3.075  10.917
12611SOL     OW37858   2.252   3.603  10.870
12611SOL    HW137859   2.161   3.644  10.868
12611SOL    HW237860   2.245   3.509  10.902
12612SOL     OW37861   3.536   2.745  10.564
12612SOL    HW137862   3.509   2.656  10.527
12612SOL    HW237863   3.537   2.813  10.491
12613SOL     OW37864   3.087   2.187   9.759
12613SOL    HW137865   3.152   2.113   9.748
12613SOL    HW237866   3.107   2.237   9.843
12614SOL     OW37867   2.456   2.607   9.962
12614SOL    HW137868   2.506   2.692   9.943
12614SOL    HW237869   2.368   2.609   9.914
12615SOL     OW37870   3.639   2.204  10.952
12615SOL    HW137871   3.622   2.235  10.858
12615SOL    HW237872   3.555   2.167  10.990
12616SOL     OW37873   3.592   2.796  10.827
12616SOL    HW137874   3.630   2.887  10.842
12616SOL    HW237875   3.584   2.779  10.728
12617SOL     OW37876   2.721   3.236   9.326
12617SOL    HW137877   2.675   3.251   9.414
12617SOL    HW237878   2.765   3.321   9.296
12618SOL     OW37879   2.523   3.652  10.263
12618SOL    HW137880   2.477   3.740  10.250
12618SOL    HW237881   2.622   3.664  10.256
12619SOL     OW37882   2.721   2.818  10.171
12619SOL    HW137883   2.775   2.749  10.219
12619SOL    HW237884   2.689   2.887  10.237
12620SOL     OW37885   2.945   2.846   9.397
12620SOL    HW137886   2.922   2.899   9.315
12620SOL    HW237887   3.026   2.790   9.378
12621SOL     OW37888   3.723   3.431  10.161
12621SOL    HW137889   3.652   3.419  10.091
12621SOL    HW237890   3.724   3.352  10.221
12622SOL     OW37891   2.083   3.176  11.154
12622SOL    HW137892   2.018   3.103  11.133
12622SOL    HW237893   2.087   3.190  11.252
12623SOL     OW37894   1.941   3.102   9.963
12623SOL    HW137895   1.940   3.055  10.051
12623SOL    HW237896   2.023   3.074   9.912
12624SOL     OW37897   2.534   3.253  10.934
12624SOL    HW137898   2.456   3.203  10.972
12624SOL    HW237899   2.531   3.348  10.965
12625SOL     OW37900   3.686   2.054  10.537
12625SOL    HW137901   3.682   1.964  10.581
12625SOL    HW237902   3.689   2.043  10.438
12626SOL     OW37903   2.290   2.286   9.830
12626SOL    HW137904   2.320   2.214   9.768
12626SOL    HW237905   2.251   2.246   9.913
12627SOL     OW37906   3.567   3.349  10.414
12627SOL    HW137907   3.474   3.324  10.387
12627SOL    HW237908   3.593   3.299  10.496
12628SOL     OW37909   2.179   2.409  10.590
12628SOL    HW137910   2.217   2.350  10.662
12628SOL    HW237911   2.219   2.383  10.502
12629SOL     OW37912   2.674   3.448   9.997
12629SOL    HW137913   2.706   3.458   9.903
12629SOL    HW237914   2.595   3.386   9.999
12630SOL     OW37915   3.286   2.076  10.422
12630SOL    HW137916   3.338   2.011  10.477
12630SOL    HW237917   3.237   2.139  10.483
12631SOL     OW37918   2.863   1.896  10.464
12631SOL    HW137919   2.800   1.824  10.433
12631SOL    HW237920   2.956   1.860  10.464
12632SOL     OW37921   2.632   3.192   9.611
12632SOL    HW137922   2.586   3.105   9.628
12632SOL    HW237923   2.723   3.189   9.652
12633SOL     OW37924   2.480   3.429  10.594
12633SOL    HW137925   2.475   3.511  10.651
12633SOL    HW237926   2.569   3.426  10.549
12634SOL     OW37927   3.214   1.914   9.478
12634SOL    HW137928   3.249   1.873   9.394
12634SOL    HW237929   3.124   1.876   9.498
12635SOL     OW37930   3.162   2.315  10.001
12635SOL    HW137931   3.103   2.395  10.005
12635SOL    HW237932   3.177   2.280  10.094
12636SOL     OW37933   3.455   2.083  10.192
12636SOL    HW137934   3.371   2.082  10.246
12636SOL    HW237935   3.457   2.166  10.136
12637SOL     OW37936   1.901   2.939   9.610
12637SOL    HW137937   2.000   2.928   9.601
12637SOL    HW237938   1.861   2.853   9.642
12638SOL     OW37939   2.737   3.508   9.647
12638SOL    HW137940   2.660   3.473   9.593
12638SOL    HW237941   2.705   3.579   9.709
12639SOL     OW37942   2.092   2.490  11.285
12639SOL    HW137943   1.999   2.488  11.322
12639SOL    HW237944   2.093   2.451  11.193
12640SOL     OW37945   2.087   2.137  12.168
12640SOL    HW137946   2.122   2.120  12.260
12640SOL    HW237947   1.999   2.092  12.156
12641SOL     OW37948   1.881   2.230  11.819
12641SOL    HW137949   1.799   2.273  11.858
12641SOL    HW237950   1.853   2.157  11.756
12642SOL     OW37951   2.431   3.137  12.337
12642SOL    HW137952   2.338   3.130  12.300
12642SOL    HW237953   2.442   3.226  12.381
12643SOL     OW37954   3.417   3.373  11.875
12643SOL    HW137955   3.360   3.357  11.956
12643SOL    HW237956   3.358   3.383  11.795
12644SOL     OW37957   2.997   2.565  11.889
12644SOL    HW137958   3.054   2.643  11.864
12644SOL    HW237959   2.937   2.591  11.965
12645SOL     OW37960   3.617   2.469  11.403
12645SOL    HW137961   3.605   2.456  11.304
12645SOL    HW237962   3.587   2.388  11.452
12646SOL     OW37963   2.630   3.006  12.195
12646SOL    HW137964   2.552   3.023  12.255
12646SOL    HW237965   2.664   3.093  12.159
12647SOL     OW37966   2.547   2.874  11.837
12647SOL    HW137967   2.616   2.858  11.907
12647SOL    HW237968   2.474   2.931  11.875
12648SOL     OW37969   2.197   3.297  12.233
12648SOL    HW137970   2.119   3.266  12.180
12648SOL    HW237971   2.255   3.355  12.176
12649SOL     OW37972   3.322   3.367  12.511
12649SOL    HW137973   3.346   3.461  12.537
12649SOL    HW237974   3.306   3.313  12.593
12650SOL     OW37975   2.300   2.254  12.671
12650SOL    HW137976   2.382   2.198  12.680
12650SOL    HW237977   2.219   2.196  12.675
12651SOL     OW37978   3.465   2.309  11.909
12651SOL    HW137979   3.391   2.355  11.859
12651SOL    HW237980   3.516   2.377  11.962
12652SOL     OW37981   2.093   3.575  11.655
12652SOL    HW137982   2.127   3.652  11.709
12652SOL    HW237983   2.137   3.575  11.565
12653SOL     OW37984   2.092   3.296  11.710
12653SOL    HW137985   2.066   3.392  11.710
12653SOL    HW237986   2.021   3.242  11.755
12654SOL     OW37987   2.102   2.953  12.058
12654SOL    HW137988   2.116   2.869  12.110
12654SOL    HW237989   2.047   3.017  12.113
12655SOL     OW37990   2.482   3.648  12.611
12655SOL    HW137991   2.390   3.631  12.646
12655SOL    HW237992   2.510   3.740  12.637
12656SOL     OW37993   2.468   2.826  11.295
12656SOL    HW137994   2.475   2.910  11.241
12656SOL    HW237995   2.514   2.839  11.383
12657SOL     OW37996   3.456   1.976  12.652
12657SOL    HW137997   3.438   2.043  12.580
12657SOL    HW237998   3.453   2.022  12.741
12658SOL     OW37999   1.984   2.505  11.735
12658SOL    HW138000   1.939   2.417  11.752
12658SOL    HW238001   1.983   2.559  11.819
12659SOL     OW38002   3.704   3.629  11.531
12659SOL    HW138003   3.758   3.600  11.611
12659SOL    HW238004   3.734   3.719  11.502
12660SOL     OW38005   1.889   3.458  11.289
12660SOL    HW138006   1.870   3.362  11.310
12660SOL    HW238007   1.856   3.516  11.364
12661SOL     OW38008   3.551   2.784  11.784
12661SOL    HW138009   3.646   2.755  11.792
12661SOL    HW238010   3.543   2.849  11.709
12662SOL     OW38011   3.503   2.970  11.604
12662SOL    HW138012   3.589   2.972  11.552
12662SOL    HW238013   3.517   3.017  11.692
12663SOL     OW38014   2.475   3.227  11.898
12663SOL    HW138015   2.426   3.140  11.907
12663SOL    HW238016   2.452   3.270  11.811
12664SOL     OW38017   2.671   1.866  11.674
12664SOL    HW138018   2.711   1.957  11.665
12664SOL    HW238019   2.571   1.874  11.680
12665SOL     OW38020   2.059   2.838  12.436
12665SOL    HW138021   2.148   2.793  12.422
12665SOL    HW238022   1.986   2.773  12.417
12666SOL     OW38023   3.387   2.861  11.362
12666SOL    HW138024   3.324   2.785  11.375
12666SOL    HW238025   3.435   2.879  11.448
12667SOL     OW38026   2.179   2.113  12.973
12667SOL    HW138027   2.250   2.184  12.979
12667SOL    HW238028   2.091   2.152  13.001
12668SOL     OW38029   3.328   3.279  12.125
12668SOL    HW138030   3.269   3.285  12.205
12668SOL    HW238031   3.313   3.191  12.079
12669SOL     OW38032   3.529   3.576  11.744
12669SOL    HW138033   3.488   3.553  11.656
12669SOL    HW238034   3.511   3.502  11.809
12670SOL     OW38035   2.460   2.591  11.442
12670SOL    HW138036   2.484   2.660  11.374
12670SOL    HW238037   2.382   2.624  11.496
12671SOL     OW38038   3.143   2.207  12.116
12671SOL    HW138039   3.057   2.157  12.103
12671SOL    HW238040   3.205   2.153  12.172
12672SOL     OW38041   3.438   3.524  11.479
12672SOL    HW138042   3.527   3.570  11.482
12672SOL    HW238043   3.417   3.500  11.384
12673SOL     OW38044   2.669   2.467  12.637
12673SOL    HW138045   2.622   2.464  12.726
12673SOL    HW238046   2.618   2.412  12.571
12674SOL     OW38047   2.853   2.272  12.414
12674SOL    HW138048   2.776   2.306  12.468
12674SOL    HW238049   2.819   2.221  12.335
12675SOL     OW38050   2.903   2.563  11.601
12675SOL    HW138051   2.929   2.559  11.697
12675SOL    HW238052   2.818   2.512  11.587
12676SOL     OW38053   1.938   2.673  11.961
12676SOL    HW138054   2.037   2.661  11.970
12676SOL    HW238055   1.914   2.768  11.982
12677SOL     OW38056   1.992   3.683  12.743
12677SOL    HW138057   1.982   3.668  12.842
12677SOL    HW238058   1.906   3.719  12.707
12678SOL     OW38059   2.727   2.210  11.367
12678SOL    HW138060   2.786   2.273  11.318
12678SOL    HW238061   2.746   2.116  11.338
12679SOL     OW38062   3.224   3.006  11.717
12679SOL    HW138063   3.307   2.977  11.669
12679SOL    HW238064   3.175   3.073  11.661
12680SOL     OW38065   2.412   2.058  12.057
12680SOL    HW138066   2.407   2.053  12.157
12680SOL    HW238067   2.414   2.154  12.028
12681SOL     OW38068   2.870   3.318  11.649
12681SOL    HW138069   2.824   3.390  11.597
12681SOL    HW238070   2.866   3.338  11.747
12682SOL     OW38071   2.213   3.663  12.025
12682SOL    HW138072   2.263   3.577  12.031
12682SOL    HW238073   2.278   3.740  12.022
12683SOL     OW38074   3.657   2.928  12.045
12683SOL    HW138075   3.595   2.913  11.969
12683SOL    HW238076   3.605   2.939  12.130
12684SOL     OW38077   2.183   2.805  11.414
12684SOL    HW138078   2.265   2.844  11.372
12684SOL    HW238079   2.156   2.723  11.365
12685SOL     OW38080   3.320   2.597  11.900
12685SOL    HW138081   3.315   2.532  11.975
12685SOL    HW238082   3.400   2.656  11.913
12686SOL     OW38083   2.973   3.638  11.409
12686SOL    HW138084   2.913   3.576  11.459
12686SOL    HW238085   3.004   3.594  11.324
12687SOL     OW38086   2.064   2.147  12.670
12687SOL    HW138087   1.984   2.207  12.657
12687SOL    HW238088   2.054   2.098  12.756
12688SOL     OW38089   3.494   3.239  11.253
12688SOL    HW138090   3.462   3.333  11.243
12688SOL    HW238091   3.418   3.176  11.241
12689SOL     OW38092   2.326   3.605  11.495
12689SOL    HW138093   2.359   3.644  11.581
12689SOL    HW238094   2.402   3.598  11.430
12690SOL     OW38095   3.262   1.969  11.598
12690SOL    HW138096   3.238   1.932  11.508
12690SOL    HW238097   3.361   1.985  11.602
12691SOL     OW38098   2.111   3.647  12.413
12691SOL    HW138099   2.168   3.582  12.463
12691SOL    HW238100   2.095   3.614  12.320
12692SOL     OW38101   2.802   3.560  12.076
12692SOL    HW138102   2.882   3.503  12.097
12692SOL    HW238103   2.753   3.520  11.999
12693SOL     OW38104   2.244   2.562  11.652
12693SOL    HW138105   2.289   2.472  11.649
12693SOL    HW238106   2.150   2.551  11.685
12694SOL     OW38107   2.476   1.984  11.289
12694SOL    HW138108   2.574   1.962  11.296
12694SOL    HW238109   2.445   1.967  11.196
12695SOL     OW38110   2.750   3.376  12.367
12695SOL    HW138111   2.727   3.351  12.273
12695SOL    HW238112   2.811   3.307  12.406
12696SOL     OW38113   2.665   3.264  12.096
12696SOL    HW138114   2.755   3.278  12.054
12696SOL    HW238115   2.594   3.266  12.025
12697SOL     OW38116   2.784   2.365  12.071
12697SOL    HW138117   2.759   2.356  11.975
12697SOL    HW238118   2.832   2.283  12.102
12698SOL     OW38119   2.401   1.926  11.684
12698SOL    HW138120   2.320   1.927  11.742
12698SOL    HW238121   2.404   2.009  11.629
12699SOL     OW38122   3.296   3.050  11.213
12699SOL    HW138123   3.328   2.974  11.270
12699SOL    HW238124   3.204   3.077  11.243
12700SOL     OW38125   2.159   1.897  11.343
12700SOL    HW138126   2.208   1.981  11.322
12700SOL    HW238127   2.221   1.832  11.388
12701SOL     OW38128   2.797   2.098  11.652
12701SOL    HW138129   2.749   2.139  11.574
12701SOL    HW238130   2.896   2.096  11.633
12702SOL     OW38131   3.089   3.432  11.965
12702SOL    HW138132   3.110   3.506  11.900
12702SOL    HW238133   3.157   3.432  12.038
12703SOL     OW38134   2.321   3.014  11.913
12703SOL    HW138135   2.250   2.987  11.978
12703SOL    HW238136   2.295   2.986  11.820
12704SOL     OW38137   3.133   3.659  11.763
12704SOL    HW138138   3.177   3.723  11.699
12704SOL    HW238139   3.083   3.711  11.833
12705SOL     OW38140   2.894   2.411  11.188
12705SOL    HW138141   2.853   2.493  11.149
12705SOL    HW238142   2.958   2.437  11.261
12706SOL     OW38143   1.940   2.418  12.558
12706SOL    HW138144   2.032   2.417  12.517
12706SOL    HW238145   1.934   2.492  12.625
12707SOL     OW38146   2.423   2.084  12.319
12707SOL    HW138147   2.461   2.000  12.356
12707SOL    HW238148   2.335   2.103  12.363
12708SOL     OW38149   2.728   2.316  11.814
12708SOL    HW138150   2.696   2.388  11.752
12708SOL    HW238151   2.752   2.235  11.761
12709SOL     OW38152   2.879   1.901  11.925
12709SOL    HW138153   2.807   1.906  11.856
12709SOL    HW238154   2.855   1.832  11.994
12710SOL     OW38155   3.291   3.035  12.039
12710SOL    HW138156   3.236   2.951  12.032
12710SOL    HW238157   3.317   3.064  11.947
12711SOL     OW38158   3.328   2.452  12.164
12711SOL    HW138159   3.298   2.357  12.171
12711SOL    HW238160   3.401   2.468  12.230
12712SOL     OW38161   3.719   2.695  11.549
12712SOL    HW138162   3.761   2.631  11.613
12712SOL    HW238163   3.681   2.644  11.471
12713SOL     OW38164   2.350   3.247  11.346
12713SOL    HW138165   2.263   3.232  11.393
12713SOL    HW238166   2.333   3.273  11.251
12714SOL     OW38167   3.526   3.142  11.829
12714SOL    HW138168   3.625   3.150  11.843
12714SOL    HW238169   3.481   3.226  11.860
12715SOL     OW38170   3.252   2.437  11.250
12715SOL    HW138171   3.198   2.416  11.331
12715SOL    HW238172   3.343   2.396  11.259
12716SOL     OW38173   2.389   2.118  11.500
12716SOL    HW138174   2.416   2.059  11.425
12716SOL    HW238175   2.389   2.213  11.469
12717SOL     OW38176   2.926   3.209  12.512
12717SOL    HW138177   2.846   3.186  12.567
12717SOL    HW238178   3.009   3.183  12.561
12718SOL     OW38179   2.973   3.057  12.272
12718SOL    HW138180   2.933   3.101  12.353
12718SOL    HW238181   2.932   3.094  12.189
12719SOL     OW38182   3.500   2.961  12.251
12719SOL    HW138183   3.505   3.042  12.310
12719SOL    HW238184   3.414   2.963  12.200
12720SOL     OW38185   2.777   1.951  12.574
12720SOL    HW138186   2.802   1.931  12.479
12720SOL    HW238187   2.849   2.007  12.616
12721SOL     OW38188   2.567   2.912  11.540
12721SOL    HW138189   2.553   2.919  11.639
12721SOL    HW238190   2.651   2.861  11.522
12722SOL     OW38191   2.272   2.675  12.423
12722SOL    HW138192   2.358   2.687  12.473
12722SOL    HW238193   2.230   2.588  12.450
12723SOL     OW38194   3.136   2.248  12.434
12723SOL    HW138195   3.157   2.322  12.498
12723SOL    HW238196   3.047   2.265  12.391
12724SOL     OW38197   1.926   3.426  12.503
12724SOL    HW138198   1.880   3.508  12.469
12724SOL    HW238199   2.024   3.445  12.512
12725SOL     OW38200   2.229   2.962  11.673
12725SOL    HW138201   2.222   3.045  11.617
12725SOL    HW238202   2.233   2.882  11.613
12726SOL     OW38203   2.428   2.399  12.037
12726SOL    HW138204   2.440   2.465  11.963
12726SOL    HW238205   2.474   2.433  12.120
12727SOL     OW38206   3.114   3.210  11.560
12727SOL    HW138207   3.164   3.287  11.600
12727SOL    HW238208   3.019   3.212  11.592
12728SOL     OW38209   3.134   3.307  12.314
12728SOL    HW138210   3.181   3.320  12.401
12728SOL    HW238211   3.068   3.233  12.323
12729SOL     OW38212   3.444   2.501  11.644
12729SOL    HW138213   3.413   2.562  11.717
12729SOL    HW238214   3.494   2.553  11.575
12730SOL     OW38215   2.216   3.372  12.501
12730SOL    HW138216   2.195   3.328  12.414
12730SOL    HW238217   2.313   3.398  12.504
12731SOL     OW38218   2.264   2.613  12.770
12731SOL    HW138219   2.332   2.668  12.723
12731SOL    HW238220   2.304   2.525  12.797
12732SOL     OW38221   3.449   2.641  12.842
12732SOL    HW138222   3.357   2.679  12.837
12732SOL    HW238223   3.509   2.688  12.777
12733SOL     OW38224   2.435   2.732  12.201
12733SOL    HW138225   2.479   2.821  12.192
12733SOL    HW238226   2.372   2.732  12.278
12734SOL     OW38227   3.222   2.724  12.217
12734SOL    HW138228   3.147   2.724  12.151
12734SOL    HW238229   3.259   2.632  12.226
12735SOL     OW38230   3.071   2.387  11.447
12735SOL    HW138231   3.084   2.303  11.501
12735SOL    HW238232   3.042   2.461  11.507
12736SOL     OW38233   2.169   2.075  12.403
12736SOL    HW138234   2.146   2.112  12.493
12736SOL    HW238235   2.139   1.980  12.397
12737SOL     OW38236   1.899   3.172  12.454
12737SOL    HW138237   1.952   3.123  12.522
12737SOL    HW238238   1.921   3.270  12.459
12738SOL     OW38239   2.594   2.496  12.236
12738SOL    HW138240   2.653   2.470  12.160
12738SOL    HW238241   2.566   2.592  12.225
12739SOL     OW38242   2.169   1.925  11.790
12739SOL    HW138243   2.158   2.019  11.823
12739SOL    HW238244   2.164   1.862  11.867
12740SOL     OW38245   3.484   2.229  11.546
12740SOL    HW138246   3.486   2.153  11.610
12740SOL    HW238247   3.436   2.306  11.586
12741SOL     OW38248   2.885   2.628  12.138
12741SOL    HW138249   2.900   2.649  12.234
12741SOL    HW238250   2.855   2.533  12.129
12742SOL     OW38251   2.842   3.435  12.872
12742SOL    HW138252   2.822   3.479  12.784
12742SOL    HW238253   2.881   3.344  12.856
12743SOL     OW38254   3.402   2.136  11.297
12743SOL    HW138255   3.341   2.061  11.320
12743SOL    HW238256   3.424   2.188  11.380
12744SOL     OW38257   3.165   2.700  11.214
12744SOL    HW138258   3.199   2.607  11.229
12744SOL    HW238259   3.183   2.727  11.119
12745SOL     OW38260   2.930   3.195  12.021
12745SOL    HW138261   2.937   3.111  11.966
12745SOL    HW238262   2.992   3.264  11.985
12746SOL     OW38263   2.181   2.672  12.121
12746SOL    HW138264   2.274   2.708  12.126
12746SOL    HW238265   2.175   2.587  12.173
12747SOL     OW38266   2.201   2.371  12.178
12747SOL    HW138267   2.149   2.288  12.161
12747SOL    HW238268   2.278   2.376  12.114
12748SOL     OW38269   3.000   2.242  12.850
12748SOL    HW138270   2.955   2.305  12.914
12748SOL    HW238271   3.093   2.273  12.833
12749SOL     OW38272   3.022   2.069  12.649
12749SOL    HW138273   3.022   2.133  12.726
12749SOL    HW238274   3.050   2.117  12.566
12750SOL     OW38275   1.870   3.188  11.372
12750SOL    HW138276   1.777   3.209  11.341
12750SOL    HW238277   1.880   3.089  11.385
12751SOL     OW38278   1.950   3.663  12.099
12751SOL    HW138279   1.908   3.577  12.072
12751SOL    HW238280   2.044   3.666  12.065
12752SOL     OW38281   2.366   3.430  12.082
12752SOL    HW138282   2.432   3.504  12.091
12752SOL    HW238283   2.410   3.351  12.040
12753SOL     OW38284   2.864   2.658  12.410
12753SOL    HW138285   2.905   2.626  12.496
12753SOL    HW238286   2.768   2.631  12.407
12754SOL     OW38287   1.902   2.406  12.286
12754SOL    HW138288   1.987   2.373  12.245
12754SOL    HW238289   1.915   2.421  12.384
12755SOL     OW38290   2.677   2.434  11.497
12755SOL    HW138291   2.684   2.345  11.451
12755SOL    HW238292   2.583   2.468  11.489
12756SOL     OW38293   3.519   2.466  12.378
12756SOL    HW138294   3.481   2.397  12.440
12756SOL    HW238295   3.601   2.430  12.334
12757SOL     OW38296   2.533   2.326  12.441
12757SOL    HW138297   2.499   2.237  12.411
12757SOL    HW238298   2.559   2.380  12.361
12758SOL     OW38299   2.792   3.540  12.637
12758SOL    HW138300   2.768   3.522  12.542
12758SOL    HW238301   2.822   3.634  12.647
12759SOL     OW38302   2.335   2.362  11.363
12759SOL    HW138303   2.396   2.442  11.367
12759SOL    HW238304   2.240   2.393  11.370
12760SOL     OW38305   2.021   2.999  12.638
12760SOL    HW138306   2.043   2.938  12.714
12760SOL    HW238307   2.031   2.950  12.552
12761SOL     OW38308   3.209   2.921  12.406
12761SOL    HW138309   3.233   2.858  12.332
12761SOL    HW238310   3.119   2.961  12.388
12762SOL     OW38311   3.164   2.717  11.481
12762SOL    HW138312   3.078   2.686  11.523
12762SOL    HW238313   3.160   2.703  11.382
12763SOL     OW38314   3.621   3.609  12.326
12763SOL    HW138315   3.682   3.639  12.253
12763SOL    HW238316   3.583   3.520  12.304
12764SOL     OW38317   3.114   3.593  12.300
12764SOL    HW138318   3.198   3.598  12.246
12764SOL    HW238319   3.091   3.497  12.318
12765SOL     OW38320   1.945   3.120  12.194
12765SOL    HW138321   1.940   3.119  12.294
12765SOL    HW238322   1.862   3.079  12.156
12766SOL     OW38323   3.588   1.997  11.695
12766SOL    HW138324   3.661   1.980  11.628
12766SOL    HW238325   3.557   1.910  11.733
12767SOL     OW38326   3.250   3.435  11.649
12767SOL    HW138327   3.317   3.447  11.575
12767SOL    HW238328   3.210   3.524  11.672
12768SOL     OW38329   3.142   2.789  11.844
12768SOL    HW138330   3.202   2.708  11.846
12768SOL    HW238331   3.182   2.858  11.784
12769SOL     OW38332   2.534   3.478  11.326
12769SOL    HW138333   2.543   3.488  11.227
12769SOL    HW238334   2.494   3.389  11.347
12770SOL     OW38335   3.512   3.582  12.566
12770SOL    HW138336   3.565   3.592  12.482
12770SOL    HW238337   3.485   3.672  12.600
12771SOL     OW38338   3.703   2.037  12.135
12771SOL    HW138339   3.742   1.952  12.099
12771SOL    HW238340   3.605   2.039  12.116
12772SOL     OW38341   2.125   2.188  11.892
12772SOL    HW138342   2.046   2.239  11.858
12772SOL    HW238343   2.116   2.173  11.990
12773SOL     OW38344   3.056   3.474  11.203
12773SOL    HW138345   3.062   3.381  11.240
12773SOL    HW238346   2.997   3.474  11.123
12774SOL     OW38347   2.684   2.864  12.544
12774SOL    HW138348   2.724   2.863  12.452
12774SOL    HW238349   2.694   2.956  12.584
12775SOL     OW38350   2.778   2.772  11.463
12775SOL    HW138351   2.841   2.810  11.395
12775SOL    HW238352   2.818   2.689  11.502
12776SOL     OW38353   3.366   3.469  11.216
12776SOL    HW138354   3.274   3.506  11.223
12776SOL    HW238355   3.404   3.489  11.126
12777SOL     OW38356   2.234   3.150  12.662
12777SOL    HW138357   2.221   3.243  12.628
12777SOL    HW238358   2.150   3.098  12.649
12778SOL     OW38359   3.476   3.154  12.461
12778SOL    HW138360   3.536   3.157  12.541
12778SOL    HW238361   3.401   3.218  12.474
12779SOL     OW38362   2.901   2.960  11.868
12779SOL    HW138363   2.831   2.913  11.922
12779SOL    HW238364   2.960   2.892  11.825
12780SOL     OW38365   2.876   2.098  12.143
12780SOL    HW138366   2.868   2.062  12.050
12780SOL    HW238367   2.874   2.022  12.208
12781SOL     OW38368   2.452   3.349  11.663
12781SOL    HW138369   2.494   3.291  11.593
12781SOL    HW238370   2.408   3.428  11.619
12782SOL     OW38371   3.571   2.247  12.553
12782SOL    HW138372   3.644   2.316  12.557
12782SOL    HW238373   3.599   2.172  12.494
12783SOL     OW38374   2.117   3.210  11.462
12783SOL    HW138375   2.021   3.211  11.435
12783SOL    HW238376   2.129   3.263  11.546
12784SOL     OW38377   1.937   2.207  11.205
12784SOL    HW138378   1.845   2.179  11.176
12784SOL    HW238379   1.968   2.284  11.149
12785SOL     OW38380   3.302   2.718  12.570
12785SOL    HW138381   3.245   2.770  12.507
12785SOL    HW238382   3.398   2.730  12.546
12786SOL     OW38383   1.934   2.028  11.490
12786SOL    HW138384   1.917   2.111  11.436
12786SOL    HW238385   2.024   1.991  11.468
12787SOL     OW38386   3.045   3.197  11.291
12787SOL    HW138387   2.946   3.186  11.293
12787SOL    HW238388   3.079   3.212  11.384
12788SOL     OW38389   2.475   2.704  12.603
12788SOL    HW138390   2.531   2.785  12.586
12788SOL    HW238391   2.534   2.624  12.606
12789SOL     OW38392   3.355   3.629  12.131
12789SOL    HW138393   3.388   3.693  12.062
12789SOL    HW238394   3.421   3.623  12.206
12790SOL     OW38395   2.252   3.603  12.732
12790SOL    HW138396   2.161   3.644  12.730
12790SOL    HW238397   2.245   3.509  12.764
12791SOL     OW38398   3.536   2.745  12.426
12791SOL    HW138399   3.509   2.656  12.389
12791SOL    HW238400   3.537   2.813  12.353
12792SOL     OW38401   3.087   2.187  11.621
12792SOL    HW138402   3.152   2.113  11.610
12792SOL    HW238403   3.107   2.237  11.705
12793SOL     OW38404   2.456   2.607  11.824
12793SOL    HW138405   2.506   2.692  11.805
12793SOL    HW238406   2.368   2.609  11.776
12794SOL     OW38407   3.639   2.204  12.814
12794SOL    HW138408   3.622   2.235  12.720
12794SOL    HW238409   3.555   2.167  12.852
12795SOL     OW38410   3.592   2.796  12.689
12795SOL    HW138411   3.630   2.887  12.704
12795SOL    HW238412   3.584   2.779  12.590
12796SOL     OW38413   2.721   3.236  11.188
12796SOL    HW138414   2.675   3.251  11.276
12796SOL    HW238415   2.765   3.321  11.158
12797SOL     OW38416   2.523   3.652  12.125
12797SOL    HW138417   2.477   3.740  12.112
12797SOL    HW238418   2.622   3.664  12.118
12798SOL     OW38419   2.721   2.818  12.033
12798SOL    HW138420   2.775   2.749  12.081
12798SOL    HW238421   2.689   2.887  12.099
12799SOL     OW38422   2.945   2.846  11.259
12799SOL    HW138423   2.922   2.899  11.177
12799SOL    HW238424   3.026   2.790  11.240
12800SOL     OW38425   3.723   3.431  12.023
12800SOL    HW138426   3.652   3.419  11.953
12800SOL    HW238427   3.724   3.352  12.083
12801SOL     OW38428   1.941   3.102  11.825
12801SOL    HW138429   1.940   3.055  11.913
12801SOL    HW238430   2.023   3.074  11.774
12802SOL     OW38431   3.686   2.054  12.399
12802SOL    HW138432   3.682   1.964  12.443
12802SOL    HW238433   3.689   2.043  12.300
12803SOL     OW38434   2.290   2.286  11.692
12803SOL    HW138435   2.320   2.214  11.630
12803SOL    HW238436   2.251   2.246  11.775
12804SOL     OW38437   3.567   3.349  12.276
12804SOL    HW138438   3.474   3.324  12.249
12804SOL    HW238439   3.593   3.299  12.358
12805SOL     OW38440   2.179   2.409  12.452
12805SOL    HW138441   2.217   2.350  12.524
12805SOL    HW238442   2.219   2.383  12.364
12806SOL     OW38443   2.674   3.448  11.859
12806SOL    HW138444   2.706   3.458  11.765
12806SOL    HW238445   2.595   3.386  11.861
12807SOL     OW38446   3.286   2.076  12.284
12807SOL    HW138447   3.338   2.011  12.339
12807SOL    HW238448   3.237   2.139  12.345
12808SOL     OW38449   2.863   1.896  12.326
12808SOL    HW138450   2.800   1.824  12.295
12808SOL    HW238451   2.956   1.860  12.326
12809SOL     OW38452   2.632   3.192  11.473
12809SOL    HW138453   2.586   3.105  11.490
12809SOL    HW238454   2.723   3.189  11.514
12810SOL     OW38455   2.480   3.429  12.456
12810SOL    HW138456   2.475   3.511  12.513
12810SOL    HW238457   2.569   3.426  12.411
12811SOL     OW38458   3.214   1.914  11.340
12811SOL    HW138459   3.249   1.873  11.256
12811SOL    HW238460   3.124   1.876  11.360
12812SOL     OW38461   3.162   2.315  11.863
12812SOL    HW138462   3.103   2.395  11.867
12812SOL    HW238463   3.177   2.280  11.956
12813SOL     OW38464   3.455   2.083  12.054
12813SOL    HW138465   3.371   2.082  12.108
12813SOL    HW238466   3.457   2.166  11.998
12814SOL     OW38467   1.901   2.939  11.472
12814SOL    HW138468   2.000   2.928  11.463
12814SOL    HW238469   1.861   2.853  11.504
12815SOL     OW38470   2.737   3.508  11.509
12815SOL    HW138471   2.660   3.473  11.455
12815SOL    HW238472   2.705   3.579  11.571
12816SOL     OW38473   2.092   4.352   0.113
12816SOL    HW138474   1.999   4.350   0.150
12816SOL    HW238475   2.093   4.313   0.021
12817SOL     OW38476   2.087   3.999   0.996
12817SOL    HW138477   2.122   3.982   1.088
12817SOL    HW238478   1.999   3.954   0.984
12818SOL     OW38479   1.881   4.092   0.647
12818SOL    HW138480   1.799   4.135   0.686
12818SOL    HW238481   1.853   4.019   0.584
12819SOL     OW38482   2.431   4.999   1.165
12819SOL    HW138483   2.338   4.992   1.128
12819SOL    HW238484   2.442   5.088   1.209
12820SOL     OW38485   3.417   5.235   0.703
12820SOL    HW138486   3.360   5.219   0.784
12820SOL    HW238487   3.358   5.245   0.623
12821SOL     OW38488   2.997   4.427   0.717
12821SOL    HW138489   3.054   4.505   0.692
12821SOL    HW238490   2.937   4.453   0.793
12822SOL     OW38491   3.617   4.331   0.231
12822SOL    HW138492   3.605   4.318   0.132
12822SOL    HW238493   3.587   4.250   0.280
12823SOL     OW38494   2.630   4.868   1.023
12823SOL    HW138495   2.552   4.885   1.083
12823SOL    HW238496   2.664   4.955   0.987
12824SOL     OW38497   2.712   4.522   1.823
12824SOL    HW138498   2.708   4.598   1.888
12824SOL    HW238499   2.734   4.558   1.732
12825SOL     OW38500   2.547   4.736   0.665
12825SOL    HW138501   2.616   4.720   0.735
12825SOL    HW238502   2.474   4.793   0.703
12826SOL     OW38503   2.548   4.885   1.803
12826SOL    HW138504   2.608   4.964   1.817
12826SOL    HW238505   2.462   4.916   1.762
12827SOL     OW38506   2.197   5.159   1.061
12827SOL    HW138507   2.119   5.128   1.008
12827SOL    HW238508   2.255   5.217   1.004
12828SOL     OW38509   3.322   5.229   1.339
12828SOL    HW138510   3.346   5.323   1.365
12828SOL    HW238511   3.306   5.175   1.421
12829SOL     OW38512   2.300   4.116   1.499
12829SOL    HW138513   2.382   4.060   1.508
12829SOL    HW238514   2.219   4.058   1.503
12830SOL     OW38515   3.465   4.171   0.737
12830SOL    HW138516   3.391   4.217   0.687
12830SOL    HW238517   3.516   4.239   0.790
12831SOL     OW38518   2.093   5.437   0.483
12831SOL    HW138519   2.127   5.514   0.537
12831SOL    HW238520   2.137   5.437   0.393
12832SOL     OW38521   2.989   5.065   1.690
12832SOL    HW138522   3.036   5.065   1.778
12832SOL    HW238523   2.941   4.978   1.679
12833SOL     OW38524   2.092   5.158   0.538
12833SOL    HW138525   2.066   5.254   0.538
12833SOL    HW238526   2.021   5.104   0.583
12834SOL     OW38527   2.102   4.815   0.886
12834SOL    HW138528   2.116   4.731   0.938
12834SOL    HW238529   2.047   4.879   0.941
12835SOL     OW38530   2.482   5.510   1.439
12835SOL    HW138531   2.390   5.493   1.474
12835SOL    HW238532   2.510   5.602   1.465
12836SOL     OW38533   2.468   4.688   0.123
12836SOL    HW138534   2.475   4.772   0.069
12836SOL    HW238535   2.514   4.701   0.211
12837SOL     OW38536   3.456   3.838   1.480
12837SOL    HW138537   3.438   3.905   1.408
12837SOL    HW238538   3.453   3.884   1.569
12838SOL     OW38539   1.984   4.367   0.563
12838SOL    HW138540   1.939   4.279   0.580
12838SOL    HW238541   1.983   4.421   0.647
12839SOL     OW38542   3.704   5.491   0.359
12839SOL    HW138543   3.758   5.462   0.439
12839SOL    HW238544   3.734   5.581   0.330
12840SOL     OW38545   1.889   5.320   0.117
12840SOL    HW138546   1.870   5.224   0.138
12840SOL    HW238547   1.856   5.378   0.192
12841SOL     OW38548   3.551   4.646   0.612
12841SOL    HW138549   3.646   4.617   0.620
12841SOL    HW238550   3.543   4.711   0.537
12842SOL     OW38551   3.503   4.832   0.432
12842SOL    HW138552   3.589   4.834   0.380
12842SOL    HW238553   3.517   4.879   0.520
12843SOL     OW38554   1.975   4.461   1.597
12843SOL    HW138555   2.063   4.448   1.642
12843SOL    HW238556   1.962   4.558   1.575
12844SOL     OW38557   2.475   5.089   0.726
12844SOL    HW138558   2.426   5.002   0.735
12844SOL    HW238559   2.452   5.132   0.639
12845SOL     OW38560   3.155   4.952   1.423
12845SOL    HW138561   3.192   4.879   1.365
12845SOL    HW238562   3.207   4.957   1.508
12846SOL     OW38563   2.671   3.728   0.502
12846SOL    HW138564   2.711   3.819   0.493
12846SOL    HW238565   2.571   3.736   0.508
12847SOL     OW38566   2.059   4.700   1.264
12847SOL    HW138567   2.148   4.655   1.250
12847SOL    HW238568   1.986   4.635   1.245
12848SOL     OW38569   3.387   4.723   0.190
12848SOL    HW138570   3.324   4.647   0.203
12848SOL    HW238571   3.435   4.741   0.276
12849SOL     OW38572   3.049   5.516   1.616
12849SOL    HW138573   3.073   5.576   1.540
12849SOL    HW238574   3.056   5.421   1.586
12850SOL     OW38575   2.179   3.975   1.801
12850SOL    HW138576   2.250   4.046   1.807
12850SOL    HW238577   2.091   4.014   1.829
12851SOL     OW38578   3.328   5.141   0.953
12851SOL    HW138579   3.269   5.147   1.033
12851SOL    HW238580   3.313   5.053   0.907
12852SOL     OW38581   3.529   5.438   0.572
12852SOL    HW138582   3.488   5.415   0.484
12852SOL    HW238583   3.511   5.364   0.637
12853SOL     OW38584   2.460   4.453   0.270
12853SOL    HW138585   2.484   4.522   0.202
12853SOL    HW238586   2.382   4.486   0.324
12854SOL     OW38587   3.143   4.069   0.944
12854SOL    HW138588   3.057   4.019   0.931
12854SOL    HW238589   3.205   4.015   1.000
12855SOL     OW38590   3.438   5.386   0.307
12855SOL    HW138591   3.527   5.432   0.310
12855SOL    HW238592   3.417   5.362   0.212
12856SOL     OW38593   2.669   4.329   1.465
12856SOL    HW138594   2.622   4.326   1.554
12856SOL    HW238595   2.618   4.274   1.399
12857SOL     OW38596   3.256   4.193   1.674
12857SOL    HW138597   3.236   4.236   1.762
12857SOL    HW238598   3.334   4.131   1.683
12858SOL     OW38599   2.835   4.614   1.572
12858SOL    HW138600   2.881   4.530   1.543
12858SOL    HW238601   2.779   4.648   1.497
12859SOL     OW38602   2.853   4.134   1.242
12859SOL    HW138603   2.776   4.168   1.296
12859SOL    HW238604   2.819   4.083   1.163
12860SOL     OW38605   2.903   4.425   0.429
12860SOL    HW138606   2.929   4.421   0.525
12860SOL    HW238607   2.818   4.374   0.415
12861SOL     OW38608   1.938   4.535   0.789
12861SOL    HW138609   2.037   4.523   0.798
12861SOL    HW238610   1.914   4.630   0.810
12862SOL     OW38611   1.992   5.545   1.571
12862SOL    HW138612   1.982   5.530   1.670
12862SOL    HW238613   1.906   5.581   1.535
12863SOL     OW38614   2.727   4.072   0.195
12863SOL    HW138615   2.786   4.135   0.146
12863SOL    HW238616   2.746   3.978   0.166
12864SOL     OW38617   3.581   4.309   1.831
12864SOL    HW138618   3.555   4.398   1.795
12864SOL    HW238619   3.579   4.241   1.758
12865SOL     OW38620   3.224   4.868   0.545
12865SOL    HW138621   3.307   4.839   0.497
12865SOL    HW238622   3.175   4.935   0.489
12866SOL     OW38623   2.412   3.920   0.885
12866SOL    HW138624   2.407   3.915   0.985
12866SOL    HW238625   2.414   4.016   0.856
12867SOL     OW38626   2.870   5.180   0.477
12867SOL    HW138627   2.824   5.252   0.425
12867SOL    HW238628   2.866   5.200   0.575
12868SOL     OW38629   2.213   5.525   0.853
12868SOL    HW138630   2.263   5.439   0.859
12868SOL    HW238631   2.278   5.602   0.850
12869SOL     OW38632   3.657   4.790   0.873
12869SOL    HW138633   3.595   4.775   0.797
12869SOL    HW238634   3.605   4.801   0.958
12870SOL     OW38635   3.089   5.274   1.506
12870SOL    HW138636   3.095   5.197   1.570
12870SOL    HW238637   3.037   5.248   1.426
12871SOL     OW38638   2.183   4.667   0.242
12871SOL    HW138639   2.265   4.706   0.200
12871SOL    HW238640   2.156   4.585   0.193
12872SOL     OW38641   3.320   4.459   0.728
12872SOL    HW138642   3.315   4.394   0.803
12872SOL    HW238643   3.400   4.518   0.741
12873SOL     OW38644   2.323   4.990   1.727
12873SOL    HW138645   2.273   4.991   1.641
12873SOL    HW238646   2.260   4.972   1.803
12874SOL     OW38647   2.973   5.500   0.237
12874SOL    HW138648   2.913   5.438   0.287
12874SOL    HW238649   3.004   5.456   0.152
12875SOL     OW38650   2.064   4.009   1.498
12875SOL    HW138651   1.984   4.069   1.485
12875SOL    HW238652   2.054   3.960   1.584
12876SOL     OW38653   3.494   5.101   0.081
12876SOL    HW138654   3.462   5.195   0.071
12876SOL    HW238655   3.418   5.038   0.069
12877SOL     OW38656   2.326   5.467   0.323
12877SOL    HW138657   2.359   5.506   0.409
12877SOL    HW238658   2.402   5.460   0.258
12878SOL     OW38659   3.262   3.831   0.426
12878SOL    HW138660   3.238   3.794   0.336
12878SOL    HW238661   3.361   3.847   0.430
12879SOL     OW38662   2.111   5.509   1.241
12879SOL    HW138663   2.168   5.444   1.291
12879SOL    HW238664   2.095   5.476   1.148
12880SOL     OW38665   2.802   5.422   0.904
12880SOL    HW138666   2.882   5.365   0.925
12880SOL    HW238667   2.753   5.382   0.827
12881SOL     OW38668   2.244   4.424   0.480
12881SOL    HW138669   2.289   4.334   0.477
12881SOL    HW238670   2.150   4.413   0.513
12882SOL     OW38671   3.409   3.946   1.729
12882SOL    HW138672   3.404   3.983   1.821
12882SOL    HW238673   3.337   3.877   1.717
12883SOL     OW38674   2.476   3.846   0.117
12883SOL    HW138675   2.574   3.824   0.124
12883SOL    HW238676   2.445   3.829   0.024
12884SOL     OW38677   2.643   3.988   1.749
12884SOL    HW138678   2.710   3.927   1.792
12884SOL    HW238679   2.570   4.007   1.814
12885SOL     OW38680   2.750   5.238   1.195
12885SOL    HW138681   2.727   5.213   1.101
12885SOL    HW238682   2.811   5.169   1.234
12886SOL     OW38683   3.213   4.314   1.433
12886SOL    HW138684   3.241   4.271   1.518
12886SOL    HW238685   3.238   4.410   1.434
12887SOL     OW38686   2.665   5.126   0.924
12887SOL    HW138687   2.755   5.140   0.882
12887SOL    HW238688   2.594   5.128   0.853
12888SOL     OW38689   2.784   4.227   0.899
12888SOL    HW138690   2.759   4.218   0.803
12888SOL    HW238691   2.832   4.145   0.930
12889SOL     OW38692   2.401   3.788   0.512
12889SOL    HW138693   2.320   3.789   0.570
12889SOL    HW238694   2.404   3.871   0.457
12890SOL     OW38695   3.296   4.912   0.041
12890SOL    HW138696   3.328   4.836   0.098
12890SOL    HW238697   3.204   4.939   0.071
12891SOL     OW38698   2.159   3.759   0.171
12891SOL    HW138699   2.208   3.843   0.150
12891SOL    HW238700   2.221   3.694   0.216
12892SOL     OW38701   2.797   3.960   0.480
12892SOL    HW138702   2.749   4.001   0.402
12892SOL    HW238703   2.896   3.958   0.461
12893SOL     OW38704   2.938   4.407   1.464
12893SOL    HW138705   2.858   4.346   1.467
12893SOL    HW238706   3.019   4.354   1.440
12894SOL     OW38707   3.089   5.294   0.793
12894SOL    HW138708   3.110   5.368   0.728
12894SOL    HW238709   3.157   5.294   0.866
12895SOL     OW38710   2.321   4.876   0.741
12895SOL    HW138711   2.250   4.849   0.806
12895SOL    HW238712   2.295   4.848   0.648
12896SOL     OW38713   3.133   5.521   0.591
12896SOL    HW138714   3.177   5.585   0.527
12896SOL    HW238715   3.083   5.573   0.661
12897SOL     OW38716   2.894   4.273   0.016
12897SOL    HW138717   2.853   4.355  -0.023
12897SOL    HW238718   2.958   4.299   0.089
12898SOL     OW38719   1.940   4.280   1.386
12898SOL    HW138720   2.032   4.279   1.345
12898SOL    HW238721   1.934   4.354   1.453
12899SOL     OW38722   2.423   3.946   1.147
12899SOL    HW138723   2.461   3.862   1.184
12899SOL    HW238724   2.335   3.965   1.191
12900SOL     OW38725   2.728   4.178   0.642
12900SOL    HW138726   2.696   4.250   0.580
12900SOL    HW238727   2.752   4.097   0.589
12901SOL     OW38728   2.879   3.763   0.753
12901SOL    HW138729   2.807   3.768   0.684
12901SOL    HW238730   2.855   3.694   0.822
12902SOL     OW38731   3.291   4.897   0.867
12902SOL    HW138732   3.236   4.813   0.860
12902SOL    HW238733   3.317   4.926   0.775
12903SOL     OW38734   3.328   4.314   0.992
12903SOL    HW138735   3.298   4.219   0.999
12903SOL    HW238736   3.401   4.330   1.058
12904SOL     OW38737   3.719   4.557   0.377
12904SOL    HW138738   3.761   4.493   0.441
12904SOL    HW238739   3.681   4.506   0.299
12905SOL     OW38740   2.350   5.109   0.174
12905SOL    HW138741   2.263   5.094   0.221
12905SOL    HW238742   2.333   5.135   0.079
12906SOL     OW38743   3.526   5.004   0.657
12906SOL    HW138744   3.625   5.012   0.671
12906SOL    HW238745   3.481   5.088   0.688
12907SOL     OW38746   3.252   4.299   0.078
12907SOL    HW138747   3.198   4.278   0.159
12907SOL    HW238748   3.343   4.258   0.087
12908SOL     OW38749   2.389   3.980   0.328
12908SOL    HW138750   2.416   3.921   0.253
12908SOL    HW238751   2.389   4.075   0.297
12909SOL     OW38752   3.616   4.947   1.588
12909SOL    HW138753   3.707   4.908   1.575
12909SOL    HW238754   3.624   5.043   1.612
12910SOL     OW38755   2.926   5.071   1.340
12910SOL    HW138756   2.846   5.048   1.395
12910SOL    HW238757   3.009   5.045   1.389
12911SOL     OW38758   3.454   5.353   1.625
12911SOL    HW138759   3.481   5.387   1.535
12911SOL    HW238760   3.533   5.315   1.671
12912SOL     OW38761   2.973   4.919   1.100
12912SOL    HW138762   2.933   4.963   1.181
12912SOL    HW238763   2.932   4.956   1.017
12913SOL     OW38764   3.500   4.823   1.079
12913SOL    HW138765   3.505   4.904   1.138
12913SOL    HW238766   3.414   4.825   1.028
12914SOL     OW38767   2.777   3.813   1.402
12914SOL    HW138768   2.802   3.793   1.307
12914SOL    HW238769   2.849   3.869   1.444
12915SOL     OW38770   2.842   4.840   1.719
12915SOL    HW138771   2.743   4.846   1.729
12915SOL    HW238772   2.865   4.760   1.663
12916SOL     OW38773   2.567   4.774   0.368
12916SOL    HW138774   2.553   4.781   0.467
12916SOL    HW238775   2.651   4.723   0.350
12917SOL     OW38776   2.272   4.537   1.251
12917SOL    HW138777   2.358   4.549   1.301
12917SOL    HW238778   2.230   4.450   1.278
12918SOL     OW38779   3.136   4.110   1.262
12918SOL    HW138780   3.157   4.184   1.326
12918SOL    HW238781   3.047   4.127   1.219
12919SOL     OW38782   1.926   5.288   1.331
12919SOL    HW138783   1.880   5.370   1.297
12919SOL    HW238784   2.024   5.307   1.340
12920SOL     OW38785   2.229   4.824   0.501
12920SOL    HW138786   2.222   4.907   0.445
12920SOL    HW238787   2.233   4.744   0.441
12921SOL     OW38788   2.428   4.261   0.865
12921SOL    HW138789   2.440   4.327   0.791
12921SOL    HW238790   2.474   4.295   0.948
12922SOL     OW38791   3.114   5.072   0.388
12922SOL    HW138792   3.164   5.149   0.428
12922SOL    HW238793   3.019   5.074   0.420
12923SOL     OW38794   3.134   5.169   1.142
12923SOL    HW138795   3.181   5.182   1.229
12923SOL    HW238796   3.068   5.095   1.151
12924SOL     OW38797   3.444   4.363   0.472
12924SOL    HW138798   3.413   4.424   0.545
12924SOL    HW238799   3.494   4.415   0.403
12925SOL     OW38800   2.216   5.234   1.329
12925SOL    HW138801   2.195   5.190   1.242
12925SOL    HW238802   2.313   5.260   1.332
12926SOL     OW38803   2.264   4.475   1.598
12926SOL    HW138804   2.332   4.530   1.551
12926SOL    HW238805   2.304   4.387   1.625
12927SOL     OW38806   3.449   4.503   1.670
12927SOL    HW138807   3.357   4.541   1.665
12927SOL    HW238808   3.509   4.550   1.605
12928SOL     OW38809   2.875   3.829   1.770
12928SOL    HW138810   2.881   3.914   1.718
12928SOL    HW238811   2.907   3.753   1.713
12929SOL     OW38812   2.366   3.774   1.740
12929SOL    HW138813   2.324   3.717   1.670
12929SOL    HW238814   2.300   3.843   1.772
12930SOL     OW38815   2.435   4.594   1.029
12930SOL    HW138816   2.479   4.683   1.020
12930SOL    HW238817   2.372   4.594   1.106
12931SOL     OW38818   3.222   4.586   1.045
12931SOL    HW138819   3.147   4.586   0.979
12931SOL    HW238820   3.259   4.494   1.054
12932SOL     OW38821   3.071   4.249   0.275
12932SOL    HW138822   3.084   4.165   0.329
12932SOL    HW238823   3.042   4.323   0.335
12933SOL     OW38824   2.169   3.937   1.231
12933SOL    HW138825   2.146   3.974   1.321
12933SOL    HW238826   2.139   3.842   1.225
12934SOL     OW38827   1.899   5.034   1.282
12934SOL    HW138828   1.952   4.985   1.350
12934SOL    HW238829   1.921   5.132   1.287
12935SOL     OW38830   2.594   4.358   1.064
12935SOL    HW138831   2.653   4.332   0.988
12935SOL    HW238832   2.566   4.454   1.053
12936SOL     OW38833   3.590   4.659   1.854
12936SOL    HW138834   3.544   4.652   1.765
12936SOL    HW238835   3.528   4.703   1.920
12937SOL     OW38836   2.169   3.787   0.618
12937SOL    HW138837   2.158   3.881   0.651
12937SOL    HW238838   2.164   3.724   0.695
12938SOL     OW38839   3.484   4.091   0.374
12938SOL    HW138840   3.486   4.015   0.438
12938SOL    HW238841   3.436   4.168   0.414
12939SOL     OW38842   2.885   4.490   0.966
12939SOL    HW138843   2.900   4.511   1.062
12939SOL    HW238844   2.855   4.395   0.957
12940SOL     OW38845   2.842   5.297   1.700
12940SOL    HW138846   2.822   5.341   1.612
12940SOL    HW238847   2.881   5.206   1.684
12941SOL     OW38848   3.721   5.242   1.605
12941SOL    HW138849   3.735   5.269   1.510
12941SOL    HW238850   3.804   5.264   1.658
12942SOL     OW38851   2.212   4.622   1.804
12942SOL    HW138852   2.288   4.666   1.852
12942SOL    HW238853   2.247   4.575   1.722
12943SOL     OW38854   3.402   3.998   0.125
12943SOL    HW138855   3.341   3.923   0.148
12943SOL    HW238856   3.424   4.050   0.208
12944SOL     OW38857   3.165   4.562   0.042
12944SOL    HW138858   3.199   4.469   0.057
12944SOL    HW238859   3.183   4.589  -0.053
12945SOL     OW38860   2.930   5.057   0.849
12945SOL    HW138861   2.937   4.973   0.794
12945SOL    HW238862   2.992   5.126   0.813
12946SOL     OW38863   2.181   4.534   0.949
12946SOL    HW138864   2.274   4.570   0.954
12946SOL    HW238865   2.175   4.449   1.001
12947SOL     OW38866   2.201   4.233   1.006
12947SOL    HW138867   2.149   4.150   0.989
12947SOL    HW238868   2.278   4.238   0.942
12948SOL     OW38869   3.000   4.104   1.678
12948SOL    HW138870   2.955   4.167   1.742
12948SOL    HW238871   3.093   4.135   1.661
12949SOL     OW38872   3.022   3.931   1.477
12949SOL    HW138873   3.022   3.995   1.554
12949SOL    HW238874   3.050   3.979   1.394
12950SOL     OW38875   1.870   5.050   0.200
12950SOL    HW138876   1.777   5.071   0.169
12950SOL    HW238877   1.880   4.951   0.213
12951SOL     OW38878   1.950   5.525   0.927
12951SOL    HW138879   1.908   5.439   0.900
12951SOL    HW238880   2.044   5.528   0.893
12952SOL     OW38881   2.366   5.292   0.910
12952SOL    HW138882   2.432   5.366   0.919
12952SOL    HW238883   2.410   5.213   0.868
12953SOL     OW38884   2.864   4.520   1.238
12953SOL    HW138885   2.905   4.488   1.324
12953SOL    HW238886   2.768   4.493   1.235
12954SOL     OW38887   1.902   4.268   1.114
12954SOL    HW138888   1.987   4.235   1.073
12954SOL    HW238889   1.915   4.283   1.212
12955SOL     OW38890   2.051   4.244   1.722
12955SOL    HW138891   2.110   4.204   1.652
12955SOL    HW238892   1.993   4.315   1.681
12956SOL     OW38893   3.231   4.674   1.660
12956SOL    HW138894   3.270   4.763   1.680
12956SOL    HW238895   3.241   4.654   1.563
12957SOL     OW38896   2.677   4.296   0.325
12957SOL    HW138897   2.684   4.207   0.279
12957SOL    HW238898   2.583   4.330   0.317
12958SOL     OW38899   3.519   4.328   1.206
12958SOL    HW138900   3.481   4.259   1.268
12958SOL    HW238901   3.601   4.292   1.162
12959SOL     OW38902   2.114   5.288   1.744
12959SOL    HW138903   2.084   5.345   1.820
12959SOL    HW238904   2.107   5.191   1.770
12960SOL     OW38905   2.533   4.188   1.269
12960SOL    HW138906   2.499   4.099   1.239
12960SOL    HW238907   2.559   4.242   1.189
12961SOL     OW38908   2.792   5.402   1.465
12961SOL    HW138909   2.768   5.384   1.370
12961SOL    HW238910   2.822   5.496   1.475
12962SOL     OW38911   2.335   4.224   0.191
12962SOL    HW138912   2.396   4.304   0.195
12962SOL    HW238913   2.240   4.255   0.198
12963SOL     OW38914   2.021   4.861   1.466
12963SOL    HW138915   2.043   4.800   1.542
12963SOL    HW238916   2.031   4.812   1.380
12964SOL     OW38917   3.209   4.783   1.234
12964SOL    HW138918   3.233   4.720   1.160
12964SOL    HW238919   3.119   4.823   1.216
12965SOL     OW38920   3.164   4.579   0.309
12965SOL    HW138921   3.078   4.548   0.351
12965SOL    HW238922   3.160   4.565   0.210
12966SOL     OW38923   3.621   5.471   1.154
12966SOL    HW138924   3.682   5.501   1.081
12966SOL    HW238925   3.583   5.382   1.132
12967SOL     OW38926   3.114   5.455   1.128
12967SOL    HW138927   3.198   5.460   1.074
12967SOL    HW238928   3.091   5.359   1.146
12968SOL     OW38929   1.945   4.982   1.022
12968SOL    HW138930   1.940   4.981   1.122
12968SOL    HW238931   1.862   4.941   0.984
12969SOL     OW38932   2.550   5.386   1.716
12969SOL    HW138933   2.494   5.467   1.725
12969SOL    HW238934   2.602   5.390   1.630
12970SOL     OW38935   2.765   3.810   0.133
12970SOL    HW138936   2.816   3.811   0.047
12970SOL    HW238937   2.821   3.768   0.204
12971SOL     OW38938   3.588   3.859   0.523
12971SOL    HW138939   3.661   3.842   0.456
12971SOL    HW238940   3.557   3.772   0.561
12972SOL     OW38941   3.250   5.297   0.477
12972SOL    HW138942   3.317   5.309   0.403
12972SOL    HW238943   3.210   5.386   0.500
12973SOL     OW38944   1.992   5.518   1.851
12973SOL    HW138945   1.951   5.444   1.904
12973SOL    HW238946   2.056   5.569   1.909
12974SOL     OW38947   3.142   4.651   0.672
12974SOL    HW138948   3.202   4.570   0.674
12974SOL    HW238949   3.182   4.720   0.612
12975SOL     OW38950   2.692   4.997   1.422
12975SOL    HW138951   2.687   5.030   1.517
12975SOL    HW238952   2.606   5.016   1.376
12976SOL     OW38953   2.534   5.340   0.154
12976SOL    HW138954   2.543   5.350   0.055
12976SOL    HW238955   2.494   5.251   0.175
12977SOL     OW38956   3.512   5.444   1.394
12977SOL    HW138957   3.565   5.454   1.310
12977SOL    HW238958   3.485   5.534   1.428
12978SOL     OW38959   3.703   3.899   0.963
12978SOL    HW138960   3.742   3.814   0.927
12978SOL    HW238961   3.605   3.901   0.944
12979SOL     OW38962   2.125   4.050   0.720
12979SOL    HW138963   2.046   4.101   0.686
12979SOL    HW238964   2.116   4.035   0.818
12980SOL     OW38965   3.056   5.336   0.031
12980SOL    HW138966   3.062   5.243   0.068
12980SOL    HW238967   2.997   5.336  -0.049
12981SOL     OW38968   2.684   4.726   1.372
12981SOL    HW138969   2.724   4.725   1.280
12981SOL    HW238970   2.694   4.818   1.412
12982SOL     OW38971   2.778   4.634   0.291
12982SOL    HW138972   2.841   4.672   0.223
12982SOL    HW238973   2.818   4.551   0.330
12983SOL     OW38974   3.366   5.331   0.044
12983SOL    HW138975   3.274   5.368   0.051
12983SOL    HW238976   3.404   5.351  -0.046
12984SOL     OW38977   2.234   5.012   1.490
12984SOL    HW138978   2.221   5.105   1.456
12984SOL    HW238979   2.150   4.960   1.477
12985SOL     OW38980   3.476   5.016   1.289
12985SOL    HW138981   3.536   5.019   1.369
12985SOL    HW238982   3.401   5.080   1.302
12986SOL     OW38983   2.901   4.822   0.696
12986SOL    HW138984   2.831   4.775   0.750
12986SOL    HW238985   2.960   4.754   0.653
12987SOL     OW38986   2.876   3.960   0.971
12987SOL    HW138987   2.868   3.924   0.878
12987SOL    HW238988   2.874   3.884   1.036
12988SOL     OW38989   2.452   5.211   0.491
12988SOL    HW138990   2.494   5.153   0.421
12988SOL    HW238991   2.408   5.290   0.447
12989SOL     OW38992   3.571   4.109   1.381
12989SOL    HW138993   3.644   4.178   1.385
12989SOL    HW238994   3.599   4.034   1.322
12990SOL     OW38995   2.117   5.072   0.290
12990SOL    HW138996   2.021   5.073   0.263
12990SOL    HW238997   2.129   5.125   0.374
12991SOL     OW38998   1.967   4.737   1.726
12991SOL    HW138999   1.890   4.704   1.780
12991SOL    HW239000   2.052   4.707   1.768
12992SOL     OW39001   2.534   3.927   1.489
12992SOL    HW139002   2.624   3.911   1.449
12992SOL    HW239003   2.542   3.932   1.588
12993SOL     OW39004   3.302   4.580   1.398
12993SOL    HW139005   3.245   4.632   1.335
12993SOL    HW239006   3.398   4.592   1.374
12994SOL     OW39007   1.934   3.890   0.318
12994SOL    HW139008   1.917   3.973   0.264
12994SOL    HW239009   2.024   3.853   0.296
12995SOL     OW39010   3.045   5.059   0.119
12995SOL    HW139011   2.946   5.048   0.121
12995SOL    HW239012   3.079   5.074   0.212
12996SOL     OW39013   2.475   4.566   1.431
12996SOL    HW139014   2.531   4.647   1.414
12996SOL    HW239015   2.534   4.486   1.434
12997SOL     OW39016   3.355   5.491   0.959
12997SOL    HW139017   3.388   5.555   0.890
12997SOL    HW239018   3.421   5.485   1.034
12998SOL     OW39019   2.578   4.289   1.708
12998SOL    HW139020   2.597   4.354   1.782
12998SOL    HW239021   2.638   4.209   1.717
12999SOL     OW39022   3.312   4.944   1.633
12999SOL    HW139023   3.303   4.934   1.732
12999SOL    HW239024   3.408   4.937   1.607
13000SOL     OW39025   2.252   5.465   1.560
13000SOL    HW139026   2.161   5.506   1.558
13000SOL    HW239027   2.245   5.371   1.592
13001SOL     OW39028   3.536   4.607   1.254
13001SOL    HW139029   3.509   4.518   1.217
13001SOL    HW239030   3.537   4.675   1.181
13002SOL     OW39031   3.087   4.049   0.449
13002SOL    HW139032   3.152   3.975   0.438
13002SOL    HW239033   3.107   4.099   0.533
13003SOL     OW39034   2.456   4.469   0.652
13003SOL    HW139035   2.506   4.554   0.633
13003SOL    HW239036   2.368   4.471   0.604
13004SOL     OW39037   3.639   4.066   1.642
13004SOL    HW139038   3.622   4.097   1.548
13004SOL    HW239039   3.555   4.029   1.680
13005SOL     OW39040   3.592   4.658   1.517
13005SOL    HW139041   3.630   4.749   1.532
13005SOL    HW239042   3.584   4.641   1.418
13006SOL     OW39043   2.721   5.098   0.016
13006SOL    HW139044   2.675   5.113   0.104
13006SOL    HW239045   2.765   5.183  -0.014
13007SOL     OW39046   2.523   5.514   0.953
13007SOL    HW139047   2.477   5.602   0.940
13007SOL    HW239048   2.622   5.526   0.946
13008SOL     OW39049   2.721   4.680   0.861
13008SOL    HW139050   2.775   4.611   0.909
13008SOL    HW239051   2.689   4.749   0.927
13009SOL     OW39052   2.945   4.708   0.087
13009SOL    HW139053   2.922   4.761   0.005
13009SOL    HW239054   3.026   4.652   0.068
13010SOL     OW39055   3.723   5.293   0.851
13010SOL    HW139056   3.652   5.281   0.781
13010SOL    HW239057   3.724   5.214   0.911
13011SOL     OW39058   2.083   5.038   1.844
13011SOL    HW139059   2.018   4.965   1.823
13011SOL    HW239060   2.087   5.052   1.942
13012SOL     OW39061   1.941   4.964   0.653
13012SOL    HW139062   1.940   4.917   0.741
13012SOL    HW239063   2.023   4.936   0.602
13013SOL     OW39064   2.534   5.115   1.624
13013SOL    HW139065   2.456   5.065   1.662
13013SOL    HW239066   2.531   5.210   1.655
13014SOL     OW39067   3.686   3.916   1.227
13014SOL    HW139068   3.682   3.826   1.271
13014SOL    HW239069   3.689   3.905   1.128
13015SOL     OW39070   2.290   4.148   0.520
13015SOL    HW139071   2.320   4.076   0.458
13015SOL    HW239072   2.251   4.108   0.603
13016SOL     OW39073   3.567   5.211   1.104
13016SOL    HW139074   3.474   5.186   1.077
13016SOL    HW239075   3.593   5.161   1.186
13017SOL     OW39076   2.179   4.271   1.280
13017SOL    HW139077   2.217   4.212   1.352
13017SOL    HW239078   2.219   4.245   1.192
13018SOL     OW39079   2.674   5.310   0.687
13018SOL    HW139080   2.706   5.320   0.593
13018SOL    HW239081   2.595   5.248   0.689
13019SOL     OW39082   3.286   3.938   1.112
13019SOL    HW139083   3.338   3.873   1.167
13019SOL    HW239084   3.237   4.001   1.173
13020SOL     OW39085   2.863   3.758   1.154
13020SOL    HW139086   2.800   3.686   1.123
13020SOL    HW239087   2.956   3.722   1.154
13021SOL     OW39088   2.632   5.054   0.301
13021SOL    HW139089   2.586   4.967   0.318
13021SOL    HW239090   2.723   5.051   0.342
13022SOL     OW39091   2.480   5.291   1.284
13022SOL    HW139092   2.475   5.373   1.341
13022SOL    HW239093   2.569   5.288   1.239
13023SOL     OW39094   3.214   3.776   0.168
13023SOL    HW139095   3.249   3.735   0.084
13023SOL    HW239096   3.124   3.738   0.188
13024SOL     OW39097   3.162   4.177   0.691
13024SOL    HW139098   3.103   4.257   0.695
13024SOL    HW239099   3.177   4.142   0.784
13025SOL     OW39100   3.455   3.945   0.882
13025SOL    HW139101   3.371   3.944   0.936
13025SOL    HW239102   3.457   4.028   0.826
13026SOL     OW39103   1.901   4.801   0.300
13026SOL    HW139104   2.000   4.790   0.291
13026SOL    HW239105   1.861   4.715   0.332
13027SOL     OW39106   2.737   5.370   0.337
13027SOL    HW139107   2.660   5.335   0.283
13027SOL    HW239108   2.705   5.441   0.399
13028SOL     OW39109   2.092   4.352   1.975
13028SOL    HW139110   1.999   4.350   2.012
13028SOL    HW239111   2.093   4.313   1.883
13029SOL     OW39112   2.087   3.999   2.858
13029SOL    HW139113   2.122   3.982   2.950
13029SOL    HW239114   1.999   3.954   2.846
13030SOL     OW39115   1.881   4.092   2.509
13030SOL    HW139116   1.799   4.135   2.548
13030SOL    HW239117   1.853   4.019   2.446
13031SOL     OW39118   2.431   4.999   3.027
13031SOL    HW139119   2.338   4.992   2.990
13031SOL    HW239120   2.442   5.088   3.071
13032SOL     OW39121   3.417   5.235   2.565
13032SOL    HW139122   3.360   5.219   2.646
13032SOL    HW239123   3.358   5.245   2.485
13033SOL     OW39124   2.997   4.427   2.579
13033SOL    HW139125   3.054   4.505   2.554
13033SOL    HW239126   2.937   4.453   2.655
13034SOL     OW39127   3.617   4.331   2.093
13034SOL    HW139128   3.605   4.318   1.994
13034SOL    HW239129   3.587   4.250   2.142
13035SOL     OW39130   2.630   4.868   2.885
13035SOL    HW139131   2.552   4.885   2.945
13035SOL    HW239132   2.664   4.955   2.849
13036SOL     OW39133   2.712   4.522   3.685
13036SOL    HW139134   2.708   4.598   3.750
13036SOL    HW239135   2.734   4.558   3.594
13037SOL     OW39136   2.547   4.736   2.527
13037SOL    HW139137   2.616   4.720   2.597
13037SOL    HW239138   2.474   4.793   2.565
13038SOL     OW39139   2.548   4.885   3.665
13038SOL    HW139140   2.608   4.964   3.679
13038SOL    HW239141   2.462   4.916   3.624
13039SOL     OW39142   2.197   5.159   2.923
13039SOL    HW139143   2.119   5.128   2.870
13039SOL    HW239144   2.255   5.217   2.866
13040SOL     OW39145   3.322   5.229   3.201
13040SOL    HW139146   3.346   5.323   3.227
13040SOL    HW239147   3.306   5.175   3.283
13041SOL     OW39148   2.300   4.116   3.361
13041SOL    HW139149   2.382   4.060   3.370
13041SOL    HW239150   2.219   4.058   3.365
13042SOL     OW39151   3.465   4.171   2.599
13042SOL    HW139152   3.391   4.217   2.549
13042SOL    HW239153   3.516   4.239   2.652
13043SOL     OW39154   2.093   5.437   2.345
13043SOL    HW139155   2.127   5.514   2.399
13043SOL    HW239156   2.137   5.437   2.255
13044SOL     OW39157   2.989   5.065   3.552
13044SOL    HW139158   3.036   5.065   3.640
13044SOL    HW239159   2.941   4.978   3.541
13045SOL     OW39160   2.092   5.158   2.400
13045SOL    HW139161   2.066   5.254   2.400
13045SOL    HW239162   2.021   5.104   2.445
13046SOL     OW39163   2.102   4.815   2.748
13046SOL    HW139164   2.116   4.731   2.800
13046SOL    HW239165   2.047   4.879   2.803
13047SOL     OW39166   2.482   5.510   3.301
13047SOL    HW139167   2.390   5.493   3.336
13047SOL    HW239168   2.510   5.602   3.327
13048SOL     OW39169   2.468   4.688   1.985
13048SOL    HW139170   2.475   4.772   1.931
13048SOL    HW239171   2.514   4.701   2.073
13049SOL     OW39172   3.456   3.838   3.342
13049SOL    HW139173   3.438   3.905   3.270
13049SOL    HW239174   3.453   3.884   3.431
13050SOL     OW39175   1.984   4.367   2.425
13050SOL    HW139176   1.939   4.279   2.442
13050SOL    HW239177   1.983   4.421   2.509
13051SOL     OW39178   3.704   5.491   2.221
13051SOL    HW139179   3.758   5.462   2.301
13051SOL    HW239180   3.734   5.581   2.192
13052SOL     OW39181   1.889   5.320   1.979
13052SOL    HW139182   1.870   5.224   2.000
13052SOL    HW239183   1.856   5.378   2.054
13053SOL     OW39184   3.551   4.646   2.474
13053SOL    HW139185   3.646   4.617   2.482
13053SOL    HW239186   3.543   4.711   2.399
13054SOL     OW39187   3.503   4.832   2.294
13054SOL    HW139188   3.589   4.834   2.242
13054SOL    HW239189   3.517   4.879   2.382
13055SOL     OW39190   1.975   4.461   3.459
13055SOL    HW139191   2.063   4.448   3.504
13055SOL    HW239192   1.962   4.558   3.437
13056SOL     OW39193   2.475   5.089   2.588
13056SOL    HW139194   2.426   5.002   2.597
13056SOL    HW239195   2.452   5.132   2.501
13057SOL     OW39196   3.155   4.952   3.285
13057SOL    HW139197   3.192   4.879   3.227
13057SOL    HW239198   3.207   4.957   3.370
13058SOL     OW39199   2.671   3.728   2.364
13058SOL    HW139200   2.711   3.819   2.355
13058SOL    HW239201   2.571   3.736   2.370
13059SOL     OW39202   2.059   4.700   3.126
13059SOL    HW139203   2.148   4.655   3.112
13059SOL    HW239204   1.986   4.635   3.107
13060SOL     OW39205   3.387   4.723   2.052
13060SOL    HW139206   3.324   4.647   2.065
13060SOL    HW239207   3.435   4.741   2.138
13061SOL     OW39208   3.049   5.516   3.478
13061SOL    HW139209   3.073   5.576   3.402
13061SOL    HW239210   3.056   5.421   3.448
13062SOL     OW39211   2.179   3.975   3.663
13062SOL    HW139212   2.250   4.046   3.669
13062SOL    HW239213   2.091   4.014   3.691
13063SOL     OW39214   3.328   5.141   2.815
13063SOL    HW139215   3.269   5.147   2.895
13063SOL    HW239216   3.313   5.053   2.769
13064SOL     OW39217   3.529   5.438   2.434
13064SOL    HW139218   3.488   5.415   2.346
13064SOL    HW239219   3.511   5.364   2.499
13065SOL     OW39220   2.460   4.453   2.132
13065SOL    HW139221   2.484   4.522   2.064
13065SOL    HW239222   2.382   4.486   2.186
13066SOL     OW39223   3.143   4.069   2.806
13066SOL    HW139224   3.057   4.019   2.793
13066SOL    HW239225   3.205   4.015   2.862
13067SOL     OW39226   3.438   5.386   2.169
13067SOL    HW139227   3.527   5.432   2.172
13067SOL    HW239228   3.417   5.362   2.074
13068SOL     OW39229   2.669   4.329   3.327
13068SOL    HW139230   2.622   4.326   3.416
13068SOL    HW239231   2.618   4.274   3.261
13069SOL     OW39232   3.256   4.193   3.536
13069SOL    HW139233   3.236   4.236   3.624
13069SOL    HW239234   3.334   4.131   3.545
13070SOL     OW39235   2.835   4.614   3.434
13070SOL    HW139236   2.881   4.530   3.405
13070SOL    HW239237   2.779   4.648   3.359
13071SOL     OW39238   2.853   4.134   3.104
13071SOL    HW139239   2.776   4.168   3.158
13071SOL    HW239240   2.819   4.083   3.025
13072SOL     OW39241   2.903   4.425   2.291
13072SOL    HW139242   2.929   4.421   2.387
13072SOL    HW239243   2.818   4.374   2.277
13073SOL     OW39244   1.938   4.535   2.651
13073SOL    HW139245   2.037   4.523   2.660
13073SOL    HW239246   1.914   4.630   2.672
13074SOL     OW39247   1.992   5.545   3.433
13074SOL    HW139248   1.982   5.530   3.532
13074SOL    HW239249   1.906   5.581   3.397
13075SOL     OW39250   2.727   4.072   2.057
13075SOL    HW139251   2.786   4.135   2.008
13075SOL    HW239252   2.746   3.978   2.028
13076SOL     OW39253   3.581   4.309   3.693
13076SOL    HW139254   3.555   4.398   3.657
13076SOL    HW239255   3.579   4.241   3.620
13077SOL     OW39256   3.224   4.868   2.407
13077SOL    HW139257   3.307   4.839   2.359
13077SOL    HW239258   3.175   4.935   2.351
13078SOL     OW39259   2.412   3.920   2.747
13078SOL    HW139260   2.407   3.915   2.847
13078SOL    HW239261   2.414   4.016   2.718
13079SOL     OW39262   2.870   5.180   2.339
13079SOL    HW139263   2.824   5.252   2.287
13079SOL    HW239264   2.866   5.200   2.437
13080SOL     OW39265   2.213   5.525   2.715
13080SOL    HW139266   2.263   5.439   2.721
13080SOL    HW239267   2.278   5.602   2.712
13081SOL     OW39268   3.657   4.790   2.735
13081SOL    HW139269   3.595   4.775   2.659
13081SOL    HW239270   3.605   4.801   2.820
13082SOL     OW39271   3.089   5.274   3.368
13082SOL    HW139272   3.095   5.197   3.432
13082SOL    HW239273   3.037   5.248   3.288
13083SOL     OW39274   2.183   4.667   2.104
13083SOL    HW139275   2.265   4.706   2.062
13083SOL    HW239276   2.156   4.585   2.055
13084SOL     OW39277   3.320   4.459   2.590
13084SOL    HW139278   3.315   4.394   2.665
13084SOL    HW239279   3.400   4.518   2.603
13085SOL     OW39280   2.323   4.990   3.589
13085SOL    HW139281   2.273   4.991   3.503
13085SOL    HW239282   2.260   4.972   3.665
13086SOL     OW39283   2.973   5.500   2.099
13086SOL    HW139284   2.913   5.438   2.149
13086SOL    HW239285   3.004   5.456   2.014
13087SOL     OW39286   2.064   4.009   3.360
13087SOL    HW139287   1.984   4.069   3.347
13087SOL    HW239288   2.054   3.960   3.446
13088SOL     OW39289   3.494   5.101   1.943
13088SOL    HW139290   3.462   5.195   1.933
13088SOL    HW239291   3.418   5.038   1.931
13089SOL     OW39292   2.326   5.467   2.185
13089SOL    HW139293   2.359   5.506   2.271
13089SOL    HW239294   2.402   5.460   2.120
13090SOL     OW39295   3.262   3.831   2.288
13090SOL    HW139296   3.238   3.794   2.198
13090SOL    HW239297   3.361   3.847   2.292
13091SOL     OW39298   2.111   5.509   3.103
13091SOL    HW139299   2.168   5.444   3.153
13091SOL    HW239300   2.095   5.476   3.010
13092SOL     OW39301   2.802   5.422   2.766
13092SOL    HW139302   2.882   5.365   2.787
13092SOL    HW239303   2.753   5.382   2.689
13093SOL     OW39304   2.244   4.424   2.342
13093SOL    HW139305   2.289   4.334   2.339
13093SOL    HW239306   2.150   4.413   2.375
13094SOL     OW39307   3.409   3.946   3.591
13094SOL    HW139308   3.404   3.983   3.683
13094SOL    HW239309   3.337   3.877   3.579
13095SOL     OW39310   2.476   3.846   1.979
13095SOL    HW139311   2.574   3.824   1.986
13095SOL    HW239312   2.445   3.829   1.886
13096SOL     OW39313   2.643   3.988   3.611
13096SOL    HW139314   2.710   3.927   3.654
13096SOL    HW239315   2.570   4.007   3.676
13097SOL     OW39316   2.750   5.238   3.057
13097SOL    HW139317   2.727   5.213   2.963
13097SOL    HW239318   2.811   5.169   3.096
13098SOL     OW39319   3.213   4.314   3.295
13098SOL    HW139320   3.241   4.271   3.380
13098SOL    HW239321   3.238   4.410   3.296
13099SOL     OW39322   2.665   5.126   2.786
13099SOL    HW139323   2.755   5.140   2.744
13099SOL    HW239324   2.594   5.128   2.715
13100SOL     OW39325   2.784   4.227   2.761
13100SOL    HW139326   2.759   4.218   2.665
13100SOL    HW239327   2.832   4.145   2.792
13101SOL     OW39328   2.401   3.788   2.374
13101SOL    HW139329   2.320   3.789   2.432
13101SOL    HW239330   2.404   3.871   2.319
13102SOL     OW39331   3.296   4.912   1.903
13102SOL    HW139332   3.328   4.836   1.960
13102SOL    HW239333   3.204   4.939   1.933
13103SOL     OW39334   2.159   3.759   2.033
13103SOL    HW139335   2.208   3.843   2.012
13103SOL    HW239336   2.221   3.694   2.078
13104SOL     OW39337   2.797   3.960   2.342
13104SOL    HW139338   2.749   4.001   2.264
13104SOL    HW239339   2.896   3.958   2.323
13105SOL     OW39340   2.938   4.407   3.326
13105SOL    HW139341   2.858   4.346   3.329
13105SOL    HW239342   3.019   4.354   3.302
13106SOL     OW39343   3.089   5.294   2.655
13106SOL    HW139344   3.110   5.368   2.590
13106SOL    HW239345   3.157   5.294   2.728
13107SOL     OW39346   2.321   4.876   2.603
13107SOL    HW139347   2.250   4.849   2.668
13107SOL    HW239348   2.295   4.848   2.510
13108SOL     OW39349   3.133   5.521   2.453
13108SOL    HW139350   3.177   5.585   2.389
13108SOL    HW239351   3.083   5.573   2.523
13109SOL     OW39352   2.894   4.273   1.878
13109SOL    HW139353   2.853   4.355   1.839
13109SOL    HW239354   2.958   4.299   1.951
13110SOL     OW39355   1.940   4.280   3.248
13110SOL    HW139356   2.032   4.279   3.207
13110SOL    HW239357   1.934   4.354   3.315
13111SOL     OW39358   2.423   3.946   3.009
13111SOL    HW139359   2.461   3.862   3.046
13111SOL    HW239360   2.335   3.965   3.053
13112SOL     OW39361   2.728   4.178   2.504
13112SOL    HW139362   2.696   4.250   2.442
13112SOL    HW239363   2.752   4.097   2.451
13113SOL     OW39364   2.879   3.763   2.615
13113SOL    HW139365   2.807   3.768   2.546
13113SOL    HW239366   2.855   3.694   2.684
13114SOL     OW39367   3.291   4.897   2.729
13114SOL    HW139368   3.236   4.813   2.722
13114SOL    HW239369   3.317   4.926   2.637
13115SOL     OW39370   3.328   4.314   2.854
13115SOL    HW139371   3.298   4.219   2.861
13115SOL    HW239372   3.401   4.330   2.920
13116SOL     OW39373   3.719   4.557   2.239
13116SOL    HW139374   3.761   4.493   2.303
13116SOL    HW239375   3.681   4.506   2.161
13117SOL     OW39376   2.350   5.109   2.036
13117SOL    HW139377   2.263   5.094   2.083
13117SOL    HW239378   2.333   5.135   1.941
13118SOL     OW39379   3.526   5.004   2.519
13118SOL    HW139380   3.625   5.012   2.533
13118SOL    HW239381   3.481   5.088   2.550
13119SOL     OW39382   3.252   4.299   1.940
13119SOL    HW139383   3.198   4.278   2.021
13119SOL    HW239384   3.343   4.258   1.949
13120SOL     OW39385   2.389   3.980   2.190
13120SOL    HW139386   2.416   3.921   2.115
13120SOL    HW239387   2.389   4.075   2.159
13121SOL     OW39388   3.616   4.947   3.450
13121SOL    HW139389   3.707   4.908   3.437
13121SOL    HW239390   3.624   5.043   3.474
13122SOL     OW39391   2.926   5.071   3.202
13122SOL    HW139392   2.846   5.048   3.257
13122SOL    HW239393   3.009   5.045   3.251
13123SOL     OW39394   3.454   5.353   3.487
13123SOL    HW139395   3.481   5.387   3.397
13123SOL    HW239396   3.533   5.315   3.533
13124SOL     OW39397   2.973   4.919   2.962
13124SOL    HW139398   2.933   4.963   3.043
13124SOL    HW239399   2.932   4.956   2.879
13125SOL     OW39400   3.500   4.823   2.941
13125SOL    HW139401   3.505   4.904   3.000
13125SOL    HW239402   3.414   4.825   2.890
13126SOL     OW39403   2.777   3.813   3.264
13126SOL    HW139404   2.802   3.793   3.169
13126SOL    HW239405   2.849   3.869   3.306
13127SOL     OW39406   2.842   4.840   3.581
13127SOL    HW139407   2.743   4.846   3.591
13127SOL    HW239408   2.865   4.760   3.525
13128SOL     OW39409   2.567   4.774   2.230
13128SOL    HW139410   2.553   4.781   2.329
13128SOL    HW239411   2.651   4.723   2.212
13129SOL     OW39412   2.272   4.537   3.113
13129SOL    HW139413   2.358   4.549   3.163
13129SOL    HW239414   2.230   4.450   3.140
13130SOL     OW39415   3.136   4.110   3.124
13130SOL    HW139416   3.157   4.184   3.188
13130SOL    HW239417   3.047   4.127   3.081
13131SOL     OW39418   1.926   5.288   3.193
13131SOL    HW139419   1.880   5.370   3.159
13131SOL    HW239420   2.024   5.307   3.202
13132SOL     OW39421   2.229   4.824   2.363
13132SOL    HW139422   2.222   4.907   2.307
13132SOL    HW239423   2.233   4.744   2.303
13133SOL     OW39424   2.428   4.261   2.727
13133SOL    HW139425   2.440   4.327   2.653
13133SOL    HW239426   2.474   4.295   2.810
13134SOL     OW39427   3.114   5.072   2.250
13134SOL    HW139428   3.164   5.149   2.290
13134SOL    HW239429   3.019   5.074   2.282
13135SOL     OW39430   3.134   5.169   3.004
13135SOL    HW139431   3.181   5.182   3.091
13135SOL    HW239432   3.068   5.095   3.013
13136SOL     OW39433   3.444   4.363   2.334
13136SOL    HW139434   3.413   4.424   2.407
13136SOL    HW239435   3.494   4.415   2.265
13137SOL     OW39436   2.216   5.234   3.191
13137SOL    HW139437   2.195   5.190   3.104
13137SOL    HW239438   2.313   5.260   3.194
13138SOL     OW39439   2.264   4.475   3.460
13138SOL    HW139440   2.332   4.530   3.413
13138SOL    HW239441   2.304   4.387   3.487
13139SOL     OW39442   3.449   4.503   3.532
13139SOL    HW139443   3.357   4.541   3.527
13139SOL    HW239444   3.509   4.550   3.467
13140SOL     OW39445   2.875   3.829   3.632
13140SOL    HW139446   2.881   3.914   3.580
13140SOL    HW239447   2.907   3.753   3.575
13141SOL     OW39448   2.366   3.774   3.602
13141SOL    HW139449   2.324   3.717   3.532
13141SOL    HW239450   2.300   3.843   3.634
13142SOL     OW39451   2.435   4.594   2.891
13142SOL    HW139452   2.479   4.683   2.882
13142SOL    HW239453   2.372   4.594   2.968
13143SOL     OW39454   3.222   4.586   2.907
13143SOL    HW139455   3.147   4.586   2.841
13143SOL    HW239456   3.259   4.494   2.916
13144SOL     OW39457   3.071   4.249   2.137
13144SOL    HW139458   3.084   4.165   2.191
13144SOL    HW239459   3.042   4.323   2.197
13145SOL     OW39460   2.169   3.937   3.093
13145SOL    HW139461   2.146   3.974   3.183
13145SOL    HW239462   2.139   3.842   3.087
13146SOL     OW39463   1.899   5.034   3.144
13146SOL    HW139464   1.952   4.985   3.212
13146SOL    HW239465   1.921   5.132   3.149
13147SOL     OW39466   2.594   4.358   2.926
13147SOL    HW139467   2.653   4.332   2.850
13147SOL    HW239468   2.566   4.454   2.915
13148SOL     OW39469   3.590   4.659   3.716
13148SOL    HW139470   3.544   4.652   3.627
13148SOL    HW239471   3.528   4.703   3.782
13149SOL     OW39472   2.169   3.787   2.480
13149SOL    HW139473   2.158   3.881   2.513
13149SOL    HW239474   2.164   3.724   2.557
13150SOL     OW39475   3.484   4.091   2.236
13150SOL    HW139476   3.486   4.015   2.300
13150SOL    HW239477   3.436   4.168   2.276
13151SOL     OW39478   2.885   4.490   2.828
13151SOL    HW139479   2.900   4.511   2.924
13151SOL    HW239480   2.855   4.395   2.819
13152SOL     OW39481   2.842   5.297   3.562
13152SOL    HW139482   2.822   5.341   3.474
13152SOL    HW239483   2.881   5.206   3.546
13153SOL     OW39484   3.721   5.242   3.467
13153SOL    HW139485   3.735   5.269   3.372
13153SOL    HW239486   3.804   5.264   3.520
13154SOL     OW39487   2.212   4.622   3.666
13154SOL    HW139488   2.288   4.666   3.714
13154SOL    HW239489   2.247   4.575   3.584
13155SOL     OW39490   3.402   3.998   1.987
13155SOL    HW139491   3.341   3.923   2.010
13155SOL    HW239492   3.424   4.050   2.070
13156SOL     OW39493   3.165   4.562   1.904
13156SOL    HW139494   3.199   4.469   1.919
13156SOL    HW239495   3.183   4.589   1.809
13157SOL     OW39496   2.930   5.057   2.711
13157SOL    HW139497   2.937   4.973   2.656
13157SOL    HW239498   2.992   5.126   2.675
13158SOL     OW39499   2.181   4.534   2.811
13158SOL    HW139500   2.274   4.570   2.816
13158SOL    HW239501   2.175   4.449   2.863
13159SOL     OW39502   2.201   4.233   2.868
13159SOL    HW139503   2.149   4.150   2.851
13159SOL    HW239504   2.278   4.238   2.804
13160SOL     OW39505   3.000   4.104   3.540
13160SOL    HW139506   2.955   4.167   3.604
13160SOL    HW239507   3.093   4.135   3.523
13161SOL     OW39508   3.022   3.931   3.339
13161SOL    HW139509   3.022   3.995   3.416
13161SOL    HW239510   3.050   3.979   3.256
13162SOL     OW39511   1.870   5.050   2.062
13162SOL    HW139512   1.777   5.071   2.031
13162SOL    HW239513   1.880   4.951   2.075
13163SOL     OW39514   1.950   5.525   2.789
13163SOL    HW139515   1.908   5.439   2.762
13163SOL    HW239516   2.044   5.528   2.755
13164SOL     OW39517   2.366   5.292   2.772
13164SOL    HW139518   2.432   5.366   2.781
13164SOL    HW239519   2.410   5.213   2.730
13165SOL     OW39520   2.864   4.520   3.100
13165SOL    HW139521   2.905   4.488   3.186
13165SOL    HW239522   2.768   4.493   3.097
13166SOL     OW39523   1.902   4.268   2.976
13166SOL    HW139524   1.987   4.235   2.935
13166SOL    HW239525   1.915   4.283   3.074
13167SOL     OW39526   2.051   4.244   3.584
13167SOL    HW139527   2.110   4.204   3.514
13167SOL    HW239528   1.993   4.315   3.543
13168SOL     OW39529   3.231   4.674   3.522
13168SOL    HW139530   3.270   4.763   3.542
13168SOL    HW239531   3.241   4.654   3.425
13169SOL     OW39532   2.677   4.296   2.187
13169SOL    HW139533   2.684   4.207   2.141
13169SOL    HW239534   2.583   4.330   2.179
13170SOL     OW39535   3.519   4.328   3.068
13170SOL    HW139536   3.481   4.259   3.130
13170SOL    HW239537   3.601   4.292   3.024
13171SOL     OW39538   2.114   5.288   3.606
13171SOL    HW139539   2.084   5.345   3.682
13171SOL    HW239540   2.107   5.191   3.632
13172SOL     OW39541   2.533   4.188   3.131
13172SOL    HW139542   2.499   4.099   3.101
13172SOL    HW239543   2.559   4.242   3.051
13173SOL     OW39544   2.792   5.402   3.327
13173SOL    HW139545   2.768   5.384   3.232
13173SOL    HW239546   2.822   5.496   3.337
13174SOL     OW39547   2.335   4.224   2.053
13174SOL    HW139548   2.396   4.304   2.057
13174SOL    HW239549   2.240   4.255   2.060
13175SOL     OW39550   2.021   4.861   3.328
13175SOL    HW139551   2.043   4.800   3.404
13175SOL    HW239552   2.031   4.812   3.242
13176SOL     OW39553   3.209   4.783   3.096
13176SOL    HW139554   3.233   4.720   3.022
13176SOL    HW239555   3.119   4.823   3.078
13177SOL     OW39556   3.164   4.579   2.171
13177SOL    HW139557   3.078   4.548   2.213
13177SOL    HW239558   3.160   4.565   2.072
13178SOL     OW39559   3.621   5.471   3.016
13178SOL    HW139560   3.682   5.501   2.943
13178SOL    HW239561   3.583   5.382   2.994
13179SOL     OW39562   3.114   5.455   2.990
13179SOL    HW139563   3.198   5.460   2.936
13179SOL    HW239564   3.091   5.359   3.008
13180SOL     OW39565   1.945   4.982   2.884
13180SOL    HW139566   1.940   4.981   2.984
13180SOL    HW239567   1.862   4.941   2.846
13181SOL     OW39568   2.550   5.386   3.578
13181SOL    HW139569   2.494   5.467   3.587
13181SOL    HW239570   2.602   5.390   3.492
13182SOL     OW39571   3.588   3.859   2.385
13182SOL    HW139572   3.661   3.842   2.318
13182SOL    HW239573   3.557   3.772   2.423
13183SOL     OW39574   3.250   5.297   2.339
13183SOL    HW139575   3.317   5.309   2.265
13183SOL    HW239576   3.210   5.386   2.362
13184SOL     OW39577   1.992   5.518   3.713
13184SOL    HW139578   1.951   5.444   3.766
13184SOL    HW239579   2.056   5.569   3.771
13185SOL     OW39580   3.142   4.651   2.534
13185SOL    HW139581   3.202   4.570   2.536
13185SOL    HW239582   3.182   4.720   2.474
13186SOL     OW39583   2.692   4.997   3.284
13186SOL    HW139584   2.687   5.030   3.379
13186SOL    HW239585   2.606   5.016   3.238
13187SOL     OW39586   2.534   5.340   2.016
13187SOL    HW139587   2.543   5.350   1.917
13187SOL    HW239588   2.494   5.251   2.037
13188SOL     OW39589   3.512   5.444   3.256
13188SOL    HW139590   3.565   5.454   3.172
13188SOL    HW239591   3.485   5.534   3.290
13189SOL     OW39592   3.703   3.899   2.825
13189SOL    HW139593   3.742   3.814   2.789
13189SOL    HW239594   3.605   3.901   2.806
13190SOL     OW39595   2.125   4.050   2.582
13190SOL    HW139596   2.046   4.101   2.548
13190SOL    HW239597   2.116   4.035   2.680
13191SOL     OW39598   3.056   5.336   1.893
13191SOL    HW139599   3.062   5.243   1.930
13191SOL    HW239600   2.997   5.336   1.813
13192SOL     OW39601   2.684   4.726   3.234
13192SOL    HW139602   2.724   4.725   3.142
13192SOL    HW239603   2.694   4.818   3.274
13193SOL     OW39604   2.778   4.634   2.153
13193SOL    HW139605   2.841   4.672   2.085
13193SOL    HW239606   2.818   4.551   2.192
13194SOL     OW39607   3.366   5.331   1.906
13194SOL    HW139608   3.274   5.368   1.913
13194SOL    HW239609   3.404   5.351   1.816
13195SOL     OW39610   2.234   5.012   3.352
13195SOL    HW139611   2.221   5.105   3.318
13195SOL    HW239612   2.150   4.960   3.339
13196SOL     OW39613   3.476   5.016   3.151
13196SOL    HW139614   3.536   5.019   3.231
13196SOL    HW239615   3.401   5.080   3.164
13197SOL     OW39616   2.901   4.822   2.558
13197SOL    HW139617   2.831   4.775   2.612
13197SOL    HW239618   2.960   4.754   2.515
13198SOL     OW39619   2.876   3.960   2.833
13198SOL    HW139620   2.868   3.924   2.740
13198SOL    HW239621   2.874   3.884   2.898
13199SOL     OW39622   2.452   5.211   2.353
13199SOL    HW139623   2.494   5.153   2.283
13199SOL    HW239624   2.408   5.290   2.309
13200SOL     OW39625   3.571   4.109   3.243
13200SOL    HW139626   3.644   4.178   3.247
13200SOL    HW239627   3.599   4.034   3.184
13201SOL     OW39628   2.117   5.072   2.152
13201SOL    HW139629   2.021   5.073   2.125
13201SOL    HW239630   2.129   5.125   2.236
13202SOL     OW39631   1.967   4.737   3.588
13202SOL    HW139632   1.890   4.704   3.642
13202SOL    HW239633   2.052   4.707   3.630
13203SOL     OW39634   2.534   3.927   3.351
13203SOL    HW139635   2.624   3.911   3.311
13203SOL    HW239636   2.542   3.932   3.450
13204SOL     OW39637   1.937   4.069   1.895
13204SOL    HW139638   1.845   4.041   1.866
13204SOL    HW239639   1.968   4.146   1.839
13205SOL     OW39640   3.302   4.580   3.260
13205SOL    HW139641   3.245   4.632   3.197
13205SOL    HW239642   3.398   4.592   3.236
13206SOL     OW39643   1.934   3.890   2.180
13206SOL    HW139644   1.917   3.973   2.126
13206SOL    HW239645   2.024   3.853   2.158
13207SOL     OW39646   3.045   5.059   1.981
13207SOL    HW139647   2.946   5.048   1.983
13207SOL    HW239648   3.079   5.074   2.074
13208SOL     OW39649   2.475   4.566   3.293
13208SOL    HW139650   2.531   4.647   3.276
13208SOL    HW239651   2.534   4.486   3.296
13209SOL     OW39652   3.355   5.491   2.821
13209SOL    HW139653   3.388   5.555   2.752
13209SOL    HW239654   3.421   5.485   2.896
13210SOL     OW39655   2.578   4.289   3.570
13210SOL    HW139656   2.597   4.354   3.644
13210SOL    HW239657   2.638   4.209   3.579
13211SOL     OW39658   3.312   4.944   3.495
13211SOL    HW139659   3.303   4.934   3.594
13211SOL    HW239660   3.408   4.937   3.469
13212SOL     OW39661   2.252   5.465   3.422
13212SOL    HW139662   2.161   5.506   3.420
13212SOL    HW239663   2.245   5.371   3.454
13213SOL     OW39664   3.536   4.607   3.116
13213SOL    HW139665   3.509   4.518   3.079
13213SOL    HW239666   3.537   4.675   3.043
13214SOL     OW39667   3.087   4.049   2.311
13214SOL    HW139668   3.152   3.975   2.300
13214SOL    HW239669   3.107   4.099   2.395
13215SOL     OW39670   2.456   4.469   2.514
13215SOL    HW139671   2.506   4.554   2.495
13215SOL    HW239672   2.368   4.471   2.466
13216SOL     OW39673   3.639   4.066   3.504
13216SOL    HW139674   3.622   4.097   3.410
13216SOL    HW239675   3.555   4.029   3.542
13217SOL     OW39676   3.592   4.658   3.379
13217SOL    HW139677   3.630   4.749   3.394
13217SOL    HW239678   3.584   4.641   3.280
13218SOL     OW39679   2.721   5.098   1.878
13218SOL    HW139680   2.675   5.113   1.966
13218SOL    HW239681   2.765   5.183   1.848
13219SOL     OW39682   2.523   5.514   2.815
13219SOL    HW139683   2.477   5.602   2.802
13219SOL    HW239684   2.622   5.526   2.808
13220SOL     OW39685   2.721   4.680   2.723
13220SOL    HW139686   2.775   4.611   2.771
13220SOL    HW239687   2.689   4.749   2.789
13221SOL     OW39688   2.945   4.708   1.949
13221SOL    HW139689   2.922   4.761   1.867
13221SOL    HW239690   3.026   4.652   1.930
13222SOL     OW39691   3.723   5.293   2.713
13222SOL    HW139692   3.652   5.281   2.643
13222SOL    HW239693   3.724   5.214   2.773
13223SOL     OW39694   2.083   5.038   3.706
13223SOL    HW139695   2.018   4.965   3.685
13223SOL    HW239696   2.087   5.052   3.804
13224SOL     OW39697   1.941   4.964   2.515
13224SOL    HW139698   1.940   4.917   2.603
13224SOL    HW239699   2.023   4.936   2.464
13225SOL     OW39700   2.534   5.115   3.486
13225SOL    HW139701   2.456   5.065   3.524
13225SOL    HW239702   2.531   5.210   3.517
13226SOL     OW39703   3.686   3.916   3.089
13226SOL    HW139704   3.682   3.826   3.133
13226SOL    HW239705   3.689   3.905   2.990
13227SOL     OW39706   2.290   4.148   2.382
13227SOL    HW139707   2.320   4.076   2.320
13227SOL    HW239708   2.251   4.108   2.465
13228SOL     OW39709   3.567   5.211   2.966
13228SOL    HW139710   3.474   5.186   2.939
13228SOL    HW239711   3.593   5.161   3.048
13229SOL     OW39712   2.179   4.271   3.142
13229SOL    HW139713   2.217   4.212   3.214
13229SOL    HW239714   2.219   4.245   3.054
13230SOL     OW39715   2.674   5.310   2.549
13230SOL    HW139716   2.706   5.320   2.455
13230SOL    HW239717   2.595   5.248   2.551
13231SOL     OW39718   3.286   3.938   2.974
13231SOL    HW139719   3.338   3.873   3.029
13231SOL    HW239720   3.237   4.001   3.035
13232SOL     OW39721   2.863   3.758   3.016
13232SOL    HW139722   2.800   3.686   2.985
13232SOL    HW239723   2.956   3.722   3.016
13233SOL     OW39724   2.632   5.054   2.163
13233SOL    HW139725   2.586   4.967   2.180
13233SOL    HW239726   2.723   5.051   2.204
13234SOL     OW39727   2.480   5.291   3.146
13234SOL    HW139728   2.475   5.373   3.203
13234SOL    HW239729   2.569   5.288   3.101
13235SOL     OW39730   3.214   3.776   2.030
13235SOL    HW139731   3.249   3.735   1.946
13235SOL    HW239732   3.124   3.738   2.050
13236SOL     OW39733   3.162   4.177   2.553
13236SOL    HW139734   3.103   4.257   2.557
13236SOL    HW239735   3.177   4.142   2.646
13237SOL     OW39736   3.455   3.945   2.744
13237SOL    HW139737   3.371   3.944   2.798
13237SOL    HW239738   3.457   4.028   2.688
13238SOL     OW39739   1.901   4.801   2.162
13238SOL    HW139740   2.000   4.790   2.153
13238SOL    HW239741   1.861   4.715   2.194
13239SOL     OW39742   2.737   5.370   2.199
13239SOL    HW139743   2.660   5.335   2.145
13239SOL    HW239744   2.705   5.441   2.261
13240SOL     OW39745   2.092   4.352   3.837
13240SOL    HW139746   1.999   4.350   3.874
13240SOL    HW239747   2.093   4.313   3.745
13241SOL     OW39748   2.087   3.999   4.720
13241SOL    HW139749   2.122   3.982   4.812
13241SOL    HW239750   1.999   3.954   4.708
13242SOL     OW39751   1.881   4.092   4.371
13242SOL    HW139752   1.799   4.135   4.410
13242SOL    HW239753   1.853   4.019   4.308
13243SOL     OW39754   2.431   4.999   4.889
13243SOL    HW139755   2.338   4.992   4.852
13243SOL    HW239756   2.442   5.088   4.933
13244SOL     OW39757   3.417   5.235   4.427
13244SOL    HW139758   3.360   5.219   4.508
13244SOL    HW239759   3.358   5.245   4.347
13245SOL     OW39760   2.997   4.427   4.441
13245SOL    HW139761   3.054   4.505   4.416
13245SOL    HW239762   2.937   4.453   4.517
13246SOL     OW39763   3.617   4.331   3.955
13246SOL    HW139764   3.605   4.318   3.856
13246SOL    HW239765   3.587   4.250   4.004
13247SOL     OW39766   2.630   4.868   4.747
13247SOL    HW139767   2.552   4.885   4.807
13247SOL    HW239768   2.664   4.955   4.711
13248SOL     OW39769   2.712   4.522   5.547
13248SOL    HW139770   2.708   4.598   5.612
13248SOL    HW239771   2.734   4.558   5.456
13249SOL     OW39772   2.547   4.736   4.389
13249SOL    HW139773   2.616   4.720   4.459
13249SOL    HW239774   2.474   4.793   4.427
13250SOL     OW39775   2.548   4.885   5.527
13250SOL    HW139776   2.608   4.964   5.541
13250SOL    HW239777   2.462   4.916   5.486
13251SOL     OW39778   2.197   5.159   4.785
13251SOL    HW139779   2.119   5.128   4.732
13251SOL    HW239780   2.255   5.217   4.728
13252SOL     OW39781   3.322   5.229   5.063
13252SOL    HW139782   3.346   5.323   5.089
13252SOL    HW239783   3.306   5.175   5.145
13253SOL     OW39784   2.300   4.116   5.223
13253SOL    HW139785   2.382   4.060   5.232
13253SOL    HW239786   2.219   4.058   5.227
13254SOL     OW39787   3.465   4.171   4.461
13254SOL    HW139788   3.391   4.217   4.411
13254SOL    HW239789   3.516   4.239   4.514
13255SOL     OW39790   2.093   5.437   4.207
13255SOL    HW139791   2.127   5.514   4.261
13255SOL    HW239792   2.137   5.437   4.117
13256SOL     OW39793   2.989   5.065   5.414
13256SOL    HW139794   3.036   5.065   5.502
13256SOL    HW239795   2.941   4.978   5.403
13257SOL     OW39796   2.092   5.158   4.262
13257SOL    HW139797   2.066   5.254   4.262
13257SOL    HW239798   2.021   5.104   4.307
13258SOL     OW39799   2.102   4.815   4.610
13258SOL    HW139800   2.116   4.731   4.662
13258SOL    HW239801   2.047   4.879   4.665
13259SOL     OW39802   2.482   5.510   5.163
13259SOL    HW139803   2.390   5.493   5.198
13259SOL    HW239804   2.510   5.602   5.189
13260SOL     OW39805   2.468   4.688   3.847
13260SOL    HW139806   2.475   4.772   3.793
13260SOL    HW239807   2.514   4.701   3.935
13261SOL     OW39808   3.456   3.838   5.204
13261SOL    HW139809   3.438   3.905   5.132
13261SOL    HW239810   3.453   3.884   5.293
13262SOL     OW39811   1.984   4.367   4.287
13262SOL    HW139812   1.939   4.279   4.304
13262SOL    HW239813   1.983   4.421   4.371
13263SOL     OW39814   3.704   5.491   4.083
13263SOL    HW139815   3.758   5.462   4.163
13263SOL    HW239816   3.734   5.581   4.054
13264SOL     OW39817   1.889   5.320   3.841
13264SOL    HW139818   1.870   5.224   3.862
13264SOL    HW239819   1.856   5.378   3.916
13265SOL     OW39820   3.551   4.646   4.336
13265SOL    HW139821   3.646   4.617   4.344
13265SOL    HW239822   3.543   4.711   4.261
13266SOL     OW39823   3.503   4.832   4.156
13266SOL    HW139824   3.589   4.834   4.104
13266SOL    HW239825   3.517   4.879   4.244
13267SOL     OW39826   1.975   4.461   5.321
13267SOL    HW139827   2.063   4.448   5.366
13267SOL    HW239828   1.962   4.558   5.299
13268SOL     OW39829   2.475   5.089   4.450
13268SOL    HW139830   2.426   5.002   4.459
13268SOL    HW239831   2.452   5.132   4.363
13269SOL     OW39832   3.155   4.952   5.147
13269SOL    HW139833   3.192   4.879   5.089
13269SOL    HW239834   3.207   4.957   5.232
13270SOL     OW39835   2.671   3.728   4.226
13270SOL    HW139836   2.711   3.819   4.217
13270SOL    HW239837   2.571   3.736   4.232
13271SOL     OW39838   2.059   4.700   4.988
13271SOL    HW139839   2.148   4.655   4.974
13271SOL    HW239840   1.986   4.635   4.969
13272SOL     OW39841   3.387   4.723   3.914
13272SOL    HW139842   3.324   4.647   3.927
13272SOL    HW239843   3.435   4.741   4.000
13273SOL     OW39844   3.049   5.516   5.340
13273SOL    HW139845   3.073   5.576   5.264
13273SOL    HW239846   3.056   5.421   5.310
13274SOL     OW39847   2.179   3.975   5.525
13274SOL    HW139848   2.250   4.046   5.531
13274SOL    HW239849   2.091   4.014   5.553
13275SOL     OW39850   3.328   5.141   4.677
13275SOL    HW139851   3.269   5.147   4.757
13275SOL    HW239852   3.313   5.053   4.631
13276SOL     OW39853   3.529   5.438   4.296
13276SOL    HW139854   3.488   5.415   4.208
13276SOL    HW239855   3.511   5.364   4.361
13277SOL     OW39856   2.460   4.453   3.994
13277SOL    HW139857   2.484   4.522   3.926
13277SOL    HW239858   2.382   4.486   4.048
13278SOL     OW39859   3.143   4.069   4.668
13278SOL    HW139860   3.057   4.019   4.655
13278SOL    HW239861   3.205   4.015   4.724
13279SOL     OW39862   3.438   5.386   4.031
13279SOL    HW139863   3.527   5.432   4.034
13279SOL    HW239864   3.417   5.362   3.936
13280SOL     OW39865   2.669   4.329   5.189
13280SOL    HW139866   2.622   4.326   5.278
13280SOL    HW239867   2.618   4.274   5.123
13281SOL     OW39868   3.256   4.193   5.398
13281SOL    HW139869   3.236   4.236   5.486
13281SOL    HW239870   3.334   4.131   5.407
13282SOL     OW39871   2.835   4.614   5.296
13282SOL    HW139872   2.881   4.530   5.267
13282SOL    HW239873   2.779   4.648   5.221
13283SOL     OW39874   2.853   4.134   4.966
13283SOL    HW139875   2.776   4.168   5.020
13283SOL    HW239876   2.819   4.083   4.887
13284SOL     OW39877   2.903   4.425   4.153
13284SOL    HW139878   2.929   4.421   4.249
13284SOL    HW239879   2.818   4.374   4.139
13285SOL     OW39880   1.938   4.535   4.513
13285SOL    HW139881   2.037   4.523   4.522
13285SOL    HW239882   1.914   4.630   4.534
13286SOL     OW39883   1.992   5.545   5.295
13286SOL    HW139884   1.982   5.530   5.394
13286SOL    HW239885   1.906   5.581   5.259
13287SOL     OW39886   2.727   4.072   3.919
13287SOL    HW139887   2.786   4.135   3.870
13287SOL    HW239888   2.746   3.978   3.890
13288SOL     OW39889   3.581   4.309   5.555
13288SOL    HW139890   3.555   4.398   5.519
13288SOL    HW239891   3.579   4.241   5.482
13289SOL     OW39892   3.224   4.868   4.269
13289SOL    HW139893   3.307   4.839   4.221
13289SOL    HW239894   3.175   4.935   4.213
13290SOL     OW39895   2.412   3.920   4.609
13290SOL    HW139896   2.407   3.915   4.709
13290SOL    HW239897   2.414   4.016   4.580
13291SOL     OW39898   2.870   5.180   4.201
13291SOL    HW139899   2.824   5.252   4.149
13291SOL    HW239900   2.866   5.200   4.299
13292SOL     OW39901   2.213   5.525   4.577
13292SOL    HW139902   2.263   5.439   4.583
13292SOL    HW239903   2.278   5.602   4.574
13293SOL     OW39904   3.657   4.790   4.597
13293SOL    HW139905   3.595   4.775   4.521
13293SOL    HW239906   3.605   4.801   4.682
13294SOL     OW39907   3.089   5.274   5.230
13294SOL    HW139908   3.095   5.197   5.294
13294SOL    HW239909   3.037   5.248   5.150
13295SOL     OW39910   2.183   4.667   3.966
13295SOL    HW139911   2.265   4.706   3.924
13295SOL    HW239912   2.156   4.585   3.917
13296SOL     OW39913   3.320   4.459   4.452
13296SOL    HW139914   3.315   4.394   4.527
13296SOL    HW239915   3.400   4.518   4.465
13297SOL     OW39916   2.323   4.990   5.451
13297SOL    HW139917   2.273   4.991   5.365
13297SOL    HW239918   2.260   4.972   5.527
13298SOL     OW39919   2.973   5.500   3.961
13298SOL    HW139920   2.913   5.438   4.011
13298SOL    HW239921   3.004   5.456   3.876
13299SOL     OW39922   2.064   4.009   5.222
13299SOL    HW139923   1.984   4.069   5.209
13299SOL    HW239924   2.054   3.960   5.308
13300SOL     OW39925   3.494   5.101   3.805
13300SOL    HW139926   3.462   5.195   3.795
13300SOL    HW239927   3.418   5.038   3.793
13301SOL     OW39928   2.326   5.467   4.047
13301SOL    HW139929   2.359   5.506   4.133
13301SOL    HW239930   2.402   5.460   3.982
13302SOL     OW39931   3.262   3.831   4.150
13302SOL    HW139932   3.238   3.794   4.060
13302SOL    HW239933   3.361   3.847   4.154
13303SOL     OW39934   2.111   5.509   4.965
13303SOL    HW139935   2.168   5.444   5.015
13303SOL    HW239936   2.095   5.476   4.872
13304SOL     OW39937   2.802   5.422   4.628
13304SOL    HW139938   2.882   5.365   4.649
13304SOL    HW239939   2.753   5.382   4.551
13305SOL     OW39940   2.244   4.424   4.204
13305SOL    HW139941   2.289   4.334   4.201
13305SOL    HW239942   2.150   4.413   4.237
13306SOL     OW39943   3.409   3.946   5.453
13306SOL    HW139944   3.404   3.983   5.545
13306SOL    HW239945   3.337   3.877   5.441
13307SOL     OW39946   2.476   3.846   3.841
13307SOL    HW139947   2.574   3.824   3.848
13307SOL    HW239948   2.445   3.829   3.748
13308SOL     OW39949   2.643   3.988   5.473
13308SOL    HW139950   2.710   3.927   5.516
13308SOL    HW239951   2.570   4.007   5.538
13309SOL     OW39952   2.750   5.238   4.919
13309SOL    HW139953   2.727   5.213   4.825
13309SOL    HW239954   2.811   5.169   4.958
13310SOL     OW39955   3.213   4.314   5.157
13310SOL    HW139956   3.241   4.271   5.242
13310SOL    HW239957   3.238   4.410   5.158
13311SOL     OW39958   2.665   5.126   4.648
13311SOL    HW139959   2.755   5.140   4.606
13311SOL    HW239960   2.594   5.128   4.577
13312SOL     OW39961   2.784   4.227   4.623
13312SOL    HW139962   2.759   4.218   4.527
13312SOL    HW239963   2.832   4.145   4.654
13313SOL     OW39964   2.401   3.788   4.236
13313SOL    HW139965   2.320   3.789   4.294
13313SOL    HW239966   2.404   3.871   4.181
13314SOL     OW39967   3.296   4.912   3.765
13314SOL    HW139968   3.328   4.836   3.822
13314SOL    HW239969   3.204   4.939   3.795
13315SOL     OW39970   2.159   3.759   3.895
13315SOL    HW139971   2.208   3.843   3.874
13315SOL    HW239972   2.221   3.694   3.940
13316SOL     OW39973   2.797   3.960   4.204
13316SOL    HW139974   2.749   4.001   4.126
13316SOL    HW239975   2.896   3.958   4.185
13317SOL     OW39976   2.938   4.407   5.188
13317SOL    HW139977   2.858   4.346   5.191
13317SOL    HW239978   3.019   4.354   5.164
13318SOL     OW39979   3.089   5.294   4.517
13318SOL    HW139980   3.110   5.368   4.452
13318SOL    HW239981   3.157   5.294   4.590
13319SOL     OW39982   2.321   4.876   4.465
13319SOL    HW139983   2.250   4.849   4.530
13319SOL    HW239984   2.295   4.848   4.372
13320SOL     OW39985   3.133   5.521   4.315
13320SOL    HW139986   3.177   5.585   4.251
13320SOL    HW239987   3.083   5.573   4.385
13321SOL     OW39988   2.894   4.273   3.740
13321SOL    HW139989   2.853   4.355   3.701
13321SOL    HW239990   2.958   4.299   3.813
13322SOL     OW39991   1.940   4.280   5.110
13322SOL    HW139992   2.032   4.279   5.069
13322SOL    HW239993   1.934   4.354   5.177
13323SOL     OW39994   2.423   3.946   4.871
13323SOL    HW139995   2.461   3.862   4.908
13323SOL    HW239996   2.335   3.965   4.915
13324SOL     OW39997   2.728   4.178   4.366
13324SOL    HW139998   2.696   4.250   4.304
13324SOL    HW239999   2.752   4.097   4.313
13325SOL     OW40000   2.879   3.763   4.477
13325SOL    HW140001   2.807   3.768   4.408
13325SOL    HW240002   2.855   3.694   4.546
13326SOL     OW40003   3.291   4.897   4.591
13326SOL    HW140004   3.236   4.813   4.584
13326SOL    HW240005   3.317   4.926   4.499
13327SOL     OW40006   3.328   4.314   4.716
13327SOL    HW140007   3.298   4.219   4.723
13327SOL    HW240008   3.401   4.330   4.782
13328SOL     OW40009   3.719   4.557   4.101
13328SOL    HW140010   3.761   4.493   4.165
13328SOL    HW240011   3.681   4.506   4.023
13329SOL     OW40012   2.350   5.109   3.898
13329SOL    HW140013   2.263   5.094   3.945
13329SOL    HW240014   2.333   5.135   3.803
13330SOL     OW40015   3.526   5.004   4.381
13330SOL    HW140016   3.625   5.012   4.395
13330SOL    HW240017   3.481   5.088   4.412
13331SOL     OW40018   3.252   4.299   3.802
13331SOL    HW140019   3.198   4.278   3.883
13331SOL    HW240020   3.343   4.258   3.811
13332SOL     OW40021   2.389   3.980   4.052
13332SOL    HW140022   2.416   3.921   3.977
13332SOL    HW240023   2.389   4.075   4.021
13333SOL     OW40024   3.616   4.947   5.312
13333SOL    HW140025   3.707   4.908   5.299
13333SOL    HW240026   3.624   5.043   5.336
13334SOL     OW40027   2.926   5.071   5.064
13334SOL    HW140028   2.846   5.048   5.119
13334SOL    HW240029   3.009   5.045   5.113
13335SOL     OW40030   3.454   5.353   5.349
13335SOL    HW140031   3.481   5.387   5.259
13335SOL    HW240032   3.533   5.315   5.395
13336SOL     OW40033   2.973   4.919   4.824
13336SOL    HW140034   2.933   4.963   4.905
13336SOL    HW240035   2.932   4.956   4.741
13337SOL     OW40036   3.500   4.823   4.803
13337SOL    HW140037   3.505   4.904   4.862
13337SOL    HW240038   3.414   4.825   4.752
13338SOL     OW40039   2.777   3.813   5.126
13338SOL    HW140040   2.802   3.793   5.031
13338SOL    HW240041   2.849   3.869   5.168
13339SOL     OW40042   2.842   4.840   5.443
13339SOL    HW140043   2.743   4.846   5.453
13339SOL    HW240044   2.865   4.760   5.387
13340SOL     OW40045   2.567   4.774   4.092
13340SOL    HW140046   2.553   4.781   4.191
13340SOL    HW240047   2.651   4.723   4.074
13341SOL     OW40048   2.272   4.537   4.975
13341SOL    HW140049   2.358   4.549   5.025
13341SOL    HW240050   2.230   4.450   5.002
13342SOL     OW40051   3.136   4.110   4.986
13342SOL    HW140052   3.157   4.184   5.050
13342SOL    HW240053   3.047   4.127   4.943
13343SOL     OW40054   1.926   5.288   5.055
13343SOL    HW140055   1.880   5.370   5.021
13343SOL    HW240056   2.024   5.307   5.064
13344SOL     OW40057   2.229   4.824   4.225
13344SOL    HW140058   2.222   4.907   4.169
13344SOL    HW240059   2.233   4.744   4.165
13345SOL     OW40060   2.428   4.261   4.589
13345SOL    HW140061   2.440   4.327   4.515
13345SOL    HW240062   2.474   4.295   4.672
13346SOL     OW40063   3.114   5.072   4.112
13346SOL    HW140064   3.164   5.149   4.152
13346SOL    HW240065   3.019   5.074   4.144
13347SOL     OW40066   3.134   5.169   4.866
13347SOL    HW140067   3.181   5.182   4.953
13347SOL    HW240068   3.068   5.095   4.875
13348SOL     OW40069   3.444   4.363   4.196
13348SOL    HW140070   3.413   4.424   4.269
13348SOL    HW240071   3.494   4.415   4.127
13349SOL     OW40072   2.216   5.234   5.053
13349SOL    HW140073   2.195   5.190   4.966
13349SOL    HW240074   2.313   5.260   5.056
13350SOL     OW40075   2.264   4.475   5.322
13350SOL    HW140076   2.332   4.530   5.275
13350SOL    HW240077   2.304   4.387   5.349
13351SOL     OW40078   3.449   4.503   5.394
13351SOL    HW140079   3.357   4.541   5.389
13351SOL    HW240080   3.509   4.550   5.329
13352SOL     OW40081   2.875   3.829   5.494
13352SOL    HW140082   2.881   3.914   5.442
13352SOL    HW240083   2.907   3.753   5.437
13353SOL     OW40084   2.366   3.774   5.464
13353SOL    HW140085   2.324   3.717   5.394
13353SOL    HW240086   2.300   3.843   5.496
13354SOL     OW40087   2.435   4.594   4.753
13354SOL    HW140088   2.479   4.683   4.744
13354SOL    HW240089   2.372   4.594   4.830
13355SOL     OW40090   3.222   4.586   4.769
13355SOL    HW140091   3.147   4.586   4.703
13355SOL    HW240092   3.259   4.494   4.778
13356SOL     OW40093   3.071   4.249   3.999
13356SOL    HW140094   3.084   4.165   4.053
13356SOL    HW240095   3.042   4.323   4.059
13357SOL     OW40096   2.169   3.937   4.955
13357SOL    HW140097   2.146   3.974   5.045
13357SOL    HW240098   2.139   3.842   4.949
13358SOL     OW40099   1.899   5.034   5.006
13358SOL    HW140100   1.952   4.985   5.074
13358SOL    HW240101   1.921   5.132   5.011
13359SOL     OW40102   2.594   4.358   4.788
13359SOL    HW140103   2.653   4.332   4.712
13359SOL    HW240104   2.566   4.454   4.777
13360SOL     OW40105   3.590   4.659   5.578
13360SOL    HW140106   3.544   4.652   5.489
13360SOL    HW240107   3.528   4.703   5.644
13361SOL     OW40108   2.169   3.787   4.342
13361SOL    HW140109   2.158   3.881   4.375
13361SOL    HW240110   2.164   3.724   4.419
13362SOL     OW40111   3.484   4.091   4.098
13362SOL    HW140112   3.486   4.015   4.162
13362SOL    HW240113   3.436   4.168   4.138
13363SOL     OW40114   2.885   4.490   4.690
13363SOL    HW140115   2.900   4.511   4.786
13363SOL    HW240116   2.855   4.395   4.681
13364SOL     OW40117   2.842   5.297   5.424
13364SOL    HW140118   2.822   5.341   5.336
13364SOL    HW240119   2.881   5.206   5.408
13365SOL     OW40120   3.721   5.242   5.329
13365SOL    HW140121   3.735   5.269   5.234
13365SOL    HW240122   3.804   5.264   5.382
13366SOL     OW40123   2.212   4.622   5.528
13366SOL    HW140124   2.288   4.666   5.576
13366SOL    HW240125   2.247   4.575   5.446
13367SOL     OW40126   3.402   3.998   3.849
13367SOL    HW140127   3.341   3.923   3.872
13367SOL    HW240128   3.424   4.050   3.932
13368SOL     OW40129   3.165   4.562   3.766
13368SOL    HW140130   3.199   4.469   3.781
13368SOL    HW240131   3.183   4.589   3.671
13369SOL     OW40132   2.930   5.057   4.573
13369SOL    HW140133   2.937   4.973   4.518
13369SOL    HW240134   2.992   5.126   4.537
13370SOL     OW40135   2.181   4.534   4.673
13370SOL    HW140136   2.274   4.570   4.678
13370SOL    HW240137   2.175   4.449   4.725
13371SOL     OW40138   2.201   4.233   4.730
13371SOL    HW140139   2.149   4.150   4.713
13371SOL    HW240140   2.278   4.238   4.666
13372SOL     OW40141   3.000   4.104   5.402
13372SOL    HW140142   2.955   4.167   5.466
13372SOL    HW240143   3.093   4.135   5.385
13373SOL     OW40144   3.022   3.931   5.201
13373SOL    HW140145   3.022   3.995   5.278
13373SOL    HW240146   3.050   3.979   5.118
13374SOL     OW40147   1.870   5.050   3.924
13374SOL    HW140148   1.777   5.071   3.893
13374SOL    HW240149   1.880   4.951   3.937
13375SOL     OW40150   1.950   5.525   4.651
13375SOL    HW140151   1.908   5.439   4.624
13375SOL    HW240152   2.044   5.528   4.617
13376SOL     OW40153   2.366   5.292   4.634
13376SOL    HW140154   2.432   5.366   4.643
13376SOL    HW240155   2.410   5.213   4.592
13377SOL     OW40156   2.864   4.520   4.962
13377SOL    HW140157   2.905   4.488   5.048
13377SOL    HW240158   2.768   4.493   4.959
13378SOL     OW40159   1.902   4.268   4.838
13378SOL    HW140160   1.987   4.235   4.797
13378SOL    HW240161   1.915   4.283   4.936
13379SOL     OW40162   2.051   4.244   5.446
13379SOL    HW140163   2.110   4.204   5.376
13379SOL    HW240164   1.993   4.315   5.405
13380SOL     OW40165   3.231   4.674   5.384
13380SOL    HW140166   3.270   4.763   5.404
13380SOL    HW240167   3.241   4.654   5.287
13381SOL     OW40168   2.677   4.296   4.049
13381SOL    HW140169   2.684   4.207   4.003
13381SOL    HW240170   2.583   4.330   4.041
13382SOL     OW40171   3.519   4.328   4.930
13382SOL    HW140172   3.481   4.259   4.992
13382SOL    HW240173   3.601   4.292   4.886
13383SOL     OW40174   2.114   5.288   5.468
13383SOL    HW140175   2.084   5.345   5.544
13383SOL    HW240176   2.107   5.191   5.494
13384SOL     OW40177   2.533   4.188   4.993
13384SOL    HW140178   2.499   4.099   4.963
13384SOL    HW240179   2.559   4.242   4.913
13385SOL     OW40180   2.792   5.402   5.189
13385SOL    HW140181   2.768   5.384   5.094
13385SOL    HW240182   2.822   5.496   5.199
13386SOL     OW40183   2.335   4.224   3.915
13386SOL    HW140184   2.396   4.304   3.919
13386SOL    HW240185   2.240   4.255   3.922
13387SOL     OW40186   2.021   4.861   5.190
13387SOL    HW140187   2.043   4.800   5.266
13387SOL    HW240188   2.031   4.812   5.104
13388SOL     OW40189   3.209   4.783   4.958
13388SOL    HW140190   3.233   4.720   4.884
13388SOL    HW240191   3.119   4.823   4.940
13389SOL     OW40192   3.164   4.579   4.033
13389SOL    HW140193   3.078   4.548   4.075
13389SOL    HW240194   3.160   4.565   3.934
13390SOL     OW40195   3.621   5.471   4.878
13390SOL    HW140196   3.682   5.501   4.805
13390SOL    HW240197   3.583   5.382   4.856
13391SOL     OW40198   3.114   5.455   4.852
13391SOL    HW140199   3.198   5.460   4.798
13391SOL    HW240200   3.091   5.359   4.870
13392SOL     OW40201   1.945   4.982   4.746
13392SOL    HW140202   1.940   4.981   4.846
13392SOL    HW240203   1.862   4.941   4.708
13393SOL     OW40204   2.550   5.386   5.440
13393SOL    HW140205   2.494   5.467   5.449
13393SOL    HW240206   2.602   5.390   5.354
13394SOL     OW40207   3.588   3.859   4.247
13394SOL    HW140208   3.661   3.842   4.180
13394SOL    HW240209   3.557   3.772   4.285
13395SOL     OW40210   3.250   5.297   4.201
13395SOL    HW140211   3.317   5.309   4.127
13395SOL    HW240212   3.210   5.386   4.224
13396SOL     OW40213   1.992   5.518   5.575
13396SOL    HW140214   1.951   5.444   5.628
13396SOL    HW240215   2.056   5.569   5.633
13397SOL     OW40216   3.142   4.651   4.396
13397SOL    HW140217   3.202   4.570   4.398
13397SOL    HW240218   3.182   4.720   4.336
13398SOL     OW40219   2.692   4.997   5.146
13398SOL    HW140220   2.687   5.030   5.241
13398SOL    HW240221   2.606   5.016   5.100
13399SOL     OW40222   2.534   5.340   3.878
13399SOL    HW140223   2.543   5.350   3.779
13399SOL    HW240224   2.494   5.251   3.899
13400SOL     OW40225   3.512   5.444   5.118
13400SOL    HW140226   3.565   5.454   5.034
13400SOL    HW240227   3.485   5.534   5.152
13401SOL     OW40228   3.703   3.899   4.687
13401SOL    HW140229   3.742   3.814   4.651
13401SOL    HW240230   3.605   3.901   4.668
13402SOL     OW40231   2.125   4.050   4.444
13402SOL    HW140232   2.046   4.101   4.410
13402SOL    HW240233   2.116   4.035   4.542
13403SOL     OW40234   3.056   5.336   3.755
13403SOL    HW140235   3.062   5.243   3.792
13403SOL    HW240236   2.997   5.336   3.675
13404SOL     OW40237   2.684   4.726   5.096
13404SOL    HW140238   2.724   4.725   5.004
13404SOL    HW240239   2.694   4.818   5.136
13405SOL     OW40240   2.778   4.634   4.015
13405SOL    HW140241   2.841   4.672   3.947
13405SOL    HW240242   2.818   4.551   4.054
13406SOL     OW40243   3.366   5.331   3.768
13406SOL    HW140244   3.274   5.368   3.775
13406SOL    HW240245   3.404   5.351   3.678
13407SOL     OW40246   2.234   5.012   5.214
13407SOL    HW140247   2.221   5.105   5.180
13407SOL    HW240248   2.150   4.960   5.201
13408SOL     OW40249   3.476   5.016   5.013
13408SOL    HW140250   3.536   5.019   5.093
13408SOL    HW240251   3.401   5.080   5.026
13409SOL     OW40252   2.901   4.822   4.420
13409SOL    HW140253   2.831   4.775   4.474
13409SOL    HW240254   2.960   4.754   4.377
13410SOL     OW40255   2.876   3.960   4.695
13410SOL    HW140256   2.868   3.924   4.602
13410SOL    HW240257   2.874   3.884   4.760
13411SOL     OW40258   2.452   5.211   4.215
13411SOL    HW140259   2.494   5.153   4.145
13411SOL    HW240260   2.408   5.290   4.171
13412SOL     OW40261   3.571   4.109   5.105
13412SOL    HW140262   3.644   4.178   5.109
13412SOL    HW240263   3.599   4.034   5.046
13413SOL     OW40264   2.117   5.072   4.014
13413SOL    HW140265   2.021   5.073   3.987
13413SOL    HW240266   2.129   5.125   4.098
13414SOL     OW40267   1.967   4.737   5.450
13414SOL    HW140268   1.890   4.704   5.504
13414SOL    HW240269   2.052   4.707   5.492
13415SOL     OW40270   2.534   3.927   5.213
13415SOL    HW140271   2.624   3.911   5.173
13415SOL    HW240272   2.542   3.932   5.312
13416SOL     OW40273   1.937   4.069   3.757
13416SOL    HW140274   1.845   4.041   3.728
13416SOL    HW240275   1.968   4.146   3.701
13417SOL     OW40276   3.302   4.580   5.122
13417SOL    HW140277   3.245   4.632   5.059
13417SOL    HW240278   3.398   4.592   5.098
13418SOL     OW40279   1.934   3.890   4.042
13418SOL    HW140280   1.917   3.973   3.988
13418SOL    HW240281   2.024   3.853   4.020
13419SOL     OW40282   3.045   5.059   3.843
13419SOL    HW140283   2.946   5.048   3.845
13419SOL    HW240284   3.079   5.074   3.936
13420SOL     OW40285   2.475   4.566   5.155
13420SOL    HW140286   2.531   4.647   5.138
13420SOL    HW240287   2.534   4.486   5.158
13421SOL     OW40288   3.355   5.491   4.683
13421SOL    HW140289   3.388   5.555   4.614
13421SOL    HW240290   3.421   5.485   4.758
13422SOL     OW40291   2.578   4.289   5.432
13422SOL    HW140292   2.597   4.354   5.506
13422SOL    HW240293   2.638   4.209   5.441
13423SOL     OW40294   3.312   4.944   5.357
13423SOL    HW140295   3.303   4.934   5.456
13423SOL    HW240296   3.408   4.937   5.331
13424SOL     OW40297   2.252   5.465   5.284
13424SOL    HW140298   2.161   5.506   5.282
13424SOL    HW240299   2.245   5.371   5.316
13425SOL     OW40300   3.536   4.607   4.978
13425SOL    HW140301   3.509   4.518   4.941
13425SOL    HW240302   3.537   4.675   4.905
13426SOL     OW40303   3.087   4.049   4.173
13426SOL    HW140304   3.152   3.975   4.162
13426SOL    HW240305   3.107   4.099   4.257
13427SOL     OW40306   2.456   4.469   4.376
13427SOL    HW140307   2.506   4.554   4.357
13427SOL    HW240308   2.368   4.471   4.328
13428SOL     OW40309   3.639   4.066   5.366
13428SOL    HW140310   3.622   4.097   5.272
13428SOL    HW240311   3.555   4.029   5.404
13429SOL     OW40312   3.592   4.658   5.241
13429SOL    HW140313   3.630   4.749   5.256
13429SOL    HW240314   3.584   4.641   5.142
13430SOL     OW40315   2.721   5.098   3.740
13430SOL    HW140316   2.675   5.113   3.828
13430SOL    HW240317   2.765   5.183   3.710
13431SOL     OW40318   2.523   5.514   4.677
13431SOL    HW140319   2.477   5.602   4.664
13431SOL    HW240320   2.622   5.526   4.670
13432SOL     OW40321   2.721   4.680   4.585
13432SOL    HW140322   2.775   4.611   4.633
13432SOL    HW240323   2.689   4.749   4.651
13433SOL     OW40324   2.945   4.708   3.811
13433SOL    HW140325   2.922   4.761   3.729
13433SOL    HW240326   3.026   4.652   3.792
13434SOL     OW40327   3.723   5.293   4.575
13434SOL    HW140328   3.652   5.281   4.505
13434SOL    HW240329   3.724   5.214   4.635
13435SOL     OW40330   2.083   5.038   5.568
13435SOL    HW140331   2.018   4.965   5.547
13435SOL    HW240332   2.087   5.052   5.666
13436SOL     OW40333   1.941   4.964   4.377
13436SOL    HW140334   1.940   4.917   4.465
13436SOL    HW240335   2.023   4.936   4.326
13437SOL     OW40336   2.534   5.115   5.348
13437SOL    HW140337   2.456   5.065   5.386
13437SOL    HW240338   2.531   5.210   5.379
13438SOL     OW40339   3.686   3.916   4.951
13438SOL    HW140340   3.682   3.826   4.995
13438SOL    HW240341   3.689   3.905   4.852
13439SOL     OW40342   2.290   4.148   4.244
13439SOL    HW140343   2.320   4.076   4.182
13439SOL    HW240344   2.251   4.108   4.327
13440SOL     OW40345   3.567   5.211   4.828
13440SOL    HW140346   3.474   5.186   4.801
13440SOL    HW240347   3.593   5.161   4.910
13441SOL     OW40348   2.179   4.271   5.004
13441SOL    HW140349   2.217   4.212   5.076
13441SOL    HW240350   2.219   4.245   4.916
13442SOL     OW40351   2.674   5.310   4.411
13442SOL    HW140352   2.706   5.320   4.317
13442SOL    HW240353   2.595   5.248   4.413
13443SOL     OW40354   3.286   3.938   4.836
13443SOL    HW140355   3.338   3.873   4.891
13443SOL    HW240356   3.237   4.001   4.897
13444SOL     OW40357   2.863   3.758   4.878
13444SOL    HW140358   2.800   3.686   4.847
13444SOL    HW240359   2.956   3.722   4.878
13445SOL     OW40360   2.632   5.054   4.025
13445SOL    HW140361   2.586   4.967   4.042
13445SOL    HW240362   2.723   5.051   4.066
13446SOL     OW40363   2.480   5.291   5.008
13446SOL    HW140364   2.475   5.373   5.065
13446SOL    HW240365   2.569   5.288   4.963
13447SOL     OW40366   3.214   3.776   3.892
13447SOL    HW140367   3.249   3.735   3.808
13447SOL    HW240368   3.124   3.738   3.912
13448SOL     OW40369   3.162   4.177   4.415
13448SOL    HW140370   3.103   4.257   4.419
13448SOL    HW240371   3.177   4.142   4.508
13449SOL     OW40372   3.455   3.945   4.606
13449SOL    HW140373   3.371   3.944   4.660
13449SOL    HW240374   3.457   4.028   4.550
13450SOL     OW40375   1.901   4.801   4.024
13450SOL    HW140376   2.000   4.790   4.015
13450SOL    HW240377   1.861   4.715   4.056
13451SOL     OW40378   2.737   5.370   4.061
13451SOL    HW140379   2.660   5.335   4.007
13451SOL    HW240380   2.705   5.441   4.123
13452SOL     OW40381   2.092   4.352   5.699
13452SOL    HW140382   1.999   4.350   5.736
13452SOL    HW240383   2.093   4.313   5.607
13453SOL     OW40384   2.087   3.999   6.582
13453SOL    HW140385   2.122   3.982   6.674
13453SOL    HW240386   1.999   3.954   6.570
13454SOL     OW40387   1.881   4.092   6.233
13454SOL    HW140388   1.799   4.135   6.272
13454SOL    HW240389   1.853   4.019   6.170
13455SOL     OW40390   2.431   4.999   6.751
13455SOL    HW140391   2.338   4.992   6.714
13455SOL    HW240392   2.442   5.088   6.795
13456SOL     OW40393   3.417   5.235   6.289
13456SOL    HW140394   3.360   5.219   6.370
13456SOL    HW240395   3.358   5.245   6.209
13457SOL     OW40396   2.997   4.427   6.303
13457SOL    HW140397   3.054   4.505   6.278
13457SOL    HW240398   2.937   4.453   6.379
13458SOL     OW40399   3.617   4.331   5.817
13458SOL    HW140400   3.605   4.318   5.718
13458SOL    HW240401   3.587   4.250   5.866
13459SOL     OW40402   2.630   4.868   6.609
13459SOL    HW140403   2.552   4.885   6.669
13459SOL    HW240404   2.664   4.955   6.573
13460SOL     OW40405   2.712   4.522   7.409
13460SOL    HW140406   2.708   4.598   7.474
13460SOL    HW240407   2.734   4.558   7.318
13461SOL     OW40408   2.547   4.736   6.251
13461SOL    HW140409   2.616   4.720   6.321
13461SOL    HW240410   2.474   4.793   6.289
13462SOL     OW40411   2.548   4.885   7.389
13462SOL    HW140412   2.608   4.964   7.403
13462SOL    HW240413   2.462   4.916   7.348
13463SOL     OW40414   2.197   5.159   6.647
13463SOL    HW140415   2.119   5.128   6.594
13463SOL    HW240416   2.255   5.217   6.590
13464SOL     OW40417   3.322   5.229   6.925
13464SOL    HW140418   3.346   5.323   6.951
13464SOL    HW240419   3.306   5.175   7.007
13465SOL     OW40420   2.300   4.116   7.085
13465SOL    HW140421   2.382   4.060   7.094
13465SOL    HW240422   2.219   4.058   7.089
13466SOL     OW40423   3.465   4.171   6.323
13466SOL    HW140424   3.391   4.217   6.273
13466SOL    HW240425   3.516   4.239   6.376
13467SOL     OW40426   2.093   5.437   6.069
13467SOL    HW140427   2.127   5.514   6.123
13467SOL    HW240428   2.137   5.437   5.979
13468SOL     OW40429   2.989   5.065   7.276
13468SOL    HW140430   3.036   5.065   7.364
13468SOL    HW240431   2.941   4.978   7.265
13469SOL     OW40432   2.092   5.158   6.124
13469SOL    HW140433   2.066   5.254   6.124
13469SOL    HW240434   2.021   5.104   6.169
13470SOL     OW40435   2.102   4.815   6.472
13470SOL    HW140436   2.116   4.731   6.524
13470SOL    HW240437   2.047   4.879   6.527
13471SOL     OW40438   2.482   5.510   7.025
13471SOL    HW140439   2.390   5.493   7.060
13471SOL    HW240440   2.510   5.602   7.051
13472SOL     OW40441   2.468   4.688   5.709
13472SOL    HW140442   2.475   4.772   5.655
13472SOL    HW240443   2.514   4.701   5.797
13473SOL     OW40444   3.456   3.838   7.066
13473SOL    HW140445   3.438   3.905   6.994
13473SOL    HW240446   3.453   3.884   7.155
13474SOL     OW40447   1.984   4.367   6.149
13474SOL    HW140448   1.939   4.279   6.166
13474SOL    HW240449   1.983   4.421   6.233
13475SOL     OW40450   3.704   5.491   5.945
13475SOL    HW140451   3.758   5.462   6.025
13475SOL    HW240452   3.734   5.581   5.916
13476SOL     OW40453   1.889   5.320   5.703
13476SOL    HW140454   1.870   5.224   5.724
13476SOL    HW240455   1.856   5.378   5.778
13477SOL     OW40456   3.551   4.646   6.198
13477SOL    HW140457   3.646   4.617   6.206
13477SOL    HW240458   3.543   4.711   6.123
13478SOL     OW40459   3.503   4.832   6.018
13478SOL    HW140460   3.589   4.834   5.966
13478SOL    HW240461   3.517   4.879   6.106
13479SOL     OW40462   1.975   4.461   7.183
13479SOL    HW140463   2.063   4.448   7.228
13479SOL    HW240464   1.962   4.558   7.161
13480SOL     OW40465   2.475   5.089   6.312
13480SOL    HW140466   2.426   5.002   6.321
13480SOL    HW240467   2.452   5.132   6.225
13481SOL     OW40468   3.155   4.952   7.009
13481SOL    HW140469   3.192   4.879   6.951
13481SOL    HW240470   3.207   4.957   7.094
13482SOL     OW40471   2.671   3.728   6.088
13482SOL    HW140472   2.711   3.819   6.079
13482SOL    HW240473   2.571   3.736   6.094
13483SOL     OW40474   2.059   4.700   6.850
13483SOL    HW140475   2.148   4.655   6.836
13483SOL    HW240476   1.986   4.635   6.831
13484SOL     OW40477   3.387   4.723   5.776
13484SOL    HW140478   3.324   4.647   5.789
13484SOL    HW240479   3.435   4.741   5.862
13485SOL     OW40480   3.049   5.516   7.202
13485SOL    HW140481   3.073   5.576   7.126
13485SOL    HW240482   3.056   5.421   7.172
13486SOL     OW40483   2.179   3.975   7.387
13486SOL    HW140484   2.250   4.046   7.393
13486SOL    HW240485   2.091   4.014   7.415
13487SOL     OW40486   3.328   5.141   6.539
13487SOL    HW140487   3.269   5.147   6.619
13487SOL    HW240488   3.313   5.053   6.493
13488SOL     OW40489   3.529   5.438   6.158
13488SOL    HW140490   3.488   5.415   6.070
13488SOL    HW240491   3.511   5.364   6.223
13489SOL     OW40492   2.460   4.453   5.856
13489SOL    HW140493   2.484   4.522   5.788
13489SOL    HW240494   2.382   4.486   5.910
13490SOL     OW40495   3.143   4.069   6.530
13490SOL    HW140496   3.057   4.019   6.517
13490SOL    HW240497   3.205   4.015   6.586
13491SOL     OW40498   3.438   5.386   5.893
13491SOL    HW140499   3.527   5.432   5.896
13491SOL    HW240500   3.417   5.362   5.798
13492SOL     OW40501   2.669   4.329   7.051
13492SOL    HW140502   2.622   4.326   7.140
13492SOL    HW240503   2.618   4.274   6.985
13493SOL     OW40504   3.256   4.193   7.260
13493SOL    HW140505   3.236   4.236   7.348
13493SOL    HW240506   3.334   4.131   7.269
13494SOL     OW40507   2.835   4.614   7.158
13494SOL    HW140508   2.881   4.530   7.129
13494SOL    HW240509   2.779   4.648   7.083
13495SOL     OW40510   2.853   4.134   6.828
13495SOL    HW140511   2.776   4.168   6.882
13495SOL    HW240512   2.819   4.083   6.749
13496SOL     OW40513   2.903   4.425   6.015
13496SOL    HW140514   2.929   4.421   6.111
13496SOL    HW240515   2.818   4.374   6.001
13497SOL     OW40516   1.938   4.535   6.375
13497SOL    HW140517   2.037   4.523   6.384
13497SOL    HW240518   1.914   4.630   6.396
13498SOL     OW40519   1.992   5.545   7.157
13498SOL    HW140520   1.982   5.530   7.256
13498SOL    HW240521   1.906   5.581   7.121
13499SOL     OW40522   2.727   4.072   5.781
13499SOL    HW140523   2.786   4.135   5.732
13499SOL    HW240524   2.746   3.978   5.752
13500SOL     OW40525   3.581   4.309   7.417
13500SOL    HW140526   3.555   4.398   7.381
13500SOL    HW240527   3.579   4.241   7.344
13501SOL     OW40528   3.224   4.868   6.131
13501SOL    HW140529   3.307   4.839   6.083
13501SOL    HW240530   3.175   4.935   6.075
13502SOL     OW40531   2.412   3.920   6.471
13502SOL    HW140532   2.407   3.915   6.571
13502SOL    HW240533   2.414   4.016   6.442
13503SOL     OW40534   2.870   5.180   6.063
13503SOL    HW140535   2.824   5.252   6.011
13503SOL    HW240536   2.866   5.200   6.161
13504SOL     OW40537   2.213   5.525   6.439
13504SOL    HW140538   2.263   5.439   6.445
13504SOL    HW240539   2.278   5.602   6.436
13505SOL     OW40540   3.657   4.790   6.459
13505SOL    HW140541   3.595   4.775   6.383
13505SOL    HW240542   3.605   4.801   6.544
13506SOL     OW40543   3.089   5.274   7.092
13506SOL    HW140544   3.095   5.197   7.156
13506SOL    HW240545   3.037   5.248   7.012
13507SOL     OW40546   2.183   4.667   5.828
13507SOL    HW140547   2.265   4.706   5.786
13507SOL    HW240548   2.156   4.585   5.779
13508SOL     OW40549   3.320   4.459   6.314
13508SOL    HW140550   3.315   4.394   6.389
13508SOL    HW240551   3.400   4.518   6.327
13509SOL     OW40552   2.323   4.990   7.313
13509SOL    HW140553   2.273   4.991   7.227
13509SOL    HW240554   2.260   4.972   7.389
13510SOL     OW40555   2.973   5.500   5.823
13510SOL    HW140556   2.913   5.438   5.873
13510SOL    HW240557   3.004   5.456   5.738
13511SOL     OW40558   2.064   4.009   7.084
13511SOL    HW140559   1.984   4.069   7.071
13511SOL    HW240560   2.054   3.960   7.170
13512SOL     OW40561   3.494   5.101   5.667
13512SOL    HW140562   3.462   5.195   5.657
13512SOL    HW240563   3.418   5.038   5.655
13513SOL     OW40564   2.326   5.467   5.909
13513SOL    HW140565   2.359   5.506   5.995
13513SOL    HW240566   2.402   5.460   5.844
13514SOL     OW40567   3.262   3.831   6.012
13514SOL    HW140568   3.238   3.794   5.922
13514SOL    HW240569   3.361   3.847   6.016
13515SOL     OW40570   2.111   5.509   6.827
13515SOL    HW140571   2.168   5.444   6.877
13515SOL    HW240572   2.095   5.476   6.734
13516SOL     OW40573   2.802   5.422   6.490
13516SOL    HW140574   2.882   5.365   6.511
13516SOL    HW240575   2.753   5.382   6.413
13517SOL     OW40576   2.244   4.424   6.066
13517SOL    HW140577   2.289   4.334   6.063
13517SOL    HW240578   2.150   4.413   6.099
13518SOL     OW40579   3.409   3.946   7.315
13518SOL    HW140580   3.404   3.983   7.407
13518SOL    HW240581   3.337   3.877   7.303
13519SOL     OW40582   2.476   3.846   5.703
13519SOL    HW140583   2.574   3.824   5.710
13519SOL    HW240584   2.445   3.829   5.610
13520SOL     OW40585   2.643   3.988   7.335
13520SOL    HW140586   2.710   3.927   7.378
13520SOL    HW240587   2.570   4.007   7.400
13521SOL     OW40588   2.750   5.238   6.781
13521SOL    HW140589   2.727   5.213   6.687
13521SOL    HW240590   2.811   5.169   6.820
13522SOL     OW40591   3.213   4.314   7.019
13522SOL    HW140592   3.241   4.271   7.104
13522SOL    HW240593   3.238   4.410   7.020
13523SOL     OW40594   2.665   5.126   6.510
13523SOL    HW140595   2.755   5.140   6.468
13523SOL    HW240596   2.594   5.128   6.439
13524SOL     OW40597   2.784   4.227   6.485
13524SOL    HW140598   2.759   4.218   6.389
13524SOL    HW240599   2.832   4.145   6.516
13525SOL     OW40600   2.401   3.788   6.098
13525SOL    HW140601   2.320   3.789   6.156
13525SOL    HW240602   2.404   3.871   6.043
13526SOL     OW40603   3.296   4.912   5.627
13526SOL    HW140604   3.328   4.836   5.684
13526SOL    HW240605   3.204   4.939   5.657
13527SOL     OW40606   2.159   3.759   5.757
13527SOL    HW140607   2.208   3.843   5.736
13527SOL    HW240608   2.221   3.694   5.802
13528SOL     OW40609   2.797   3.960   6.066
13528SOL    HW140610   2.749   4.001   5.988
13528SOL    HW240611   2.896   3.958   6.047
13529SOL     OW40612   2.938   4.407   7.050
13529SOL    HW140613   2.858   4.346   7.053
13529SOL    HW240614   3.019   4.354   7.026
13530SOL     OW40615   3.089   5.294   6.379
13530SOL    HW140616   3.110   5.368   6.314
13530SOL    HW240617   3.157   5.294   6.452
13531SOL     OW40618   2.321   4.876   6.327
13531SOL    HW140619   2.250   4.849   6.392
13531SOL    HW240620   2.295   4.848   6.234
13532SOL     OW40621   3.133   5.521   6.177
13532SOL    HW140622   3.177   5.585   6.113
13532SOL    HW240623   3.083   5.573   6.247
13533SOL     OW40624   2.894   4.273   5.602
13533SOL    HW140625   2.853   4.355   5.563
13533SOL    HW240626   2.958   4.299   5.675
13534SOL     OW40627   1.940   4.280   6.972
13534SOL    HW140628   2.032   4.279   6.931
13534SOL    HW240629   1.934   4.354   7.039
13535SOL     OW40630   2.423   3.946   6.733
13535SOL    HW140631   2.461   3.862   6.770
13535SOL    HW240632   2.335   3.965   6.777
13536SOL     OW40633   2.728   4.178   6.228
13536SOL    HW140634   2.696   4.250   6.166
13536SOL    HW240635   2.752   4.097   6.175
13537SOL     OW40636   2.879   3.763   6.339
13537SOL    HW140637   2.807   3.768   6.270
13537SOL    HW240638   2.855   3.694   6.408
13538SOL     OW40639   3.291   4.897   6.453
13538SOL    HW140640   3.236   4.813   6.446
13538SOL    HW240641   3.317   4.926   6.361
13539SOL     OW40642   3.328   4.314   6.578
13539SOL    HW140643   3.298   4.219   6.585
13539SOL    HW240644   3.401   4.330   6.644
13540SOL     OW40645   3.719   4.557   5.963
13540SOL    HW140646   3.761   4.493   6.027
13540SOL    HW240647   3.681   4.506   5.885
13541SOL     OW40648   2.350   5.109   5.760
13541SOL    HW140649   2.263   5.094   5.807
13541SOL    HW240650   2.333   5.135   5.665
13542SOL     OW40651   3.526   5.004   6.243
13542SOL    HW140652   3.625   5.012   6.257
13542SOL    HW240653   3.481   5.088   6.274
13543SOL     OW40654   3.252   4.299   5.664
13543SOL    HW140655   3.198   4.278   5.745
13543SOL    HW240656   3.343   4.258   5.673
13544SOL     OW40657   2.389   3.980   5.914
13544SOL    HW140658   2.416   3.921   5.839
13544SOL    HW240659   2.389   4.075   5.883
13545SOL     OW40660   3.616   4.947   7.174
13545SOL    HW140661   3.707   4.908   7.161
13545SOL    HW240662   3.624   5.043   7.198
13546SOL     OW40663   2.926   5.071   6.926
13546SOL    HW140664   2.846   5.048   6.981
13546SOL    HW240665   3.009   5.045   6.975
13547SOL     OW40666   3.454   5.353   7.211
13547SOL    HW140667   3.481   5.387   7.121
13547SOL    HW240668   3.533   5.315   7.257
13548SOL     OW40669   2.973   4.919   6.686
13548SOL    HW140670   2.933   4.963   6.767
13548SOL    HW240671   2.932   4.956   6.603
13549SOL     OW40672   3.500   4.823   6.665
13549SOL    HW140673   3.505   4.904   6.724
13549SOL    HW240674   3.414   4.825   6.614
13550SOL     OW40675   2.777   3.813   6.988
13550SOL    HW140676   2.802   3.793   6.893
13550SOL    HW240677   2.849   3.869   7.030
13551SOL     OW40678   2.842   4.840   7.305
13551SOL    HW140679   2.743   4.846   7.315
13551SOL    HW240680   2.865   4.760   7.249
13552SOL     OW40681   2.567   4.774   5.954
13552SOL    HW140682   2.553   4.781   6.053
13552SOL    HW240683   2.651   4.723   5.936
13553SOL     OW40684   2.272   4.537   6.837
13553SOL    HW140685   2.358   4.549   6.887
13553SOL    HW240686   2.230   4.450   6.864
13554SOL     OW40687   3.136   4.110   6.848
13554SOL    HW140688   3.157   4.184   6.912
13554SOL    HW240689   3.047   4.127   6.805
13555SOL     OW40690   1.926   5.288   6.917
13555SOL    HW140691   1.880   5.370   6.883
13555SOL    HW240692   2.024   5.307   6.926
13556SOL     OW40693   2.229   4.824   6.087
13556SOL    HW140694   2.222   4.907   6.031
13556SOL    HW240695   2.233   4.744   6.027
13557SOL     OW40696   2.428   4.261   6.451
13557SOL    HW140697   2.440   4.327   6.377
13557SOL    HW240698   2.474   4.295   6.534
13558SOL     OW40699   3.114   5.072   5.974
13558SOL    HW140700   3.164   5.149   6.014
13558SOL    HW240701   3.019   5.074   6.006
13559SOL     OW40702   3.134   5.169   6.728
13559SOL    HW140703   3.181   5.182   6.815
13559SOL    HW240704   3.068   5.095   6.737
13560SOL     OW40705   3.444   4.363   6.058
13560SOL    HW140706   3.413   4.424   6.131
13560SOL    HW240707   3.494   4.415   5.989
13561SOL     OW40708   2.216   5.234   6.915
13561SOL    HW140709   2.195   5.190   6.828
13561SOL    HW240710   2.313   5.260   6.918
13562SOL     OW40711   2.264   4.475   7.184
13562SOL    HW140712   2.332   4.530   7.137
13562SOL    HW240713   2.304   4.387   7.211
13563SOL     OW40714   3.449   4.503   7.256
13563SOL    HW140715   3.357   4.541   7.251
13563SOL    HW240716   3.509   4.550   7.191
13564SOL     OW40717   2.875   3.829   7.356
13564SOL    HW140718   2.881   3.914   7.304
13564SOL    HW240719   2.907   3.753   7.299
13565SOL     OW40720   2.366   3.774   7.326
13565SOL    HW140721   2.324   3.717   7.256
13565SOL    HW240722   2.300   3.843   7.358
13566SOL     OW40723   2.435   4.594   6.615
13566SOL    HW140724   2.479   4.683   6.606
13566SOL    HW240725   2.372   4.594   6.692
13567SOL     OW40726   3.222   4.586   6.631
13567SOL    HW140727   3.147   4.586   6.565
13567SOL    HW240728   3.259   4.494   6.640
13568SOL     OW40729   3.071   4.249   5.861
13568SOL    HW140730   3.084   4.165   5.915
13568SOL    HW240731   3.042   4.323   5.921
13569SOL     OW40732   2.169   3.937   6.817
13569SOL    HW140733   2.146   3.974   6.907
13569SOL    HW240734   2.139   3.842   6.811
13570SOL     OW40735   1.899   5.034   6.868
13570SOL    HW140736   1.952   4.985   6.936
13570SOL    HW240737   1.921   5.132   6.873
13571SOL     OW40738   2.594   4.358   6.650
13571SOL    HW140739   2.653   4.332   6.574
13571SOL    HW240740   2.566   4.454   6.639
13572SOL     OW40741   3.590   4.659   7.440
13572SOL    HW140742   3.544   4.652   7.351
13572SOL    HW240743   3.528   4.703   7.506
13573SOL     OW40744   2.169   3.787   6.204
13573SOL    HW140745   2.158   3.881   6.237
13573SOL    HW240746   2.164   3.724   6.281
13574SOL     OW40747   3.484   4.091   5.960
13574SOL    HW140748   3.486   4.015   6.024
13574SOL    HW240749   3.436   4.168   6.000
13575SOL     OW40750   2.885   4.490   6.552
13575SOL    HW140751   2.900   4.511   6.648
13575SOL    HW240752   2.855   4.395   6.543
13576SOL     OW40753   2.842   5.297   7.286
13576SOL    HW140754   2.822   5.341   7.198
13576SOL    HW240755   2.881   5.206   7.270
13577SOL     OW40756   3.721   5.242   7.191
13577SOL    HW140757   3.735   5.269   7.096
13577SOL    HW240758   3.804   5.264   7.244
13578SOL     OW40759   2.212   4.622   7.390
13578SOL    HW140760   2.288   4.666   7.438
13578SOL    HW240761   2.247   4.575   7.308
13579SOL     OW40762   3.402   3.998   5.711
13579SOL    HW140763   3.341   3.923   5.734
13579SOL    HW240764   3.424   4.050   5.794
13580SOL     OW40765   3.165   4.562   5.628
13580SOL    HW140766   3.199   4.469   5.643
13580SOL    HW240767   3.183   4.589   5.533
13581SOL     OW40768   2.930   5.057   6.435
13581SOL    HW140769   2.937   4.973   6.380
13581SOL    HW240770   2.992   5.126   6.399
13582SOL     OW40771   2.181   4.534   6.535
13582SOL    HW140772   2.274   4.570   6.540
13582SOL    HW240773   2.175   4.449   6.587
13583SOL     OW40774   2.201   4.233   6.592
13583SOL    HW140775   2.149   4.150   6.575
13583SOL    HW240776   2.278   4.238   6.528
13584SOL     OW40777   3.000   4.104   7.264
13584SOL    HW140778   2.955   4.167   7.328
13584SOL    HW240779   3.093   4.135   7.247
13585SOL     OW40780   3.022   3.931   7.063
13585SOL    HW140781   3.022   3.995   7.140
13585SOL    HW240782   3.050   3.979   6.980
13586SOL     OW40783   1.870   5.050   5.786
13586SOL    HW140784   1.777   5.071   5.755
13586SOL    HW240785   1.880   4.951   5.799
13587SOL     OW40786   1.950   5.525   6.513
13587SOL    HW140787   1.908   5.439   6.486
13587SOL    HW240788   2.044   5.528   6.479
13588SOL     OW40789   2.366   5.292   6.496
13588SOL    HW140790   2.432   5.366   6.505
13588SOL    HW240791   2.410   5.213   6.454
13589SOL     OW40792   2.864   4.520   6.824
13589SOL    HW140793   2.905   4.488   6.910
13589SOL    HW240794   2.768   4.493   6.821
13590SOL     OW40795   1.902   4.268   6.700
13590SOL    HW140796   1.987   4.235   6.659
13590SOL    HW240797   1.915   4.283   6.798
13591SOL     OW40798   2.051   4.244   7.308
13591SOL    HW140799   2.110   4.204   7.238
13591SOL    HW240800   1.993   4.315   7.267
13592SOL     OW40801   3.231   4.674   7.246
13592SOL    HW140802   3.270   4.763   7.266
13592SOL    HW240803   3.241   4.654   7.149
13593SOL     OW40804   2.677   4.296   5.911
13593SOL    HW140805   2.684   4.207   5.865
13593SOL    HW240806   2.583   4.330   5.903
13594SOL     OW40807   3.519   4.328   6.792
13594SOL    HW140808   3.481   4.259   6.854
13594SOL    HW240809   3.601   4.292   6.748
13595SOL     OW40810   2.114   5.288   7.330
13595SOL    HW140811   2.084   5.345   7.406
13595SOL    HW240812   2.107   5.191   7.356
13596SOL     OW40813   2.533   4.188   6.855
13596SOL    HW140814   2.499   4.099   6.825
13596SOL    HW240815   2.559   4.242   6.775
13597SOL     OW40816   2.792   5.402   7.051
13597SOL    HW140817   2.768   5.384   6.956
13597SOL    HW240818   2.822   5.496   7.061
13598SOL     OW40819   2.335   4.224   5.777
13598SOL    HW140820   2.396   4.304   5.781
13598SOL    HW240821   2.240   4.255   5.784
13599SOL     OW40822   2.021   4.861   7.052
13599SOL    HW140823   2.043   4.800   7.128
13599SOL    HW240824   2.031   4.812   6.966
13600SOL     OW40825   3.209   4.783   6.820
13600SOL    HW140826   3.233   4.720   6.746
13600SOL    HW240827   3.119   4.823   6.802
13601SOL     OW40828   3.164   4.579   5.895
13601SOL    HW140829   3.078   4.548   5.937
13601SOL    HW240830   3.160   4.565   5.796
13602SOL     OW40831   3.621   5.471   6.740
13602SOL    HW140832   3.682   5.501   6.667
13602SOL    HW240833   3.583   5.382   6.718
13603SOL     OW40834   3.114   5.455   6.714
13603SOL    HW140835   3.198   5.460   6.660
13603SOL    HW240836   3.091   5.359   6.732
13604SOL     OW40837   1.945   4.982   6.608
13604SOL    HW140838   1.940   4.981   6.708
13604SOL    HW240839   1.862   4.941   6.570
13605SOL     OW40840   2.550   5.386   7.302
13605SOL    HW140841   2.494   5.467   7.311
13605SOL    HW240842   2.602   5.390   7.216
13606SOL     OW40843   3.588   3.859   6.109
13606SOL    HW140844   3.661   3.842   6.042
13606SOL    HW240845   3.557   3.772   6.147
13607SOL     OW40846   3.250   5.297   6.063
13607SOL    HW140847   3.317   5.309   5.989
13607SOL    HW240848   3.210   5.386   6.086
13608SOL     OW40849   1.992   5.518   7.437
13608SOL    HW140850   1.951   5.444   7.490
13608SOL    HW240851   2.056   5.569   7.495
13609SOL     OW40852   3.142   4.651   6.258
13609SOL    HW140853   3.202   4.570   6.260
13609SOL    HW240854   3.182   4.720   6.198
13610SOL     OW40855   2.692   4.997   7.008
13610SOL    HW140856   2.687   5.030   7.103
13610SOL    HW240857   2.606   5.016   6.962
13611SOL     OW40858   2.534   5.340   5.740
13611SOL    HW140859   2.543   5.350   5.641
13611SOL    HW240860   2.494   5.251   5.761
13612SOL     OW40861   3.512   5.444   6.980
13612SOL    HW140862   3.565   5.454   6.896
13612SOL    HW240863   3.485   5.534   7.014
13613SOL     OW40864   3.703   3.899   6.549
13613SOL    HW140865   3.742   3.814   6.513
13613SOL    HW240866   3.605   3.901   6.530
13614SOL     OW40867   2.125   4.050   6.306
13614SOL    HW140868   2.046   4.101   6.272
13614SOL    HW240869   2.116   4.035   6.404
13615SOL     OW40870   3.056   5.336   5.617
13615SOL    HW140871   3.062   5.243   5.654
13615SOL    HW240872   2.997   5.336   5.537
13616SOL     OW40873   2.684   4.726   6.958
13616SOL    HW140874   2.724   4.725   6.866
13616SOL    HW240875   2.694   4.818   6.998
13617SOL     OW40876   2.778   4.634   5.877
13617SOL    HW140877   2.841   4.672   5.809
13617SOL    HW240878   2.818   4.551   5.916
13618SOL     OW40879   3.366   5.331   5.630
13618SOL    HW140880   3.274   5.368   5.637
13618SOL    HW240881   3.404   5.351   5.540
13619SOL     OW40882   2.234   5.012   7.076
13619SOL    HW140883   2.221   5.105   7.042
13619SOL    HW240884   2.150   4.960   7.063
13620SOL     OW40885   3.476   5.016   6.875
13620SOL    HW140886   3.536   5.019   6.955
13620SOL    HW240887   3.401   5.080   6.888
13621SOL     OW40888   2.901   4.822   6.282
13621SOL    HW140889   2.831   4.775   6.336
13621SOL    HW240890   2.960   4.754   6.239
13622SOL     OW40891   2.876   3.960   6.557
13622SOL    HW140892   2.868   3.924   6.464
13622SOL    HW240893   2.874   3.884   6.622
13623SOL     OW40894   2.452   5.211   6.077
13623SOL    HW140895   2.494   5.153   6.007
13623SOL    HW240896   2.408   5.290   6.033
13624SOL     OW40897   3.571   4.109   6.967
13624SOL    HW140898   3.644   4.178   6.971
13624SOL    HW240899   3.599   4.034   6.908
13625SOL     OW40900   2.117   5.072   5.876
13625SOL    HW140901   2.021   5.073   5.849
13625SOL    HW240902   2.129   5.125   5.960
13626SOL     OW40903   1.967   4.737   7.312
13626SOL    HW140904   1.890   4.704   7.366
13626SOL    HW240905   2.052   4.707   7.354
13627SOL     OW40906   2.534   3.927   7.075
13627SOL    HW140907   2.624   3.911   7.035
13627SOL    HW240908   2.542   3.932   7.174
13628SOL     OW40909   1.937   4.069   5.619
13628SOL    HW140910   1.845   4.041   5.590
13628SOL    HW240911   1.968   4.146   5.563
13629SOL     OW40912   3.302   4.580   6.984
13629SOL    HW140913   3.245   4.632   6.921
13629SOL    HW240914   3.398   4.592   6.960
13630SOL     OW40915   1.934   3.890   5.904
13630SOL    HW140916   1.917   3.973   5.850
13630SOL    HW240917   2.024   3.853   5.882
13631SOL     OW40918   3.045   5.059   5.705
13631SOL    HW140919   2.946   5.048   5.707
13631SOL    HW240920   3.079   5.074   5.798
13632SOL     OW40921   2.475   4.566   7.017
13632SOL    HW140922   2.531   4.647   7.000
13632SOL    HW240923   2.534   4.486   7.020
13633SOL     OW40924   3.355   5.491   6.545
13633SOL    HW140925   3.388   5.555   6.476
13633SOL    HW240926   3.421   5.485   6.620
13634SOL     OW40927   2.578   4.289   7.294
13634SOL    HW140928   2.597   4.354   7.368
13634SOL    HW240929   2.638   4.209   7.303
13635SOL     OW40930   3.312   4.944   7.219
13635SOL    HW140931   3.303   4.934   7.318
13635SOL    HW240932   3.408   4.937   7.193
13636SOL     OW40933   2.252   5.465   7.146
13636SOL    HW140934   2.161   5.506   7.144
13636SOL    HW240935   2.245   5.371   7.178
13637SOL     OW40936   3.536   4.607   6.840
13637SOL    HW140937   3.509   4.518   6.803
13637SOL    HW240938   3.537   4.675   6.767
13638SOL     OW40939   3.087   4.049   6.035
13638SOL    HW140940   3.152   3.975   6.024
13638SOL    HW240941   3.107   4.099   6.119
13639SOL     OW40942   2.456   4.469   6.238
13639SOL    HW140943   2.506   4.554   6.219
13639SOL    HW240944   2.368   4.471   6.190
13640SOL     OW40945   3.639   4.066   7.228
13640SOL    HW140946   3.622   4.097   7.134
13640SOL    HW240947   3.555   4.029   7.266
13641SOL     OW40948   3.592   4.658   7.103
13641SOL    HW140949   3.630   4.749   7.118
13641SOL    HW240950   3.584   4.641   7.004
13642SOL     OW40951   2.721   5.098   5.602
13642SOL    HW140952   2.675   5.113   5.690
13642SOL    HW240953   2.765   5.183   5.572
13643SOL     OW40954   2.523   5.514   6.539
13643SOL    HW140955   2.477   5.602   6.526
13643SOL    HW240956   2.622   5.526   6.532
13644SOL     OW40957   2.721   4.680   6.447
13644SOL    HW140958   2.775   4.611   6.495
13644SOL    HW240959   2.689   4.749   6.513
13645SOL     OW40960   2.945   4.708   5.673
13645SOL    HW140961   2.922   4.761   5.591
13645SOL    HW240962   3.026   4.652   5.654
13646SOL     OW40963   3.723   5.293   6.437
13646SOL    HW140964   3.652   5.281   6.367
13646SOL    HW240965   3.724   5.214   6.497
13647SOL     OW40966   2.083   5.038   7.430
13647SOL    HW140967   2.018   4.965   7.409
13647SOL    HW240968   2.087   5.052   7.528
13648SOL     OW40969   1.941   4.964   6.239
13648SOL    HW140970   1.940   4.917   6.327
13648SOL    HW240971   2.023   4.936   6.188
13649SOL     OW40972   2.534   5.115   7.210
13649SOL    HW140973   2.456   5.065   7.248
13649SOL    HW240974   2.531   5.210   7.241
13650SOL     OW40975   3.686   3.916   6.813
13650SOL    HW140976   3.682   3.826   6.857
13650SOL    HW240977   3.689   3.905   6.714
13651SOL     OW40978   2.290   4.148   6.106
13651SOL    HW140979   2.320   4.076   6.044
13651SOL    HW240980   2.251   4.108   6.189
13652SOL     OW40981   3.567   5.211   6.690
13652SOL    HW140982   3.474   5.186   6.663
13652SOL    HW240983   3.593   5.161   6.772
13653SOL     OW40984   2.179   4.271   6.866
13653SOL    HW140985   2.217   4.212   6.938
13653SOL    HW240986   2.219   4.245   6.778
13654SOL     OW40987   2.674   5.310   6.273
13654SOL    HW140988   2.706   5.320   6.179
13654SOL    HW240989   2.595   5.248   6.275
13655SOL     OW40990   3.286   3.938   6.698
13655SOL    HW140991   3.338   3.873   6.753
13655SOL    HW240992   3.237   4.001   6.759
13656SOL     OW40993   2.863   3.758   6.740
13656SOL    HW140994   2.800   3.686   6.709
13656SOL    HW240995   2.956   3.722   6.740
13657SOL     OW40996   2.632   5.054   5.887
13657SOL    HW140997   2.586   4.967   5.904
13657SOL    HW240998   2.723   5.051   5.928
13658SOL     OW40999   2.480   5.291   6.870
13658SOL    HW141000   2.475   5.373   6.927
13658SOL    HW241001   2.569   5.288   6.825
13659SOL     OW41002   3.214   3.776   5.754
13659SOL    HW141003   3.249   3.735   5.670
13659SOL    HW241004   3.124   3.738   5.774
13660SOL     OW41005   3.162   4.177   6.277
13660SOL    HW141006   3.103   4.257   6.281
13660SOL    HW241007   3.177   4.142   6.370
13661SOL     OW41008   3.455   3.945   6.468
13661SOL    HW141009   3.371   3.944   6.522
13661SOL    HW241010   3.457   4.028   6.412
13662SOL     OW41011   1.901   4.801   5.886
13662SOL    HW141012   2.000   4.790   5.877
13662SOL    HW241013   1.861   4.715   5.918
13663SOL     OW41014   2.737   5.370   5.923
13663SOL    HW141015   2.660   5.335   5.869
13663SOL    HW241016   2.705   5.441   5.985
13664SOL     OW41017   2.092   4.352   7.561
13664SOL    HW141018   1.999   4.350   7.598
13664SOL    HW241019   2.093   4.313   7.469
13665SOL     OW41020   2.087   3.999   8.444
13665SOL    HW141021   2.122   3.982   8.536
13665SOL    HW241022   1.999   3.954   8.432
13666SOL     OW41023   1.881   4.092   8.095
13666SOL    HW141024   1.799   4.135   8.134
13666SOL    HW241025   1.853   4.019   8.032
13667SOL     OW41026   2.431   4.999   8.613
13667SOL    HW141027   2.338   4.992   8.576
13667SOL    HW241028   2.442   5.088   8.657
13668SOL     OW41029   3.417   5.235   8.151
13668SOL    HW141030   3.360   5.219   8.232
13668SOL    HW241031   3.358   5.245   8.071
13669SOL     OW41032   2.997   4.427   8.165
13669SOL    HW141033   3.054   4.505   8.140
13669SOL    HW241034   2.937   4.453   8.241
13670SOL     OW41035   3.617   4.331   7.679
13670SOL    HW141036   3.605   4.318   7.580
13670SOL    HW241037   3.587   4.250   7.728
13671SOL     OW41038   2.630   4.868   8.471
13671SOL    HW141039   2.552   4.885   8.531
13671SOL    HW241040   2.664   4.955   8.435
13672SOL     OW41041   2.712   4.522   9.271
13672SOL    HW141042   2.708   4.598   9.336
13672SOL    HW241043   2.734   4.558   9.180
13673SOL     OW41044   2.547   4.736   8.113
13673SOL    HW141045   2.616   4.720   8.183
13673SOL    HW241046   2.474   4.793   8.151
13674SOL     OW41047   2.548   4.885   9.251
13674SOL    HW141048   2.608   4.964   9.265
13674SOL    HW241049   2.462   4.916   9.210
13675SOL     OW41050   2.197   5.159   8.509
13675SOL    HW141051   2.119   5.128   8.456
13675SOL    HW241052   2.255   5.217   8.452
13676SOL     OW41053   3.322   5.229   8.787
13676SOL    HW141054   3.346   5.323   8.813
13676SOL    HW241055   3.306   5.175   8.869
13677SOL     OW41056   2.300   4.116   8.947
13677SOL    HW141057   2.382   4.060   8.956
13677SOL    HW241058   2.219   4.058   8.951
13678SOL     OW41059   3.465   4.171   8.185
13678SOL    HW141060   3.391   4.217   8.135
13678SOL    HW241061   3.516   4.239   8.238
13679SOL     OW41062   2.093   5.437   7.931
13679SOL    HW141063   2.127   5.514   7.985
13679SOL    HW241064   2.137   5.437   7.841
13680SOL     OW41065   2.989   5.065   9.138
13680SOL    HW141066   3.036   5.065   9.226
13680SOL    HW241067   2.941   4.978   9.127
13681SOL     OW41068   2.092   5.158   7.986
13681SOL    HW141069   2.066   5.254   7.986
13681SOL    HW241070   2.021   5.104   8.031
13682SOL     OW41071   2.102   4.815   8.334
13682SOL    HW141072   2.116   4.731   8.386
13682SOL    HW241073   2.047   4.879   8.389
13683SOL     OW41074   2.482   5.510   8.887
13683SOL    HW141075   2.390   5.493   8.922
13683SOL    HW241076   2.510   5.602   8.913
13684SOL     OW41077   2.468   4.688   7.571
13684SOL    HW141078   2.475   4.772   7.517
13684SOL    HW241079   2.514   4.701   7.659
13685SOL     OW41080   3.456   3.838   8.928
13685SOL    HW141081   3.438   3.905   8.856
13685SOL    HW241082   3.453   3.884   9.017
13686SOL     OW41083   1.984   4.367   8.011
13686SOL    HW141084   1.939   4.279   8.028
13686SOL    HW241085   1.983   4.421   8.095
13687SOL     OW41086   3.704   5.491   7.807
13687SOL    HW141087   3.758   5.462   7.887
13687SOL    HW241088   3.734   5.581   7.778
13688SOL     OW41089   1.889   5.320   7.565
13688SOL    HW141090   1.870   5.224   7.586
13688SOL    HW241091   1.856   5.378   7.640
13689SOL     OW41092   3.551   4.646   8.060
13689SOL    HW141093   3.646   4.617   8.068
13689SOL    HW241094   3.543   4.711   7.985
13690SOL     OW41095   3.503   4.832   7.880
13690SOL    HW141096   3.589   4.834   7.828
13690SOL    HW241097   3.517   4.879   7.968
13691SOL     OW41098   1.975   4.461   9.045
13691SOL    HW141099   2.063   4.448   9.090
13691SOL    HW241100   1.962   4.558   9.023
13692SOL     OW41101   2.475   5.089   8.174
13692SOL    HW141102   2.426   5.002   8.183
13692SOL    HW241103   2.452   5.132   8.087
13693SOL     OW41104   3.155   4.952   8.871
13693SOL    HW141105   3.192   4.879   8.813
13693SOL    HW241106   3.207   4.957   8.956
13694SOL     OW41107   2.671   3.728   7.950
13694SOL    HW141108   2.711   3.819   7.941
13694SOL    HW241109   2.571   3.736   7.956
13695SOL     OW41110   2.059   4.700   8.712
13695SOL    HW141111   2.148   4.655   8.698
13695SOL    HW241112   1.986   4.635   8.693
13696SOL     OW41113   3.387   4.723   7.638
13696SOL    HW141114   3.324   4.647   7.651
13696SOL    HW241115   3.435   4.741   7.724
13697SOL     OW41116   3.049   5.516   9.064
13697SOL    HW141117   3.073   5.576   8.988
13697SOL    HW241118   3.056   5.421   9.034
13698SOL     OW41119   2.179   3.975   9.249
13698SOL    HW141120   2.250   4.046   9.255
13698SOL    HW241121   2.091   4.014   9.277
13699SOL     OW41122   3.328   5.141   8.401
13699SOL    HW141123   3.269   5.147   8.481
13699SOL    HW241124   3.313   5.053   8.355
13700SOL     OW41125   3.529   5.438   8.020
13700SOL    HW141126   3.488   5.415   7.932
13700SOL    HW241127   3.511   5.364   8.085
13701SOL     OW41128   2.460   4.453   7.718
13701SOL    HW141129   2.484   4.522   7.650
13701SOL    HW241130   2.382   4.486   7.772
13702SOL     OW41131   3.143   4.069   8.392
13702SOL    HW141132   3.057   4.019   8.379
13702SOL    HW241133   3.205   4.015   8.448
13703SOL     OW41134   3.438   5.386   7.755
13703SOL    HW141135   3.527   5.432   7.758
13703SOL    HW241136   3.417   5.362   7.660
13704SOL     OW41137   2.669   4.329   8.913
13704SOL    HW141138   2.622   4.326   9.002
13704SOL    HW241139   2.618   4.274   8.847
13705SOL     OW41140   3.256   4.193   9.122
13705SOL    HW141141   3.236   4.236   9.210
13705SOL    HW241142   3.334   4.131   9.131
13706SOL     OW41143   2.835   4.614   9.020
13706SOL    HW141144   2.881   4.530   8.991
13706SOL    HW241145   2.779   4.648   8.945
13707SOL     OW41146   2.853   4.134   8.690
13707SOL    HW141147   2.776   4.168   8.744
13707SOL    HW241148   2.819   4.083   8.611
13708SOL     OW41149   2.903   4.425   7.877
13708SOL    HW141150   2.929   4.421   7.973
13708SOL    HW241151   2.818   4.374   7.863
13709SOL     OW41152   1.938   4.535   8.237
13709SOL    HW141153   2.037   4.523   8.246
13709SOL    HW241154   1.914   4.630   8.258
13710SOL     OW41155   1.992   5.545   9.019
13710SOL    HW141156   1.982   5.530   9.118
13710SOL    HW241157   1.906   5.581   8.983
13711SOL     OW41158   2.727   4.072   7.643
13711SOL    HW141159   2.786   4.135   7.594
13711SOL    HW241160   2.746   3.978   7.614
13712SOL     OW41161   3.581   4.309   9.279
13712SOL    HW141162   3.555   4.398   9.243
13712SOL    HW241163   3.579   4.241   9.206
13713SOL     OW41164   3.224   4.868   7.993
13713SOL    HW141165   3.307   4.839   7.945
13713SOL    HW241166   3.175   4.935   7.937
13714SOL     OW41167   2.412   3.920   8.333
13714SOL    HW141168   2.407   3.915   8.433
13714SOL    HW241169   2.414   4.016   8.304
13715SOL     OW41170   2.870   5.180   7.925
13715SOL    HW141171   2.824   5.252   7.873
13715SOL    HW241172   2.866   5.200   8.023
13716SOL     OW41173   2.213   5.525   8.301
13716SOL    HW141174   2.263   5.439   8.307
13716SOL    HW241175   2.278   5.602   8.298
13717SOL     OW41176   3.657   4.790   8.321
13717SOL    HW141177   3.595   4.775   8.245
13717SOL    HW241178   3.605   4.801   8.406
13718SOL     OW41179   3.089   5.274   8.954
13718SOL    HW141180   3.095   5.197   9.018
13718SOL    HW241181   3.037   5.248   8.874
13719SOL     OW41182   2.183   4.667   7.690
13719SOL    HW141183   2.265   4.706   7.648
13719SOL    HW241184   2.156   4.585   7.641
13720SOL     OW41185   3.320   4.459   8.176
13720SOL    HW141186   3.315   4.394   8.251
13720SOL    HW241187   3.400   4.518   8.189
13721SOL     OW41188   2.323   4.990   9.175
13721SOL    HW141189   2.273   4.991   9.089
13721SOL    HW241190   2.260   4.972   9.251
13722SOL     OW41191   2.973   5.500   7.685
13722SOL    HW141192   2.913   5.438   7.735
13722SOL    HW241193   3.004   5.456   7.600
13723SOL     OW41194   2.064   4.009   8.946
13723SOL    HW141195   1.984   4.069   8.933
13723SOL    HW241196   2.054   3.960   9.032
13724SOL     OW41197   3.494   5.101   7.529
13724SOL    HW141198   3.462   5.195   7.519
13724SOL    HW241199   3.418   5.038   7.517
13725SOL     OW41200   2.326   5.467   7.771
13725SOL    HW141201   2.359   5.506   7.857
13725SOL    HW241202   2.402   5.460   7.706
13726SOL     OW41203   3.262   3.831   7.874
13726SOL    HW141204   3.238   3.794   7.784
13726SOL    HW241205   3.361   3.847   7.878
13727SOL     OW41206   2.111   5.509   8.689
13727SOL    HW141207   2.168   5.444   8.739
13727SOL    HW241208   2.095   5.476   8.596
13728SOL     OW41209   2.802   5.422   8.352
13728SOL    HW141210   2.882   5.365   8.373
13728SOL    HW241211   2.753   5.382   8.275
13729SOL     OW41212   2.244   4.424   7.928
13729SOL    HW141213   2.289   4.334   7.925
13729SOL    HW241214   2.150   4.413   7.961
13730SOL     OW41215   3.409   3.946   9.177
13730SOL    HW141216   3.404   3.983   9.269
13730SOL    HW241217   3.337   3.877   9.165
13731SOL     OW41218   2.476   3.846   7.565
13731SOL    HW141219   2.574   3.824   7.572
13731SOL    HW241220   2.445   3.829   7.472
13732SOL     OW41221   2.643   3.988   9.197
13732SOL    HW141222   2.710   3.927   9.240
13732SOL    HW241223   2.570   4.007   9.262
13733SOL     OW41224   2.750   5.238   8.643
13733SOL    HW141225   2.727   5.213   8.549
13733SOL    HW241226   2.811   5.169   8.682
13734SOL     OW41227   3.213   4.314   8.881
13734SOL    HW141228   3.241   4.271   8.966
13734SOL    HW241229   3.238   4.410   8.882
13735SOL     OW41230   2.665   5.126   8.372
13735SOL    HW141231   2.755   5.140   8.330
13735SOL    HW241232   2.594   5.128   8.301
13736SOL     OW41233   2.784   4.227   8.347
13736SOL    HW141234   2.759   4.218   8.251
13736SOL    HW241235   2.832   4.145   8.378
13737SOL     OW41236   2.401   3.788   7.960
13737SOL    HW141237   2.320   3.789   8.018
13737SOL    HW241238   2.404   3.871   7.905
13738SOL     OW41239   3.296   4.912   7.489
13738SOL    HW141240   3.328   4.836   7.546
13738SOL    HW241241   3.204   4.939   7.519
13739SOL     OW41242   2.159   3.759   7.619
13739SOL    HW141243   2.208   3.843   7.598
13739SOL    HW241244   2.221   3.694   7.664
13740SOL     OW41245   2.797   3.960   7.928
13740SOL    HW141246   2.749   4.001   7.850
13740SOL    HW241247   2.896   3.958   7.909
13741SOL     OW41248   2.938   4.407   8.912
13741SOL    HW141249   2.858   4.346   8.915
13741SOL    HW241250   3.019   4.354   8.888
13742SOL     OW41251   3.089   5.294   8.241
13742SOL    HW141252   3.110   5.368   8.176
13742SOL    HW241253   3.157   5.294   8.314
13743SOL     OW41254   2.321   4.876   8.189
13743SOL    HW141255   2.250   4.849   8.254
13743SOL    HW241256   2.295   4.848   8.096
13744SOL     OW41257   3.133   5.521   8.039
13744SOL    HW141258   3.177   5.585   7.975
13744SOL    HW241259   3.083   5.573   8.109
13745SOL     OW41260   2.894   4.273   7.464
13745SOL    HW141261   2.853   4.355   7.425
13745SOL    HW241262   2.958   4.299   7.537
13746SOL     OW41263   1.940   4.280   8.834
13746SOL    HW141264   2.032   4.279   8.793
13746SOL    HW241265   1.934   4.354   8.901
13747SOL     OW41266   2.423   3.946   8.595
13747SOL    HW141267   2.461   3.862   8.632
13747SOL    HW241268   2.335   3.965   8.639
13748SOL     OW41269   2.728   4.178   8.090
13748SOL    HW141270   2.696   4.250   8.028
13748SOL    HW241271   2.752   4.097   8.037
13749SOL     OW41272   2.879   3.763   8.201
13749SOL    HW141273   2.807   3.768   8.132
13749SOL    HW241274   2.855   3.694   8.270
13750SOL     OW41275   3.291   4.897   8.315
13750SOL    HW141276   3.236   4.813   8.308
13750SOL    HW241277   3.317   4.926   8.223
13751SOL     OW41278   3.328   4.314   8.440
13751SOL    HW141279   3.298   4.219   8.447
13751SOL    HW241280   3.401   4.330   8.506
13752SOL     OW41281   3.719   4.557   7.825
13752SOL    HW141282   3.761   4.493   7.889
13752SOL    HW241283   3.681   4.506   7.747
13753SOL     OW41284   2.350   5.109   7.622
13753SOL    HW141285   2.263   5.094   7.669
13753SOL    HW241286   2.333   5.135   7.527
13754SOL     OW41287   3.526   5.004   8.105
13754SOL    HW141288   3.625   5.012   8.119
13754SOL    HW241289   3.481   5.088   8.136
13755SOL     OW41290   3.252   4.299   7.526
13755SOL    HW141291   3.198   4.278   7.607
13755SOL    HW241292   3.343   4.258   7.535
13756SOL     OW41293   2.389   3.980   7.776
13756SOL    HW141294   2.416   3.921   7.701
13756SOL    HW241295   2.389   4.075   7.745
13757SOL     OW41296   3.616   4.947   9.036
13757SOL    HW141297   3.707   4.908   9.023
13757SOL    HW241298   3.624   5.043   9.060
13758SOL     OW41299   2.926   5.071   8.788
13758SOL    HW141300   2.846   5.048   8.843
13758SOL    HW241301   3.009   5.045   8.837
13759SOL     OW41302   3.454   5.353   9.073
13759SOL    HW141303   3.481   5.387   8.983
13759SOL    HW241304   3.533   5.315   9.119
13760SOL     OW41305   2.973   4.919   8.548
13760SOL    HW141306   2.933   4.963   8.629
13760SOL    HW241307   2.932   4.956   8.465
13761SOL     OW41308   3.500   4.823   8.527
13761SOL    HW141309   3.505   4.904   8.586
13761SOL    HW241310   3.414   4.825   8.476
13762SOL     OW41311   2.777   3.813   8.850
13762SOL    HW141312   2.802   3.793   8.755
13762SOL    HW241313   2.849   3.869   8.892
13763SOL     OW41314   2.842   4.840   9.167
13763SOL    HW141315   2.743   4.846   9.177
13763SOL    HW241316   2.865   4.760   9.111
13764SOL     OW41317   2.567   4.774   7.816
13764SOL    HW141318   2.553   4.781   7.915
13764SOL    HW241319   2.651   4.723   7.798
13765SOL     OW41320   2.272   4.537   8.699
13765SOL    HW141321   2.358   4.549   8.749
13765SOL    HW241322   2.230   4.450   8.726
13766SOL     OW41323   3.136   4.110   8.710
13766SOL    HW141324   3.157   4.184   8.774
13766SOL    HW241325   3.047   4.127   8.667
13767SOL     OW41326   1.926   5.288   8.779
13767SOL    HW141327   1.880   5.370   8.745
13767SOL    HW241328   2.024   5.307   8.788
13768SOL     OW41329   2.229   4.824   7.949
13768SOL    HW141330   2.222   4.907   7.893
13768SOL    HW241331   2.233   4.744   7.889
13769SOL     OW41332   2.428   4.261   8.313
13769SOL    HW141333   2.440   4.327   8.239
13769SOL    HW241334   2.474   4.295   8.396
13770SOL     OW41335   3.114   5.072   7.836
13770SOL    HW141336   3.164   5.149   7.876
13770SOL    HW241337   3.019   5.074   7.868
13771SOL     OW41338   3.134   5.169   8.590
13771SOL    HW141339   3.181   5.182   8.677
13771SOL    HW241340   3.068   5.095   8.599
13772SOL     OW41341   3.444   4.363   7.920
13772SOL    HW141342   3.413   4.424   7.993
13772SOL    HW241343   3.494   4.415   7.851
13773SOL     OW41344   2.216   5.234   8.777
13773SOL    HW141345   2.195   5.190   8.690
13773SOL    HW241346   2.313   5.260   8.780
13774SOL     OW41347   2.264   4.475   9.046
13774SOL    HW141348   2.332   4.530   8.999
13774SOL    HW241349   2.304   4.387   9.073
13775SOL     OW41350   3.449   4.503   9.118
13775SOL    HW141351   3.357   4.541   9.113
13775SOL    HW241352   3.509   4.550   9.053
13776SOL     OW41353   2.875   3.829   9.218
13776SOL    HW141354   2.881   3.914   9.166
13776SOL    HW241355   2.907   3.753   9.161
13777SOL     OW41356   2.366   3.774   9.188
13777SOL    HW141357   2.324   3.717   9.118
13777SOL    HW241358   2.300   3.843   9.220
13778SOL     OW41359   2.435   4.594   8.477
13778SOL    HW141360   2.479   4.683   8.468
13778SOL    HW241361   2.372   4.594   8.554
13779SOL     OW41362   3.222   4.586   8.493
13779SOL    HW141363   3.147   4.586   8.427
13779SOL    HW241364   3.259   4.494   8.502
13780SOL     OW41365   3.071   4.249   7.723
13780SOL    HW141366   3.084   4.165   7.777
13780SOL    HW241367   3.042   4.323   7.783
13781SOL     OW41368   2.169   3.937   8.679
13781SOL    HW141369   2.146   3.974   8.769
13781SOL    HW241370   2.139   3.842   8.673
13782SOL     OW41371   1.899   5.034   8.730
13782SOL    HW141372   1.952   4.985   8.798
13782SOL    HW241373   1.921   5.132   8.735
13783SOL     OW41374   2.594   4.358   8.512
13783SOL    HW141375   2.653   4.332   8.436
13783SOL    HW241376   2.566   4.454   8.501
13784SOL     OW41377   3.590   4.659   9.302
13784SOL    HW141378   3.544   4.652   9.213
13784SOL    HW241379   3.528   4.703   9.368
13785SOL     OW41380   2.169   3.787   8.066
13785SOL    HW141381   2.158   3.881   8.099
13785SOL    HW241382   2.164   3.724   8.143
13786SOL     OW41383   3.484   4.091   7.822
13786SOL    HW141384   3.486   4.015   7.886
13786SOL    HW241385   3.436   4.168   7.862
13787SOL     OW41386   2.885   4.490   8.414
13787SOL    HW141387   2.900   4.511   8.510
13787SOL    HW241388   2.855   4.395   8.405
13788SOL     OW41389   2.842   5.297   9.148
13788SOL    HW141390   2.822   5.341   9.060
13788SOL    HW241391   2.881   5.206   9.132
13789SOL     OW41392   3.721   5.242   9.053
13789SOL    HW141393   3.735   5.269   8.958
13789SOL    HW241394   3.804   5.264   9.106
13790SOL     OW41395   2.212   4.622   9.252
13790SOL    HW141396   2.288   4.666   9.300
13790SOL    HW241397   2.247   4.575   9.170
13791SOL     OW41398   3.402   3.998   7.573
13791SOL    HW141399   3.341   3.923   7.596
13791SOL    HW241400   3.424   4.050   7.656
13792SOL     OW41401   3.165   4.562   7.490
13792SOL    HW141402   3.199   4.469   7.505
13792SOL    HW241403   3.183   4.589   7.395
13793SOL     OW41404   2.930   5.057   8.297
13793SOL    HW141405   2.937   4.973   8.242
13793SOL    HW241406   2.992   5.126   8.261
13794SOL     OW41407   2.181   4.534   8.397
13794SOL    HW141408   2.274   4.570   8.402
13794SOL    HW241409   2.175   4.449   8.449
13795SOL     OW41410   2.201   4.233   8.454
13795SOL    HW141411   2.149   4.150   8.437
13795SOL    HW241412   2.278   4.238   8.390
13796SOL     OW41413   3.000   4.104   9.126
13796SOL    HW141414   2.955   4.167   9.190
13796SOL    HW241415   3.093   4.135   9.109
13797SOL     OW41416   3.022   3.931   8.925
13797SOL    HW141417   3.022   3.995   9.002
13797SOL    HW241418   3.050   3.979   8.842
13798SOL     OW41419   1.870   5.050   7.648
13798SOL    HW141420   1.777   5.071   7.617
13798SOL    HW241421   1.880   4.951   7.661
13799SOL     OW41422   1.950   5.525   8.375
13799SOL    HW141423   1.908   5.439   8.348
13799SOL    HW241424   2.044   5.528   8.341
13800SOL     OW41425   2.366   5.292   8.358
13800SOL    HW141426   2.432   5.366   8.367
13800SOL    HW241427   2.410   5.213   8.316
13801SOL     OW41428   2.864   4.520   8.686
13801SOL    HW141429   2.905   4.488   8.772
13801SOL    HW241430   2.768   4.493   8.683
13802SOL     OW41431   1.902   4.268   8.562
13802SOL    HW141432   1.987   4.235   8.521
13802SOL    HW241433   1.915   4.283   8.660
13803SOL     OW41434   2.051   4.244   9.170
13803SOL    HW141435   2.110   4.204   9.100
13803SOL    HW241436   1.993   4.315   9.129
13804SOL     OW41437   3.231   4.674   9.108
13804SOL    HW141438   3.270   4.763   9.128
13804SOL    HW241439   3.241   4.654   9.011
13805SOL     OW41440   2.677   4.296   7.773
13805SOL    HW141441   2.684   4.207   7.727
13805SOL    HW241442   2.583   4.330   7.765
13806SOL     OW41443   3.519   4.328   8.654
13806SOL    HW141444   3.481   4.259   8.716
13806SOL    HW241445   3.601   4.292   8.610
13807SOL     OW41446   2.114   5.288   9.192
13807SOL    HW141447   2.084   5.345   9.268
13807SOL    HW241448   2.107   5.191   9.218
13808SOL     OW41449   2.533   4.188   8.717
13808SOL    HW141450   2.499   4.099   8.687
13808SOL    HW241451   2.559   4.242   8.637
13809SOL     OW41452   2.792   5.402   8.913
13809SOL    HW141453   2.768   5.384   8.818
13809SOL    HW241454   2.822   5.496   8.923
13810SOL     OW41455   2.335   4.224   7.639
13810SOL    HW141456   2.396   4.304   7.643
13810SOL    HW241457   2.240   4.255   7.646
13811SOL     OW41458   2.021   4.861   8.914
13811SOL    HW141459   2.043   4.800   8.990
13811SOL    HW241460   2.031   4.812   8.828
13812SOL     OW41461   3.209   4.783   8.682
13812SOL    HW141462   3.233   4.720   8.608
13812SOL    HW241463   3.119   4.823   8.664
13813SOL     OW41464   3.164   4.579   7.757
13813SOL    HW141465   3.078   4.548   7.799
13813SOL    HW241466   3.160   4.565   7.658
13814SOL     OW41467   3.621   5.471   8.602
13814SOL    HW141468   3.682   5.501   8.529
13814SOL    HW241469   3.583   5.382   8.580
13815SOL     OW41470   3.114   5.455   8.576
13815SOL    HW141471   3.198   5.460   8.522
13815SOL    HW241472   3.091   5.359   8.594
13816SOL     OW41473   1.945   4.982   8.470
13816SOL    HW141474   1.940   4.981   8.570
13816SOL    HW241475   1.862   4.941   8.432
13817SOL     OW41476   2.550   5.386   9.164
13817SOL    HW141477   2.494   5.467   9.173
13817SOL    HW241478   2.602   5.390   9.078
13818SOL     OW41479   3.588   3.859   7.971
13818SOL    HW141480   3.661   3.842   7.904
13818SOL    HW241481   3.557   3.772   8.009
13819SOL     OW41482   3.250   5.297   7.925
13819SOL    HW141483   3.317   5.309   7.851
13819SOL    HW241484   3.210   5.386   7.948
13820SOL     OW41485   1.992   5.518   9.299
13820SOL    HW141486   1.951   5.444   9.352
13820SOL    HW241487   2.056   5.569   9.357
13821SOL     OW41488   3.142   4.651   8.120
13821SOL    HW141489   3.202   4.570   8.122
13821SOL    HW241490   3.182   4.720   8.060
13822SOL     OW41491   2.692   4.997   8.870
13822SOL    HW141492   2.687   5.030   8.965
13822SOL    HW241493   2.606   5.016   8.824
13823SOL     OW41494   2.534   5.340   7.602
13823SOL    HW141495   2.543   5.350   7.503
13823SOL    HW241496   2.494   5.251   7.623
13824SOL     OW41497   3.512   5.444   8.842
13824SOL    HW141498   3.565   5.454   8.758
13824SOL    HW241499   3.485   5.534   8.876
13825SOL     OW41500   3.703   3.899   8.411
13825SOL    HW141501   3.742   3.814   8.375
13825SOL    HW241502   3.605   3.901   8.392
13826SOL     OW41503   2.125   4.050   8.168
13826SOL    HW141504   2.046   4.101   8.134
13826SOL    HW241505   2.116   4.035   8.266
13827SOL     OW41506   3.056   5.336   7.479
13827SOL    HW141507   3.062   5.243   7.516
13827SOL    HW241508   2.997   5.336   7.399
13828SOL     OW41509   2.684   4.726   8.820
13828SOL    HW141510   2.724   4.725   8.728
13828SOL    HW241511   2.694   4.818   8.860
13829SOL     OW41512   2.778   4.634   7.739
13829SOL    HW141513   2.841   4.672   7.671
13829SOL    HW241514   2.818   4.551   7.778
13830SOL     OW41515   3.366   5.331   7.492
13830SOL    HW141516   3.274   5.368   7.499
13830SOL    HW241517   3.404   5.351   7.402
13831SOL     OW41518   2.234   5.012   8.938
13831SOL    HW141519   2.221   5.105   8.904
13831SOL    HW241520   2.150   4.960   8.925
13832SOL     OW41521   3.476   5.016   8.737
13832SOL    HW141522   3.536   5.019   8.817
13832SOL    HW241523   3.401   5.080   8.750
13833SOL     OW41524   2.901   4.822   8.144
13833SOL    HW141525   2.831   4.775   8.198
13833SOL    HW241526   2.960   4.754   8.101
13834SOL     OW41527   2.876   3.960   8.419
13834SOL    HW141528   2.868   3.924   8.326
13834SOL    HW241529   2.874   3.884   8.484
13835SOL     OW41530   2.452   5.211   7.939
13835SOL    HW141531   2.494   5.153   7.869
13835SOL    HW241532   2.408   5.290   7.895
13836SOL     OW41533   3.571   4.109   8.829
13836SOL    HW141534   3.644   4.178   8.833
13836SOL    HW241535   3.599   4.034   8.770
13837SOL     OW41536   2.117   5.072   7.738
13837SOL    HW141537   2.021   5.073   7.711
13837SOL    HW241538   2.129   5.125   7.822
13838SOL     OW41539   1.967   4.737   9.174
13838SOL    HW141540   1.890   4.704   9.228
13838SOL    HW241541   2.052   4.707   9.216
13839SOL     OW41542   2.534   3.927   8.937
13839SOL    HW141543   2.624   3.911   8.897
13839SOL    HW241544   2.542   3.932   9.036
13840SOL     OW41545   1.937   4.069   7.481
13840SOL    HW141546   1.845   4.041   7.452
13840SOL    HW241547   1.968   4.146   7.425
13841SOL     OW41548   3.302   4.580   8.846
13841SOL    HW141549   3.245   4.632   8.783
13841SOL    HW241550   3.398   4.592   8.822
13842SOL     OW41551   1.934   3.890   7.766
13842SOL    HW141552   1.917   3.973   7.712
13842SOL    HW241553   2.024   3.853   7.744
13843SOL     OW41554   3.045   5.059   7.567
13843SOL    HW141555   2.946   5.048   7.569
13843SOL    HW241556   3.079   5.074   7.660
13844SOL     OW41557   2.475   4.566   8.879
13844SOL    HW141558   2.531   4.647   8.862
13844SOL    HW241559   2.534   4.486   8.882
13845SOL     OW41560   3.355   5.491   8.407
13845SOL    HW141561   3.388   5.555   8.338
13845SOL    HW241562   3.421   5.485   8.482
13846SOL     OW41563   2.578   4.289   9.156
13846SOL    HW141564   2.597   4.354   9.230
13846SOL    HW241565   2.638   4.209   9.165
13847SOL     OW41566   3.312   4.944   9.081
13847SOL    HW141567   3.303   4.934   9.180
13847SOL    HW241568   3.408   4.937   9.055
13848SOL     OW41569   2.252   5.465   9.008
13848SOL    HW141570   2.161   5.506   9.006
13848SOL    HW241571   2.245   5.371   9.040
13849SOL     OW41572   3.536   4.607   8.702
13849SOL    HW141573   3.509   4.518   8.665
13849SOL    HW241574   3.537   4.675   8.629
13850SOL     OW41575   3.087   4.049   7.897
13850SOL    HW141576   3.152   3.975   7.886
13850SOL    HW241577   3.107   4.099   7.981
13851SOL     OW41578   2.456   4.469   8.100
13851SOL    HW141579   2.506   4.554   8.081
13851SOL    HW241580   2.368   4.471   8.052
13852SOL     OW41581   3.639   4.066   9.090
13852SOL    HW141582   3.622   4.097   8.996
13852SOL    HW241583   3.555   4.029   9.128
13853SOL     OW41584   3.592   4.658   8.965
13853SOL    HW141585   3.630   4.749   8.980
13853SOL    HW241586   3.584   4.641   8.866
13854SOL     OW41587   2.721   5.098   7.464
13854SOL    HW141588   2.675   5.113   7.552
13854SOL    HW241589   2.765   5.183   7.434
13855SOL     OW41590   2.523   5.514   8.401
13855SOL    HW141591   2.477   5.602   8.388
13855SOL    HW241592   2.622   5.526   8.394
13856SOL     OW41593   2.721   4.680   8.309
13856SOL    HW141594   2.775   4.611   8.357
13856SOL    HW241595   2.689   4.749   8.375
13857SOL     OW41596   2.945   4.708   7.535
13857SOL    HW141597   2.922   4.761   7.453
13857SOL    HW241598   3.026   4.652   7.516
13858SOL     OW41599   3.723   5.293   8.299
13858SOL    HW141600   3.652   5.281   8.229
13858SOL    HW241601   3.724   5.214   8.359
13859SOL     OW41602   2.083   5.038   9.292
13859SOL    HW141603   2.018   4.965   9.271
13859SOL    HW241604   2.087   5.052   9.390
13860SOL     OW41605   1.941   4.964   8.101
13860SOL    HW141606   1.940   4.917   8.189
13860SOL    HW241607   2.023   4.936   8.050
13861SOL     OW41608   2.534   5.115   9.072
13861SOL    HW141609   2.456   5.065   9.110
13861SOL    HW241610   2.531   5.210   9.103
13862SOL     OW41611   3.686   3.916   8.675
13862SOL    HW141612   3.682   3.826   8.719
13862SOL    HW241613   3.689   3.905   8.576
13863SOL     OW41614   2.290   4.148   7.968
13863SOL    HW141615   2.320   4.076   7.906
13863SOL    HW241616   2.251   4.108   8.051
13864SOL     OW41617   3.567   5.211   8.552
13864SOL    HW141618   3.474   5.186   8.525
13864SOL    HW241619   3.593   5.161   8.634
13865SOL     OW41620   2.179   4.271   8.728
13865SOL    HW141621   2.217   4.212   8.800
13865SOL    HW241622   2.219   4.245   8.640
13866SOL     OW41623   2.674   5.310   8.135
13866SOL    HW141624   2.706   5.320   8.041
13866SOL    HW241625   2.595   5.248   8.137
13867SOL     OW41626   3.286   3.938   8.560
13867SOL    HW141627   3.338   3.873   8.615
13867SOL    HW241628   3.237   4.001   8.621
13868SOL     OW41629   2.863   3.758   8.602
13868SOL    HW141630   2.800   3.686   8.571
13868SOL    HW241631   2.956   3.722   8.602
13869SOL     OW41632   2.632   5.054   7.749
13869SOL    HW141633   2.586   4.967   7.766
13869SOL    HW241634   2.723   5.051   7.790
13870SOL     OW41635   2.480   5.291   8.732
13870SOL    HW141636   2.475   5.373   8.789
13870SOL    HW241637   2.569   5.288   8.687
13871SOL     OW41638   3.214   3.776   7.616
13871SOL    HW141639   3.249   3.735   7.532
13871SOL    HW241640   3.124   3.738   7.636
13872SOL     OW41641   3.162   4.177   8.139
13872SOL    HW141642   3.103   4.257   8.143
13872SOL    HW241643   3.177   4.142   8.232
13873SOL     OW41644   3.455   3.945   8.330
13873SOL    HW141645   3.371   3.944   8.384
13873SOL    HW241646   3.457   4.028   8.274
13874SOL     OW41647   1.901   4.801   7.748
13874SOL    HW141648   2.000   4.790   7.739
13874SOL    HW241649   1.861   4.715   7.780
13875SOL     OW41650   2.737   5.370   7.785
13875SOL    HW141651   2.660   5.335   7.731
13875SOL    HW241652   2.705   5.441   7.847
13876SOL     OW41653   2.092   4.352   9.423
13876SOL    HW141654   1.999   4.350   9.460
13876SOL    HW241655   2.093   4.313   9.331
13877SOL     OW41656   2.087   3.999  10.306
13877SOL    HW141657   2.122   3.982  10.398
13877SOL    HW241658   1.999   3.954  10.294
13878SOL     OW41659   1.881   4.092   9.957
13878SOL    HW141660   1.799   4.135   9.996
13878SOL    HW241661   1.853   4.019   9.894
13879SOL     OW41662   2.431   4.999  10.475
13879SOL    HW141663   2.338   4.992  10.438
13879SOL    HW241664   2.442   5.088  10.519
13880SOL     OW41665   3.417   5.235  10.013
13880SOL    HW141666   3.360   5.219  10.094
13880SOL    HW241667   3.358   5.245   9.933
13881SOL     OW41668   2.997   4.427  10.027
13881SOL    HW141669   3.054   4.505  10.002
13881SOL    HW241670   2.937   4.453  10.103
13882SOL     OW41671   3.617   4.331   9.541
13882SOL    HW141672   3.605   4.318   9.442
13882SOL    HW241673   3.587   4.250   9.590
13883SOL     OW41674   2.630   4.868  10.333
13883SOL    HW141675   2.552   4.885  10.393
13883SOL    HW241676   2.664   4.955  10.297
13884SOL     OW41677   2.712   4.522  11.133
13884SOL    HW141678   2.708   4.598  11.198
13884SOL    HW241679   2.734   4.558  11.042
13885SOL     OW41680   2.547   4.736   9.975
13885SOL    HW141681   2.616   4.720  10.045
13885SOL    HW241682   2.474   4.793  10.013
13886SOL     OW41683   2.548   4.885  11.113
13886SOL    HW141684   2.608   4.964  11.127
13886SOL    HW241685   2.462   4.916  11.072
13887SOL     OW41686   2.197   5.159  10.371
13887SOL    HW141687   2.119   5.128  10.318
13887SOL    HW241688   2.255   5.217  10.314
13888SOL     OW41689   3.322   5.229  10.649
13888SOL    HW141690   3.346   5.323  10.675
13888SOL    HW241691   3.306   5.175  10.731
13889SOL     OW41692   2.300   4.116  10.809
13889SOL    HW141693   2.382   4.060  10.818
13889SOL    HW241694   2.219   4.058  10.813
13890SOL     OW41695   3.465   4.171  10.047
13890SOL    HW141696   3.391   4.217   9.997
13890SOL    HW241697   3.516   4.239  10.100
13891SOL     OW41698   2.093   5.437   9.793
13891SOL    HW141699   2.127   5.514   9.847
13891SOL    HW241700   2.137   5.437   9.703
13892SOL     OW41701   2.989   5.065  11.000
13892SOL    HW141702   3.036   5.065  11.088
13892SOL    HW241703   2.941   4.978  10.989
13893SOL     OW41704   2.092   5.158   9.848
13893SOL    HW141705   2.066   5.254   9.848
13893SOL    HW241706   2.021   5.104   9.893
13894SOL     OW41707   2.102   4.815  10.196
13894SOL    HW141708   2.116   4.731  10.248
13894SOL    HW241709   2.047   4.879  10.251
13895SOL     OW41710   2.482   5.510  10.749
13895SOL    HW141711   2.390   5.493  10.784
13895SOL    HW241712   2.510   5.602  10.775
13896SOL     OW41713   2.468   4.688   9.433
13896SOL    HW141714   2.475   4.772   9.379
13896SOL    HW241715   2.514   4.701   9.521
13897SOL     OW41716   3.456   3.838  10.790
13897SOL    HW141717   3.438   3.905  10.718
13897SOL    HW241718   3.453   3.884  10.879
13898SOL     OW41719   1.984   4.367   9.873
13898SOL    HW141720   1.939   4.279   9.890
13898SOL    HW241721   1.983   4.421   9.957
13899SOL     OW41722   3.704   5.491   9.669
13899SOL    HW141723   3.758   5.462   9.749
13899SOL    HW241724   3.734   5.581   9.640
13900SOL     OW41725   1.889   5.320   9.427
13900SOL    HW141726   1.870   5.224   9.448
13900SOL    HW241727   1.856   5.378   9.502
13901SOL     OW41728   3.551   4.646   9.922
13901SOL    HW141729   3.646   4.617   9.930
13901SOL    HW241730   3.543   4.711   9.847
13902SOL     OW41731   3.503   4.832   9.742
13902SOL    HW141732   3.589   4.834   9.690
13902SOL    HW241733   3.517   4.879   9.830
13903SOL     OW41734   1.975   4.461  10.907
13903SOL    HW141735   2.063   4.448  10.952
13903SOL    HW241736   1.962   4.558  10.885
13904SOL     OW41737   2.475   5.089  10.036
13904SOL    HW141738   2.426   5.002  10.045
13904SOL    HW241739   2.452   5.132   9.949
13905SOL     OW41740   3.155   4.952  10.733
13905SOL    HW141741   3.192   4.879  10.675
13905SOL    HW241742   3.207   4.957  10.818
13906SOL     OW41743   2.671   3.728   9.812
13906SOL    HW141744   2.711   3.819   9.803
13906SOL    HW241745   2.571   3.736   9.818
13907SOL     OW41746   2.059   4.700  10.574
13907SOL    HW141747   2.148   4.655  10.560
13907SOL    HW241748   1.986   4.635  10.555
13908SOL     OW41749   3.387   4.723   9.500
13908SOL    HW141750   3.324   4.647   9.513
13908SOL    HW241751   3.435   4.741   9.586
13909SOL     OW41752   3.049   5.516  10.926
13909SOL    HW141753   3.073   5.576  10.850
13909SOL    HW241754   3.056   5.421  10.896
13910SOL     OW41755   2.179   3.975  11.111
13910SOL    HW141756   2.250   4.046  11.117
13910SOL    HW241757   2.091   4.014  11.139
13911SOL     OW41758   3.328   5.141  10.263
13911SOL    HW141759   3.269   5.147  10.343
13911SOL    HW241760   3.313   5.053  10.217
13912SOL     OW41761   3.529   5.438   9.882
13912SOL    HW141762   3.488   5.415   9.794
13912SOL    HW241763   3.511   5.364   9.947
13913SOL     OW41764   2.460   4.453   9.580
13913SOL    HW141765   2.484   4.522   9.512
13913SOL    HW241766   2.382   4.486   9.634
13914SOL     OW41767   3.143   4.069  10.254
13914SOL    HW141768   3.057   4.019  10.241
13914SOL    HW241769   3.205   4.015  10.310
13915SOL     OW41770   3.438   5.386   9.617
13915SOL    HW141771   3.527   5.432   9.620
13915SOL    HW241772   3.417   5.362   9.522
13916SOL     OW41773   2.669   4.329  10.775
13916SOL    HW141774   2.622   4.326  10.864
13916SOL    HW241775   2.618   4.274  10.709
13917SOL     OW41776   3.256   4.193  10.984
13917SOL    HW141777   3.236   4.236  11.072
13917SOL    HW241778   3.334   4.131  10.993
13918SOL     OW41779   2.835   4.614  10.882
13918SOL    HW141780   2.881   4.530  10.853
13918SOL    HW241781   2.779   4.648  10.807
13919SOL     OW41782   2.853   4.134  10.552
13919SOL    HW141783   2.776   4.168  10.606
13919SOL    HW241784   2.819   4.083  10.473
13920SOL     OW41785   2.903   4.425   9.739
13920SOL    HW141786   2.929   4.421   9.835
13920SOL    HW241787   2.818   4.374   9.725
13921SOL     OW41788   1.938   4.535  10.099
13921SOL    HW141789   2.037   4.523  10.108
13921SOL    HW241790   1.914   4.630  10.120
13922SOL     OW41791   1.992   5.545  10.881
13922SOL    HW141792   1.982   5.530  10.980
13922SOL    HW241793   1.906   5.581  10.845
13923SOL     OW41794   2.727   4.072   9.505
13923SOL    HW141795   2.786   4.135   9.456
13923SOL    HW241796   2.746   3.978   9.476
13924SOL     OW41797   3.581   4.309  11.141
13924SOL    HW141798   3.555   4.398  11.105
13924SOL    HW241799   3.579   4.241  11.068
13925SOL     OW41800   3.224   4.868   9.855
13925SOL    HW141801   3.307   4.839   9.807
13925SOL    HW241802   3.175   4.935   9.799
13926SOL     OW41803   2.412   3.920  10.195
13926SOL    HW141804   2.407   3.915  10.295
13926SOL    HW241805   2.414   4.016  10.166
13927SOL     OW41806   2.870   5.180   9.787
13927SOL    HW141807   2.824   5.252   9.735
13927SOL    HW241808   2.866   5.200   9.885
13928SOL     OW41809   2.213   5.525  10.163
13928SOL    HW141810   2.263   5.439  10.169
13928SOL    HW241811   2.278   5.602  10.160
13929SOL     OW41812   3.657   4.790  10.183
13929SOL    HW141813   3.595   4.775  10.107
13929SOL    HW241814   3.605   4.801  10.268
13930SOL     OW41815   3.089   5.274  10.816
13930SOL    HW141816   3.095   5.197  10.880
13930SOL    HW241817   3.037   5.248  10.736
13931SOL     OW41818   2.183   4.667   9.552
13931SOL    HW141819   2.265   4.706   9.510
13931SOL    HW241820   2.156   4.585   9.503
13932SOL     OW41821   3.320   4.459  10.038
13932SOL    HW141822   3.315   4.394  10.113
13932SOL    HW241823   3.400   4.518  10.051
13933SOL     OW41824   2.323   4.990  11.037
13933SOL    HW141825   2.273   4.991  10.951
13933SOL    HW241826   2.260   4.972  11.113
13934SOL     OW41827   2.973   5.500   9.547
13934SOL    HW141828   2.913   5.438   9.597
13934SOL    HW241829   3.004   5.456   9.462
13935SOL     OW41830   2.064   4.009  10.808
13935SOL    HW141831   1.984   4.069  10.795
13935SOL    HW241832   2.054   3.960  10.894
13936SOL     OW41833   3.494   5.101   9.391
13936SOL    HW141834   3.462   5.195   9.381
13936SOL    HW241835   3.418   5.038   9.379
13937SOL     OW41836   2.326   5.467   9.633
13937SOL    HW141837   2.359   5.506   9.719
13937SOL    HW241838   2.402   5.460   9.568
13938SOL     OW41839   3.262   3.831   9.736
13938SOL    HW141840   3.238   3.794   9.646
13938SOL    HW241841   3.361   3.847   9.740
13939SOL     OW41842   2.111   5.509  10.551
13939SOL    HW141843   2.168   5.444  10.601
13939SOL    HW241844   2.095   5.476  10.458
13940SOL     OW41845   2.802   5.422  10.214
13940SOL    HW141846   2.882   5.365  10.235
13940SOL    HW241847   2.753   5.382  10.137
13941SOL     OW41848   2.244   4.424   9.790
13941SOL    HW141849   2.289   4.334   9.787
13941SOL    HW241850   2.150   4.413   9.823
13942SOL     OW41851   3.409   3.946  11.039
13942SOL    HW141852   3.404   3.983  11.131
13942SOL    HW241853   3.337   3.877  11.027
13943SOL     OW41854   2.476   3.846   9.427
13943SOL    HW141855   2.574   3.824   9.434
13943SOL    HW241856   2.445   3.829   9.334
13944SOL     OW41857   2.643   3.988  11.059
13944SOL    HW141858   2.710   3.927  11.102
13944SOL    HW241859   2.570   4.007  11.124
13945SOL     OW41860   2.750   5.238  10.505
13945SOL    HW141861   2.727   5.213  10.411
13945SOL    HW241862   2.811   5.169  10.544
13946SOL     OW41863   3.213   4.314  10.743
13946SOL    HW141864   3.241   4.271  10.828
13946SOL    HW241865   3.238   4.410  10.744
13947SOL     OW41866   2.665   5.126  10.234
13947SOL    HW141867   2.755   5.140  10.192
13947SOL    HW241868   2.594   5.128  10.163
13948SOL     OW41869   2.784   4.227  10.209
13948SOL    HW141870   2.759   4.218  10.113
13948SOL    HW241871   2.832   4.145  10.240
13949SOL     OW41872   2.401   3.788   9.822
13949SOL    HW141873   2.320   3.789   9.880
13949SOL    HW241874   2.404   3.871   9.767
13950SOL     OW41875   3.296   4.912   9.351
13950SOL    HW141876   3.328   4.836   9.408
13950SOL    HW241877   3.204   4.939   9.381
13951SOL     OW41878   2.159   3.759   9.481
13951SOL    HW141879   2.208   3.843   9.460
13951SOL    HW241880   2.221   3.694   9.526
13952SOL     OW41881   2.797   3.960   9.790
13952SOL    HW141882   2.749   4.001   9.712
13952SOL    HW241883   2.896   3.958   9.771
13953SOL     OW41884   2.938   4.407  10.774
13953SOL    HW141885   2.858   4.346  10.777
13953SOL    HW241886   3.019   4.354  10.750
13954SOL     OW41887   3.089   5.294  10.103
13954SOL    HW141888   3.110   5.368  10.038
13954SOL    HW241889   3.157   5.294  10.176
13955SOL     OW41890   2.321   4.876  10.051
13955SOL    HW141891   2.250   4.849  10.116
13955SOL    HW241892   2.295   4.848   9.958
13956SOL     OW41893   3.133   5.521   9.901
13956SOL    HW141894   3.177   5.585   9.837
13956SOL    HW241895   3.083   5.573   9.971
13957SOL     OW41896   2.894   4.273   9.326
13957SOL    HW141897   2.853   4.355   9.287
13957SOL    HW241898   2.958   4.299   9.399
13958SOL     OW41899   1.940   4.280  10.696
13958SOL    HW141900   2.032   4.279  10.655
13958SOL    HW241901   1.934   4.354  10.763
13959SOL     OW41902   2.423   3.946  10.457
13959SOL    HW141903   2.461   3.862  10.494
13959SOL    HW241904   2.335   3.965  10.501
13960SOL     OW41905   2.728   4.178   9.952
13960SOL    HW141906   2.696   4.250   9.890
13960SOL    HW241907   2.752   4.097   9.899
13961SOL     OW41908   2.879   3.763  10.063
13961SOL    HW141909   2.807   3.768   9.994
13961SOL    HW241910   2.855   3.694  10.132
13962SOL     OW41911   3.291   4.897  10.177
13962SOL    HW141912   3.236   4.813  10.170
13962SOL    HW241913   3.317   4.926  10.085
13963SOL     OW41914   3.328   4.314  10.302
13963SOL    HW141915   3.298   4.219  10.309
13963SOL    HW241916   3.401   4.330  10.368
13964SOL     OW41917   3.719   4.557   9.687
13964SOL    HW141918   3.761   4.493   9.751
13964SOL    HW241919   3.681   4.506   9.609
13965SOL     OW41920   2.350   5.109   9.484
13965SOL    HW141921   2.263   5.094   9.531
13965SOL    HW241922   2.333   5.135   9.389
13966SOL     OW41923   3.526   5.004   9.967
13966SOL    HW141924   3.625   5.012   9.981
13966SOL    HW241925   3.481   5.088   9.998
13967SOL     OW41926   3.252   4.299   9.388
13967SOL    HW141927   3.198   4.278   9.469
13967SOL    HW241928   3.343   4.258   9.397
13968SOL     OW41929   2.389   3.980   9.638
13968SOL    HW141930   2.416   3.921   9.563
13968SOL    HW241931   2.389   4.075   9.607
13969SOL     OW41932   3.616   4.947  10.898
13969SOL    HW141933   3.707   4.908  10.885
13969SOL    HW241934   3.624   5.043  10.922
13970SOL     OW41935   2.926   5.071  10.650
13970SOL    HW141936   2.846   5.048  10.705
13970SOL    HW241937   3.009   5.045  10.699
13971SOL     OW41938   3.454   5.353  10.935
13971SOL    HW141939   3.481   5.387  10.845
13971SOL    HW241940   3.533   5.315  10.981
13972SOL     OW41941   2.973   4.919  10.410
13972SOL    HW141942   2.933   4.963  10.491
13972SOL    HW241943   2.932   4.956  10.327
13973SOL     OW41944   3.500   4.823  10.389
13973SOL    HW141945   3.505   4.904  10.448
13973SOL    HW241946   3.414   4.825  10.338
13974SOL     OW41947   2.777   3.813  10.712
13974SOL    HW141948   2.802   3.793  10.617
13974SOL    HW241949   2.849   3.869  10.754
13975SOL     OW41950   2.842   4.840  11.029
13975SOL    HW141951   2.743   4.846  11.039
13975SOL    HW241952   2.865   4.760  10.973
13976SOL     OW41953   2.567   4.774   9.678
13976SOL    HW141954   2.553   4.781   9.777
13976SOL    HW241955   2.651   4.723   9.660
13977SOL     OW41956   2.272   4.537  10.561
13977SOL    HW141957   2.358   4.549  10.611
13977SOL    HW241958   2.230   4.450  10.588
13978SOL     OW41959   3.136   4.110  10.572
13978SOL    HW141960   3.157   4.184  10.636
13978SOL    HW241961   3.047   4.127  10.529
13979SOL     OW41962   1.926   5.288  10.641
13979SOL    HW141963   1.880   5.370  10.607
13979SOL    HW241964   2.024   5.307  10.650
13980SOL     OW41965   2.229   4.824   9.811
13980SOL    HW141966   2.222   4.907   9.755
13980SOL    HW241967   2.233   4.744   9.751
13981SOL     OW41968   2.428   4.261  10.175
13981SOL    HW141969   2.440   4.327  10.101
13981SOL    HW241970   2.474   4.295  10.258
13982SOL     OW41971   3.114   5.072   9.698
13982SOL    HW141972   3.164   5.149   9.738
13982SOL    HW241973   3.019   5.074   9.730
13983SOL     OW41974   3.134   5.169  10.452
13983SOL    HW141975   3.181   5.182  10.539
13983SOL    HW241976   3.068   5.095  10.461
13984SOL     OW41977   3.444   4.363   9.782
13984SOL    HW141978   3.413   4.424   9.855
13984SOL    HW241979   3.494   4.415   9.713
13985SOL     OW41980   2.216   5.234  10.639
13985SOL    HW141981   2.195   5.190  10.552
13985SOL    HW241982   2.313   5.260  10.642
13986SOL     OW41983   2.264   4.475  10.908
13986SOL    HW141984   2.332   4.530  10.861
13986SOL    HW241985   2.304   4.387  10.935
13987SOL     OW41986   3.449   4.503  10.980
13987SOL    HW141987   3.357   4.541  10.975
13987SOL    HW241988   3.509   4.550  10.915
13988SOL     OW41989   2.875   3.829  11.080
13988SOL    HW141990   2.881   3.914  11.028
13988SOL    HW241991   2.907   3.753  11.023
13989SOL     OW41992   2.366   3.774  11.050
13989SOL    HW141993   2.324   3.717  10.980
13989SOL    HW241994   2.300   3.843  11.082
13990SOL     OW41995   2.435   4.594  10.339
13990SOL    HW141996   2.479   4.683  10.330
13990SOL    HW241997   2.372   4.594  10.416
13991SOL     OW41998   3.222   4.586  10.355
13991SOL    HW141999   3.147   4.586  10.289
13991SOL    HW242000   3.259   4.494  10.364
13992SOL     OW42001   3.071   4.249   9.585
13992SOL    HW142002   3.084   4.165   9.639
13992SOL    HW242003   3.042   4.323   9.645
13993SOL     OW42004   2.169   3.937  10.541
13993SOL    HW142005   2.146   3.974  10.631
13993SOL    HW242006   2.139   3.842  10.535
13994SOL     OW42007   1.899   5.034  10.592
13994SOL    HW142008   1.952   4.985  10.660
13994SOL    HW242009   1.921   5.132  10.597
13995SOL     OW42010   2.594   4.358  10.374
13995SOL    HW142011   2.653   4.332  10.298
13995SOL    HW242012   2.566   4.454  10.363
13996SOL     OW42013   3.590   4.659  11.164
13996SOL    HW142014   3.544   4.652  11.075
13996SOL    HW242015   3.528   4.703  11.230
13997SOL     OW42016   2.169   3.787   9.928
13997SOL    HW142017   2.158   3.881   9.961
13997SOL    HW242018   2.164   3.724  10.005
13998SOL     OW42019   3.484   4.091   9.684
13998SOL    HW142020   3.486   4.015   9.748
13998SOL    HW242021   3.436   4.168   9.724
13999SOL     OW42022   2.885   4.490  10.276
13999SOL    HW142023   2.900   4.511  10.372
13999SOL    HW242024   2.855   4.395  10.267
14000SOL     OW42025   2.842   5.297  11.010
14000SOL    HW142026   2.822   5.341  10.922
14000SOL    HW242027   2.881   5.206  10.994
14001SOL     OW42028   3.721   5.242  10.915
14001SOL    HW142029   3.735   5.269  10.820
14001SOL    HW242030   3.804   5.264  10.968
14002SOL     OW42031   2.212   4.622  11.114
14002SOL    HW142032   2.288   4.666  11.162
14002SOL    HW242033   2.247   4.575  11.032
14003SOL     OW42034   3.402   3.998   9.435
14003SOL    HW142035   3.341   3.923   9.458
14003SOL    HW242036   3.424   4.050   9.518
14004SOL     OW42037   3.165   4.562   9.352
14004SOL    HW142038   3.199   4.469   9.367
14004SOL    HW242039   3.183   4.589   9.257
14005SOL     OW42040   2.930   5.057  10.159
14005SOL    HW142041   2.937   4.973  10.104
14005SOL    HW242042   2.992   5.126  10.123
14006SOL     OW42043   2.181   4.534  10.259
14006SOL    HW142044   2.274   4.570  10.264
14006SOL    HW242045   2.175   4.449  10.311
14007SOL     OW42046   2.201   4.233  10.316
14007SOL    HW142047   2.149   4.150  10.299
14007SOL    HW242048   2.278   4.238  10.252
14008SOL     OW42049   3.000   4.104  10.988
14008SOL    HW142050   2.955   4.167  11.052
14008SOL    HW242051   3.093   4.135  10.971
14009SOL     OW42052   3.022   3.931  10.787
14009SOL    HW142053   3.022   3.995  10.864
14009SOL    HW242054   3.050   3.979  10.704
14010SOL     OW42055   1.870   5.050   9.510
14010SOL    HW142056   1.777   5.071   9.479
14010SOL    HW242057   1.880   4.951   9.523
14011SOL     OW42058   1.950   5.525  10.237
14011SOL    HW142059   1.908   5.439  10.210
14011SOL    HW242060   2.044   5.528  10.203
14012SOL     OW42061   2.366   5.292  10.220
14012SOL    HW142062   2.432   5.366  10.229
14012SOL    HW242063   2.410   5.213  10.178
14013SOL     OW42064   2.864   4.520  10.548
14013SOL    HW142065   2.905   4.488  10.634
14013SOL    HW242066   2.768   4.493  10.545
14014SOL     OW42067   1.902   4.268  10.424
14014SOL    HW142068   1.987   4.235  10.383
14014SOL    HW242069   1.915   4.283  10.522
14015SOL     OW42070   2.051   4.244  11.032
14015SOL    HW142071   2.110   4.204  10.962
14015SOL    HW242072   1.993   4.315  10.991
14016SOL     OW42073   3.231   4.674  10.970
14016SOL    HW142074   3.270   4.763  10.990
14016SOL    HW242075   3.241   4.654  10.873
14017SOL     OW42076   2.677   4.296   9.635
14017SOL    HW142077   2.684   4.207   9.589
14017SOL    HW242078   2.583   4.330   9.627
14018SOL     OW42079   3.519   4.328  10.516
14018SOL    HW142080   3.481   4.259  10.578
14018SOL    HW242081   3.601   4.292  10.472
14019SOL     OW42082   2.114   5.288  11.054
14019SOL    HW142083   2.084   5.345  11.130
14019SOL    HW242084   2.107   5.191  11.080
14020SOL     OW42085   2.533   4.188  10.579
14020SOL    HW142086   2.499   4.099  10.549
14020SOL    HW242087   2.559   4.242  10.499
14021SOL     OW42088   2.792   5.402  10.775
14021SOL    HW142089   2.768   5.384  10.680
14021SOL    HW242090   2.822   5.496  10.785
14022SOL     OW42091   2.335   4.224   9.501
14022SOL    HW142092   2.396   4.304   9.505
14022SOL    HW242093   2.240   4.255   9.508
14023SOL     OW42094   2.021   4.861  10.776
14023SOL    HW142095   2.043   4.800  10.852
14023SOL    HW242096   2.031   4.812  10.690
14024SOL     OW42097   3.209   4.783  10.544
14024SOL    HW142098   3.233   4.720  10.470
14024SOL    HW242099   3.119   4.823  10.526
14025SOL     OW42100   3.164   4.579   9.619
14025SOL    HW142101   3.078   4.548   9.661
14025SOL    HW242102   3.160   4.565   9.520
14026SOL     OW42103   3.621   5.471  10.464
14026SOL    HW142104   3.682   5.501  10.391
14026SOL    HW242105   3.583   5.382  10.442
14027SOL     OW42106   3.114   5.455  10.438
14027SOL    HW142107   3.198   5.460  10.384
14027SOL    HW242108   3.091   5.359  10.456
14028SOL     OW42109   1.945   4.982  10.332
14028SOL    HW142110   1.940   4.981  10.432
14028SOL    HW242111   1.862   4.941  10.294
14029SOL     OW42112   2.550   5.386  11.026
14029SOL    HW142113   2.494   5.467  11.035
14029SOL    HW242114   2.602   5.390  10.940
14030SOL     OW42115   3.588   3.859   9.833
14030SOL    HW142116   3.661   3.842   9.766
14030SOL    HW242117   3.557   3.772   9.871
14031SOL     OW42118   3.250   5.297   9.787
14031SOL    HW142119   3.317   5.309   9.713
14031SOL    HW242120   3.210   5.386   9.810
14032SOL     OW42121   1.992   5.518  11.161
14032SOL    HW142122   1.951   5.444  11.214
14032SOL    HW242123   2.056   5.569  11.219
14033SOL     OW42124   3.142   4.651   9.982
14033SOL    HW142125   3.202   4.570   9.984
14033SOL    HW242126   3.182   4.720   9.922
14034SOL     OW42127   2.692   4.997  10.732
14034SOL    HW142128   2.687   5.030  10.827
14034SOL    HW242129   2.606   5.016  10.686
14035SOL     OW42130   2.534   5.340   9.464
14035SOL    HW142131   2.543   5.350   9.365
14035SOL    HW242132   2.494   5.251   9.485
14036SOL     OW42133   3.512   5.444  10.704
14036SOL    HW142134   3.565   5.454  10.620
14036SOL    HW242135   3.485   5.534  10.738
14037SOL     OW42136   3.703   3.899  10.273
14037SOL    HW142137   3.742   3.814  10.237
14037SOL    HW242138   3.605   3.901  10.254
14038SOL     OW42139   2.125   4.050  10.030
14038SOL    HW142140   2.046   4.101   9.996
14038SOL    HW242141   2.116   4.035  10.128
14039SOL     OW42142   3.056   5.336   9.341
14039SOL    HW142143   3.062   5.243   9.378
14039SOL    HW242144   2.997   5.336   9.261
14040SOL     OW42145   2.684   4.726  10.682
14040SOL    HW142146   2.724   4.725  10.590
14040SOL    HW242147   2.694   4.818  10.722
14041SOL     OW42148   2.778   4.634   9.601
14041SOL    HW142149   2.841   4.672   9.533
14041SOL    HW242150   2.818   4.551   9.640
14042SOL     OW42151   3.366   5.331   9.354
14042SOL    HW142152   3.274   5.368   9.361
14042SOL    HW242153   3.404   5.351   9.264
14043SOL     OW42154   2.234   5.012  10.800
14043SOL    HW142155   2.221   5.105  10.766
14043SOL    HW242156   2.150   4.960  10.787
14044SOL     OW42157   3.476   5.016  10.599
14044SOL    HW142158   3.536   5.019  10.679
14044SOL    HW242159   3.401   5.080  10.612
14045SOL     OW42160   2.901   4.822  10.006
14045SOL    HW142161   2.831   4.775  10.060
14045SOL    HW242162   2.960   4.754   9.963
14046SOL     OW42163   2.876   3.960  10.281
14046SOL    HW142164   2.868   3.924  10.188
14046SOL    HW242165   2.874   3.884  10.346
14047SOL     OW42166   2.452   5.211   9.801
14047SOL    HW142167   2.494   5.153   9.731
14047SOL    HW242168   2.408   5.290   9.757
14048SOL     OW42169   3.571   4.109  10.691
14048SOL    HW142170   3.644   4.178  10.695
14048SOL    HW242171   3.599   4.034  10.632
14049SOL     OW42172   2.117   5.072   9.600
14049SOL    HW142173   2.021   5.073   9.573
14049SOL    HW242174   2.129   5.125   9.684
14050SOL     OW42175   1.967   4.737  11.036
14050SOL    HW142176   1.890   4.704  11.090
14050SOL    HW242177   2.052   4.707  11.078
14051SOL     OW42178   2.534   3.927  10.799
14051SOL    HW142179   2.624   3.911  10.759
14051SOL    HW242180   2.542   3.932  10.898
14052SOL     OW42181   1.937   4.069   9.343
14052SOL    HW142182   1.845   4.041   9.314
14052SOL    HW242183   1.968   4.146   9.287
14053SOL     OW42184   3.302   4.580  10.708
14053SOL    HW142185   3.245   4.632  10.645
14053SOL    HW242186   3.398   4.592  10.684
14054SOL     OW42187   1.934   3.890   9.628
14054SOL    HW142188   1.917   3.973   9.574
14054SOL    HW242189   2.024   3.853   9.606
14055SOL     OW42190   3.045   5.059   9.429
14055SOL    HW142191   2.946   5.048   9.431
14055SOL    HW242192   3.079   5.074   9.522
14056SOL     OW42193   2.475   4.566  10.741
14056SOL    HW142194   2.531   4.647  10.724
14056SOL    HW242195   2.534   4.486  10.744
14057SOL     OW42196   3.355   5.491  10.269
14057SOL    HW142197   3.388   5.555  10.200
14057SOL    HW242198   3.421   5.485  10.344
14058SOL     OW42199   2.578   4.289  11.018
14058SOL    HW142200   2.597   4.354  11.092
14058SOL    HW242201   2.638   4.209  11.027
14059SOL     OW42202   3.312   4.944  10.943
14059SOL    HW142203   3.303   4.934  11.042
14059SOL    HW242204   3.408   4.937  10.917
14060SOL     OW42205   2.252   5.465  10.870
14060SOL    HW142206   2.161   5.506  10.868
14060SOL    HW242207   2.245   5.371  10.902
14061SOL     OW42208   3.536   4.607  10.564
14061SOL    HW142209   3.509   4.518  10.527
14061SOL    HW242210   3.537   4.675  10.491
14062SOL     OW42211   3.087   4.049   9.759
14062SOL    HW142212   3.152   3.975   9.748
14062SOL    HW242213   3.107   4.099   9.843
14063SOL     OW42214   2.456   4.469   9.962
14063SOL    HW142215   2.506   4.554   9.943
14063SOL    HW242216   2.368   4.471   9.914
14064SOL     OW42217   3.639   4.066  10.952
14064SOL    HW142218   3.622   4.097  10.858
14064SOL    HW242219   3.555   4.029  10.990
14065SOL     OW42220   3.592   4.658  10.827
14065SOL    HW142221   3.630   4.749  10.842
14065SOL    HW242222   3.584   4.641  10.728
14066SOL     OW42223   2.721   5.098   9.326
14066SOL    HW142224   2.675   5.113   9.414
14066SOL    HW242225   2.765   5.183   9.296
14067SOL     OW42226   2.523   5.514  10.263
14067SOL    HW142227   2.477   5.602  10.250
14067SOL    HW242228   2.622   5.526  10.256
14068SOL     OW42229   2.721   4.680  10.171
14068SOL    HW142230   2.775   4.611  10.219
14068SOL    HW242231   2.689   4.749  10.237
14069SOL     OW42232   2.945   4.708   9.397
14069SOL    HW142233   2.922   4.761   9.315
14069SOL    HW242234   3.026   4.652   9.378
14070SOL     OW42235   3.723   5.293  10.161
14070SOL    HW142236   3.652   5.281  10.091
14070SOL    HW242237   3.724   5.214  10.221
14071SOL     OW42238   2.083   5.038  11.154
14071SOL    HW142239   2.018   4.965  11.133
14071SOL    HW242240   2.087   5.052  11.252
14072SOL     OW42241   1.941   4.964   9.963
14072SOL    HW142242   1.940   4.917  10.051
14072SOL    HW242243   2.023   4.936   9.912
14073SOL     OW42244   2.534   5.115  10.934
14073SOL    HW142245   2.456   5.065  10.972
14073SOL    HW242246   2.531   5.210  10.965
14074SOL     OW42247   3.686   3.916  10.537
14074SOL    HW142248   3.682   3.826  10.581
14074SOL    HW242249   3.689   3.905  10.438
14075SOL     OW42250   2.290   4.148   9.830
14075SOL    HW142251   2.320   4.076   9.768
14075SOL    HW242252   2.251   4.108   9.913
14076SOL     OW42253   3.567   5.211  10.414
14076SOL    HW142254   3.474   5.186  10.387
14076SOL    HW242255   3.593   5.161  10.496
14077SOL     OW42256   2.179   4.271  10.590
14077SOL    HW142257   2.217   4.212  10.662
14077SOL    HW242258   2.219   4.245  10.502
14078SOL     OW42259   2.674   5.310   9.997
14078SOL    HW142260   2.706   5.320   9.903
14078SOL    HW242261   2.595   5.248   9.999
14079SOL     OW42262   3.286   3.938  10.422
14079SOL    HW142263   3.338   3.873  10.477
14079SOL    HW242264   3.237   4.001  10.483
14080SOL     OW42265   2.863   3.758  10.464
14080SOL    HW142266   2.800   3.686  10.433
14080SOL    HW242267   2.956   3.722  10.464
14081SOL     OW42268   2.632   5.054   9.611
14081SOL    HW142269   2.586   4.967   9.628
14081SOL    HW242270   2.723   5.051   9.652
14082SOL     OW42271   2.480   5.291  10.594
14082SOL    HW142272   2.475   5.373  10.651
14082SOL    HW242273   2.569   5.288  10.549
14083SOL     OW42274   3.214   3.776   9.478
14083SOL    HW142275   3.249   3.735   9.394
14083SOL    HW242276   3.124   3.738   9.498
14084SOL     OW42277   3.162   4.177  10.001
14084SOL    HW142278   3.103   4.257  10.005
14084SOL    HW242279   3.177   4.142  10.094
14085SOL     OW42280   3.455   3.945  10.192
14085SOL    HW142281   3.371   3.944  10.246
14085SOL    HW242282   3.457   4.028  10.136
14086SOL     OW42283   1.901   4.801   9.610
14086SOL    HW142284   2.000   4.790   9.601
14086SOL    HW242285   1.861   4.715   9.642
14087SOL     OW42286   2.737   5.370   9.647
14087SOL    HW142287   2.660   5.335   9.593
14087SOL    HW242288   2.705   5.441   9.709
14088SOL     OW42289   2.092   4.352  11.285
14088SOL    HW142290   1.999   4.350  11.322
14088SOL    HW242291   2.093   4.313  11.193
14089SOL     OW42292   2.087   3.999  12.168
14089SOL    HW142293   2.122   3.982  12.260
14089SOL    HW242294   1.999   3.954  12.156
14090SOL     OW42295   1.881   4.092  11.819
14090SOL    HW142296   1.799   4.135  11.858
14090SOL    HW242297   1.853   4.019  11.756
14091SOL     OW42298   2.431   4.999  12.337
14091SOL    HW142299   2.338   4.992  12.300
14091SOL    HW242300   2.442   5.088  12.381
14092SOL     OW42301   3.417   5.235  11.875
14092SOL    HW142302   3.360   5.219  11.956
14092SOL    HW242303   3.358   5.245  11.795
14093SOL     OW42304   2.997   4.427  11.889
14093SOL    HW142305   3.054   4.505  11.864
14093SOL    HW242306   2.937   4.453  11.965
14094SOL     OW42307   3.617   4.331  11.403
14094SOL    HW142308   3.605   4.318  11.304
14094SOL    HW242309   3.587   4.250  11.452
14095SOL     OW42310   2.630   4.868  12.195
14095SOL    HW142311   2.552   4.885  12.255
14095SOL    HW242312   2.664   4.955  12.159
14096SOL     OW42313   2.547   4.736  11.837
14096SOL    HW142314   2.616   4.720  11.907
14096SOL    HW242315   2.474   4.793  11.875
14097SOL     OW42316   2.197   5.159  12.233
14097SOL    HW142317   2.119   5.128  12.180
14097SOL    HW242318   2.255   5.217  12.176
14098SOL     OW42319   3.322   5.229  12.511
14098SOL    HW142320   3.346   5.323  12.537
14098SOL    HW242321   3.306   5.175  12.593
14099SOL     OW42322   2.300   4.116  12.671
14099SOL    HW142323   2.382   4.060  12.680
14099SOL    HW242324   2.219   4.058  12.675
14100SOL     OW42325   3.465   4.171  11.909
14100SOL    HW142326   3.391   4.217  11.859
14100SOL    HW242327   3.516   4.239  11.962
14101SOL     OW42328   2.093   5.437  11.655
14101SOL    HW142329   2.127   5.514  11.709
14101SOL    HW242330   2.137   5.437  11.565
14102SOL     OW42331   2.092   5.158  11.710
14102SOL    HW142332   2.066   5.254  11.710
14102SOL    HW242333   2.021   5.104  11.755
14103SOL     OW42334   2.102   4.815  12.058
14103SOL    HW142335   2.116   4.731  12.110
14103SOL    HW242336   2.047   4.879  12.113
14104SOL     OW42337   2.482   5.510  12.611
14104SOL    HW142338   2.390   5.493  12.646
14104SOL    HW242339   2.510   5.602  12.637
14105SOL     OW42340   2.468   4.688  11.295
14105SOL    HW142341   2.475   4.772  11.241
14105SOL    HW242342   2.514   4.701  11.383
14106SOL     OW42343   3.456   3.838  12.652
14106SOL    HW142344   3.438   3.905  12.580
14106SOL    HW242345   3.453   3.884  12.741
14107SOL     OW42346   1.984   4.367  11.735
14107SOL    HW142347   1.939   4.279  11.752
14107SOL    HW242348   1.983   4.421  11.819
14108SOL     OW42349   3.704   5.491  11.531
14108SOL    HW142350   3.758   5.462  11.611
14108SOL    HW242351   3.734   5.581  11.502
14109SOL     OW42352   1.889   5.320  11.289
14109SOL    HW142353   1.870   5.224  11.310
14109SOL    HW242354   1.856   5.378  11.364
14110SOL     OW42355   3.551   4.646  11.784
14110SOL    HW142356   3.646   4.617  11.792
14110SOL    HW242357   3.543   4.711  11.709
14111SOL     OW42358   3.503   4.832  11.604
14111SOL    HW142359   3.589   4.834  11.552
14111SOL    HW242360   3.517   4.879  11.692
14112SOL     OW42361   2.475   5.089  11.898
14112SOL    HW142362   2.426   5.002  11.907
14112SOL    HW242363   2.452   5.132  11.811
14113SOL     OW42364   2.671   3.728  11.674
14113SOL    HW142365   2.711   3.819  11.665
14113SOL    HW242366   2.571   3.736  11.680
14114SOL     OW42367   2.059   4.700  12.436
14114SOL    HW142368   2.148   4.655  12.422
14114SOL    HW242369   1.986   4.635  12.417
14115SOL     OW42370   3.387   4.723  11.362
14115SOL    HW142371   3.324   4.647  11.375
14115SOL    HW242372   3.435   4.741  11.448
14116SOL     OW42373   2.179   3.975  12.973
14116SOL    HW142374   2.250   4.046  12.979
14116SOL    HW242375   2.091   4.014  13.001
14117SOL     OW42376   3.328   5.141  12.125
14117SOL    HW142377   3.269   5.147  12.205
14117SOL    HW242378   3.313   5.053  12.079
14118SOL     OW42379   3.529   5.438  11.744
14118SOL    HW142380   3.488   5.415  11.656
14118SOL    HW242381   3.511   5.364  11.809
14119SOL     OW42382   2.460   4.453  11.442
14119SOL    HW142383   2.484   4.522  11.374
14119SOL    HW242384   2.382   4.486  11.496
14120SOL     OW42385   3.143   4.069  12.116
14120SOL    HW142386   3.057   4.019  12.103
14120SOL    HW242387   3.205   4.015  12.172
14121SOL     OW42388   3.438   5.386  11.479
14121SOL    HW142389   3.527   5.432  11.482
14121SOL    HW242390   3.417   5.362  11.384
14122SOL     OW42391   2.669   4.329  12.637
14122SOL    HW142392   2.622   4.326  12.726
14122SOL    HW242393   2.618   4.274  12.571
14123SOL     OW42394   2.853   4.134  12.414
14123SOL    HW142395   2.776   4.168  12.468
14123SOL    HW242396   2.819   4.083  12.335
14124SOL     OW42397   2.903   4.425  11.601
14124SOL    HW142398   2.929   4.421  11.697
14124SOL    HW242399   2.818   4.374  11.587
14125SOL     OW42400   1.938   4.535  11.961
14125SOL    HW142401   2.037   4.523  11.970
14125SOL    HW242402   1.914   4.630  11.982
14126SOL     OW42403   1.992   5.545  12.743
14126SOL    HW142404   1.982   5.530  12.842
14126SOL    HW242405   1.906   5.581  12.707
14127SOL     OW42406   2.727   4.072  11.367
14127SOL    HW142407   2.786   4.135  11.318
14127SOL    HW242408   2.746   3.978  11.338
14128SOL     OW42409   3.224   4.868  11.717
14128SOL    HW142410   3.307   4.839  11.669
14128SOL    HW242411   3.175   4.935  11.661
14129SOL     OW42412   2.412   3.920  12.057
14129SOL    HW142413   2.407   3.915  12.157
14129SOL    HW242414   2.414   4.016  12.028
14130SOL     OW42415   2.870   5.180  11.649
14130SOL    HW142416   2.824   5.252  11.597
14130SOL    HW242417   2.866   5.200  11.747
14131SOL     OW42418   2.213   5.525  12.025
14131SOL    HW142419   2.263   5.439  12.031
14131SOL    HW242420   2.278   5.602  12.022
14132SOL     OW42421   3.657   4.790  12.045
14132SOL    HW142422   3.595   4.775  11.969
14132SOL    HW242423   3.605   4.801  12.130
14133SOL     OW42424   2.183   4.667  11.414
14133SOL    HW142425   2.265   4.706  11.372
14133SOL    HW242426   2.156   4.585  11.365
14134SOL     OW42427   3.320   4.459  11.900
14134SOL    HW142428   3.315   4.394  11.975
14134SOL    HW242429   3.400   4.518  11.913
14135SOL     OW42430   2.973   5.500  11.409
14135SOL    HW142431   2.913   5.438  11.459
14135SOL    HW242432   3.004   5.456  11.324
14136SOL     OW42433   2.064   4.009  12.670
14136SOL    HW142434   1.984   4.069  12.657
14136SOL    HW242435   2.054   3.960  12.756
14137SOL     OW42436   3.494   5.101  11.253
14137SOL    HW142437   3.462   5.195  11.243
14137SOL    HW242438   3.418   5.038  11.241
14138SOL     OW42439   2.326   5.467  11.495
14138SOL    HW142440   2.359   5.506  11.581
14138SOL    HW242441   2.402   5.460  11.430
14139SOL     OW42442   3.262   3.831  11.598
14139SOL    HW142443   3.238   3.794  11.508
14139SOL    HW242444   3.361   3.847  11.602
14140SOL     OW42445   2.111   5.509  12.413
14140SOL    HW142446   2.168   5.444  12.463
14140SOL    HW242447   2.095   5.476  12.320
14141SOL     OW42448   2.802   5.422  12.076
14141SOL    HW142449   2.882   5.365  12.097
14141SOL    HW242450   2.753   5.382  11.999
14142SOL     OW42451   2.244   4.424  11.652
14142SOL    HW142452   2.289   4.334  11.649
14142SOL    HW242453   2.150   4.413  11.685
14143SOL     OW42454   2.476   3.846  11.289
14143SOL    HW142455   2.574   3.824  11.296
14143SOL    HW242456   2.445   3.829  11.196
14144SOL     OW42457   2.750   5.238  12.367
14144SOL    HW142458   2.727   5.213  12.273
14144SOL    HW242459   2.811   5.169  12.406
14145SOL     OW42460   2.665   5.126  12.096
14145SOL    HW142461   2.755   5.140  12.054
14145SOL    HW242462   2.594   5.128  12.025
14146SOL     OW42463   2.784   4.227  12.071
14146SOL    HW142464   2.759   4.218  11.975
14146SOL    HW242465   2.832   4.145  12.102
14147SOL     OW42466   2.401   3.788  11.684
14147SOL    HW142467   2.320   3.789  11.742
14147SOL    HW242468   2.404   3.871  11.629
14148SOL     OW42469   3.296   4.912  11.213
14148SOL    HW142470   3.328   4.836  11.270
14148SOL    HW242471   3.204   4.939  11.243
14149SOL     OW42472   2.159   3.759  11.343
14149SOL    HW142473   2.208   3.843  11.322
14149SOL    HW242474   2.221   3.694  11.388
14150SOL     OW42475   2.797   3.960  11.652
14150SOL    HW142476   2.749   4.001  11.574
14150SOL    HW242477   2.896   3.958  11.633
14151SOL     OW42478   3.089   5.294  11.965
14151SOL    HW142479   3.110   5.368  11.900
14151SOL    HW242480   3.157   5.294  12.038
14152SOL     OW42481   2.321   4.876  11.913
14152SOL    HW142482   2.250   4.849  11.978
14152SOL    HW242483   2.295   4.848  11.820
14153SOL     OW42484   3.133   5.521  11.763
14153SOL    HW142485   3.177   5.585  11.699
14153SOL    HW242486   3.083   5.573  11.833
14154SOL     OW42487   2.894   4.273  11.188
14154SOL    HW142488   2.853   4.355  11.149
14154SOL    HW242489   2.958   4.299  11.261
14155SOL     OW42490   1.940   4.280  12.558
14155SOL    HW142491   2.032   4.279  12.517
14155SOL    HW242492   1.934   4.354  12.625
14156SOL     OW42493   2.423   3.946  12.319
14156SOL    HW142494   2.461   3.862  12.356
14156SOL    HW242495   2.335   3.965  12.363
14157SOL     OW42496   2.728   4.178  11.814
14157SOL    HW142497   2.696   4.250  11.752
14157SOL    HW242498   2.752   4.097  11.761
14158SOL     OW42499   2.879   3.763  11.925
14158SOL    HW142500   2.807   3.768  11.856
14158SOL    HW242501   2.855   3.694  11.994
14159SOL     OW42502   3.291   4.897  12.039
14159SOL    HW142503   3.236   4.813  12.032
14159SOL    HW242504   3.317   4.926  11.947
14160SOL     OW42505   3.328   4.314  12.164
14160SOL    HW142506   3.298   4.219  12.171
14160SOL    HW242507   3.401   4.330  12.230
14161SOL     OW42508   3.719   4.557  11.549
14161SOL    HW142509   3.761   4.493  11.613
14161SOL    HW242510   3.681   4.506  11.471
14162SOL     OW42511   2.350   5.109  11.346
14162SOL    HW142512   2.263   5.094  11.393
14162SOL    HW242513   2.333   5.135  11.251
14163SOL     OW42514   3.526   5.004  11.829
14163SOL    HW142515   3.625   5.012  11.843
14163SOL    HW242516   3.481   5.088  11.860
14164SOL     OW42517   3.252   4.299  11.250
14164SOL    HW142518   3.198   4.278  11.331
14164SOL    HW242519   3.343   4.258  11.259
14165SOL     OW42520   2.389   3.980  11.500
14165SOL    HW142521   2.416   3.921  11.425
14165SOL    HW242522   2.389   4.075  11.469
14166SOL     OW42523   2.926   5.071  12.512
14166SOL    HW142524   2.846   5.048  12.567
14166SOL    HW242525   3.009   5.045  12.561
14167SOL     OW42526   2.973   4.919  12.272
14167SOL    HW142527   2.933   4.963  12.353
14167SOL    HW242528   2.932   4.956  12.189
14168SOL     OW42529   3.500   4.823  12.251
14168SOL    HW142530   3.505   4.904  12.310
14168SOL    HW242531   3.414   4.825  12.200
14169SOL     OW42532   2.777   3.813  12.574
14169SOL    HW142533   2.802   3.793  12.479
14169SOL    HW242534   2.849   3.869  12.616
14170SOL     OW42535   2.567   4.774  11.540
14170SOL    HW142536   2.553   4.781  11.639
14170SOL    HW242537   2.651   4.723  11.522
14171SOL     OW42538   2.272   4.537  12.423
14171SOL    HW142539   2.358   4.549  12.473
14171SOL    HW242540   2.230   4.450  12.450
14172SOL     OW42541   3.136   4.110  12.434
14172SOL    HW142542   3.157   4.184  12.498
14172SOL    HW242543   3.047   4.127  12.391
14173SOL     OW42544   1.926   5.288  12.503
14173SOL    HW142545   1.880   5.370  12.469
14173SOL    HW242546   2.024   5.307  12.512
14174SOL     OW42547   2.229   4.824  11.673
14174SOL    HW142548   2.222   4.907  11.617
14174SOL    HW242549   2.233   4.744  11.613
14175SOL     OW42550   2.428   4.261  12.037
14175SOL    HW142551   2.440   4.327  11.963
14175SOL    HW242552   2.474   4.295  12.120
14176SOL     OW42553   3.114   5.072  11.560
14176SOL    HW142554   3.164   5.149  11.600
14176SOL    HW242555   3.019   5.074  11.592
14177SOL     OW42556   3.134   5.169  12.314
14177SOL    HW142557   3.181   5.182  12.401
14177SOL    HW242558   3.068   5.095  12.323
14178SOL     OW42559   3.444   4.363  11.644
14178SOL    HW142560   3.413   4.424  11.717
14178SOL    HW242561   3.494   4.415  11.575
14179SOL     OW42562   2.216   5.234  12.501
14179SOL    HW142563   2.195   5.190  12.414
14179SOL    HW242564   2.313   5.260  12.504
14180SOL     OW42565   2.264   4.475  12.770
14180SOL    HW142566   2.332   4.530  12.723
14180SOL    HW242567   2.304   4.387  12.797
14181SOL     OW42568   3.449   4.503  12.842
14181SOL    HW142569   3.357   4.541  12.837
14181SOL    HW242570   3.509   4.550  12.777
14182SOL     OW42571   2.435   4.594  12.201
14182SOL    HW142572   2.479   4.683  12.192
14182SOL    HW242573   2.372   4.594  12.278
14183SOL     OW42574   3.222   4.586  12.217
14183SOL    HW142575   3.147   4.586  12.151
14183SOL    HW242576   3.259   4.494  12.226
14184SOL     OW42577   3.071   4.249  11.447
14184SOL    HW142578   3.084   4.165  11.501
14184SOL    HW242579   3.042   4.323  11.507
14185SOL     OW42580   2.169   3.937  12.403
14185SOL    HW142581   2.146   3.974  12.493
14185SOL    HW242582   2.139   3.842  12.397
14186SOL     OW42583   1.899   5.034  12.454
14186SOL    HW142584   1.952   4.985  12.522
14186SOL    HW242585   1.921   5.132  12.459
14187SOL     OW42586   2.594   4.358  12.236
14187SOL    HW142587   2.653   4.332  12.160
14187SOL    HW242588   2.566   4.454  12.225
14188SOL     OW42589   2.169   3.787  11.790
14188SOL    HW142590   2.158   3.881  11.823
14188SOL    HW242591   2.164   3.724  11.867
14189SOL     OW42592   3.484   4.091  11.546
14189SOL    HW142593   3.486   4.015  11.610
14189SOL    HW242594   3.436   4.168  11.586
14190SOL     OW42595   2.885   4.490  12.138
14190SOL    HW142596   2.900   4.511  12.234
14190SOL    HW242597   2.855   4.395  12.129
14191SOL     OW42598   2.842   5.297  12.872
14191SOL    HW142599   2.822   5.341  12.784
14191SOL    HW242600   2.881   5.206  12.856
14192SOL     OW42601   3.402   3.998  11.297
14192SOL    HW142602   3.341   3.923  11.320
14192SOL    HW242603   3.424   4.050  11.380
14193SOL     OW42604   3.165   4.562  11.214
14193SOL    HW142605   3.199   4.469  11.229
14193SOL    HW242606   3.183   4.589  11.119
14194SOL     OW42607   2.930   5.057  12.021
14194SOL    HW142608   2.937   4.973  11.966
14194SOL    HW242609   2.992   5.126  11.985
14195SOL     OW42610   2.181   4.534  12.121
14195SOL    HW142611   2.274   4.570  12.126
14195SOL    HW242612   2.175   4.449  12.173
14196SOL     OW42613   2.201   4.233  12.178
14196SOL    HW142614   2.149   4.150  12.161
14196SOL    HW242615   2.278   4.238  12.114
14197SOL     OW42616   3.000   4.104  12.850
14197SOL    HW142617   2.955   4.167  12.914
14197SOL    HW242618   3.093   4.135  12.833
14198SOL     OW42619   3.022   3.931  12.649
14198SOL    HW142620   3.022   3.995  12.726
14198SOL    HW242621   3.050   3.979  12.566
14199SOL     OW42622   1.870   5.050  11.372
14199SOL    HW142623   1.777   5.071  11.341
14199SOL    HW242624   1.880   4.951  11.385
14200SOL     OW42625   1.950   5.525  12.099
14200SOL    HW142626   1.908   5.439  12.072
14200SOL    HW242627   2.044   5.528  12.065
14201SOL     OW42628   2.366   5.292  12.082
14201SOL    HW142629   2.432   5.366  12.091
14201SOL    HW242630   2.410   5.213  12.040
14202SOL     OW42631   2.864   4.520  12.410
14202SOL    HW142632   2.905   4.488  12.496
14202SOL    HW242633   2.768   4.493  12.407
14203SOL     OW42634   1.902   4.268  12.286
14203SOL    HW142635   1.987   4.235  12.245
14203SOL    HW242636   1.915   4.283  12.384
14204SOL     OW42637   2.677   4.296  11.497
14204SOL    HW142638   2.684   4.207  11.451
14204SOL    HW242639   2.583   4.330  11.489
14205SOL     OW42640   3.519   4.328  12.378
14205SOL    HW142641   3.481   4.259  12.440
14205SOL    HW242642   3.601   4.292  12.334
14206SOL     OW42643   2.533   4.188  12.441
14206SOL    HW142644   2.499   4.099  12.411
14206SOL    HW242645   2.559   4.242  12.361
14207SOL     OW42646   2.792   5.402  12.637
14207SOL    HW142647   2.768   5.384  12.542
14207SOL    HW242648   2.822   5.496  12.647
14208SOL     OW42649   2.335   4.224  11.363
14208SOL    HW142650   2.396   4.304  11.367
14208SOL    HW242651   2.240   4.255  11.370
14209SOL     OW42652   2.021   4.861  12.638
14209SOL    HW142653   2.043   4.800  12.714
14209SOL    HW242654   2.031   4.812  12.552
14210SOL     OW42655   3.209   4.783  12.406
14210SOL    HW142656   3.233   4.720  12.332
14210SOL    HW242657   3.119   4.823  12.388
14211SOL     OW42658   3.164   4.579  11.481
14211SOL    HW142659   3.078   4.548  11.523
14211SOL    HW242660   3.160   4.565  11.382
14212SOL     OW42661   3.621   5.471  12.326
14212SOL    HW142662   3.682   5.501  12.253
14212SOL    HW242663   3.583   5.382  12.304
14213SOL     OW42664   3.114   5.455  12.300
14213SOL    HW142665   3.198   5.460  12.246
14213SOL    HW242666   3.091   5.359  12.318
14214SOL     OW42667   1.945   4.982  12.194
14214SOL    HW142668   1.940   4.981  12.294
14214SOL    HW242669   1.862   4.941  12.156
14215SOL     OW42670   3.588   3.859  11.695
14215SOL    HW142671   3.661   3.842  11.628
14215SOL    HW242672   3.557   3.772  11.733
14216SOL     OW42673   3.250   5.297  11.649
14216SOL    HW142674   3.317   5.309  11.575
14216SOL    HW242675   3.210   5.386  11.672
14217SOL     OW42676   3.142   4.651  11.844
14217SOL    HW142677   3.202   4.570  11.846
14217SOL    HW242678   3.182   4.720  11.784
14218SOL     OW42679   2.534   5.340  11.326
14218SOL    HW142680   2.543   5.350  11.227
14218SOL    HW242681   2.494   5.251  11.347
14219SOL     OW42682   3.512   5.444  12.566
14219SOL    HW142683   3.565   5.454  12.482
14219SOL    HW242684   3.485   5.534  12.600
14220SOL     OW42685   3.703   3.899  12.135
14220SOL    HW142686   3.742   3.814  12.099
14220SOL    HW242687   3.605   3.901  12.116
14221SOL     OW42688   2.125   4.050  11.892
14221SOL    HW142689   2.046   4.101  11.858
14221SOL    HW242690   2.116   4.035  11.990
14222SOL     OW42691   3.056   5.336  11.203
14222SOL    HW142692   3.062   5.243  11.240
14222SOL    HW242693   2.997   5.336  11.123
14223SOL     OW42694   2.684   4.726  12.544
14223SOL    HW142695   2.724   4.725  12.452
14223SOL    HW242696   2.694   4.818  12.584
14224SOL     OW42697   2.778   4.634  11.463
14224SOL    HW142698   2.841   4.672  11.395
14224SOL    HW242699   2.818   4.551  11.502
14225SOL     OW42700   3.366   5.331  11.216
14225SOL    HW142701   3.274   5.368  11.223
14225SOL    HW242702   3.404   5.351  11.126
14226SOL     OW42703   2.234   5.012  12.662
14226SOL    HW142704   2.221   5.105  12.628
14226SOL    HW242705   2.150   4.960  12.649
14227SOL     OW42706   3.476   5.016  12.461
14227SOL    HW142707   3.536   5.019  12.541
14227SOL    HW242708   3.401   5.080  12.474
14228SOL     OW42709   2.901   4.822  11.868
14228SOL    HW142710   2.831   4.775  11.922
14228SOL    HW242711   2.960   4.754  11.825
14229SOL     OW42712   2.876   3.960  12.143
14229SOL    HW142713   2.868   3.924  12.050
14229SOL    HW242714   2.874   3.884  12.208
14230SOL     OW42715   2.452   5.211  11.663
14230SOL    HW142716   2.494   5.153  11.593
14230SOL    HW242717   2.408   5.290  11.619
14231SOL     OW42718   3.571   4.109  12.553
14231SOL    HW142719   3.644   4.178  12.557
14231SOL    HW242720   3.599   4.034  12.494
14232SOL     OW42721   2.117   5.072  11.462
14232SOL    HW142722   2.021   5.073  11.435
14232SOL    HW242723   2.129   5.125  11.546
14233SOL     OW42724   1.937   4.069  11.205
14233SOL    HW142725   1.845   4.041  11.176
14233SOL    HW242726   1.968   4.146  11.149
14234SOL     OW42727   3.302   4.580  12.570
14234SOL    HW142728   3.245   4.632  12.507
14234SOL    HW242729   3.398   4.592  12.546
14235SOL     OW42730   1.934   3.890  11.490
14235SOL    HW142731   1.917   3.973  11.436
14235SOL    HW242732   2.024   3.853  11.468
14236SOL     OW42733   3.045   5.059  11.291
14236SOL    HW142734   2.946   5.048  11.293
14236SOL    HW242735   3.079   5.074  11.384
14237SOL     OW42736   2.475   4.566  12.603
14237SOL    HW142737   2.531   4.647  12.586
14237SOL    HW242738   2.534   4.486  12.606
14238SOL     OW42739   3.355   5.491  12.131
14238SOL    HW142740   3.388   5.555  12.062
14238SOL    HW242741   3.421   5.485  12.206
14239SOL     OW42742   2.252   5.465  12.732
14239SOL    HW142743   2.161   5.506  12.730
14239SOL    HW242744   2.245   5.371  12.764
14240SOL     OW42745   3.536   4.607  12.426
14240SOL    HW142746   3.509   4.518  12.389
14240SOL    HW242747   3.537   4.675  12.353
14241SOL     OW42748   3.087   4.049  11.621
14241SOL    HW142749   3.152   3.975  11.610
14241SOL    HW242750   3.107   4.099  11.705
14242SOL     OW42751   2.456   4.469  11.824
14242SOL    HW142752   2.506   4.554  11.805
14242SOL    HW242753   2.368   4.471  11.776
14243SOL     OW42754   3.639   4.066  12.814
14243SOL    HW142755   3.622   4.097  12.720
14243SOL    HW242756   3.555   4.029  12.852
14244SOL     OW42757   3.592   4.658  12.689
14244SOL    HW142758   3.630   4.749  12.704
14244SOL    HW242759   3.584   4.641  12.590
14245SOL     OW42760   2.721   5.098  11.188
14245SOL    HW142761   2.675   5.113  11.276
14245SOL    HW242762   2.765   5.183  11.158
14246SOL     OW42763   2.523   5.514  12.125
14246SOL    HW142764   2.477   5.602  12.112
14246SOL    HW242765   2.622   5.526  12.118
14247SOL     OW42766   2.721   4.680  12.033
14247SOL    HW142767   2.775   4.611  12.081
14247SOL    HW242768   2.689   4.749  12.099
14248SOL     OW42769   2.945   4.708  11.259
14248SOL    HW142770   2.922   4.761  11.177
14248SOL    HW242771   3.026   4.652  11.240
14249SOL     OW42772   3.723   5.293  12.023
14249SOL    HW142773   3.652   5.281  11.953
14249SOL    HW242774   3.724   5.214  12.083
14250SOL     OW42775   1.941   4.964  11.825
14250SOL    HW142776   1.940   4.917  11.913
14250SOL    HW242777   2.023   4.936  11.774
14251SOL     OW42778   3.686   3.916  12.399
14251SOL    HW142779   3.682   3.826  12.443
14251SOL    HW242780   3.689   3.905  12.300
14252SOL     OW42781   2.290   4.148  11.692
14252SOL    HW142782   2.320   4.076  11.630
14252SOL    HW242783   2.251   4.108  11.775
14253SOL     OW42784   3.567   5.211  12.276
14253SOL    HW142785   3.474   5.186  12.249
14253SOL    HW242786   3.593   5.161  12.358
14254SOL     OW42787   2.179   4.271  12.452
14254SOL    HW142788   2.217   4.212  12.524
14254SOL    HW242789   2.219   4.245  12.364
14255SOL     OW42790   2.674   5.310  11.859
14255SOL    HW142791   2.706   5.320  11.765
14255SOL    HW242792   2.595   5.248  11.861
14256SOL     OW42793   3.286   3.938  12.284
14256SOL    HW142794   3.338   3.873  12.339
14256SOL    HW242795   3.237   4.001  12.345
14257SOL     OW42796   2.863   3.758  12.326
14257SOL    HW142797   2.800   3.686  12.295
14257SOL    HW242798   2.956   3.722  12.326
14258SOL     OW42799   2.632   5.054  11.473
14258SOL    HW142800   2.586   4.967  11.490
14258SOL    HW242801   2.723   5.051  11.514
14259SOL     OW42802   2.480   5.291  12.456
14259SOL    HW142803   2.475   5.373  12.513
14259SOL    HW242804   2.569   5.288  12.411
14260SOL     OW42805   3.214   3.776  11.340
14260SOL    HW142806   3.249   3.735  11.256
14260SOL    HW242807   3.124   3.738  11.360
14261SOL     OW42808   3.162   4.177  11.863
14261SOL    HW142809   3.103   4.257  11.867
14261SOL    HW242810   3.177   4.142  11.956
14262SOL     OW42811   3.455   3.945  12.054
14262SOL    HW142812   3.371   3.944  12.108
14262SOL    HW242813   3.457   4.028  11.998
14263SOL     OW42814   1.901   4.801  11.472
14263SOL    HW142815   2.000   4.790  11.463
14263SOL    HW242816   1.861   4.715  11.504
14264SOL     OW42817   2.737   5.370  11.509
14264SOL    HW142818   2.660   5.335  11.455
14264SOL    HW242819   2.705   5.441  11.571
14265SOL     OW42820   2.092   6.214   0.113
14265SOL    HW142821   1.999   6.212   0.150
14265SOL    HW242822   2.093   6.175   0.021
14266SOL     OW42823   2.087   5.861   0.996
14266SOL    HW142824   2.122   5.844   1.088
14266SOL    HW242825   1.999   5.816   0.984
14267SOL     OW42826   1.881   5.954   0.647
14267SOL    HW142827   1.799   5.997   0.686
14267SOL    HW242828   1.853   5.881   0.584
14268SOL     OW42829   2.431   6.861   1.165
14268SOL    HW142830   2.338   6.854   1.128
14268SOL    HW242831   2.442   6.950   1.209
14269SOL     OW42832   3.417   7.097   0.703
14269SOL    HW142833   3.360   7.081   0.784
14269SOL    HW242834   3.358   7.107   0.623
14270SOL     OW42835   2.997   6.289   0.717
14270SOL    HW142836   3.054   6.367   0.692
14270SOL    HW242837   2.937   6.315   0.793
14271SOL     OW42838   3.617   6.193   0.231
14271SOL    HW142839   3.605   6.180   0.132
14271SOL    HW242840   3.587   6.112   0.280
14272SOL     OW42841   2.630   6.730   1.023
14272SOL    HW142842   2.552   6.747   1.083
14272SOL    HW242843   2.664   6.817   0.987
14273SOL     OW42844   2.712   6.384   1.823
14273SOL    HW142845   2.708   6.460   1.888
14273SOL    HW242846   2.734   6.420   1.732
14274SOL     OW42847   2.547   6.598   0.665
14274SOL    HW142848   2.616   6.582   0.735
14274SOL    HW242849   2.474   6.655   0.703
14275SOL     OW42850   2.548   6.747   1.803
14275SOL    HW142851   2.608   6.826   1.817
14275SOL    HW242852   2.462   6.778   1.762
14276SOL     OW42853   2.197   7.021   1.061
14276SOL    HW142854   2.119   6.990   1.008
14276SOL    HW242855   2.255   7.079   1.004
14277SOL     OW42856   3.322   7.091   1.339
14277SOL    HW142857   3.346   7.185   1.365
14277SOL    HW242858   3.306   7.037   1.421
14278SOL     OW42859   2.300   5.978   1.499
14278SOL    HW142860   2.382   5.922   1.508
14278SOL    HW242861   2.219   5.920   1.503
14279SOL     OW42862   3.465   6.033   0.737
14279SOL    HW142863   3.391   6.079   0.687
14279SOL    HW242864   3.516   6.101   0.790
14280SOL     OW42865   2.093   7.299   0.483
14280SOL    HW142866   2.127   7.376   0.537
14280SOL    HW242867   2.137   7.299   0.393
14281SOL     OW42868   2.989   6.927   1.690
14281SOL    HW142869   3.036   6.927   1.778
14281SOL    HW242870   2.941   6.840   1.679
14282SOL     OW42871   2.092   7.020   0.538
14282SOL    HW142872   2.066   7.116   0.538
14282SOL    HW242873   2.021   6.966   0.583
14283SOL     OW42874   2.102   6.677   0.886
14283SOL    HW142875   2.116   6.593   0.938
14283SOL    HW242876   2.047   6.741   0.941
14284SOL     OW42877   2.482   7.372   1.439
14284SOL    HW142878   2.390   7.355   1.474
14284SOL    HW242879   2.510   7.464   1.465
14285SOL     OW42880   2.468   6.550   0.123
14285SOL    HW142881   2.475   6.634   0.069
14285SOL    HW242882   2.514   6.563   0.211
14286SOL     OW42883   3.456   5.700   1.480
14286SOL    HW142884   3.438   5.767   1.408
14286SOL    HW242885   3.453   5.746   1.569
14287SOL     OW42886   1.984   6.229   0.563
14287SOL    HW142887   1.939   6.141   0.580
14287SOL    HW242888   1.983   6.283   0.647
14288SOL     OW42889   3.704   7.353   0.359
14288SOL    HW142890   3.758   7.324   0.439
14288SOL    HW242891   3.734   7.443   0.330
14289SOL     OW42892   1.889   7.182   0.117
14289SOL    HW142893   1.870   7.086   0.138
14289SOL    HW242894   1.856   7.240   0.192
14290SOL     OW42895   3.551   6.508   0.612
14290SOL    HW142896   3.646   6.479   0.620
14290SOL    HW242897   3.543   6.573   0.537
14291SOL     OW42898   3.503   6.694   0.432
14291SOL    HW142899   3.589   6.696   0.380
14291SOL    HW242900   3.517   6.741   0.520
14292SOL     OW42901   1.975   6.323   1.597
14292SOL    HW142902   2.063   6.310   1.642
14292SOL    HW242903   1.962   6.420   1.575
14293SOL     OW42904   2.475   6.951   0.726
14293SOL    HW142905   2.426   6.864   0.735
14293SOL    HW242906   2.452   6.994   0.639
14294SOL     OW42907   3.155   6.814   1.423
14294SOL    HW142908   3.192   6.741   1.365
14294SOL    HW242909   3.207   6.819   1.508
14295SOL     OW42910   2.671   5.590   0.502
14295SOL    HW142911   2.711   5.681   0.493
14295SOL    HW242912   2.571   5.598   0.508
14296SOL     OW42913   2.059   6.562   1.264
14296SOL    HW142914   2.148   6.517   1.250
14296SOL    HW242915   1.986   6.497   1.245
14297SOL     OW42916   3.387   6.585   0.190
14297SOL    HW142917   3.324   6.509   0.203
14297SOL    HW242918   3.435   6.603   0.276
14298SOL     OW42919   3.049   7.378   1.616
14298SOL    HW142920   3.073   7.438   1.540
14298SOL    HW242921   3.056   7.283   1.586
14299SOL     OW42922   2.179   5.837   1.801
14299SOL    HW142923   2.250   5.908   1.807
14299SOL    HW242924   2.091   5.876   1.829
14300SOL     OW42925   3.328   7.003   0.953
14300SOL    HW142926   3.269   7.009   1.033
14300SOL    HW242927   3.313   6.915   0.907
14301SOL     OW42928   3.529   7.300   0.572
14301SOL    HW142929   3.488   7.277   0.484
14301SOL    HW242930   3.511   7.226   0.637
14302SOL     OW42931   2.460   6.315   0.270
14302SOL    HW142932   2.484   6.384   0.202
14302SOL    HW242933   2.382   6.348   0.324
14303SOL     OW42934   3.143   5.931   0.944
14303SOL    HW142935   3.057   5.881   0.931
14303SOL    HW242936   3.205   5.877   1.000
14304SOL     OW42937   3.438   7.248   0.307
14304SOL    HW142938   3.527   7.294   0.310
14304SOL    HW242939   3.417   7.224   0.212
14305SOL     OW42940   2.669   6.191   1.465
14305SOL    HW142941   2.622   6.188   1.554
14305SOL    HW242942   2.618   6.136   1.399
14306SOL     OW42943   3.256   6.055   1.674
14306SOL    HW142944   3.236   6.098   1.762
14306SOL    HW242945   3.334   5.993   1.683
14307SOL     OW42946   2.835   6.476   1.572
14307SOL    HW142947   2.881   6.392   1.543
14307SOL    HW242948   2.779   6.510   1.497
14308SOL     OW42949   2.853   5.996   1.242
14308SOL    HW142950   2.776   6.030   1.296
14308SOL    HW242951   2.819   5.945   1.163
14309SOL     OW42952   2.903   6.287   0.429
14309SOL    HW142953   2.929   6.283   0.525
14309SOL    HW242954   2.818   6.236   0.415
14310SOL     OW42955   1.938   6.397   0.789
14310SOL    HW142956   2.037   6.385   0.798
14310SOL    HW242957   1.914   6.492   0.810
14311SOL     OW42958   1.992   7.407   1.571
14311SOL    HW142959   1.982   7.392   1.670
14311SOL    HW242960   1.906   7.443   1.535
14312SOL     OW42961   2.727   5.934   0.195
14312SOL    HW142962   2.786   5.997   0.146
14312SOL    HW242963   2.746   5.840   0.166
14313SOL     OW42964   3.581   6.171   1.831
14313SOL    HW142965   3.555   6.260   1.795
14313SOL    HW242966   3.579   6.103   1.758
14314SOL     OW42967   3.224   6.730   0.545
14314SOL    HW142968   3.307   6.701   0.497
14314SOL    HW242969   3.175   6.797   0.489
14315SOL     OW42970   2.412   5.782   0.885
14315SOL    HW142971   2.407   5.777   0.985
14315SOL    HW242972   2.414   5.878   0.856
14316SOL     OW42973   2.870   7.042   0.477
14316SOL    HW142974   2.824   7.114   0.425
14316SOL    HW242975   2.866   7.062   0.575
14317SOL     OW42976   2.213   7.387   0.853
14317SOL    HW142977   2.263   7.301   0.859
14317SOL    HW242978   2.278   7.464   0.850
14318SOL     OW42979   3.657   6.652   0.873
14318SOL    HW142980   3.595   6.637   0.797
14318SOL    HW242981   3.605   6.663   0.958
14319SOL     OW42982   3.089   7.136   1.506
14319SOL    HW142983   3.095   7.059   1.570
14319SOL    HW242984   3.037   7.110   1.426
14320SOL     OW42985   2.183   6.529   0.242
14320SOL    HW142986   2.265   6.568   0.200
14320SOL    HW242987   2.156   6.447   0.193
14321SOL     OW42988   3.320   6.321   0.728
14321SOL    HW142989   3.315   6.256   0.803
14321SOL    HW242990   3.400   6.380   0.741
14322SOL     OW42991   2.323   6.852   1.727
14322SOL    HW142992   2.273   6.853   1.641
14322SOL    HW242993   2.260   6.834   1.803
14323SOL     OW42994   2.973   7.362   0.237
14323SOL    HW142995   2.913   7.300   0.287
14323SOL    HW242996   3.004   7.318   0.152
14324SOL     OW42997   2.064   5.871   1.498
14324SOL    HW142998   1.984   5.931   1.485
14324SOL    HW242999   2.054   5.822   1.584
14325SOL     OW43000   3.494   6.963   0.081
14325SOL    HW143001   3.462   7.057   0.071
14325SOL    HW243002   3.418   6.900   0.069
14326SOL     OW43003   2.326   7.329   0.323
14326SOL    HW143004   2.359   7.368   0.409
14326SOL    HW243005   2.402   7.322   0.258
14327SOL     OW43006   3.262   5.693   0.426
14327SOL    HW143007   3.238   5.656   0.336
14327SOL    HW243008   3.361   5.709   0.430
14328SOL     OW43009   2.111   7.371   1.241
14328SOL    HW143010   2.168   7.306   1.291
14328SOL    HW243011   2.095   7.338   1.148
14329SOL     OW43012   2.802   7.284   0.904
14329SOL    HW143013   2.882   7.227   0.925
14329SOL    HW243014   2.753   7.244   0.827
14330SOL     OW43015   2.244   6.286   0.480
14330SOL    HW143016   2.289   6.196   0.477
14330SOL    HW243017   2.150   6.275   0.513
14331SOL     OW43018   3.409   5.808   1.729
14331SOL    HW143019   3.404   5.845   1.821
14331SOL    HW243020   3.337   5.739   1.717
14332SOL     OW43021   2.476   5.708   0.117
14332SOL    HW143022   2.574   5.686   0.124
14332SOL    HW243023   2.445   5.691   0.024
14333SOL     OW43024   2.643   5.850   1.749
14333SOL    HW143025   2.710   5.789   1.792
14333SOL    HW243026   2.570   5.869   1.814
14334SOL     OW43027   2.750   7.100   1.195
14334SOL    HW143028   2.727   7.075   1.101
14334SOL    HW243029   2.811   7.031   1.234
14335SOL     OW43030   3.213   6.176   1.433
14335SOL    HW143031   3.241   6.133   1.518
14335SOL    HW243032   3.238   6.272   1.434
14336SOL     OW43033   2.665   6.988   0.924
14336SOL    HW143034   2.755   7.002   0.882
14336SOL    HW243035   2.594   6.990   0.853
14337SOL     OW43036   2.784   6.089   0.899
14337SOL    HW143037   2.759   6.080   0.803
14337SOL    HW243038   2.832   6.007   0.930
14338SOL     OW43039   2.401   5.650   0.512
14338SOL    HW143040   2.320   5.651   0.570
14338SOL    HW243041   2.404   5.733   0.457
14339SOL     OW43042   3.296   6.774   0.041
14339SOL    HW143043   3.328   6.698   0.098
14339SOL    HW243044   3.204   6.801   0.071
14340SOL     OW43045   2.159   5.621   0.171
14340SOL    HW143046   2.208   5.705   0.150
14340SOL    HW243047   2.221   5.556   0.216
14341SOL     OW43048   2.797   5.822   0.480
14341SOL    HW143049   2.749   5.863   0.402
14341SOL    HW243050   2.896   5.820   0.461
14342SOL     OW43051   2.938   6.269   1.464
14342SOL    HW143052   2.858   6.208   1.467
14342SOL    HW243053   3.019   6.216   1.440
14343SOL     OW43054   3.089   7.156   0.793
14343SOL    HW143055   3.110   7.230   0.728
14343SOL    HW243056   3.157   7.156   0.866
14344SOL     OW43057   2.321   6.738   0.741
14344SOL    HW143058   2.250   6.711   0.806
14344SOL    HW243059   2.295   6.710   0.648
14345SOL     OW43060   3.133   7.383   0.591
14345SOL    HW143061   3.177   7.447   0.527
14345SOL    HW243062   3.083   7.435   0.661
14346SOL     OW43063   2.894   6.135   0.016
14346SOL    HW143064   2.853   6.217  -0.023
14346SOL    HW243065   2.958   6.161   0.089
14347SOL     OW43066   1.940   6.142   1.386
14347SOL    HW143067   2.032   6.141   1.345
14347SOL    HW243068   1.934   6.216   1.453
14348SOL     OW43069   2.423   5.808   1.147
14348SOL    HW143070   2.461   5.724   1.184
14348SOL    HW243071   2.335   5.827   1.191
14349SOL     OW43072   2.728   6.040   0.642
14349SOL    HW143073   2.696   6.112   0.580
14349SOL    HW243074   2.752   5.959   0.589
14350SOL     OW43075   2.879   5.625   0.753
14350SOL    HW143076   2.807   5.630   0.684
14350SOL    HW243077   2.855   5.556   0.822
14351SOL     OW43078   3.291   6.759   0.867
14351SOL    HW143079   3.236   6.675   0.860
14351SOL    HW243080   3.317   6.788   0.775
14352SOL     OW43081   3.328   6.176   0.992
14352SOL    HW143082   3.298   6.081   0.999
14352SOL    HW243083   3.401   6.192   1.058
14353SOL     OW43084   3.719   6.419   0.377
14353SOL    HW143085   3.761   6.355   0.441
14353SOL    HW243086   3.681   6.368   0.299
14354SOL     OW43087   2.350   6.971   0.174
14354SOL    HW143088   2.263   6.956   0.221
14354SOL    HW243089   2.333   6.997   0.079
14355SOL     OW43090   3.526   6.866   0.657
14355SOL    HW143091   3.625   6.874   0.671
14355SOL    HW243092   3.481   6.950   0.688
14356SOL     OW43093   3.252   6.161   0.078
14356SOL    HW143094   3.198   6.140   0.159
14356SOL    HW243095   3.343   6.120   0.087
14357SOL     OW43096   2.389   5.842   0.328
14357SOL    HW143097   2.416   5.783   0.253
14357SOL    HW243098   2.389   5.937   0.297
14358SOL     OW43099   3.616   6.809   1.588
14358SOL    HW143100   3.707   6.770   1.575
14358SOL    HW243101   3.624   6.905   1.612
14359SOL     OW43102   2.926   6.933   1.340
14359SOL    HW143103   2.846   6.910   1.395
14359SOL    HW243104   3.009   6.907   1.389
14360SOL     OW43105   3.454   7.215   1.625
14360SOL    HW143106   3.481   7.249   1.535
14360SOL    HW243107   3.533   7.177   1.671
14361SOL     OW43108   2.973   6.781   1.100
14361SOL    HW143109   2.933   6.825   1.181
14361SOL    HW243110   2.932   6.818   1.017
14362SOL     OW43111   3.500   6.685   1.079
14362SOL    HW143112   3.505   6.766   1.138
14362SOL    HW243113   3.414   6.687   1.028
14363SOL     OW43114   2.777   5.675   1.402
14363SOL    HW143115   2.802   5.655   1.307
14363SOL    HW243116   2.849   5.731   1.444
14364SOL     OW43117   2.842   6.702   1.719
14364SOL    HW143118   2.743   6.708   1.729
14364SOL    HW243119   2.865   6.622   1.663
14365SOL     OW43120   2.567   6.636   0.368
14365SOL    HW143121   2.553   6.643   0.467
14365SOL    HW243122   2.651   6.585   0.350
14366SOL     OW43123   2.272   6.399   1.251
14366SOL    HW143124   2.358   6.411   1.301
14366SOL    HW243125   2.230   6.312   1.278
14367SOL     OW43126   3.136   5.972   1.262
14367SOL    HW143127   3.157   6.046   1.326
14367SOL    HW243128   3.047   5.989   1.219
14368SOL     OW43129   1.926   7.150   1.331
14368SOL    HW143130   1.880   7.232   1.297
14368SOL    HW243131   2.024   7.169   1.340
14369SOL     OW43132   2.229   6.686   0.501
14369SOL    HW143133   2.222   6.769   0.445
14369SOL    HW243134   2.233   6.606   0.441
14370SOL     OW43135   2.428   6.123   0.865
14370SOL    HW143136   2.440   6.189   0.791
14370SOL    HW243137   2.474   6.157   0.948
14371SOL     OW43138   3.114   6.934   0.388
14371SOL    HW143139   3.164   7.011   0.428
14371SOL    HW243140   3.019   6.936   0.420
14372SOL     OW43141   3.134   7.031   1.142
14372SOL    HW143142   3.181   7.044   1.229
14372SOL    HW243143   3.068   6.957   1.151
14373SOL     OW43144   3.444   6.225   0.472
14373SOL    HW143145   3.413   6.286   0.545
14373SOL    HW243146   3.494   6.277   0.403
14374SOL     OW43147   2.216   7.096   1.329
14374SOL    HW143148   2.195   7.052   1.242
14374SOL    HW243149   2.313   7.122   1.332
14375SOL     OW43150   2.264   6.337   1.598
14375SOL    HW143151   2.332   6.392   1.551
14375SOL    HW243152   2.304   6.249   1.625
14376SOL     OW43153   3.449   6.365   1.670
14376SOL    HW143154   3.357   6.403   1.665
14376SOL    HW243155   3.509   6.412   1.605
14377SOL     OW43156   2.875   5.691   1.770
14377SOL    HW143157   2.881   5.776   1.718
14377SOL    HW243158   2.907   5.615   1.713
14378SOL     OW43159   2.366   5.636   1.740
14378SOL    HW143160   2.324   5.579   1.670
14378SOL    HW243161   2.300   5.705   1.772
14379SOL     OW43162   2.435   6.456   1.029
14379SOL    HW143163   2.479   6.545   1.020
14379SOL    HW243164   2.372   6.456   1.106
14380SOL     OW43165   3.222   6.448   1.045
14380SOL    HW143166   3.147   6.448   0.979
14380SOL    HW243167   3.259   6.356   1.054
14381SOL     OW43168   3.071   6.111   0.275
14381SOL    HW143169   3.084   6.027   0.329
14381SOL    HW243170   3.042   6.185   0.335
14382SOL     OW43171   2.169   5.799   1.231
14382SOL    HW143172   2.146   5.836   1.321
14382SOL    HW243173   2.139   5.704   1.225
14383SOL     OW43174   1.899   6.896   1.282
14383SOL    HW143175   1.952   6.847   1.350
14383SOL    HW243176   1.921   6.994   1.287
14384SOL     OW43177   2.594   6.220   1.064
14384SOL    HW143178   2.653   6.194   0.988
14384SOL    HW243179   2.566   6.316   1.053
14385SOL     OW43180   3.590   6.521   1.854
14385SOL    HW143181   3.544   6.514   1.765
14385SOL    HW243182   3.528   6.565   1.920
14386SOL     OW43183   2.169   5.649   0.618
14386SOL    HW143184   2.158   5.743   0.651
14386SOL    HW243185   2.164   5.586   0.695
14387SOL     OW43186   3.484   5.953   0.374
14387SOL    HW143187   3.486   5.877   0.438
14387SOL    HW243188   3.436   6.030   0.414
14388SOL     OW43189   2.885   6.352   0.966
14388SOL    HW143190   2.900   6.373   1.062
14388SOL    HW243191   2.855   6.257   0.957
14389SOL     OW43192   2.842   7.159   1.700
14389SOL    HW143193   2.822   7.203   1.612
14389SOL    HW243194   2.881   7.068   1.684
14390SOL     OW43195   3.721   7.104   1.605
14390SOL    HW143196   3.735   7.131   1.510
14390SOL    HW243197   3.804   7.126   1.658
14391SOL     OW43198   2.212   6.484   1.804
14391SOL    HW143199   2.288   6.528   1.852
14391SOL    HW243200   2.247   6.437   1.722
14392SOL     OW43201   3.402   5.860   0.125
14392SOL    HW143202   3.341   5.785   0.148
14392SOL    HW243203   3.424   5.912   0.208
14393SOL     OW43204   3.165   6.424   0.042
14393SOL    HW143205   3.199   6.331   0.057
14393SOL    HW243206   3.183   6.451  -0.053
14394SOL     OW43207   2.930   6.919   0.849
14394SOL    HW143208   2.937   6.835   0.794
14394SOL    HW243209   2.992   6.988   0.813
14395SOL     OW43210   2.181   6.396   0.949
14395SOL    HW143211   2.274   6.432   0.954
14395SOL    HW243212   2.175   6.311   1.001
14396SOL     OW43213   2.201   6.095   1.006
14396SOL    HW143214   2.149   6.012   0.989
14396SOL    HW243215   2.278   6.100   0.942
14397SOL     OW43216   3.000   5.966   1.678
14397SOL    HW143217   2.955   6.029   1.742
14397SOL    HW243218   3.093   5.997   1.661
14398SOL     OW43219   3.022   5.793   1.477
14398SOL    HW143220   3.022   5.857   1.554
14398SOL    HW243221   3.050   5.841   1.394
14399SOL     OW43222   1.870   6.912   0.200
14399SOL    HW143223   1.777   6.933   0.169
14399SOL    HW243224   1.880   6.813   0.213
14400SOL     OW43225   1.950   7.387   0.927
14400SOL    HW143226   1.908   7.301   0.900
14400SOL    HW243227   2.044   7.390   0.893
14401SOL     OW43228   2.366   7.154   0.910
14401SOL    HW143229   2.432   7.228   0.919
14401SOL    HW243230   2.410   7.075   0.868
14402SOL     OW43231   2.864   6.382   1.238
14402SOL    HW143232   2.905   6.350   1.324
14402SOL    HW243233   2.768   6.355   1.235
14403SOL     OW43234   1.902   6.130   1.114
14403SOL    HW143235   1.987   6.097   1.073
14403SOL    HW243236   1.915   6.145   1.212
14404SOL     OW43237   2.051   6.106   1.722
14404SOL    HW143238   2.110   6.066   1.652
14404SOL    HW243239   1.993   6.177   1.681
14405SOL     OW43240   3.231   6.536   1.660
14405SOL    HW143241   3.270   6.625   1.680
14405SOL    HW243242   3.241   6.516   1.563
14406SOL     OW43243   2.677   6.158   0.325
14406SOL    HW143244   2.684   6.069   0.279
14406SOL    HW243245   2.583   6.192   0.317
14407SOL     OW43246   3.519   6.190   1.206
14407SOL    HW143247   3.481   6.121   1.268
14407SOL    HW243248   3.601   6.154   1.162
14408SOL     OW43249   2.114   7.150   1.744
14408SOL    HW143250   2.084   7.207   1.820
14408SOL    HW243251   2.107   7.053   1.770
14409SOL     OW43252   2.533   6.050   1.269
14409SOL    HW143253   2.499   5.961   1.239
14409SOL    HW243254   2.559   6.104   1.189
14410SOL     OW43255   2.792   7.264   1.465
14410SOL    HW143256   2.768   7.246   1.370
14410SOL    HW243257   2.822   7.358   1.475
14411SOL     OW43258   2.335   6.086   0.191
14411SOL    HW143259   2.396   6.166   0.195
14411SOL    HW243260   2.240   6.117   0.198
14412SOL     OW43261   2.021   6.723   1.466
14412SOL    HW143262   2.043   6.662   1.542
14412SOL    HW243263   2.031   6.674   1.380
14413SOL     OW43264   3.209   6.645   1.234
14413SOL    HW143265   3.233   6.582   1.160
14413SOL    HW243266   3.119   6.685   1.216
14414SOL     OW43267   3.164   6.441   0.309
14414SOL    HW143268   3.078   6.410   0.351
14414SOL    HW243269   3.160   6.427   0.210
14415SOL     OW43270   3.621   7.333   1.154
14415SOL    HW143271   3.682   7.363   1.081
14415SOL    HW243272   3.583   7.244   1.132
14416SOL     OW43273   3.114   7.317   1.128
14416SOL    HW143274   3.198   7.322   1.074
14416SOL    HW243275   3.091   7.221   1.146
14417SOL     OW43276   1.945   6.844   1.022
14417SOL    HW143277   1.940   6.843   1.122
14417SOL    HW243278   1.862   6.803   0.984
14418SOL     OW43279   2.550   7.248   1.716
14418SOL    HW143280   2.494   7.329   1.725
14418SOL    HW243281   2.602   7.252   1.630
14419SOL     OW43282   2.765   5.672   0.133
14419SOL    HW143283   2.816   5.673   0.047
14419SOL    HW243284   2.821   5.630   0.204
14420SOL     OW43285   3.588   5.721   0.523
14420SOL    HW143286   3.661   5.704   0.456
14420SOL    HW243287   3.557   5.634   0.561
14421SOL     OW43288   3.250   7.159   0.477
14421SOL    HW143289   3.317   7.171   0.403
14421SOL    HW243290   3.210   7.248   0.500
14422SOL     OW43291   1.992   7.380   1.851
14422SOL    HW143292   1.951   7.306   1.904
14422SOL    HW243293   2.056   7.431   1.909
14423SOL     OW43294   3.142   6.513   0.672
14423SOL    HW143295   3.202   6.432   0.674
14423SOL    HW243296   3.182   6.582   0.612
14424SOL     OW43297   2.692   6.859   1.422
14424SOL    HW143298   2.687   6.892   1.517
14424SOL    HW243299   2.606   6.878   1.376
14425SOL     OW43300   2.534   7.202   0.154
14425SOL    HW143301   2.543   7.212   0.055
14425SOL    HW243302   2.494   7.113   0.175
14426SOL     OW43303   3.512   7.306   1.394
14426SOL    HW143304   3.565   7.316   1.310
14426SOL    HW243305   3.485   7.396   1.428
14427SOL     OW43306   3.703   5.761   0.963
14427SOL    HW143307   3.742   5.676   0.927
14427SOL    HW243308   3.605   5.763   0.944
14428SOL     OW43309   2.125   5.912   0.720
14428SOL    HW143310   2.046   5.963   0.686
14428SOL    HW243311   2.116   5.897   0.818
14429SOL     OW43312   3.056   7.198   0.031
14429SOL    HW143313   3.062   7.105   0.068
14429SOL    HW243314   2.997   7.198  -0.049
14430SOL     OW43315   2.684   6.588   1.372
14430SOL    HW143316   2.724   6.587   1.280
14430SOL    HW243317   2.694   6.680   1.412
14431SOL     OW43318   2.778   6.496   0.291
14431SOL    HW143319   2.841   6.534   0.223
14431SOL    HW243320   2.818   6.413   0.330
14432SOL     OW43321   3.366   7.193   0.044
14432SOL    HW143322   3.274   7.230   0.051
14432SOL    HW243323   3.404   7.213  -0.046
14433SOL     OW43324   2.234   6.874   1.490
14433SOL    HW143325   2.221   6.967   1.456
14433SOL    HW243326   2.150   6.822   1.477
14434SOL     OW43327   3.476   6.878   1.289
14434SOL    HW143328   3.536   6.881   1.369
14434SOL    HW243329   3.401   6.942   1.302
14435SOL     OW43330   2.901   6.684   0.696
14435SOL    HW143331   2.831   6.637   0.750
14435SOL    HW243332   2.960   6.616   0.653
14436SOL     OW43333   2.876   5.822   0.971
14436SOL    HW143334   2.868   5.786   0.878
14436SOL    HW243335   2.874   5.746   1.036
14437SOL     OW43336   2.452   7.073   0.491
14437SOL    HW143337   2.494   7.015   0.421
14437SOL    HW243338   2.408   7.152   0.447
14438SOL     OW43339   3.571   5.971   1.381
14438SOL    HW143340   3.644   6.040   1.385
14438SOL    HW243341   3.599   5.896   1.322
14439SOL     OW43342   2.117   6.934   0.290
14439SOL    HW143343   2.021   6.935   0.263
14439SOL    HW243344   2.129   6.987   0.374
14440SOL     OW43345   1.967   6.599   1.726
14440SOL    HW143346   1.890   6.566   1.780
14440SOL    HW243347   2.052   6.569   1.768
14441SOL     OW43348   2.534   5.789   1.489
14441SOL    HW143349   2.624   5.773   1.449
14441SOL    HW243350   2.542   5.794   1.588
14442SOL     OW43351   1.937   5.931   0.033
14442SOL    HW143352   1.845   5.903   0.004
14442SOL    HW243353   1.968   6.008  -0.023
14443SOL     OW43354   3.302   6.442   1.398
14443SOL    HW143355   3.245   6.494   1.335
14443SOL    HW243356   3.398   6.454   1.374
14444SOL     OW43357   1.934   5.752   0.318
14444SOL    HW143358   1.917   5.835   0.264
14444SOL    HW243359   2.024   5.715   0.296
14445SOL     OW43360   3.045   6.921   0.119
14445SOL    HW143361   2.946   6.910   0.121
14445SOL    HW243362   3.079   6.936   0.212
14446SOL     OW43363   2.475   6.428   1.431
14446SOL    HW143364   2.531   6.509   1.414
14446SOL    HW243365   2.534   6.348   1.434
14447SOL     OW43366   3.355   7.353   0.959
14447SOL    HW143367   3.388   7.417   0.890
14447SOL    HW243368   3.421   7.347   1.034
14448SOL     OW43369   2.578   6.151   1.708
14448SOL    HW143370   2.597   6.216   1.782
14448SOL    HW243371   2.638   6.071   1.717
14449SOL     OW43372   3.312   6.806   1.633
14449SOL    HW143373   3.303   6.796   1.732
14449SOL    HW243374   3.408   6.799   1.607
14450SOL     OW43375   2.252   7.327   1.560
14450SOL    HW143376   2.161   7.368   1.558
14450SOL    HW243377   2.245   7.233   1.592
14451SOL     OW43378   3.536   6.469   1.254
14451SOL    HW143379   3.509   6.380   1.217
14451SOL    HW243380   3.537   6.537   1.181
14452SOL     OW43381   3.087   5.911   0.449
14452SOL    HW143382   3.152   5.837   0.438
14452SOL    HW243383   3.107   5.961   0.533
14453SOL     OW43384   2.456   6.331   0.652
14453SOL    HW143385   2.506   6.416   0.633
14453SOL    HW243386   2.368   6.333   0.604
14454SOL     OW43387   3.639   5.928   1.642
14454SOL    HW143388   3.622   5.959   1.548
14454SOL    HW243389   3.555   5.891   1.680
14455SOL     OW43390   3.592   6.520   1.517
14455SOL    HW143391   3.630   6.611   1.532
14455SOL    HW243392   3.584   6.503   1.418
14456SOL     OW43393   2.721   6.960   0.016
14456SOL    HW143394   2.675   6.975   0.104
14456SOL    HW243395   2.765   7.045  -0.014
14457SOL     OW43396   2.523   7.376   0.953
14457SOL    HW143397   2.477   7.464   0.940
14457SOL    HW243398   2.622   7.388   0.946
14458SOL     OW43399   2.721   6.542   0.861
14458SOL    HW143400   2.775   6.473   0.909
14458SOL    HW243401   2.689   6.611   0.927
14459SOL     OW43402   2.945   6.570   0.087
14459SOL    HW143403   2.922   6.623   0.005
14459SOL    HW243404   3.026   6.514   0.068
14460SOL     OW43405   3.723   7.155   0.851
14460SOL    HW143406   3.652   7.143   0.781
14460SOL    HW243407   3.724   7.076   0.911
14461SOL     OW43408   2.083   6.900   1.844
14461SOL    HW143409   2.018   6.827   1.823
14461SOL    HW243410   2.087   6.914   1.942
14462SOL     OW43411   1.941   6.826   0.653
14462SOL    HW143412   1.940   6.779   0.741
14462SOL    HW243413   2.023   6.798   0.602
14463SOL     OW43414   2.534   6.977   1.624
14463SOL    HW143415   2.456   6.927   1.662
14463SOL    HW243416   2.531   7.072   1.655
14464SOL     OW43417   3.686   5.778   1.227
14464SOL    HW143418   3.682   5.688   1.271
14464SOL    HW243419   3.689   5.767   1.128
14465SOL     OW43420   2.290   6.010   0.520
14465SOL    HW143421   2.320   5.938   0.458
14465SOL    HW243422   2.251   5.970   0.603
14466SOL     OW43423   3.567   7.073   1.104
14466SOL    HW143424   3.474   7.048   1.077
14466SOL    HW243425   3.593   7.023   1.186
14467SOL     OW43426   2.179   6.133   1.280
14467SOL    HW143427   2.217   6.074   1.352
14467SOL    HW243428   2.219   6.107   1.192
14468SOL     OW43429   2.674   7.172   0.687
14468SOL    HW143430   2.706   7.182   0.593
14468SOL    HW243431   2.595   7.110   0.689
14469SOL     OW43432   3.286   5.800   1.112
14469SOL    HW143433   3.338   5.735   1.167
14469SOL    HW243434   3.237   5.863   1.173
14470SOL     OW43435   2.863   5.620   1.154
14470SOL    HW143436   2.800   5.548   1.123
14470SOL    HW243437   2.956   5.584   1.154
14471SOL     OW43438   2.632   6.916   0.301
14471SOL    HW143439   2.586   6.829   0.318
14471SOL    HW243440   2.723   6.913   0.342
14472SOL     OW43441   2.480   7.153   1.284
14472SOL    HW143442   2.475   7.235   1.341
14472SOL    HW243443   2.569   7.150   1.239
14473SOL     OW43444   3.214   5.638   0.168
14473SOL    HW143445   3.249   5.597   0.084
14473SOL    HW243446   3.124   5.600   0.188
14474SOL     OW43447   3.162   6.039   0.691
14474SOL    HW143448   3.103   6.119   0.695
14474SOL    HW243449   3.177   6.004   0.784
14475SOL     OW43450   3.455   5.807   0.882
14475SOL    HW143451   3.371   5.806   0.936
14475SOL    HW243452   3.457   5.890   0.826
14476SOL     OW43453   1.901   6.663   0.300
14476SOL    HW143454   2.000   6.652   0.291
14476SOL    HW243455   1.861   6.577   0.332
14477SOL     OW43456   2.737   7.232   0.337
14477SOL    HW143457   2.660   7.197   0.283
14477SOL    HW243458   2.705   7.303   0.399
14478SOL     OW43459   2.092   6.214   1.975
14478SOL    HW143460   1.999   6.212   2.012
14478SOL    HW243461   2.093   6.175   1.883
14479SOL     OW43462   2.087   5.861   2.858
14479SOL    HW143463   2.122   5.844   2.950
14479SOL    HW243464   1.999   5.816   2.846
14480SOL     OW43465   1.881   5.954   2.509
14480SOL    HW143466   1.799   5.997   2.548
14480SOL    HW243467   1.853   5.881   2.446
14481SOL     OW43468   2.431   6.861   3.027
14481SOL    HW143469   2.338   6.854   2.990
14481SOL    HW243470   2.442   6.950   3.071
14482SOL     OW43471   3.417   7.097   2.565
14482SOL    HW143472   3.360   7.081   2.646
14482SOL    HW243473   3.358   7.107   2.485
14483SOL     OW43474   2.997   6.289   2.579
14483SOL    HW143475   3.054   6.367   2.554
14483SOL    HW243476   2.937   6.315   2.655
14484SOL     OW43477   3.617   6.193   2.093
14484SOL    HW143478   3.605   6.180   1.994
14484SOL    HW243479   3.587   6.112   2.142
14485SOL     OW43480   2.630   6.730   2.885
14485SOL    HW143481   2.552   6.747   2.945
14485SOL    HW243482   2.664   6.817   2.849
14486SOL     OW43483   2.712   6.384   3.685
14486SOL    HW143484   2.708   6.460   3.750
14486SOL    HW243485   2.734   6.420   3.594
14487SOL     OW43486   2.547   6.598   2.527
14487SOL    HW143487   2.616   6.582   2.597
14487SOL    HW243488   2.474   6.655   2.565
14488SOL     OW43489   2.548   6.747   3.665
14488SOL    HW143490   2.608   6.826   3.679
14488SOL    HW243491   2.462   6.778   3.624
14489SOL     OW43492   2.197   7.021   2.923
14489SOL    HW143493   2.119   6.990   2.870
14489SOL    HW243494   2.255   7.079   2.866
14490SOL     OW43495   3.322   7.091   3.201
14490SOL    HW143496   3.346   7.185   3.227
14490SOL    HW243497   3.306   7.037   3.283
14491SOL     OW43498   2.300   5.978   3.361
14491SOL    HW143499   2.382   5.922   3.370
14491SOL    HW243500   2.219   5.920   3.365
14492SOL     OW43501   3.465   6.033   2.599
14492SOL    HW143502   3.391   6.079   2.549
14492SOL    HW243503   3.516   6.101   2.652
14493SOL     OW43504   2.093   7.299   2.345
14493SOL    HW143505   2.127   7.376   2.399
14493SOL    HW243506   2.137   7.299   2.255
14494SOL     OW43507   2.989   6.927   3.552
14494SOL    HW143508   3.036   6.927   3.640
14494SOL    HW243509   2.941   6.840   3.541
14495SOL     OW43510   2.092   7.020   2.400
14495SOL    HW143511   2.066   7.116   2.400
14495SOL    HW243512   2.021   6.966   2.445
14496SOL     OW43513   2.102   6.677   2.748
14496SOL    HW143514   2.116   6.593   2.800
14496SOL    HW243515   2.047   6.741   2.803
14497SOL     OW43516   2.482   7.372   3.301
14497SOL    HW143517   2.390   7.355   3.336
14497SOL    HW243518   2.510   7.464   3.327
14498SOL     OW43519   2.468   6.550   1.985
14498SOL    HW143520   2.475   6.634   1.931
14498SOL    HW243521   2.514   6.563   2.073
14499SOL     OW43522   3.456   5.700   3.342
14499SOL    HW143523   3.438   5.767   3.270
14499SOL    HW243524   3.453   5.746   3.431
14500SOL     OW43525   1.984   6.229   2.425
14500SOL    HW143526   1.939   6.141   2.442
14500SOL    HW243527   1.983   6.283   2.509
14501SOL     OW43528   3.704   7.353   2.221
14501SOL    HW143529   3.758   7.324   2.301
14501SOL    HW243530   3.734   7.443   2.192
14502SOL     OW43531   1.889   7.182   1.979
14502SOL    HW143532   1.870   7.086   2.000
14502SOL    HW243533   1.856   7.240   2.054
14503SOL     OW43534   3.551   6.508   2.474
14503SOL    HW143535   3.646   6.479   2.482
14503SOL    HW243536   3.543   6.573   2.399
14504SOL     OW43537   3.503   6.694   2.294
14504SOL    HW143538   3.589   6.696   2.242
14504SOL    HW243539   3.517   6.741   2.382
14505SOL     OW43540   1.975   6.323   3.459
14505SOL    HW143541   2.063   6.310   3.504
14505SOL    HW243542   1.962   6.420   3.437
14506SOL     OW43543   2.475   6.951   2.588
14506SOL    HW143544   2.426   6.864   2.597
14506SOL    HW243545   2.452   6.994   2.501
14507SOL     OW43546   3.155   6.814   3.285
14507SOL    HW143547   3.192   6.741   3.227
14507SOL    HW243548   3.207   6.819   3.370
14508SOL     OW43549   2.671   5.590   2.364
14508SOL    HW143550   2.711   5.681   2.355
14508SOL    HW243551   2.571   5.598   2.370
14509SOL     OW43552   2.059   6.562   3.126
14509SOL    HW143553   2.148   6.517   3.112
14509SOL    HW243554   1.986   6.497   3.107
14510SOL     OW43555   3.387   6.585   2.052
14510SOL    HW143556   3.324   6.509   2.065
14510SOL    HW243557   3.435   6.603   2.138
14511SOL     OW43558   3.049   7.378   3.478
14511SOL    HW143559   3.073   7.438   3.402
14511SOL    HW243560   3.056   7.283   3.448
14512SOL     OW43561   2.179   5.837   3.663
14512SOL    HW143562   2.250   5.908   3.669
14512SOL    HW243563   2.091   5.876   3.691
14513SOL     OW43564   3.328   7.003   2.815
14513SOL    HW143565   3.269   7.009   2.895
14513SOL    HW243566   3.313   6.915   2.769
14514SOL     OW43567   3.529   7.300   2.434
14514SOL    HW143568   3.488   7.277   2.346
14514SOL    HW243569   3.511   7.226   2.499
14515SOL     OW43570   2.460   6.315   2.132
14515SOL    HW143571   2.484   6.384   2.064
14515SOL    HW243572   2.382   6.348   2.186
14516SOL     OW43573   3.143   5.931   2.806
14516SOL    HW143574   3.057   5.881   2.793
14516SOL    HW243575   3.205   5.877   2.862
14517SOL     OW43576   3.438   7.248   2.169
14517SOL    HW143577   3.527   7.294   2.172
14517SOL    HW243578   3.417   7.224   2.074
14518SOL     OW43579   2.669   6.191   3.327
14518SOL    HW143580   2.622   6.188   3.416
14518SOL    HW243581   2.618   6.136   3.261
14519SOL     OW43582   3.256   6.055   3.536
14519SOL    HW143583   3.236   6.098   3.624
14519SOL    HW243584   3.334   5.993   3.545
14520SOL     OW43585   2.835   6.476   3.434
14520SOL    HW143586   2.881   6.392   3.405
14520SOL    HW243587   2.779   6.510   3.359
14521SOL     OW43588   2.853   5.996   3.104
14521SOL    HW143589   2.776   6.030   3.158
14521SOL    HW243590   2.819   5.945   3.025
14522SOL     OW43591   2.903   6.287   2.291
14522SOL    HW143592   2.929   6.283   2.387
14522SOL    HW243593   2.818   6.236   2.277
14523SOL     OW43594   1.938   6.397   2.651
14523SOL    HW143595   2.037   6.385   2.660
14523SOL    HW243596   1.914   6.492   2.672
14524SOL     OW43597   1.992   7.407   3.433
14524SOL    HW143598   1.982   7.392   3.532
14524SOL    HW243599   1.906   7.443   3.397
14525SOL     OW43600   2.727   5.934   2.057
14525SOL    HW143601   2.786   5.997   2.008
14525SOL    HW243602   2.746   5.840   2.028
14526SOL     OW43603   3.581   6.171   3.693
14526SOL    HW143604   3.555   6.260   3.657
14526SOL    HW243605   3.579   6.103   3.620
14527SOL     OW43606   3.224   6.730   2.407
14527SOL    HW143607   3.307   6.701   2.359
14527SOL    HW243608   3.175   6.797   2.351
14528SOL     OW43609   2.412   5.782   2.747
14528SOL    HW143610   2.407   5.777   2.847
14528SOL    HW243611   2.414   5.878   2.718
14529SOL     OW43612   2.870   7.042   2.339
14529SOL    HW143613   2.824   7.114   2.287
14529SOL    HW243614   2.866   7.062   2.437
14530SOL     OW43615   2.213   7.387   2.715
14530SOL    HW143616   2.263   7.301   2.721
14530SOL    HW243617   2.278   7.464   2.712
14531SOL     OW43618   3.657   6.652   2.735
14531SOL    HW143619   3.595   6.637   2.659
14531SOL    HW243620   3.605   6.663   2.820
14532SOL     OW43621   3.089   7.136   3.368
14532SOL    HW143622   3.095   7.059   3.432
14532SOL    HW243623   3.037   7.110   3.288
14533SOL     OW43624   2.183   6.529   2.104
14533SOL    HW143625   2.265   6.568   2.062
14533SOL    HW243626   2.156   6.447   2.055
14534SOL     OW43627   3.320   6.321   2.590
14534SOL    HW143628   3.315   6.256   2.665
14534SOL    HW243629   3.400   6.380   2.603
14535SOL     OW43630   2.323   6.852   3.589
14535SOL    HW143631   2.273   6.853   3.503
14535SOL    HW243632   2.260   6.834   3.665
14536SOL     OW43633   2.973   7.362   2.099
14536SOL    HW143634   2.913   7.300   2.149
14536SOL    HW243635   3.004   7.318   2.014
14537SOL     OW43636   2.064   5.871   3.360
14537SOL    HW143637   1.984   5.931   3.347
14537SOL    HW243638   2.054   5.822   3.446
14538SOL     OW43639   3.494   6.963   1.943
14538SOL    HW143640   3.462   7.057   1.933
14538SOL    HW243641   3.418   6.900   1.931
14539SOL     OW43642   2.326   7.329   2.185
14539SOL    HW143643   2.359   7.368   2.271
14539SOL    HW243644   2.402   7.322   2.120
14540SOL     OW43645   3.262   5.693   2.288
14540SOL    HW143646   3.238   5.656   2.198
14540SOL    HW243647   3.361   5.709   2.292
14541SOL     OW43648   2.111   7.371   3.103
14541SOL    HW143649   2.168   7.306   3.153
14541SOL    HW243650   2.095   7.338   3.010
14542SOL     OW43651   2.802   7.284   2.766
14542SOL    HW143652   2.882   7.227   2.787
14542SOL    HW243653   2.753   7.244   2.689
14543SOL     OW43654   2.244   6.286   2.342
14543SOL    HW143655   2.289   6.196   2.339
14543SOL    HW243656   2.150   6.275   2.375
14544SOL     OW43657   3.409   5.808   3.591
14544SOL    HW143658   3.404   5.845   3.683
14544SOL    HW243659   3.337   5.739   3.579
14545SOL     OW43660   2.476   5.708   1.979
14545SOL    HW143661   2.574   5.686   1.986
14545SOL    HW243662   2.445   5.691   1.886
14546SOL     OW43663   2.643   5.850   3.611
14546SOL    HW143664   2.710   5.789   3.654
14546SOL    HW243665   2.570   5.869   3.676
14547SOL     OW43666   2.750   7.100   3.057
14547SOL    HW143667   2.727   7.075   2.963
14547SOL    HW243668   2.811   7.031   3.096
14548SOL     OW43669   3.213   6.176   3.295
14548SOL    HW143670   3.241   6.133   3.380
14548SOL    HW243671   3.238   6.272   3.296
14549SOL     OW43672   2.665   6.988   2.786
14549SOL    HW143673   2.755   7.002   2.744
14549SOL    HW243674   2.594   6.990   2.715
14550SOL     OW43675   2.784   6.089   2.761
14550SOL    HW143676   2.759   6.080   2.665
14550SOL    HW243677   2.832   6.007   2.792
14551SOL     OW43678   2.401   5.650   2.374
14551SOL    HW143679   2.320   5.651   2.432
14551SOL    HW243680   2.404   5.733   2.319
14552SOL     OW43681   3.296   6.774   1.903
14552SOL    HW143682   3.328   6.698   1.960
14552SOL    HW243683   3.204   6.801   1.933
14553SOL     OW43684   2.159   5.621   2.033
14553SOL    HW143685   2.208   5.705   2.012
14553SOL    HW243686   2.221   5.556   2.078
14554SOL     OW43687   2.797   5.822   2.342
14554SOL    HW143688   2.749   5.863   2.264
14554SOL    HW243689   2.896   5.820   2.323
14555SOL     OW43690   2.938   6.269   3.326
14555SOL    HW143691   2.858   6.208   3.329
14555SOL    HW243692   3.019   6.216   3.302
14556SOL     OW43693   3.089   7.156   2.655
14556SOL    HW143694   3.110   7.230   2.590
14556SOL    HW243695   3.157   7.156   2.728
14557SOL     OW43696   2.321   6.738   2.603
14557SOL    HW143697   2.250   6.711   2.668
14557SOL    HW243698   2.295   6.710   2.510
14558SOL     OW43699   3.133   7.383   2.453
14558SOL    HW143700   3.177   7.447   2.389
14558SOL    HW243701   3.083   7.435   2.523
14559SOL     OW43702   2.894   6.135   1.878
14559SOL    HW143703   2.853   6.217   1.839
14559SOL    HW243704   2.958   6.161   1.951
14560SOL     OW43705   1.940   6.142   3.248
14560SOL    HW143706   2.032   6.141   3.207
14560SOL    HW243707   1.934   6.216   3.315
14561SOL     OW43708   2.423   5.808   3.009
14561SOL    HW143709   2.461   5.724   3.046
14561SOL    HW243710   2.335   5.827   3.053
14562SOL     OW43711   2.728   6.040   2.504
14562SOL    HW143712   2.696   6.112   2.442
14562SOL    HW243713   2.752   5.959   2.451
14563SOL     OW43714   2.879   5.625   2.615
14563SOL    HW143715   2.807   5.630   2.546
14563SOL    HW243716   2.855   5.556   2.684
14564SOL     OW43717   3.291   6.759   2.729
14564SOL    HW143718   3.236   6.675   2.722
14564SOL    HW243719   3.317   6.788   2.637
14565SOL     OW43720   3.328   6.176   2.854
14565SOL    HW143721   3.298   6.081   2.861
14565SOL    HW243722   3.401   6.192   2.920
14566SOL     OW43723   3.719   6.419   2.239
14566SOL    HW143724   3.761   6.355   2.303
14566SOL    HW243725   3.681   6.368   2.161
14567SOL     OW43726   2.350   6.971   2.036
14567SOL    HW143727   2.263   6.956   2.083
14567SOL    HW243728   2.333   6.997   1.941
14568SOL     OW43729   3.526   6.866   2.519
14568SOL    HW143730   3.625   6.874   2.533
14568SOL    HW243731   3.481   6.950   2.550
14569SOL     OW43732   3.252   6.161   1.940
14569SOL    HW143733   3.198   6.140   2.021
14569SOL    HW243734   3.343   6.120   1.949
14570SOL     OW43735   2.389   5.842   2.190
14570SOL    HW143736   2.416   5.783   2.115
14570SOL    HW243737   2.389   5.937   2.159
14571SOL     OW43738   3.616   6.809   3.450
14571SOL    HW143739   3.707   6.770   3.437
14571SOL    HW243740   3.624   6.905   3.474
14572SOL     OW43741   2.926   6.933   3.202
14572SOL    HW143742   2.846   6.910   3.257
14572SOL    HW243743   3.009   6.907   3.251
14573SOL     OW43744   3.454   7.215   3.487
14573SOL    HW143745   3.481   7.249   3.397
14573SOL    HW243746   3.533   7.177   3.533
14574SOL     OW43747   2.973   6.781   2.962
14574SOL    HW143748   2.933   6.825   3.043
14574SOL    HW243749   2.932   6.818   2.879
14575SOL     OW43750   3.500   6.685   2.941
14575SOL    HW143751   3.505   6.766   3.000
14575SOL    HW243752   3.414   6.687   2.890
14576SOL     OW43753   2.777   5.675   3.264
14576SOL    HW143754   2.802   5.655   3.169
14576SOL    HW243755   2.849   5.731   3.306
14577SOL     OW43756   2.842   6.702   3.581
14577SOL    HW143757   2.743   6.708   3.591
14577SOL    HW243758   2.865   6.622   3.525
14578SOL     OW43759   2.567   6.636   2.230
14578SOL    HW143760   2.553   6.643   2.329
14578SOL    HW243761   2.651   6.585   2.212
14579SOL     OW43762   2.272   6.399   3.113
14579SOL    HW143763   2.358   6.411   3.163
14579SOL    HW243764   2.230   6.312   3.140
14580SOL     OW43765   3.136   5.972   3.124
14580SOL    HW143766   3.157   6.046   3.188
14580SOL    HW243767   3.047   5.989   3.081
14581SOL     OW43768   1.926   7.150   3.193
14581SOL    HW143769   1.880   7.232   3.159
14581SOL    HW243770   2.024   7.169   3.202
14582SOL     OW43771   2.229   6.686   2.363
14582SOL    HW143772   2.222   6.769   2.307
14582SOL    HW243773   2.233   6.606   2.303
14583SOL     OW43774   2.428   6.123   2.727
14583SOL    HW143775   2.440   6.189   2.653
14583SOL    HW243776   2.474   6.157   2.810
14584SOL     OW43777   3.114   6.934   2.250
14584SOL    HW143778   3.164   7.011   2.290
14584SOL    HW243779   3.019   6.936   2.282
14585SOL     OW43780   3.134   7.031   3.004
14585SOL    HW143781   3.181   7.044   3.091
14585SOL    HW243782   3.068   6.957   3.013
14586SOL     OW43783   3.444   6.225   2.334
14586SOL    HW143784   3.413   6.286   2.407
14586SOL    HW243785   3.494   6.277   2.265
14587SOL     OW43786   2.216   7.096   3.191
14587SOL    HW143787   2.195   7.052   3.104
14587SOL    HW243788   2.313   7.122   3.194
14588SOL     OW43789   2.264   6.337   3.460
14588SOL    HW143790   2.332   6.392   3.413
14588SOL    HW243791   2.304   6.249   3.487
14589SOL     OW43792   3.449   6.365   3.532
14589SOL    HW143793   3.357   6.403   3.527
14589SOL    HW243794   3.509   6.412   3.467
14590SOL     OW43795   2.875   5.691   3.632
14590SOL    HW143796   2.881   5.776   3.580
14590SOL    HW243797   2.907   5.615   3.575
14591SOL     OW43798   2.366   5.636   3.602
14591SOL    HW143799   2.324   5.579   3.532
14591SOL    HW243800   2.300   5.705   3.634
14592SOL     OW43801   2.435   6.456   2.891
14592SOL    HW143802   2.479   6.545   2.882
14592SOL    HW243803   2.372   6.456   2.968
14593SOL     OW43804   3.222   6.448   2.907
14593SOL    HW143805   3.147   6.448   2.841
14593SOL    HW243806   3.259   6.356   2.916
14594SOL     OW43807   3.071   6.111   2.137
14594SOL    HW143808   3.084   6.027   2.191
14594SOL    HW243809   3.042   6.185   2.197
14595SOL     OW43810   2.169   5.799   3.093
14595SOL    HW143811   2.146   5.836   3.183
14595SOL    HW243812   2.139   5.704   3.087
14596SOL     OW43813   1.899   6.896   3.144
14596SOL    HW143814   1.952   6.847   3.212
14596SOL    HW243815   1.921   6.994   3.149
14597SOL     OW43816   2.594   6.220   2.926
14597SOL    HW143817   2.653   6.194   2.850
14597SOL    HW243818   2.566   6.316   2.915
14598SOL     OW43819   3.590   6.521   3.716
14598SOL    HW143820   3.544   6.514   3.627
14598SOL    HW243821   3.528   6.565   3.782
14599SOL     OW43822   2.169   5.649   2.480
14599SOL    HW143823   2.158   5.743   2.513
14599SOL    HW243824   2.164   5.586   2.557
14600SOL     OW43825   3.484   5.953   2.236
14600SOL    HW143826   3.486   5.877   2.300
14600SOL    HW243827   3.436   6.030   2.276
14601SOL     OW43828   2.885   6.352   2.828
14601SOL    HW143829   2.900   6.373   2.924
14601SOL    HW243830   2.855   6.257   2.819
14602SOL     OW43831   2.842   7.159   3.562
14602SOL    HW143832   2.822   7.203   3.474
14602SOL    HW243833   2.881   7.068   3.546
14603SOL     OW43834   3.721   7.104   3.467
14603SOL    HW143835   3.735   7.131   3.372
14603SOL    HW243836   3.804   7.126   3.520
14604SOL     OW43837   2.212   6.484   3.666
14604SOL    HW143838   2.288   6.528   3.714
14604SOL    HW243839   2.247   6.437   3.584
14605SOL     OW43840   3.402   5.860   1.987
14605SOL    HW143841   3.341   5.785   2.010
14605SOL    HW243842   3.424   5.912   2.070
14606SOL     OW43843   3.165   6.424   1.904
14606SOL    HW143844   3.199   6.331   1.919
14606SOL    HW243845   3.183   6.451   1.809
14607SOL     OW43846   2.930   6.919   2.711
14607SOL    HW143847   2.937   6.835   2.656
14607SOL    HW243848   2.992   6.988   2.675
14608SOL     OW43849   2.181   6.396   2.811
14608SOL    HW143850   2.274   6.432   2.816
14608SOL    HW243851   2.175   6.311   2.863
14609SOL     OW43852   2.201   6.095   2.868
14609SOL    HW143853   2.149   6.012   2.851
14609SOL    HW243854   2.278   6.100   2.804
14610SOL     OW43855   3.000   5.966   3.540
14610SOL    HW143856   2.955   6.029   3.604
14610SOL    HW243857   3.093   5.997   3.523
14611SOL     OW43858   3.022   5.793   3.339
14611SOL    HW143859   3.022   5.857   3.416
14611SOL    HW243860   3.050   5.841   3.256
14612SOL     OW43861   1.870   6.912   2.062
14612SOL    HW143862   1.777   6.933   2.031
14612SOL    HW243863   1.880   6.813   2.075
14613SOL     OW43864   1.950   7.387   2.789
14613SOL    HW143865   1.908   7.301   2.762
14613SOL    HW243866   2.044   7.390   2.755
14614SOL     OW43867   2.366   7.154   2.772
14614SOL    HW143868   2.432   7.228   2.781
14614SOL    HW243869   2.410   7.075   2.730
14615SOL     OW43870   2.864   6.382   3.100
14615SOL    HW143871   2.905   6.350   3.186
14615SOL    HW243872   2.768   6.355   3.097
14616SOL     OW43873   1.902   6.130   2.976
14616SOL    HW143874   1.987   6.097   2.935
14616SOL    HW243875   1.915   6.145   3.074
14617SOL     OW43876   2.051   6.106   3.584
14617SOL    HW143877   2.110   6.066   3.514
14617SOL    HW243878   1.993   6.177   3.543
14618SOL     OW43879   3.231   6.536   3.522
14618SOL    HW143880   3.270   6.625   3.542
14618SOL    HW243881   3.241   6.516   3.425
14619SOL     OW43882   2.677   6.158   2.187
14619SOL    HW143883   2.684   6.069   2.141
14619SOL    HW243884   2.583   6.192   2.179
14620SOL     OW43885   3.519   6.190   3.068
14620SOL    HW143886   3.481   6.121   3.130
14620SOL    HW243887   3.601   6.154   3.024
14621SOL     OW43888   2.114   7.150   3.606
14621SOL    HW143889   2.084   7.207   3.682
14621SOL    HW243890   2.107   7.053   3.632
14622SOL     OW43891   2.533   6.050   3.131
14622SOL    HW143892   2.499   5.961   3.101
14622SOL    HW243893   2.559   6.104   3.051
14623SOL     OW43894   2.792   7.264   3.327
14623SOL    HW143895   2.768   7.246   3.232
14623SOL    HW243896   2.822   7.358   3.337
14624SOL     OW43897   2.335   6.086   2.053
14624SOL    HW143898   2.396   6.166   2.057
14624SOL    HW243899   2.240   6.117   2.060
14625SOL     OW43900   2.021   6.723   3.328
14625SOL    HW143901   2.043   6.662   3.404
14625SOL    HW243902   2.031   6.674   3.242
14626SOL     OW43903   3.209   6.645   3.096
14626SOL    HW143904   3.233   6.582   3.022
14626SOL    HW243905   3.119   6.685   3.078
14627SOL     OW43906   3.164   6.441   2.171
14627SOL    HW143907   3.078   6.410   2.213
14627SOL    HW243908   3.160   6.427   2.072
14628SOL     OW43909   3.621   7.333   3.016
14628SOL    HW143910   3.682   7.363   2.943
14628SOL    HW243911   3.583   7.244   2.994
14629SOL     OW43912   3.114   7.317   2.990
14629SOL    HW143913   3.198   7.322   2.936
14629SOL    HW243914   3.091   7.221   3.008
14630SOL     OW43915   1.945   6.844   2.884
14630SOL    HW143916   1.940   6.843   2.984
14630SOL    HW243917   1.862   6.803   2.846
14631SOL     OW43918   2.550   7.248   3.578
14631SOL    HW143919   2.494   7.329   3.587
14631SOL    HW243920   2.602   7.252   3.492
14632SOL     OW43921   3.588   5.721   2.385
14632SOL    HW143922   3.661   5.704   2.318
14632SOL    HW243923   3.557   5.634   2.423
14633SOL     OW43924   3.250   7.159   2.339
14633SOL    HW143925   3.317   7.171   2.265
14633SOL    HW243926   3.210   7.248   2.362
14634SOL     OW43927   1.992   7.380   3.713
14634SOL    HW143928   1.951   7.306   3.766
14634SOL    HW243929   2.056   7.431   3.771
14635SOL     OW43930   3.142   6.513   2.534
14635SOL    HW143931   3.202   6.432   2.536
14635SOL    HW243932   3.182   6.582   2.474
14636SOL     OW43933   2.692   6.859   3.284
14636SOL    HW143934   2.687   6.892   3.379
14636SOL    HW243935   2.606   6.878   3.238
14637SOL     OW43936   2.534   7.202   2.016
14637SOL    HW143937   2.543   7.212   1.917
14637SOL    HW243938   2.494   7.113   2.037
14638SOL     OW43939   3.512   7.306   3.256
14638SOL    HW143940   3.565   7.316   3.172
14638SOL    HW243941   3.485   7.396   3.290
14639SOL     OW43942   3.703   5.761   2.825
14639SOL    HW143943   3.742   5.676   2.789
14639SOL    HW243944   3.605   5.763   2.806
14640SOL     OW43945   2.125   5.912   2.582
14640SOL    HW143946   2.046   5.963   2.548
14640SOL    HW243947   2.116   5.897   2.680
14641SOL     OW43948   3.056   7.198   1.893
14641SOL    HW143949   3.062   7.105   1.930
14641SOL    HW243950   2.997   7.198   1.813
14642SOL     OW43951   2.684   6.588   3.234
14642SOL    HW143952   2.724   6.587   3.142
14642SOL    HW243953   2.694   6.680   3.274
14643SOL     OW43954   2.778   6.496   2.153
14643SOL    HW143955   2.841   6.534   2.085
14643SOL    HW243956   2.818   6.413   2.192
14644SOL     OW43957   3.366   7.193   1.906
14644SOL    HW143958   3.274   7.230   1.913
14644SOL    HW243959   3.404   7.213   1.816
14645SOL     OW43960   2.234   6.874   3.352
14645SOL    HW143961   2.221   6.967   3.318
14645SOL    HW243962   2.150   6.822   3.339
14646SOL     OW43963   3.476   6.878   3.151
14646SOL    HW143964   3.536   6.881   3.231
14646SOL    HW243965   3.401   6.942   3.164
14647SOL     OW43966   2.901   6.684   2.558
14647SOL    HW143967   2.831   6.637   2.612
14647SOL    HW243968   2.960   6.616   2.515
14648SOL     OW43969   2.876   5.822   2.833
14648SOL    HW143970   2.868   5.786   2.740
14648SOL    HW243971   2.874   5.746   2.898
14649SOL     OW43972   2.452   7.073   2.353
14649SOL    HW143973   2.494   7.015   2.283
14649SOL    HW243974   2.408   7.152   2.309
14650SOL     OW43975   3.571   5.971   3.243
14650SOL    HW143976   3.644   6.040   3.247
14650SOL    HW243977   3.599   5.896   3.184
14651SOL     OW43978   2.117   6.934   2.152
14651SOL    HW143979   2.021   6.935   2.125
14651SOL    HW243980   2.129   6.987   2.236
14652SOL     OW43981   1.967   6.599   3.588
14652SOL    HW143982   1.890   6.566   3.642
14652SOL    HW243983   2.052   6.569   3.630
14653SOL     OW43984   2.534   5.789   3.351
14653SOL    HW143985   2.624   5.773   3.311
14653SOL    HW243986   2.542   5.794   3.450
14654SOL     OW43987   1.937   5.931   1.895
14654SOL    HW143988   1.845   5.903   1.866
14654SOL    HW243989   1.968   6.008   1.839
14655SOL     OW43990   3.302   6.442   3.260
14655SOL    HW143991   3.245   6.494   3.197
14655SOL    HW243992   3.398   6.454   3.236
14656SOL     OW43993   1.934   5.752   2.180
14656SOL    HW143994   1.917   5.835   2.126
14656SOL    HW243995   2.024   5.715   2.158
14657SOL     OW43996   3.045   6.921   1.981
14657SOL    HW143997   2.946   6.910   1.983
14657SOL    HW243998   3.079   6.936   2.074
14658SOL     OW43999   2.475   6.428   3.293
14658SOL    HW144000   2.531   6.509   3.276
14658SOL    HW244001   2.534   6.348   3.296
14659SOL     OW44002   3.355   7.353   2.821
14659SOL    HW144003   3.388   7.417   2.752
14659SOL    HW244004   3.421   7.347   2.896
14660SOL     OW44005   2.578   6.151   3.570
14660SOL    HW144006   2.597   6.216   3.644
14660SOL    HW244007   2.638   6.071   3.579
14661SOL     OW44008   3.312   6.806   3.495
14661SOL    HW144009   3.303   6.796   3.594
14661SOL    HW244010   3.408   6.799   3.469
14662SOL     OW44011   2.252   7.327   3.422
14662SOL    HW144012   2.161   7.368   3.420
14662SOL    HW244013   2.245   7.233   3.454
14663SOL     OW44014   3.536   6.469   3.116
14663SOL    HW144015   3.509   6.380   3.079
14663SOL    HW244016   3.537   6.537   3.043
14664SOL     OW44017   3.087   5.911   2.311
14664SOL    HW144018   3.152   5.837   2.300
14664SOL    HW244019   3.107   5.961   2.395
14665SOL     OW44020   2.456   6.331   2.514
14665SOL    HW144021   2.506   6.416   2.495
14665SOL    HW244022   2.368   6.333   2.466
14666SOL     OW44023   3.639   5.928   3.504
14666SOL    HW144024   3.622   5.959   3.410
14666SOL    HW244025   3.555   5.891   3.542
14667SOL     OW44026   3.592   6.520   3.379
14667SOL    HW144027   3.630   6.611   3.394
14667SOL    HW244028   3.584   6.503   3.280
14668SOL     OW44029   2.721   6.960   1.878
14668SOL    HW144030   2.675   6.975   1.966
14668SOL    HW244031   2.765   7.045   1.848
14669SOL     OW44032   2.523   7.376   2.815
14669SOL    HW144033   2.477   7.464   2.802
14669SOL    HW244034   2.622   7.388   2.808
14670SOL     OW44035   2.721   6.542   2.723
14670SOL    HW144036   2.775   6.473   2.771
14670SOL    HW244037   2.689   6.611   2.789
14671SOL     OW44038   2.945   6.570   1.949
14671SOL    HW144039   2.922   6.623   1.867
14671SOL    HW244040   3.026   6.514   1.930
14672SOL     OW44041   3.723   7.155   2.713
14672SOL    HW144042   3.652   7.143   2.643
14672SOL    HW244043   3.724   7.076   2.773
14673SOL     OW44044   2.083   6.900   3.706
14673SOL    HW144045   2.018   6.827   3.685
14673SOL    HW244046   2.087   6.914   3.804
14674SOL     OW44047   1.941   6.826   2.515
14674SOL    HW144048   1.940   6.779   2.603
14674SOL    HW244049   2.023   6.798   2.464
14675SOL     OW44050   2.534   6.977   3.486
14675SOL    HW144051   2.456   6.927   3.524
14675SOL    HW244052   2.531   7.072   3.517
14676SOL     OW44053   3.686   5.778   3.089
14676SOL    HW144054   3.682   5.688   3.133
14676SOL    HW244055   3.689   5.767   2.990
14677SOL     OW44056   2.290   6.010   2.382
14677SOL    HW144057   2.320   5.938   2.320
14677SOL    HW244058   2.251   5.970   2.465
14678SOL     OW44059   3.567   7.073   2.966
14678SOL    HW144060   3.474   7.048   2.939
14678SOL    HW244061   3.593   7.023   3.048
14679SOL     OW44062   2.179   6.133   3.142
14679SOL    HW144063   2.217   6.074   3.214
14679SOL    HW244064   2.219   6.107   3.054
14680SOL     OW44065   2.674   7.172   2.549
14680SOL    HW144066   2.706   7.182   2.455
14680SOL    HW244067   2.595   7.110   2.551
14681SOL     OW44068   3.286   5.800   2.974
14681SOL    HW144069   3.338   5.735   3.029
14681SOL    HW244070   3.237   5.863   3.035
14682SOL     OW44071   2.863   5.620   3.016
14682SOL    HW144072   2.800   5.548   2.985
14682SOL    HW244073   2.956   5.584   3.016
14683SOL     OW44074   2.632   6.916   2.163
14683SOL    HW144075   2.586   6.829   2.180
14683SOL    HW244076   2.723   6.913   2.204
14684SOL     OW44077   2.480   7.153   3.146
14684SOL    HW144078   2.475   7.235   3.203
14684SOL    HW244079   2.569   7.150   3.101
14685SOL     OW44080   3.214   5.638   2.030
14685SOL    HW144081   3.249   5.597   1.946
14685SOL    HW244082   3.124   5.600   2.050
14686SOL     OW44083   3.162   6.039   2.553
14686SOL    HW144084   3.103   6.119   2.557
14686SOL    HW244085   3.177   6.004   2.646
14687SOL     OW44086   3.455   5.807   2.744
14687SOL    HW144087   3.371   5.806   2.798
14687SOL    HW244088   3.457   5.890   2.688
14688SOL     OW44089   1.901   6.663   2.162
14688SOL    HW144090   2.000   6.652   2.153
14688SOL    HW244091   1.861   6.577   2.194
14689SOL     OW44092   2.737   7.232   2.199
14689SOL    HW144093   2.660   7.197   2.145
14689SOL    HW244094   2.705   7.303   2.261
14690SOL     OW44095   2.092   6.214   3.837
14690SOL    HW144096   1.999   6.212   3.874
14690SOL    HW244097   2.093   6.175   3.745
14691SOL     OW44098   2.087   5.861   4.720
14691SOL    HW144099   2.122   5.844   4.812
14691SOL    HW244100   1.999   5.816   4.708
14692SOL     OW44101   1.881   5.954   4.371
14692SOL    HW144102   1.799   5.997   4.410
14692SOL    HW244103   1.853   5.881   4.308
14693SOL     OW44104   2.431   6.861   4.889
14693SOL    HW144105   2.338   6.854   4.852
14693SOL    HW244106   2.442   6.950   4.933
14694SOL     OW44107   3.417   7.097   4.427
14694SOL    HW144108   3.360   7.081   4.508
14694SOL    HW244109   3.358   7.107   4.347
14695SOL     OW44110   2.997   6.289   4.441
14695SOL    HW144111   3.054   6.367   4.416
14695SOL    HW244112   2.937   6.315   4.517
14696SOL     OW44113   3.617   6.193   3.955
14696SOL    HW144114   3.605   6.180   3.856
14696SOL    HW244115   3.587   6.112   4.004
14697SOL     OW44116   2.630   6.730   4.747
14697SOL    HW144117   2.552   6.747   4.807
14697SOL    HW244118   2.664   6.817   4.711
14698SOL     OW44119   2.712   6.384   5.547
14698SOL    HW144120   2.708   6.460   5.612
14698SOL    HW244121   2.734   6.420   5.456
14699SOL     OW44122   2.547   6.598   4.389
14699SOL    HW144123   2.616   6.582   4.459
14699SOL    HW244124   2.474   6.655   4.427
14700SOL     OW44125   2.548   6.747   5.527
14700SOL    HW144126   2.608   6.826   5.541
14700SOL    HW244127   2.462   6.778   5.486
14701SOL     OW44128   2.197   7.021   4.785
14701SOL    HW144129   2.119   6.990   4.732
14701SOL    HW244130   2.255   7.079   4.728
14702SOL     OW44131   3.322   7.091   5.063
14702SOL    HW144132   3.346   7.185   5.089
14702SOL    HW244133   3.306   7.037   5.145
14703SOL     OW44134   2.300   5.978   5.223
14703SOL    HW144135   2.382   5.922   5.232
14703SOL    HW244136   2.219   5.920   5.227
14704SOL     OW44137   3.465   6.033   4.461
14704SOL    HW144138   3.391   6.079   4.411
14704SOL    HW244139   3.516   6.101   4.514
14705SOL     OW44140   2.093   7.299   4.207
14705SOL    HW144141   2.127   7.376   4.261
14705SOL    HW244142   2.137   7.299   4.117
14706SOL     OW44143   2.989   6.927   5.414
14706SOL    HW144144   3.036   6.927   5.502
14706SOL    HW244145   2.941   6.840   5.403
14707SOL     OW44146   2.092   7.020   4.262
14707SOL    HW144147   2.066   7.116   4.262
14707SOL    HW244148   2.021   6.966   4.307
14708SOL     OW44149   2.102   6.677   4.610
14708SOL    HW144150   2.116   6.593   4.662
14708SOL    HW244151   2.047   6.741   4.665
14709SOL     OW44152   2.482   7.372   5.163
14709SOL    HW144153   2.390   7.355   5.198
14709SOL    HW244154   2.510   7.464   5.189
14710SOL     OW44155   2.468   6.550   3.847
14710SOL    HW144156   2.475   6.634   3.793
14710SOL    HW244157   2.514   6.563   3.935
14711SOL     OW44158   3.456   5.700   5.204
14711SOL    HW144159   3.438   5.767   5.132
14711SOL    HW244160   3.453   5.746   5.293
14712SOL     OW44161   1.984   6.229   4.287
14712SOL    HW144162   1.939   6.141   4.304
14712SOL    HW244163   1.983   6.283   4.371
14713SOL     OW44164   3.704   7.353   4.083
14713SOL    HW144165   3.758   7.324   4.163
14713SOL    HW244166   3.734   7.443   4.054
14714SOL     OW44167   1.889   7.182   3.841
14714SOL    HW144168   1.870   7.086   3.862
14714SOL    HW244169   1.856   7.240   3.916
14715SOL     OW44170   3.551   6.508   4.336
14715SOL    HW144171   3.646   6.479   4.344
14715SOL    HW244172   3.543   6.573   4.261
14716SOL     OW44173   3.503   6.694   4.156
14716SOL    HW144174   3.589   6.696   4.104
14716SOL    HW244175   3.517   6.741   4.244
14717SOL     OW44176   1.975   6.323   5.321
14717SOL    HW144177   2.063   6.310   5.366
14717SOL    HW244178   1.962   6.420   5.299
14718SOL     OW44179   2.475   6.951   4.450
14718SOL    HW144180   2.426   6.864   4.459
14718SOL    HW244181   2.452   6.994   4.363
14719SOL     OW44182   3.155   6.814   5.147
14719SOL    HW144183   3.192   6.741   5.089
14719SOL    HW244184   3.207   6.819   5.232
14720SOL     OW44185   2.671   5.590   4.226
14720SOL    HW144186   2.711   5.681   4.217
14720SOL    HW244187   2.571   5.598   4.232
14721SOL     OW44188   2.059   6.562   4.988
14721SOL    HW144189   2.148   6.517   4.974
14721SOL    HW244190   1.986   6.497   4.969
14722SOL     OW44191   3.387   6.585   3.914
14722SOL    HW144192   3.324   6.509   3.927
14722SOL    HW244193   3.435   6.603   4.000
14723SOL     OW44194   3.049   7.378   5.340
14723SOL    HW144195   3.073   7.438   5.264
14723SOL    HW244196   3.056   7.283   5.310
14724SOL     OW44197   2.179   5.837   5.525
14724SOL    HW144198   2.250   5.908   5.531
14724SOL    HW244199   2.091   5.876   5.553
14725SOL     OW44200   3.328   7.003   4.677
14725SOL    HW144201   3.269   7.009   4.757
14725SOL    HW244202   3.313   6.915   4.631
14726SOL     OW44203   3.529   7.300   4.296
14726SOL    HW144204   3.488   7.277   4.208
14726SOL    HW244205   3.511   7.226   4.361
14727SOL     OW44206   2.460   6.315   3.994
14727SOL    HW144207   2.484   6.384   3.926
14727SOL    HW244208   2.382   6.348   4.048
14728SOL     OW44209   3.143   5.931   4.668
14728SOL    HW144210   3.057   5.881   4.655
14728SOL    HW244211   3.205   5.877   4.724
14729SOL     OW44212   3.438   7.248   4.031
14729SOL    HW144213   3.527   7.294   4.034
14729SOL    HW244214   3.417   7.224   3.936
14730SOL     OW44215   2.669   6.191   5.189
14730SOL    HW144216   2.622   6.188   5.278
14730SOL    HW244217   2.618   6.136   5.123
14731SOL     OW44218   3.256   6.055   5.398
14731SOL    HW144219   3.236   6.098   5.486
14731SOL    HW244220   3.334   5.993   5.407
14732SOL     OW44221   2.835   6.476   5.296
14732SOL    HW144222   2.881   6.392   5.267
14732SOL    HW244223   2.779   6.510   5.221
14733SOL     OW44224   2.853   5.996   4.966
14733SOL    HW144225   2.776   6.030   5.020
14733SOL    HW244226   2.819   5.945   4.887
14734SOL     OW44227   2.903   6.287   4.153
14734SOL    HW144228   2.929   6.283   4.249
14734SOL    HW244229   2.818   6.236   4.139
14735SOL     OW44230   1.938   6.397   4.513
14735SOL    HW144231   2.037   6.385   4.522
14735SOL    HW244232   1.914   6.492   4.534
14736SOL     OW44233   1.992   7.407   5.295
14736SOL    HW144234   1.982   7.392   5.394
14736SOL    HW244235   1.906   7.443   5.259
14737SOL     OW44236   2.727   5.934   3.919
14737SOL    HW144237   2.786   5.997   3.870
14737SOL    HW244238   2.746   5.840   3.890
14738SOL     OW44239   3.581   6.171   5.555
14738SOL    HW144240   3.555   6.260   5.519
14738SOL    HW244241   3.579   6.103   5.482
14739SOL     OW44242   3.224   6.730   4.269
14739SOL    HW144243   3.307   6.701   4.221
14739SOL    HW244244   3.175   6.797   4.213
14740SOL     OW44245   2.412   5.782   4.609
14740SOL    HW144246   2.407   5.777   4.709
14740SOL    HW244247   2.414   5.878   4.580
14741SOL     OW44248   2.870   7.042   4.201
14741SOL    HW144249   2.824   7.114   4.149
14741SOL    HW244250   2.866   7.062   4.299
14742SOL     OW44251   2.213   7.387   4.577
14742SOL    HW144252   2.263   7.301   4.583
14742SOL    HW244253   2.278   7.464   4.574
14743SOL     OW44254   3.657   6.652   4.597
14743SOL    HW144255   3.595   6.637   4.521
14743SOL    HW244256   3.605   6.663   4.682
14744SOL     OW44257   3.089   7.136   5.230
14744SOL    HW144258   3.095   7.059   5.294
14744SOL    HW244259   3.037   7.110   5.150
14745SOL     OW44260   2.183   6.529   3.966
14745SOL    HW144261   2.265   6.568   3.924
14745SOL    HW244262   2.156   6.447   3.917
14746SOL     OW44263   3.320   6.321   4.452
14746SOL    HW144264   3.315   6.256   4.527
14746SOL    HW244265   3.400   6.380   4.465
14747SOL     OW44266   2.323   6.852   5.451
14747SOL    HW144267   2.273   6.853   5.365
14747SOL    HW244268   2.260   6.834   5.527
14748SOL     OW44269   2.973   7.362   3.961
14748SOL    HW144270   2.913   7.300   4.011
14748SOL    HW244271   3.004   7.318   3.876
14749SOL     OW44272   2.064   5.871   5.222
14749SOL    HW144273   1.984   5.931   5.209
14749SOL    HW244274   2.054   5.822   5.308
14750SOL     OW44275   3.494   6.963   3.805
14750SOL    HW144276   3.462   7.057   3.795
14750SOL    HW244277   3.418   6.900   3.793
14751SOL     OW44278   2.326   7.329   4.047
14751SOL    HW144279   2.359   7.368   4.133
14751SOL    HW244280   2.402   7.322   3.982
14752SOL     OW44281   3.262   5.693   4.150
14752SOL    HW144282   3.238   5.656   4.060
14752SOL    HW244283   3.361   5.709   4.154
14753SOL     OW44284   2.111   7.371   4.965
14753SOL    HW144285   2.168   7.306   5.015
14753SOL    HW244286   2.095   7.338   4.872
14754SOL     OW44287   2.802   7.284   4.628
14754SOL    HW144288   2.882   7.227   4.649
14754SOL    HW244289   2.753   7.244   4.551
14755SOL     OW44290   2.244   6.286   4.204
14755SOL    HW144291   2.289   6.196   4.201
14755SOL    HW244292   2.150   6.275   4.237
14756SOL     OW44293   3.409   5.808   5.453
14756SOL    HW144294   3.404   5.845   5.545
14756SOL    HW244295   3.337   5.739   5.441
14757SOL     OW44296   2.476   5.708   3.841
14757SOL    HW144297   2.574   5.686   3.848
14757SOL    HW244298   2.445   5.691   3.748
14758SOL     OW44299   2.643   5.850   5.473
14758SOL    HW144300   2.710   5.789   5.516
14758SOL    HW244301   2.570   5.869   5.538
14759SOL     OW44302   2.750   7.100   4.919
14759SOL    HW144303   2.727   7.075   4.825
14759SOL    HW244304   2.811   7.031   4.958
14760SOL     OW44305   3.213   6.176   5.157
14760SOL    HW144306   3.241   6.133   5.242
14760SOL    HW244307   3.238   6.272   5.158
14761SOL     OW44308   2.665   6.988   4.648
14761SOL    HW144309   2.755   7.002   4.606
14761SOL    HW244310   2.594   6.990   4.577
14762SOL     OW44311   2.784   6.089   4.623
14762SOL    HW144312   2.759   6.080   4.527
14762SOL    HW244313   2.832   6.007   4.654
14763SOL     OW44314   2.401   5.650   4.236
14763SOL    HW144315   2.320   5.651   4.294
14763SOL    HW244316   2.404   5.733   4.181
14764SOL     OW44317   3.296   6.774   3.765
14764SOL    HW144318   3.328   6.698   3.822
14764SOL    HW244319   3.204   6.801   3.795
14765SOL     OW44320   2.159   5.621   3.895
14765SOL    HW144321   2.208   5.705   3.874
14765SOL    HW244322   2.221   5.556   3.940
14766SOL     OW44323   2.797   5.822   4.204
14766SOL    HW144324   2.749   5.863   4.126
14766SOL    HW244325   2.896   5.820   4.185
14767SOL     OW44326   2.938   6.269   5.188
14767SOL    HW144327   2.858   6.208   5.191
14767SOL    HW244328   3.019   6.216   5.164
14768SOL     OW44329   3.089   7.156   4.517
14768SOL    HW144330   3.110   7.230   4.452
14768SOL    HW244331   3.157   7.156   4.590
14769SOL     OW44332   2.321   6.738   4.465
14769SOL    HW144333   2.250   6.711   4.530
14769SOL    HW244334   2.295   6.710   4.372
14770SOL     OW44335   3.133   7.383   4.315
14770SOL    HW144336   3.177   7.447   4.251
14770SOL    HW244337   3.083   7.435   4.385
14771SOL     OW44338   2.894   6.135   3.740
14771SOL    HW144339   2.853   6.217   3.701
14771SOL    HW244340   2.958   6.161   3.813
14772SOL     OW44341   1.940   6.142   5.110
14772SOL    HW144342   2.032   6.141   5.069
14772SOL    HW244343   1.934   6.216   5.177
14773SOL     OW44344   2.423   5.808   4.871
14773SOL    HW144345   2.461   5.724   4.908
14773SOL    HW244346   2.335   5.827   4.915
14774SOL     OW44347   2.728   6.040   4.366
14774SOL    HW144348   2.696   6.112   4.304
14774SOL    HW244349   2.752   5.959   4.313
14775SOL     OW44350   2.879   5.625   4.477
14775SOL    HW144351   2.807   5.630   4.408
14775SOL    HW244352   2.855   5.556   4.546
14776SOL     OW44353   3.291   6.759   4.591
14776SOL    HW144354   3.236   6.675   4.584
14776SOL    HW244355   3.317   6.788   4.499
14777SOL     OW44356   3.328   6.176   4.716
14777SOL    HW144357   3.298   6.081   4.723
14777SOL    HW244358   3.401   6.192   4.782
14778SOL     OW44359   3.719   6.419   4.101
14778SOL    HW144360   3.761   6.355   4.165
14778SOL    HW244361   3.681   6.368   4.023
14779SOL     OW44362   2.350   6.971   3.898
14779SOL    HW144363   2.263   6.956   3.945
14779SOL    HW244364   2.333   6.997   3.803
14780SOL     OW44365   3.526   6.866   4.381
14780SOL    HW144366   3.625   6.874   4.395
14780SOL    HW244367   3.481   6.950   4.412
14781SOL     OW44368   3.252   6.161   3.802
14781SOL    HW144369   3.198   6.140   3.883
14781SOL    HW244370   3.343   6.120   3.811
14782SOL     OW44371   2.389   5.842   4.052
14782SOL    HW144372   2.416   5.783   3.977
14782SOL    HW244373   2.389   5.937   4.021
14783SOL     OW44374   3.616   6.809   5.312
14783SOL    HW144375   3.707   6.770   5.299
14783SOL    HW244376   3.624   6.905   5.336
14784SOL     OW44377   2.926   6.933   5.064
14784SOL    HW144378   2.846   6.910   5.119
14784SOL    HW244379   3.009   6.907   5.113
14785SOL     OW44380   3.454   7.215   5.349
14785SOL    HW144381   3.481   7.249   5.259
14785SOL    HW244382   3.533   7.177   5.395
14786SOL     OW44383   2.973   6.781   4.824
14786SOL    HW144384   2.933   6.825   4.905
14786SOL    HW244385   2.932   6.818   4.741
14787SOL     OW44386   3.500   6.685   4.803
14787SOL    HW144387   3.505   6.766   4.862
14787SOL    HW244388   3.414   6.687   4.752
14788SOL     OW44389   2.777   5.675   5.126
14788SOL    HW144390   2.802   5.655   5.031
14788SOL    HW244391   2.849   5.731   5.168
14789SOL     OW44392   2.842   6.702   5.443
14789SOL    HW144393   2.743   6.708   5.453
14789SOL    HW244394   2.865   6.622   5.387
14790SOL     OW44395   2.567   6.636   4.092
14790SOL    HW144396   2.553   6.643   4.191
14790SOL    HW244397   2.651   6.585   4.074
14791SOL     OW44398   2.272   6.399   4.975
14791SOL    HW144399   2.358   6.411   5.025
14791SOL    HW244400   2.230   6.312   5.002
14792SOL     OW44401   3.136   5.972   4.986
14792SOL    HW144402   3.157   6.046   5.050
14792SOL    HW244403   3.047   5.989   4.943
14793SOL     OW44404   1.926   7.150   5.055
14793SOL    HW144405   1.880   7.232   5.021
14793SOL    HW244406   2.024   7.169   5.064
14794SOL     OW44407   2.229   6.686   4.225
14794SOL    HW144408   2.222   6.769   4.169
14794SOL    HW244409   2.233   6.606   4.165
14795SOL     OW44410   2.428   6.123   4.589
14795SOL    HW144411   2.440   6.189   4.515
14795SOL    HW244412   2.474   6.157   4.672
14796SOL     OW44413   3.114   6.934   4.112
14796SOL    HW144414   3.164   7.011   4.152
14796SOL    HW244415   3.019   6.936   4.144
14797SOL     OW44416   3.134   7.031   4.866
14797SOL    HW144417   3.181   7.044   4.953
14797SOL    HW244418   3.068   6.957   4.875
14798SOL     OW44419   3.444   6.225   4.196
14798SOL    HW144420   3.413   6.286   4.269
14798SOL    HW244421   3.494   6.277   4.127
14799SOL     OW44422   2.216   7.096   5.053
14799SOL    HW144423   2.195   7.052   4.966
14799SOL    HW244424   2.313   7.122   5.056
14800SOL     OW44425   2.264   6.337   5.322
14800SOL    HW144426   2.332   6.392   5.275
14800SOL    HW244427   2.304   6.249   5.349
14801SOL     OW44428   3.449   6.365   5.394
14801SOL    HW144429   3.357   6.403   5.389
14801SOL    HW244430   3.509   6.412   5.329
14802SOL     OW44431   2.875   5.691   5.494
14802SOL    HW144432   2.881   5.776   5.442
14802SOL    HW244433   2.907   5.615   5.437
14803SOL     OW44434   2.366   5.636   5.464
14803SOL    HW144435   2.324   5.579   5.394
14803SOL    HW244436   2.300   5.705   5.496
14804SOL     OW44437   2.435   6.456   4.753
14804SOL    HW144438   2.479   6.545   4.744
14804SOL    HW244439   2.372   6.456   4.830
14805SOL     OW44440   3.222   6.448   4.769
14805SOL    HW144441   3.147   6.448   4.703
14805SOL    HW244442   3.259   6.356   4.778
14806SOL     OW44443   3.071   6.111   3.999
14806SOL    HW144444   3.084   6.027   4.053
14806SOL    HW244445   3.042   6.185   4.059
14807SOL     OW44446   2.169   5.799   4.955
14807SOL    HW144447   2.146   5.836   5.045
14807SOL    HW244448   2.139   5.704   4.949
14808SOL     OW44449   1.899   6.896   5.006
14808SOL    HW144450   1.952   6.847   5.074
14808SOL    HW244451   1.921   6.994   5.011
14809SOL     OW44452   2.594   6.220   4.788
14809SOL    HW144453   2.653   6.194   4.712
14809SOL    HW244454   2.566   6.316   4.777
14810SOL     OW44455   3.590   6.521   5.578
14810SOL    HW144456   3.544   6.514   5.489
14810SOL    HW244457   3.528   6.565   5.644
14811SOL     OW44458   2.169   5.649   4.342
14811SOL    HW144459   2.158   5.743   4.375
14811SOL    HW244460   2.164   5.586   4.419
14812SOL     OW44461   3.484   5.953   4.098
14812SOL    HW144462   3.486   5.877   4.162
14812SOL    HW244463   3.436   6.030   4.138
14813SOL     OW44464   2.885   6.352   4.690
14813SOL    HW144465   2.900   6.373   4.786
14813SOL    HW244466   2.855   6.257   4.681
14814SOL     OW44467   2.842   7.159   5.424
14814SOL    HW144468   2.822   7.203   5.336
14814SOL    HW244469   2.881   7.068   5.408
14815SOL     OW44470   3.721   7.104   5.329
14815SOL    HW144471   3.735   7.131   5.234
14815SOL    HW244472   3.804   7.126   5.382
14816SOL     OW44473   2.212   6.484   5.528
14816SOL    HW144474   2.288   6.528   5.576
14816SOL    HW244475   2.247   6.437   5.446
14817SOL     OW44476   3.402   5.860   3.849
14817SOL    HW144477   3.341   5.785   3.872
14817SOL    HW244478   3.424   5.912   3.932
14818SOL     OW44479   3.165   6.424   3.766
14818SOL    HW144480   3.199   6.331   3.781
14818SOL    HW244481   3.183   6.451   3.671
14819SOL     OW44482   2.930   6.919   4.573
14819SOL    HW144483   2.937   6.835   4.518
14819SOL    HW244484   2.992   6.988   4.537
14820SOL     OW44485   2.181   6.396   4.673
14820SOL    HW144486   2.274   6.432   4.678
14820SOL    HW244487   2.175   6.311   4.725
14821SOL     OW44488   2.201   6.095   4.730
14821SOL    HW144489   2.149   6.012   4.713
14821SOL    HW244490   2.278   6.100   4.666
14822SOL     OW44491   3.000   5.966   5.402
14822SOL    HW144492   2.955   6.029   5.466
14822SOL    HW244493   3.093   5.997   5.385
14823SOL     OW44494   3.022   5.793   5.201
14823SOL    HW144495   3.022   5.857   5.278
14823SOL    HW244496   3.050   5.841   5.118
14824SOL     OW44497   1.870   6.912   3.924
14824SOL    HW144498   1.777   6.933   3.893
14824SOL    HW244499   1.880   6.813   3.937
14825SOL     OW44500   1.950   7.387   4.651
14825SOL    HW144501   1.908   7.301   4.624
14825SOL    HW244502   2.044   7.390   4.617
14826SOL     OW44503   2.366   7.154   4.634
14826SOL    HW144504   2.432   7.228   4.643
14826SOL    HW244505   2.410   7.075   4.592
14827SOL     OW44506   2.864   6.382   4.962
14827SOL    HW144507   2.905   6.350   5.048
14827SOL    HW244508   2.768   6.355   4.959
14828SOL     OW44509   1.902   6.130   4.838
14828SOL    HW144510   1.987   6.097   4.797
14828SOL    HW244511   1.915   6.145   4.936
14829SOL     OW44512   2.051   6.106   5.446
14829SOL    HW144513   2.110   6.066   5.376
14829SOL    HW244514   1.993   6.177   5.405
14830SOL     OW44515   3.231   6.536   5.384
14830SOL    HW144516   3.270   6.625   5.404
14830SOL    HW244517   3.241   6.516   5.287
14831SOL     OW44518   2.677   6.158   4.049
14831SOL    HW144519   2.684   6.069   4.003
14831SOL    HW244520   2.583   6.192   4.041
14832SOL     OW44521   3.519   6.190   4.930
14832SOL    HW144522   3.481   6.121   4.992
14832SOL    HW244523   3.601   6.154   4.886
14833SOL     OW44524   2.114   7.150   5.468
14833SOL    HW144525   2.084   7.207   5.544
14833SOL    HW244526   2.107   7.053   5.494
14834SOL     OW44527   2.533   6.050   4.993
14834SOL    HW144528   2.499   5.961   4.963
14834SOL    HW244529   2.559   6.104   4.913
14835SOL     OW44530   2.792   7.264   5.189
14835SOL    HW144531   2.768   7.246   5.094
14835SOL    HW244532   2.822   7.358   5.199
14836SOL     OW44533   2.335   6.086   3.915
14836SOL    HW144534   2.396   6.166   3.919
14836SOL    HW244535   2.240   6.117   3.922
14837SOL     OW44536   2.021   6.723   5.190
14837SOL    HW144537   2.043   6.662   5.266
14837SOL    HW244538   2.031   6.674   5.104
14838SOL     OW44539   3.209   6.645   4.958
14838SOL    HW144540   3.233   6.582   4.884
14838SOL    HW244541   3.119   6.685   4.940
14839SOL     OW44542   3.164   6.441   4.033
14839SOL    HW144543   3.078   6.410   4.075
14839SOL    HW244544   3.160   6.427   3.934
14840SOL     OW44545   3.621   7.333   4.878
14840SOL    HW144546   3.682   7.363   4.805
14840SOL    HW244547   3.583   7.244   4.856
14841SOL     OW44548   3.114   7.317   4.852
14841SOL    HW144549   3.198   7.322   4.798
14841SOL    HW244550   3.091   7.221   4.870
14842SOL     OW44551   1.945   6.844   4.746
14842SOL    HW144552   1.940   6.843   4.846
14842SOL    HW244553   1.862   6.803   4.708
14843SOL     OW44554   2.550   7.248   5.440
14843SOL    HW144555   2.494   7.329   5.449
14843SOL    HW244556   2.602   7.252   5.354
14844SOL     OW44557   3.588   5.721   4.247
14844SOL    HW144558   3.661   5.704   4.180
14844SOL    HW244559   3.557   5.634   4.285
14845SOL     OW44560   3.250   7.159   4.201
14845SOL    HW144561   3.317   7.171   4.127
14845SOL    HW244562   3.210   7.248   4.224
14846SOL     OW44563   1.992   7.380   5.575
14846SOL    HW144564   1.951   7.306   5.628
14846SOL    HW244565   2.056   7.431   5.633
14847SOL     OW44566   3.142   6.513   4.396
14847SOL    HW144567   3.202   6.432   4.398
14847SOL    HW244568   3.182   6.582   4.336
14848SOL     OW44569   2.692   6.859   5.146
14848SOL    HW144570   2.687   6.892   5.241
14848SOL    HW244571   2.606   6.878   5.100
14849SOL     OW44572   2.534   7.202   3.878
14849SOL    HW144573   2.543   7.212   3.779
14849SOL    HW244574   2.494   7.113   3.899
14850SOL     OW44575   3.512   7.306   5.118
14850SOL    HW144576   3.565   7.316   5.034
14850SOL    HW244577   3.485   7.396   5.152
14851SOL     OW44578   3.703   5.761   4.687
14851SOL    HW144579   3.742   5.676   4.651
14851SOL    HW244580   3.605   5.763   4.668
14852SOL     OW44581   2.125   5.912   4.444
14852SOL    HW144582   2.046   5.963   4.410
14852SOL    HW244583   2.116   5.897   4.542
14853SOL     OW44584   3.056   7.198   3.755
14853SOL    HW144585   3.062   7.105   3.792
14853SOL    HW244586   2.997   7.198   3.675
14854SOL     OW44587   2.684   6.588   5.096
14854SOL    HW144588   2.724   6.587   5.004
14854SOL    HW244589   2.694   6.680   5.136
14855SOL     OW44590   2.778   6.496   4.015
14855SOL    HW144591   2.841   6.534   3.947
14855SOL    HW244592   2.818   6.413   4.054
14856SOL     OW44593   3.366   7.193   3.768
14856SOL    HW144594   3.274   7.230   3.775
14856SOL    HW244595   3.404   7.213   3.678
14857SOL     OW44596   2.234   6.874   5.214
14857SOL    HW144597   2.221   6.967   5.180
14857SOL    HW244598   2.150   6.822   5.201
14858SOL     OW44599   3.476   6.878   5.013
14858SOL    HW144600   3.536   6.881   5.093
14858SOL    HW244601   3.401   6.942   5.026
14859SOL     OW44602   2.901   6.684   4.420
14859SOL    HW144603   2.831   6.637   4.474
14859SOL    HW244604   2.960   6.616   4.377
14860SOL     OW44605   2.876   5.822   4.695
14860SOL    HW144606   2.868   5.786   4.602
14860SOL    HW244607   2.874   5.746   4.760
14861SOL     OW44608   2.452   7.073   4.215
14861SOL    HW144609   2.494   7.015   4.145
14861SOL    HW244610   2.408   7.152   4.171
14862SOL     OW44611   3.571   5.971   5.105
14862SOL    HW144612   3.644   6.040   5.109
14862SOL    HW244613   3.599   5.896   5.046
14863SOL     OW44614   2.117   6.934   4.014
14863SOL    HW144615   2.021   6.935   3.987
14863SOL    HW244616   2.129   6.987   4.098
14864SOL     OW44617   1.967   6.599   5.450
14864SOL    HW144618   1.890   6.566   5.504
14864SOL    HW244619   2.052   6.569   5.492
14865SOL     OW44620   2.534   5.789   5.213
14865SOL    HW144621   2.624   5.773   5.173
14865SOL    HW244622   2.542   5.794   5.312
14866SOL     OW44623   1.937   5.931   3.757
14866SOL    HW144624   1.845   5.903   3.728
14866SOL    HW244625   1.968   6.008   3.701
14867SOL     OW44626   3.302   6.442   5.122
14867SOL    HW144627   3.245   6.494   5.059
14867SOL    HW244628   3.398   6.454   5.098
14868SOL     OW44629   1.934   5.752   4.042
14868SOL    HW144630   1.917   5.835   3.988
14868SOL    HW244631   2.024   5.715   4.020
14869SOL     OW44632   3.045   6.921   3.843
14869SOL    HW144633   2.946   6.910   3.845
14869SOL    HW244634   3.079   6.936   3.936
14870SOL     OW44635   2.475   6.428   5.155
14870SOL    HW144636   2.531   6.509   5.138
14870SOL    HW244637   2.534   6.348   5.158
14871SOL     OW44638   3.355   7.353   4.683
14871SOL    HW144639   3.388   7.417   4.614
14871SOL    HW244640   3.421   7.347   4.758
14872SOL     OW44641   2.578   6.151   5.432
14872SOL    HW144642   2.597   6.216   5.506
14872SOL    HW244643   2.638   6.071   5.441
14873SOL     OW44644   3.312   6.806   5.357
14873SOL    HW144645   3.303   6.796   5.456
14873SOL    HW244646   3.408   6.799   5.331
14874SOL     OW44647   2.252   7.327   5.284
14874SOL    HW144648   2.161   7.368   5.282
14874SOL    HW244649   2.245   7.233   5.316
14875SOL     OW44650   3.536   6.469   4.978
14875SOL    HW144651   3.509   6.380   4.941
14875SOL    HW244652   3.537   6.537   4.905
14876SOL     OW44653   3.087   5.911   4.173
14876SOL    HW144654   3.152   5.837   4.162
14876SOL    HW244655   3.107   5.961   4.257
14877SOL     OW44656   2.456   6.331   4.376
14877SOL    HW144657   2.506   6.416   4.357
14877SOL    HW244658   2.368   6.333   4.328
14878SOL     OW44659   3.639   5.928   5.366
14878SOL    HW144660   3.622   5.959   5.272
14878SOL    HW244661   3.555   5.891   5.404
14879SOL     OW44662   3.592   6.520   5.241
14879SOL    HW144663   3.630   6.611   5.256
14879SOL    HW244664   3.584   6.503   5.142
14880SOL     OW44665   2.721   6.960   3.740
14880SOL    HW144666   2.675   6.975   3.828
14880SOL    HW244667   2.765   7.045   3.710
14881SOL     OW44668   2.523   7.376   4.677
14881SOL    HW144669   2.477   7.464   4.664
14881SOL    HW244670   2.622   7.388   4.670
14882SOL     OW44671   2.721   6.542   4.585
14882SOL    HW144672   2.775   6.473   4.633
14882SOL    HW244673   2.689   6.611   4.651
14883SOL     OW44674   2.945   6.570   3.811
14883SOL    HW144675   2.922   6.623   3.729
14883SOL    HW244676   3.026   6.514   3.792
14884SOL     OW44677   3.723   7.155   4.575
14884SOL    HW144678   3.652   7.143   4.505
14884SOL    HW244679   3.724   7.076   4.635
14885SOL     OW44680   2.083   6.900   5.568
14885SOL    HW144681   2.018   6.827   5.547
14885SOL    HW244682   2.087   6.914   5.666
14886SOL     OW44683   1.941   6.826   4.377
14886SOL    HW144684   1.940   6.779   4.465
14886SOL    HW244685   2.023   6.798   4.326
14887SOL     OW44686   2.534   6.977   5.348
14887SOL    HW144687   2.456   6.927   5.386
14887SOL    HW244688   2.531   7.072   5.379
14888SOL     OW44689   3.686   5.778   4.951
14888SOL    HW144690   3.682   5.688   4.995
14888SOL    HW244691   3.689   5.767   4.852
14889SOL     OW44692   2.290   6.010   4.244
14889SOL    HW144693   2.320   5.938   4.182
14889SOL    HW244694   2.251   5.970   4.327
14890SOL     OW44695   3.567   7.073   4.828
14890SOL    HW144696   3.474   7.048   4.801
14890SOL    HW244697   3.593   7.023   4.910
14891SOL     OW44698   2.179   6.133   5.004
14891SOL    HW144699   2.217   6.074   5.076
14891SOL    HW244700   2.219   6.107   4.916
14892SOL     OW44701   2.674   7.172   4.411
14892SOL    HW144702   2.706   7.182   4.317
14892SOL    HW244703   2.595   7.110   4.413
14893SOL     OW44704   3.286   5.800   4.836
14893SOL    HW144705   3.338   5.735   4.891
14893SOL    HW244706   3.237   5.863   4.897
14894SOL     OW44707   2.863   5.620   4.878
14894SOL    HW144708   2.800   5.548   4.847
14894SOL    HW244709   2.956   5.584   4.878
14895SOL     OW44710   2.632   6.916   4.025
14895SOL    HW144711   2.586   6.829   4.042
14895SOL    HW244712   2.723   6.913   4.066
14896SOL     OW44713   2.480   7.153   5.008
14896SOL    HW144714   2.475   7.235   5.065
14896SOL    HW244715   2.569   7.150   4.963
14897SOL     OW44716   3.214   5.638   3.892
14897SOL    HW144717   3.249   5.597   3.808
14897SOL    HW244718   3.124   5.600   3.912
14898SOL     OW44719   3.162   6.039   4.415
14898SOL    HW144720   3.103   6.119   4.419
14898SOL    HW244721   3.177   6.004   4.508
14899SOL     OW44722   3.455   5.807   4.606
14899SOL    HW144723   3.371   5.806   4.660
14899SOL    HW244724   3.457   5.890   4.550
14900SOL     OW44725   1.901   6.663   4.024
14900SOL    HW144726   2.000   6.652   4.015
14900SOL    HW244727   1.861   6.577   4.056
14901SOL     OW44728   2.737   7.232   4.061
14901SOL    HW144729   2.660   7.197   4.007
14901SOL    HW244730   2.705   7.303   4.123
14902SOL     OW44731   2.092   6.214   5.699
14902SOL    HW144732   1.999   6.212   5.736
14902SOL    HW244733   2.093   6.175   5.607
14903SOL     OW44734   2.087   5.861   6.582
14903SOL    HW144735   2.122   5.844   6.674
14903SOL    HW244736   1.999   5.816   6.570
14904SOL     OW44737   1.881   5.954   6.233
14904SOL    HW144738   1.799   5.997   6.272
14904SOL    HW244739   1.853   5.881   6.170
14905SOL     OW44740   2.431   6.861   6.751
14905SOL    HW144741   2.338   6.854   6.714
14905SOL    HW244742   2.442   6.950   6.795
14906SOL     OW44743   3.417   7.097   6.289
14906SOL    HW144744   3.360   7.081   6.370
14906SOL    HW244745   3.358   7.107   6.209
14907SOL     OW44746   2.997   6.289   6.303
14907SOL    HW144747   3.054   6.367   6.278
14907SOL    HW244748   2.937   6.315   6.379
14908SOL     OW44749   3.617   6.193   5.817
14908SOL    HW144750   3.605   6.180   5.718
14908SOL    HW244751   3.587   6.112   5.866
14909SOL     OW44752   2.630   6.730   6.609
14909SOL    HW144753   2.552   6.747   6.669
14909SOL    HW244754   2.664   6.817   6.573
14910SOL     OW44755   2.712   6.384   7.409
14910SOL    HW144756   2.708   6.460   7.474
14910SOL    HW244757   2.734   6.420   7.318
14911SOL     OW44758   2.547   6.598   6.251
14911SOL    HW144759   2.616   6.582   6.321
14911SOL    HW244760   2.474   6.655   6.289
14912SOL     OW44761   2.548   6.747   7.389
14912SOL    HW144762   2.608   6.826   7.403
14912SOL    HW244763   2.462   6.778   7.348
14913SOL     OW44764   2.197   7.021   6.647
14913SOL    HW144765   2.119   6.990   6.594
14913SOL    HW244766   2.255   7.079   6.590
14914SOL     OW44767   3.322   7.091   6.925
14914SOL    HW144768   3.346   7.185   6.951
14914SOL    HW244769   3.306   7.037   7.007
14915SOL     OW44770   2.300   5.978   7.085
14915SOL    HW144771   2.382   5.922   7.094
14915SOL    HW244772   2.219   5.920   7.089
14916SOL     OW44773   3.465   6.033   6.323
14916SOL    HW144774   3.391   6.079   6.273
14916SOL    HW244775   3.516   6.101   6.376
14917SOL     OW44776   2.093   7.299   6.069
14917SOL    HW144777   2.127   7.376   6.123
14917SOL    HW244778   2.137   7.299   5.979
14918SOL     OW44779   2.989   6.927   7.276
14918SOL    HW144780   3.036   6.927   7.364
14918SOL    HW244781   2.941   6.840   7.265
14919SOL     OW44782   2.092   7.020   6.124
14919SOL    HW144783   2.066   7.116   6.124
14919SOL    HW244784   2.021   6.966   6.169
14920SOL     OW44785   2.102   6.677   6.472
14920SOL    HW144786   2.116   6.593   6.524
14920SOL    HW244787   2.047   6.741   6.527
14921SOL     OW44788   2.482   7.372   7.025
14921SOL    HW144789   2.390   7.355   7.060
14921SOL    HW244790   2.510   7.464   7.051
14922SOL     OW44791   2.468   6.550   5.709
14922SOL    HW144792   2.475   6.634   5.655
14922SOL    HW244793   2.514   6.563   5.797
14923SOL     OW44794   3.456   5.700   7.066
14923SOL    HW144795   3.438   5.767   6.994
14923SOL    HW244796   3.453   5.746   7.155
14924SOL     OW44797   1.984   6.229   6.149
14924SOL    HW144798   1.939   6.141   6.166
14924SOL    HW244799   1.983   6.283   6.233
14925SOL     OW44800   3.704   7.353   5.945
14925SOL    HW144801   3.758   7.324   6.025
14925SOL    HW244802   3.734   7.443   5.916
14926SOL     OW44803   1.889   7.182   5.703
14926SOL    HW144804   1.870   7.086   5.724
14926SOL    HW244805   1.856   7.240   5.778
14927SOL     OW44806   3.551   6.508   6.198
14927SOL    HW144807   3.646   6.479   6.206
14927SOL    HW244808   3.543   6.573   6.123
14928SOL     OW44809   3.503   6.694   6.018
14928SOL    HW144810   3.589   6.696   5.966
14928SOL    HW244811   3.517   6.741   6.106
14929SOL     OW44812   1.975   6.323   7.183
14929SOL    HW144813   2.063   6.310   7.228
14929SOL    HW244814   1.962   6.420   7.161
14930SOL     OW44815   2.475   6.951   6.312
14930SOL    HW144816   2.426   6.864   6.321
14930SOL    HW244817   2.452   6.994   6.225
14931SOL     OW44818   3.155   6.814   7.009
14931SOL    HW144819   3.192   6.741   6.951
14931SOL    HW244820   3.207   6.819   7.094
14932SOL     OW44821   2.671   5.590   6.088
14932SOL    HW144822   2.711   5.681   6.079
14932SOL    HW244823   2.571   5.598   6.094
14933SOL     OW44824   2.059   6.562   6.850
14933SOL    HW144825   2.148   6.517   6.836
14933SOL    HW244826   1.986   6.497   6.831
14934SOL     OW44827   3.387   6.585   5.776
14934SOL    HW144828   3.324   6.509   5.789
14934SOL    HW244829   3.435   6.603   5.862
14935SOL     OW44830   3.049   7.378   7.202
14935SOL    HW144831   3.073   7.438   7.126
14935SOL    HW244832   3.056   7.283   7.172
14936SOL     OW44833   2.179   5.837   7.387
14936SOL    HW144834   2.250   5.908   7.393
14936SOL    HW244835   2.091   5.876   7.415
14937SOL     OW44836   3.328   7.003   6.539
14937SOL    HW144837   3.269   7.009   6.619
14937SOL    HW244838   3.313   6.915   6.493
14938SOL     OW44839   3.529   7.300   6.158
14938SOL    HW144840   3.488   7.277   6.070
14938SOL    HW244841   3.511   7.226   6.223
14939SOL     OW44842   2.460   6.315   5.856
14939SOL    HW144843   2.484   6.384   5.788
14939SOL    HW244844   2.382   6.348   5.910
14940SOL     OW44845   3.143   5.931   6.530
14940SOL    HW144846   3.057   5.881   6.517
14940SOL    HW244847   3.205   5.877   6.586
14941SOL     OW44848   3.438   7.248   5.893
14941SOL    HW144849   3.527   7.294   5.896
14941SOL    HW244850   3.417   7.224   5.798
14942SOL     OW44851   2.669   6.191   7.051
14942SOL    HW144852   2.622   6.188   7.140
14942SOL    HW244853   2.618   6.136   6.985
14943SOL     OW44854   3.256   6.055   7.260
14943SOL    HW144855   3.236   6.098   7.348
14943SOL    HW244856   3.334   5.993   7.269
14944SOL     OW44857   2.835   6.476   7.158
14944SOL    HW144858   2.881   6.392   7.129
14944SOL    HW244859   2.779   6.510   7.083
14945SOL     OW44860   2.853   5.996   6.828
14945SOL    HW144861   2.776   6.030   6.882
14945SOL    HW244862   2.819   5.945   6.749
14946SOL     OW44863   2.903   6.287   6.015
14946SOL    HW144864   2.929   6.283   6.111
14946SOL    HW244865   2.818   6.236   6.001
14947SOL     OW44866   1.938   6.397   6.375
14947SOL    HW144867   2.037   6.385   6.384
14947SOL    HW244868   1.914   6.492   6.396
14948SOL     OW44869   1.992   7.407   7.157
14948SOL    HW144870   1.982   7.392   7.256
14948SOL    HW244871   1.906   7.443   7.121
14949SOL     OW44872   2.727   5.934   5.781
14949SOL    HW144873   2.786   5.997   5.732
14949SOL    HW244874   2.746   5.840   5.752
14950SOL     OW44875   3.581   6.171   7.417
14950SOL    HW144876   3.555   6.260   7.381
14950SOL    HW244877   3.579   6.103   7.344
14951SOL     OW44878   3.224   6.730   6.131
14951SOL    HW144879   3.307   6.701   6.083
14951SOL    HW244880   3.175   6.797   6.075
14952SOL     OW44881   2.412   5.782   6.471
14952SOL    HW144882   2.407   5.777   6.571
14952SOL    HW244883   2.414   5.878   6.442
14953SOL     OW44884   2.870   7.042   6.063
14953SOL    HW144885   2.824   7.114   6.011
14953SOL    HW244886   2.866   7.062   6.161
14954SOL     OW44887   2.213   7.387   6.439
14954SOL    HW144888   2.263   7.301   6.445
14954SOL    HW244889   2.278   7.464   6.436
14955SOL     OW44890   3.657   6.652   6.459
14955SOL    HW144891   3.595   6.637   6.383
14955SOL    HW244892   3.605   6.663   6.544
14956SOL     OW44893   3.089   7.136   7.092
14956SOL    HW144894   3.095   7.059   7.156
14956SOL    HW244895   3.037   7.110   7.012
14957SOL     OW44896   2.183   6.529   5.828
14957SOL    HW144897   2.265   6.568   5.786
14957SOL    HW244898   2.156   6.447   5.779
14958SOL     OW44899   3.320   6.321   6.314
14958SOL    HW144900   3.315   6.256   6.389
14958SOL    HW244901   3.400   6.380   6.327
14959SOL     OW44902   2.323   6.852   7.313
14959SOL    HW144903   2.273   6.853   7.227
14959SOL    HW244904   2.260   6.834   7.389
14960SOL     OW44905   2.973   7.362   5.823
14960SOL    HW144906   2.913   7.300   5.873
14960SOL    HW244907   3.004   7.318   5.738
14961SOL     OW44908   2.064   5.871   7.084
14961SOL    HW144909   1.984   5.931   7.071
14961SOL    HW244910   2.054   5.822   7.170
14962SOL     OW44911   3.494   6.963   5.667
14962SOL    HW144912   3.462   7.057   5.657
14962SOL    HW244913   3.418   6.900   5.655
14963SOL     OW44914   2.326   7.329   5.909
14963SOL    HW144915   2.359   7.368   5.995
14963SOL    HW244916   2.402   7.322   5.844
14964SOL     OW44917   3.262   5.693   6.012
14964SOL    HW144918   3.238   5.656   5.922
14964SOL    HW244919   3.361   5.709   6.016
14965SOL     OW44920   2.111   7.371   6.827
14965SOL    HW144921   2.168   7.306   6.877
14965SOL    HW244922   2.095   7.338   6.734
14966SOL     OW44923   2.802   7.284   6.490
14966SOL    HW144924   2.882   7.227   6.511
14966SOL    HW244925   2.753   7.244   6.413
14967SOL     OW44926   2.244   6.286   6.066
14967SOL    HW144927   2.289   6.196   6.063
14967SOL    HW244928   2.150   6.275   6.099
14968SOL     OW44929   3.409   5.808   7.315
14968SOL    HW144930   3.404   5.845   7.407
14968SOL    HW244931   3.337   5.739   7.303
14969SOL     OW44932   2.476   5.708   5.703
14969SOL    HW144933   2.574   5.686   5.710
14969SOL    HW244934   2.445   5.691   5.610
14970SOL     OW44935   2.643   5.850   7.335
14970SOL    HW144936   2.710   5.789   7.378
14970SOL    HW244937   2.570   5.869   7.400
14971SOL     OW44938   2.750   7.100   6.781
14971SOL    HW144939   2.727   7.075   6.687
14971SOL    HW244940   2.811   7.031   6.820
14972SOL     OW44941   3.213   6.176   7.019
14972SOL    HW144942   3.241   6.133   7.104
14972SOL    HW244943   3.238   6.272   7.020
14973SOL     OW44944   2.665   6.988   6.510
14973SOL    HW144945   2.755   7.002   6.468
14973SOL    HW244946   2.594   6.990   6.439
14974SOL     OW44947   2.784   6.089   6.485
14974SOL    HW144948   2.759   6.080   6.389
14974SOL    HW244949   2.832   6.007   6.516
14975SOL     OW44950   2.401   5.650   6.098
14975SOL    HW144951   2.320   5.651   6.156
14975SOL    HW244952   2.404   5.733   6.043
14976SOL     OW44953   3.296   6.774   5.627
14976SOL    HW144954   3.328   6.698   5.684
14976SOL    HW244955   3.204   6.801   5.657
14977SOL     OW44956   2.159   5.621   5.757
14977SOL    HW144957   2.208   5.705   5.736
14977SOL    HW244958   2.221   5.556   5.802
14978SOL     OW44959   2.797   5.822   6.066
14978SOL    HW144960   2.749   5.863   5.988
14978SOL    HW244961   2.896   5.820   6.047
14979SOL     OW44962   2.938   6.269   7.050
14979SOL    HW144963   2.858   6.208   7.053
14979SOL    HW244964   3.019   6.216   7.026
14980SOL     OW44965   3.089   7.156   6.379
14980SOL    HW144966   3.110   7.230   6.314
14980SOL    HW244967   3.157   7.156   6.452
14981SOL     OW44968   2.321   6.738   6.327
14981SOL    HW144969   2.250   6.711   6.392
14981SOL    HW244970   2.295   6.710   6.234
14982SOL     OW44971   3.133   7.383   6.177
14982SOL    HW144972   3.177   7.447   6.113
14982SOL    HW244973   3.083   7.435   6.247
14983SOL     OW44974   2.894   6.135   5.602
14983SOL    HW144975   2.853   6.217   5.563
14983SOL    HW244976   2.958   6.161   5.675
14984SOL     OW44977   1.940   6.142   6.972
14984SOL    HW144978   2.032   6.141   6.931
14984SOL    HW244979   1.934   6.216   7.039
14985SOL     OW44980   2.423   5.808   6.733
14985SOL    HW144981   2.461   5.724   6.770
14985SOL    HW244982   2.335   5.827   6.777
14986SOL     OW44983   2.728   6.040   6.228
14986SOL    HW144984   2.696   6.112   6.166
14986SOL    HW244985   2.752   5.959   6.175
14987SOL     OW44986   2.879   5.625   6.339
14987SOL    HW144987   2.807   5.630   6.270
14987SOL    HW244988   2.855   5.556   6.408
14988SOL     OW44989   3.291   6.759   6.453
14988SOL    HW144990   3.236   6.675   6.446
14988SOL    HW244991   3.317   6.788   6.361
14989SOL     OW44992   3.328   6.176   6.578
14989SOL    HW144993   3.298   6.081   6.585
14989SOL    HW244994   3.401   6.192   6.644
14990SOL     OW44995   3.719   6.419   5.963
14990SOL    HW144996   3.761   6.355   6.027
14990SOL    HW244997   3.681   6.368   5.885
14991SOL     OW44998   2.350   6.971   5.760
14991SOL    HW144999   2.263   6.956   5.807
14991SOL    HW245000   2.333   6.997   5.665
14992SOL     OW45001   3.526   6.866   6.243
14992SOL    HW145002   3.625   6.874   6.257
14992SOL    HW245003   3.481   6.950   6.274
14993SOL     OW45004   3.252   6.161   5.664
14993SOL    HW145005   3.198   6.140   5.745
14993SOL    HW245006   3.343   6.120   5.673
14994SOL     OW45007   2.389   5.842   5.914
14994SOL    HW145008   2.416   5.783   5.839
14994SOL    HW245009   2.389   5.937   5.883
14995SOL     OW45010   3.616   6.809   7.174
14995SOL    HW145011   3.707   6.770   7.161
14995SOL    HW245012   3.624   6.905   7.198
14996SOL     OW45013   2.926   6.933   6.926
14996SOL    HW145014   2.846   6.910   6.981
14996SOL    HW245015   3.009   6.907   6.975
14997SOL     OW45016   3.454   7.215   7.211
14997SOL    HW145017   3.481   7.249   7.121
14997SOL    HW245018   3.533   7.177   7.257
14998SOL     OW45019   2.973   6.781   6.686
14998SOL    HW145020   2.933   6.825   6.767
14998SOL    HW245021   2.932   6.818   6.603
14999SOL     OW45022   3.500   6.685   6.665
14999SOL    HW145023   3.505   6.766   6.724
14999SOL    HW245024   3.414   6.687   6.614
15000SOL     OW45025   2.777   5.675   6.988
15000SOL    HW145026   2.802   5.655   6.893
15000SOL    HW245027   2.849   5.731   7.030
15001SOL     OW45028   2.842   6.702   7.305
15001SOL    HW145029   2.743   6.708   7.315
15001SOL    HW245030   2.865   6.622   7.249
15002SOL     OW45031   2.567   6.636   5.954
15002SOL    HW145032   2.553   6.643   6.053
15002SOL    HW245033   2.651   6.585   5.936
15003SOL     OW45034   2.272   6.399   6.837
15003SOL    HW145035   2.358   6.411   6.887
15003SOL    HW245036   2.230   6.312   6.864
15004SOL     OW45037   3.136   5.972   6.848
15004SOL    HW145038   3.157   6.046   6.912
15004SOL    HW245039   3.047   5.989   6.805
15005SOL     OW45040   1.926   7.150   6.917
15005SOL    HW145041   1.880   7.232   6.883
15005SOL    HW245042   2.024   7.169   6.926
15006SOL     OW45043   2.229   6.686   6.087
15006SOL    HW145044   2.222   6.769   6.031
15006SOL    HW245045   2.233   6.606   6.027
15007SOL     OW45046   2.428   6.123   6.451
15007SOL    HW145047   2.440   6.189   6.377
15007SOL    HW245048   2.474   6.157   6.534
15008SOL     OW45049   3.114   6.934   5.974
15008SOL    HW145050   3.164   7.011   6.014
15008SOL    HW245051   3.019   6.936   6.006
15009SOL     OW45052   3.134   7.031   6.728
15009SOL    HW145053   3.181   7.044   6.815
15009SOL    HW245054   3.068   6.957   6.737
15010SOL     OW45055   3.444   6.225   6.058
15010SOL    HW145056   3.413   6.286   6.131
15010SOL    HW245057   3.494   6.277   5.989
15011SOL     OW45058   2.216   7.096   6.915
15011SOL    HW145059   2.195   7.052   6.828
15011SOL    HW245060   2.313   7.122   6.918
15012SOL     OW45061   2.264   6.337   7.184
15012SOL    HW145062   2.332   6.392   7.137
15012SOL    HW245063   2.304   6.249   7.211
15013SOL     OW45064   3.449   6.365   7.256
15013SOL    HW145065   3.357   6.403   7.251
15013SOL    HW245066   3.509   6.412   7.191
15014SOL     OW45067   2.875   5.691   7.356
15014SOL    HW145068   2.881   5.776   7.304
15014SOL    HW245069   2.907   5.615   7.299
15015SOL     OW45070   2.366   5.636   7.326
15015SOL    HW145071   2.324   5.579   7.256
15015SOL    HW245072   2.300   5.705   7.358
15016SOL     OW45073   2.435   6.456   6.615
15016SOL    HW145074   2.479   6.545   6.606
15016SOL    HW245075   2.372   6.456   6.692
15017SOL     OW45076   3.222   6.448   6.631
15017SOL    HW145077   3.147   6.448   6.565
15017SOL    HW245078   3.259   6.356   6.640
15018SOL     OW45079   3.071   6.111   5.861
15018SOL    HW145080   3.084   6.027   5.915
15018SOL    HW245081   3.042   6.185   5.921
15019SOL     OW45082   2.169   5.799   6.817
15019SOL    HW145083   2.146   5.836   6.907
15019SOL    HW245084   2.139   5.704   6.811
15020SOL     OW45085   1.899   6.896   6.868
15020SOL    HW145086   1.952   6.847   6.936
15020SOL    HW245087   1.921   6.994   6.873
15021SOL     OW45088   2.594   6.220   6.650
15021SOL    HW145089   2.653   6.194   6.574
15021SOL    HW245090   2.566   6.316   6.639
15022SOL     OW45091   3.590   6.521   7.440
15022SOL    HW145092   3.544   6.514   7.351
15022SOL    HW245093   3.528   6.565   7.506
15023SOL     OW45094   2.169   5.649   6.204
15023SOL    HW145095   2.158   5.743   6.237
15023SOL    HW245096   2.164   5.586   6.281
15024SOL     OW45097   3.484   5.953   5.960
15024SOL    HW145098   3.486   5.877   6.024
15024SOL    HW245099   3.436   6.030   6.000
15025SOL     OW45100   2.885   6.352   6.552
15025SOL    HW145101   2.900   6.373   6.648
15025SOL    HW245102   2.855   6.257   6.543
15026SOL     OW45103   2.842   7.159   7.286
15026SOL    HW145104   2.822   7.203   7.198
15026SOL    HW245105   2.881   7.068   7.270
15027SOL     OW45106   3.721   7.104   7.191
15027SOL    HW145107   3.735   7.131   7.096
15027SOL    HW245108   3.804   7.126   7.244
15028SOL     OW45109   2.212   6.484   7.390
15028SOL    HW145110   2.288   6.528   7.438
15028SOL    HW245111   2.247   6.437   7.308
15029SOL     OW45112   3.402   5.860   5.711
15029SOL    HW145113   3.341   5.785   5.734
15029SOL    HW245114   3.424   5.912   5.794
15030SOL     OW45115   3.165   6.424   5.628
15030SOL    HW145116   3.199   6.331   5.643
15030SOL    HW245117   3.183   6.451   5.533
15031SOL     OW45118   2.930   6.919   6.435
15031SOL    HW145119   2.937   6.835   6.380
15031SOL    HW245120   2.992   6.988   6.399
15032SOL     OW45121   2.181   6.396   6.535
15032SOL    HW145122   2.274   6.432   6.540
15032SOL    HW245123   2.175   6.311   6.587
15033SOL     OW45124   2.201   6.095   6.592
15033SOL    HW145125   2.149   6.012   6.575
15033SOL    HW245126   2.278   6.100   6.528
15034SOL     OW45127   3.000   5.966   7.264
15034SOL    HW145128   2.955   6.029   7.328
15034SOL    HW245129   3.093   5.997   7.247
15035SOL     OW45130   3.022   5.793   7.063
15035SOL    HW145131   3.022   5.857   7.140
15035SOL    HW245132   3.050   5.841   6.980
15036SOL     OW45133   1.870   6.912   5.786
15036SOL    HW145134   1.777   6.933   5.755
15036SOL    HW245135   1.880   6.813   5.799
15037SOL     OW45136   1.950   7.387   6.513
15037SOL    HW145137   1.908   7.301   6.486
15037SOL    HW245138   2.044   7.390   6.479
15038SOL     OW45139   2.366   7.154   6.496
15038SOL    HW145140   2.432   7.228   6.505
15038SOL    HW245141   2.410   7.075   6.454
15039SOL     OW45142   2.864   6.382   6.824
15039SOL    HW145143   2.905   6.350   6.910
15039SOL    HW245144   2.768   6.355   6.821
15040SOL     OW45145   1.902   6.130   6.700
15040SOL    HW145146   1.987   6.097   6.659
15040SOL    HW245147   1.915   6.145   6.798
15041SOL     OW45148   2.051   6.106   7.308
15041SOL    HW145149   2.110   6.066   7.238
15041SOL    HW245150   1.993   6.177   7.267
15042SOL     OW45151   3.231   6.536   7.246
15042SOL    HW145152   3.270   6.625   7.266
15042SOL    HW245153   3.241   6.516   7.149
15043SOL     OW45154   2.677   6.158   5.911
15043SOL    HW145155   2.684   6.069   5.865
15043SOL    HW245156   2.583   6.192   5.903
15044SOL     OW45157   3.519   6.190   6.792
15044SOL    HW145158   3.481   6.121   6.854
15044SOL    HW245159   3.601   6.154   6.748
15045SOL     OW45160   2.114   7.150   7.330
15045SOL    HW145161   2.084   7.207   7.406
15045SOL    HW245162   2.107   7.053   7.356
15046SOL     OW45163   2.533   6.050   6.855
15046SOL    HW145164   2.499   5.961   6.825
15046SOL    HW245165   2.559   6.104   6.775
15047SOL     OW45166   2.792   7.264   7.051
15047SOL    HW145167   2.768   7.246   6.956
15047SOL    HW245168   2.822   7.358   7.061
15048SOL     OW45169   2.335   6.086   5.777
15048SOL    HW145170   2.396   6.166   5.781
15048SOL    HW245171   2.240   6.117   5.784
15049SOL     OW45172   2.021   6.723   7.052
15049SOL    HW145173   2.043   6.662   7.128
15049SOL    HW245174   2.031   6.674   6.966
15050SOL     OW45175   3.209   6.645   6.820
15050SOL    HW145176   3.233   6.582   6.746
15050SOL    HW245177   3.119   6.685   6.802
15051SOL     OW45178   3.164   6.441   5.895
15051SOL    HW145179   3.078   6.410   5.937
15051SOL    HW245180   3.160   6.427   5.796
15052SOL     OW45181   3.621   7.333   6.740
15052SOL    HW145182   3.682   7.363   6.667
15052SOL    HW245183   3.583   7.244   6.718
15053SOL     OW45184   3.114   7.317   6.714
15053SOL    HW145185   3.198   7.322   6.660
15053SOL    HW245186   3.091   7.221   6.732
15054SOL     OW45187   1.945   6.844   6.608
15054SOL    HW145188   1.940   6.843   6.708
15054SOL    HW245189   1.862   6.803   6.570
15055SOL     OW45190   2.550   7.248   7.302
15055SOL    HW145191   2.494   7.329   7.311
15055SOL    HW245192   2.602   7.252   7.216
15056SOL     OW45193   3.588   5.721   6.109
15056SOL    HW145194   3.661   5.704   6.042
15056SOL    HW245195   3.557   5.634   6.147
15057SOL     OW45196   3.250   7.159   6.063
15057SOL    HW145197   3.317   7.171   5.989
15057SOL    HW245198   3.210   7.248   6.086
15058SOL     OW45199   1.992   7.380   7.437
15058SOL    HW145200   1.951   7.306   7.490
15058SOL    HW245201   2.056   7.431   7.495
15059SOL     OW45202   3.142   6.513   6.258
15059SOL    HW145203   3.202   6.432   6.260
15059SOL    HW245204   3.182   6.582   6.198
15060SOL     OW45205   2.692   6.859   7.008
15060SOL    HW145206   2.687   6.892   7.103
15060SOL    HW245207   2.606   6.878   6.962
15061SOL     OW45208   2.534   7.202   5.740
15061SOL    HW145209   2.543   7.212   5.641
15061SOL    HW245210   2.494   7.113   5.761
15062SOL     OW45211   3.512   7.306   6.980
15062SOL    HW145212   3.565   7.316   6.896
15062SOL    HW245213   3.485   7.396   7.014
15063SOL     OW45214   3.703   5.761   6.549
15063SOL    HW145215   3.742   5.676   6.513
15063SOL    HW245216   3.605   5.763   6.530
15064SOL     OW45217   2.125   5.912   6.306
15064SOL    HW145218   2.046   5.963   6.272
15064SOL    HW245219   2.116   5.897   6.404
15065SOL     OW45220   3.056   7.198   5.617
15065SOL    HW145221   3.062   7.105   5.654
15065SOL    HW245222   2.997   7.198   5.537
15066SOL     OW45223   2.684   6.588   6.958
15066SOL    HW145224   2.724   6.587   6.866
15066SOL    HW245225   2.694   6.680   6.998
15067SOL     OW45226   2.778   6.496   5.877
15067SOL    HW145227   2.841   6.534   5.809
15067SOL    HW245228   2.818   6.413   5.916
15068SOL     OW45229   3.366   7.193   5.630
15068SOL    HW145230   3.274   7.230   5.637
15068SOL    HW245231   3.404   7.213   5.540
15069SOL     OW45232   2.234   6.874   7.076
15069SOL    HW145233   2.221   6.967   7.042
15069SOL    HW245234   2.150   6.822   7.063
15070SOL     OW45235   3.476   6.878   6.875
15070SOL    HW145236   3.536   6.881   6.955
15070SOL    HW245237   3.401   6.942   6.888
15071SOL     OW45238   2.901   6.684   6.282
15071SOL    HW145239   2.831   6.637   6.336
15071SOL    HW245240   2.960   6.616   6.239
15072SOL     OW45241   2.876   5.822   6.557
15072SOL    HW145242   2.868   5.786   6.464
15072SOL    HW245243   2.874   5.746   6.622
15073SOL     OW45244   2.452   7.073   6.077
15073SOL    HW145245   2.494   7.015   6.007
15073SOL    HW245246   2.408   7.152   6.033
15074SOL     OW45247   3.571   5.971   6.967
15074SOL    HW145248   3.644   6.040   6.971
15074SOL    HW245249   3.599   5.896   6.908
15075SOL     OW45250   2.117   6.934   5.876
15075SOL    HW145251   2.021   6.935   5.849
15075SOL    HW245252   2.129   6.987   5.960
15076SOL     OW45253   1.967   6.599   7.312
15076SOL    HW145254   1.890   6.566   7.366
15076SOL    HW245255   2.052   6.569   7.354
15077SOL     OW45256   2.534   5.789   7.075
15077SOL    HW145257   2.624   5.773   7.035
15077SOL    HW245258   2.542   5.794   7.174
15078SOL     OW45259   1.937   5.931   5.619
15078SOL    HW145260   1.845   5.903   5.590
15078SOL    HW245261   1.968   6.008   5.563
15079SOL     OW45262   3.302   6.442   6.984
15079SOL    HW145263   3.245   6.494   6.921
15079SOL    HW245264   3.398   6.454   6.960
15080SOL     OW45265   1.934   5.752   5.904
15080SOL    HW145266   1.917   5.835   5.850
15080SOL    HW245267   2.024   5.715   5.882
15081SOL     OW45268   3.045   6.921   5.705
15081SOL    HW145269   2.946   6.910   5.707
15081SOL    HW245270   3.079   6.936   5.798
15082SOL     OW45271   2.475   6.428   7.017
15082SOL    HW145272   2.531   6.509   7.000
15082SOL    HW245273   2.534   6.348   7.020
15083SOL     OW45274   3.355   7.353   6.545
15083SOL    HW145275   3.388   7.417   6.476
15083SOL    HW245276   3.421   7.347   6.620
15084SOL     OW45277   2.578   6.151   7.294
15084SOL    HW145278   2.597   6.216   7.368
15084SOL    HW245279   2.638   6.071   7.303
15085SOL     OW45280   3.312   6.806   7.219
15085SOL    HW145281   3.303   6.796   7.318
15085SOL    HW245282   3.408   6.799   7.193
15086SOL     OW45283   2.252   7.327   7.146
15086SOL    HW145284   2.161   7.368   7.144
15086SOL    HW245285   2.245   7.233   7.178
15087SOL     OW45286   3.536   6.469   6.840
15087SOL    HW145287   3.509   6.380   6.803
15087SOL    HW245288   3.537   6.537   6.767
15088SOL     OW45289   3.087   5.911   6.035
15088SOL    HW145290   3.152   5.837   6.024
15088SOL    HW245291   3.107   5.961   6.119
15089SOL     OW45292   2.456   6.331   6.238
15089SOL    HW145293   2.506   6.416   6.219
15089SOL    HW245294   2.368   6.333   6.190
15090SOL     OW45295   3.639   5.928   7.228
15090SOL    HW145296   3.622   5.959   7.134
15090SOL    HW245297   3.555   5.891   7.266
15091SOL     OW45298   3.592   6.520   7.103
15091SOL    HW145299   3.630   6.611   7.118
15091SOL    HW245300   3.584   6.503   7.004
15092SOL     OW45301   2.721   6.960   5.602
15092SOL    HW145302   2.675   6.975   5.690
15092SOL    HW245303   2.765   7.045   5.572
15093SOL     OW45304   2.523   7.376   6.539
15093SOL    HW145305   2.477   7.464   6.526
15093SOL    HW245306   2.622   7.388   6.532
15094SOL     OW45307   2.721   6.542   6.447
15094SOL    HW145308   2.775   6.473   6.495
15094SOL    HW245309   2.689   6.611   6.513
15095SOL     OW45310   2.945   6.570   5.673
15095SOL    HW145311   2.922   6.623   5.591
15095SOL    HW245312   3.026   6.514   5.654
15096SOL     OW45313   3.723   7.155   6.437
15096SOL    HW145314   3.652   7.143   6.367
15096SOL    HW245315   3.724   7.076   6.497
15097SOL     OW45316   2.083   6.900   7.430
15097SOL    HW145317   2.018   6.827   7.409
15097SOL    HW245318   2.087   6.914   7.528
15098SOL     OW45319   1.941   6.826   6.239
15098SOL    HW145320   1.940   6.779   6.327
15098SOL    HW245321   2.023   6.798   6.188
15099SOL     OW45322   2.534   6.977   7.210
15099SOL    HW145323   2.456   6.927   7.248
15099SOL    HW245324   2.531   7.072   7.241
15100SOL     OW45325   3.686   5.778   6.813
15100SOL    HW145326   3.682   5.688   6.857
15100SOL    HW245327   3.689   5.767   6.714
15101SOL     OW45328   2.290   6.010   6.106
15101SOL    HW145329   2.320   5.938   6.044
15101SOL    HW245330   2.251   5.970   6.189
15102SOL     OW45331   3.567   7.073   6.690
15102SOL    HW145332   3.474   7.048   6.663
15102SOL    HW245333   3.593   7.023   6.772
15103SOL     OW45334   2.179   6.133   6.866
15103SOL    HW145335   2.217   6.074   6.938
15103SOL    HW245336   2.219   6.107   6.778
15104SOL     OW45337   2.674   7.172   6.273
15104SOL    HW145338   2.706   7.182   6.179
15104SOL    HW245339   2.595   7.110   6.275
15105SOL     OW45340   3.286   5.800   6.698
15105SOL    HW145341   3.338   5.735   6.753
15105SOL    HW245342   3.237   5.863   6.759
15106SOL     OW45343   2.863   5.620   6.740
15106SOL    HW145344   2.800   5.548   6.709
15106SOL    HW245345   2.956   5.584   6.740
15107SOL     OW45346   2.632   6.916   5.887
15107SOL    HW145347   2.586   6.829   5.904
15107SOL    HW245348   2.723   6.913   5.928
15108SOL     OW45349   2.480   7.153   6.870
15108SOL    HW145350   2.475   7.235   6.927
15108SOL    HW245351   2.569   7.150   6.825
15109SOL     OW45352   3.214   5.638   5.754
15109SOL    HW145353   3.249   5.597   5.670
15109SOL    HW245354   3.124   5.600   5.774
15110SOL     OW45355   3.162   6.039   6.277
15110SOL    HW145356   3.103   6.119   6.281
15110SOL    HW245357   3.177   6.004   6.370
15111SOL     OW45358   3.455   5.807   6.468
15111SOL    HW145359   3.371   5.806   6.522
15111SOL    HW245360   3.457   5.890   6.412
15112SOL     OW45361   1.901   6.663   5.886
15112SOL    HW145362   2.000   6.652   5.877
15112SOL    HW245363   1.861   6.577   5.918
15113SOL     OW45364   2.737   7.232   5.923
15113SOL    HW145365   2.660   7.197   5.869
15113SOL    HW245366   2.705   7.303   5.985
15114SOL     OW45367   2.092   6.214   7.561
15114SOL    HW145368   1.999   6.212   7.598
15114SOL    HW245369   2.093   6.175   7.469
15115SOL     OW45370   2.087   5.861   8.444
15115SOL    HW145371   2.122   5.844   8.536
15115SOL    HW245372   1.999   5.816   8.432
15116SOL     OW45373   1.881   5.954   8.095
15116SOL    HW145374   1.799   5.997   8.134
15116SOL    HW245375   1.853   5.881   8.032
15117SOL     OW45376   2.431   6.861   8.613
15117SOL    HW145377   2.338   6.854   8.576
15117SOL    HW245378   2.442   6.950   8.657
15118SOL     OW45379   3.417   7.097   8.151
15118SOL    HW145380   3.360   7.081   8.232
15118SOL    HW245381   3.358   7.107   8.071
15119SOL     OW45382   2.997   6.289   8.165
15119SOL    HW145383   3.054   6.367   8.140
15119SOL    HW245384   2.937   6.315   8.241
15120SOL     OW45385   3.617   6.193   7.679
15120SOL    HW145386   3.605   6.180   7.580
15120SOL    HW245387   3.587   6.112   7.728
15121SOL     OW45388   2.630   6.730   8.471
15121SOL    HW145389   2.552   6.747   8.531
15121SOL    HW245390   2.664   6.817   8.435
15122SOL     OW45391   2.712   6.384   9.271
15122SOL    HW145392   2.708   6.460   9.336
15122SOL    HW245393   2.734   6.420   9.180
15123SOL     OW45394   2.547   6.598   8.113
15123SOL    HW145395   2.616   6.582   8.183
15123SOL    HW245396   2.474   6.655   8.151
15124SOL     OW45397   2.548   6.747   9.251
15124SOL    HW145398   2.608   6.826   9.265
15124SOL    HW245399   2.462   6.778   9.210
15125SOL     OW45400   2.197   7.021   8.509
15125SOL    HW145401   2.119   6.990   8.456
15125SOL    HW245402   2.255   7.079   8.452
15126SOL     OW45403   3.322   7.091   8.787
15126SOL    HW145404   3.346   7.185   8.813
15126SOL    HW245405   3.306   7.037   8.869
15127SOL     OW45406   2.300   5.978   8.947
15127SOL    HW145407   2.382   5.922   8.956
15127SOL    HW245408   2.219   5.920   8.951
15128SOL     OW45409   3.465   6.033   8.185
15128SOL    HW145410   3.391   6.079   8.135
15128SOL    HW245411   3.516   6.101   8.238
15129SOL     OW45412   2.093   7.299   7.931
15129SOL    HW145413   2.127   7.376   7.985
15129SOL    HW245414   2.137   7.299   7.841
15130SOL     OW45415   2.989   6.927   9.138
15130SOL    HW145416   3.036   6.927   9.226
15130SOL    HW245417   2.941   6.840   9.127
15131SOL     OW45418   2.092   7.020   7.986
15131SOL    HW145419   2.066   7.116   7.986
15131SOL    HW245420   2.021   6.966   8.031
15132SOL     OW45421   2.102   6.677   8.334
15132SOL    HW145422   2.116   6.593   8.386
15132SOL    HW245423   2.047   6.741   8.389
15133SOL     OW45424   2.482   7.372   8.887
15133SOL    HW145425   2.390   7.355   8.922
15133SOL    HW245426   2.510   7.464   8.913
15134SOL     OW45427   2.468   6.550   7.571
15134SOL    HW145428   2.475   6.634   7.517
15134SOL    HW245429   2.514   6.563   7.659
15135SOL     OW45430   3.456   5.700   8.928
15135SOL    HW145431   3.438   5.767   8.856
15135SOL    HW245432   3.453   5.746   9.017
15136SOL     OW45433   1.984   6.229   8.011
15136SOL    HW145434   1.939   6.141   8.028
15136SOL    HW245435   1.983   6.283   8.095
15137SOL     OW45436   3.704   7.353   7.807
15137SOL    HW145437   3.758   7.324   7.887
15137SOL    HW245438   3.734   7.443   7.778
15138SOL     OW45439   1.889   7.182   7.565
15138SOL    HW145440   1.870   7.086   7.586
15138SOL    HW245441   1.856   7.240   7.640
15139SOL     OW45442   3.551   6.508   8.060
15139SOL    HW145443   3.646   6.479   8.068
15139SOL    HW245444   3.543   6.573   7.985
15140SOL     OW45445   3.503   6.694   7.880
15140SOL    HW145446   3.589   6.696   7.828
15140SOL    HW245447   3.517   6.741   7.968
15141SOL     OW45448   1.975   6.323   9.045
15141SOL    HW145449   2.063   6.310   9.090
15141SOL    HW245450   1.962   6.420   9.023
15142SOL     OW45451   2.475   6.951   8.174
15142SOL    HW145452   2.426   6.864   8.183
15142SOL    HW245453   2.452   6.994   8.087
15143SOL     OW45454   3.155   6.814   8.871
15143SOL    HW145455   3.192   6.741   8.813
15143SOL    HW245456   3.207   6.819   8.956
15144SOL     OW45457   2.671   5.590   7.950
15144SOL    HW145458   2.711   5.681   7.941
15144SOL    HW245459   2.571   5.598   7.956
15145SOL     OW45460   2.059   6.562   8.712
15145SOL    HW145461   2.148   6.517   8.698
15145SOL    HW245462   1.986   6.497   8.693
15146SOL     OW45463   3.387   6.585   7.638
15146SOL    HW145464   3.324   6.509   7.651
15146SOL    HW245465   3.435   6.603   7.724
15147SOL     OW45466   3.049   7.378   9.064
15147SOL    HW145467   3.073   7.438   8.988
15147SOL    HW245468   3.056   7.283   9.034
15148SOL     OW45469   2.179   5.837   9.249
15148SOL    HW145470   2.250   5.908   9.255
15148SOL    HW245471   2.091   5.876   9.277
15149SOL     OW45472   3.328   7.003   8.401
15149SOL    HW145473   3.269   7.009   8.481
15149SOL    HW245474   3.313   6.915   8.355
15150SOL     OW45475   3.529   7.300   8.020
15150SOL    HW145476   3.488   7.277   7.932
15150SOL    HW245477   3.511   7.226   8.085
15151SOL     OW45478   2.460   6.315   7.718
15151SOL    HW145479   2.484   6.384   7.650
15151SOL    HW245480   2.382   6.348   7.772
15152SOL     OW45481   3.143   5.931   8.392
15152SOL    HW145482   3.057   5.881   8.379
15152SOL    HW245483   3.205   5.877   8.448
15153SOL     OW45484   3.438   7.248   7.755
15153SOL    HW145485   3.527   7.294   7.758
15153SOL    HW245486   3.417   7.224   7.660
15154SOL     OW45487   2.669   6.191   8.913
15154SOL    HW145488   2.622   6.188   9.002
15154SOL    HW245489   2.618   6.136   8.847
15155SOL     OW45490   3.256   6.055   9.122
15155SOL    HW145491   3.236   6.098   9.210
15155SOL    HW245492   3.334   5.993   9.131
15156SOL     OW45493   2.835   6.476   9.020
15156SOL    HW145494   2.881   6.392   8.991
15156SOL    HW245495   2.779   6.510   8.945
15157SOL     OW45496   2.853   5.996   8.690
15157SOL    HW145497   2.776   6.030   8.744
15157SOL    HW245498   2.819   5.945   8.611
15158SOL     OW45499   2.903   6.287   7.877
15158SOL    HW145500   2.929   6.283   7.973
15158SOL    HW245501   2.818   6.236   7.863
15159SOL     OW45502   1.938   6.397   8.237
15159SOL    HW145503   2.037   6.385   8.246
15159SOL    HW245504   1.914   6.492   8.258
15160SOL     OW45505   1.992   7.407   9.019
15160SOL    HW145506   1.982   7.392   9.118
15160SOL    HW245507   1.906   7.443   8.983
15161SOL     OW45508   2.727   5.934   7.643
15161SOL    HW145509   2.786   5.997   7.594
15161SOL    HW245510   2.746   5.840   7.614
15162SOL     OW45511   3.581   6.171   9.279
15162SOL    HW145512   3.555   6.260   9.243
15162SOL    HW245513   3.579   6.103   9.206
15163SOL     OW45514   3.224   6.730   7.993
15163SOL    HW145515   3.307   6.701   7.945
15163SOL    HW245516   3.175   6.797   7.937
15164SOL     OW45517   2.412   5.782   8.333
15164SOL    HW145518   2.407   5.777   8.433
15164SOL    HW245519   2.414   5.878   8.304
15165SOL     OW45520   2.870   7.042   7.925
15165SOL    HW145521   2.824   7.114   7.873
15165SOL    HW245522   2.866   7.062   8.023
15166SOL     OW45523   2.213   7.387   8.301
15166SOL    HW145524   2.263   7.301   8.307
15166SOL    HW245525   2.278   7.464   8.298
15167SOL     OW45526   3.657   6.652   8.321
15167SOL    HW145527   3.595   6.637   8.245
15167SOL    HW245528   3.605   6.663   8.406
15168SOL     OW45529   3.089   7.136   8.954
15168SOL    HW145530   3.095   7.059   9.018
15168SOL    HW245531   3.037   7.110   8.874
15169SOL     OW45532   2.183   6.529   7.690
15169SOL    HW145533   2.265   6.568   7.648
15169SOL    HW245534   2.156   6.447   7.641
15170SOL     OW45535   3.320   6.321   8.176
15170SOL    HW145536   3.315   6.256   8.251
15170SOL    HW245537   3.400   6.380   8.189
15171SOL     OW45538   2.323   6.852   9.175
15171SOL    HW145539   2.273   6.853   9.089
15171SOL    HW245540   2.260   6.834   9.251
15172SOL     OW45541   2.973   7.362   7.685
15172SOL    HW145542   2.913   7.300   7.735
15172SOL    HW245543   3.004   7.318   7.600
15173SOL     OW45544   2.064   5.871   8.946
15173SOL    HW145545   1.984   5.931   8.933
15173SOL    HW245546   2.054   5.822   9.032
15174SOL     OW45547   3.494   6.963   7.529
15174SOL    HW145548   3.462   7.057   7.519
15174SOL    HW245549   3.418   6.900   7.517
15175SOL     OW45550   2.326   7.329   7.771
15175SOL    HW145551   2.359   7.368   7.857
15175SOL    HW245552   2.402   7.322   7.706
15176SOL     OW45553   3.262   5.693   7.874
15176SOL    HW145554   3.238   5.656   7.784
15176SOL    HW245555   3.361   5.709   7.878
15177SOL     OW45556   2.111   7.371   8.689
15177SOL    HW145557   2.168   7.306   8.739
15177SOL    HW245558   2.095   7.338   8.596
15178SOL     OW45559   2.802   7.284   8.352
15178SOL    HW145560   2.882   7.227   8.373
15178SOL    HW245561   2.753   7.244   8.275
15179SOL     OW45562   2.244   6.286   7.928
15179SOL    HW145563   2.289   6.196   7.925
15179SOL    HW245564   2.150   6.275   7.961
15180SOL     OW45565   3.409   5.808   9.177
15180SOL    HW145566   3.404   5.845   9.269
15180SOL    HW245567   3.337   5.739   9.165
15181SOL     OW45568   2.476   5.708   7.565
15181SOL    HW145569   2.574   5.686   7.572
15181SOL    HW245570   2.445   5.691   7.472
15182SOL     OW45571   2.643   5.850   9.197
15182SOL    HW145572   2.710   5.789   9.240
15182SOL    HW245573   2.570   5.869   9.262
15183SOL     OW45574   2.750   7.100   8.643
15183SOL    HW145575   2.727   7.075   8.549
15183SOL    HW245576   2.811   7.031   8.682
15184SOL     OW45577   3.213   6.176   8.881
15184SOL    HW145578   3.241   6.133   8.966
15184SOL    HW245579   3.238   6.272   8.882
15185SOL     OW45580   2.665   6.988   8.372
15185SOL    HW145581   2.755   7.002   8.330
15185SOL    HW245582   2.594   6.990   8.301
15186SOL     OW45583   2.784   6.089   8.347
15186SOL    HW145584   2.759   6.080   8.251
15186SOL    HW245585   2.832   6.007   8.378
15187SOL     OW45586   2.401   5.650   7.960
15187SOL    HW145587   2.320   5.651   8.018
15187SOL    HW245588   2.404   5.733   7.905
15188SOL     OW45589   3.296   6.774   7.489
15188SOL    HW145590   3.328   6.698   7.546
15188SOL    HW245591   3.204   6.801   7.519
15189SOL     OW45592   2.159   5.621   7.619
15189SOL    HW145593   2.208   5.705   7.598
15189SOL    HW245594   2.221   5.556   7.664
15190SOL     OW45595   2.797   5.822   7.928
15190SOL    HW145596   2.749   5.863   7.850
15190SOL    HW245597   2.896   5.820   7.909
15191SOL     OW45598   2.938   6.269   8.912
15191SOL    HW145599   2.858   6.208   8.915
15191SOL    HW245600   3.019   6.216   8.888
15192SOL     OW45601   3.089   7.156   8.241
15192SOL    HW145602   3.110   7.230   8.176
15192SOL    HW245603   3.157   7.156   8.314
15193SOL     OW45604   2.321   6.738   8.189
15193SOL    HW145605   2.250   6.711   8.254
15193SOL    HW245606   2.295   6.710   8.096
15194SOL     OW45607   3.133   7.383   8.039
15194SOL    HW145608   3.177   7.447   7.975
15194SOL    HW245609   3.083   7.435   8.109
15195SOL     OW45610   2.894   6.135   7.464
15195SOL    HW145611   2.853   6.217   7.425
15195SOL    HW245612   2.958   6.161   7.537
15196SOL     OW45613   1.940   6.142   8.834
15196SOL    HW145614   2.032   6.141   8.793
15196SOL    HW245615   1.934   6.216   8.901
15197SOL     OW45616   2.423   5.808   8.595
15197SOL    HW145617   2.461   5.724   8.632
15197SOL    HW245618   2.335   5.827   8.639
15198SOL     OW45619   2.728   6.040   8.090
15198SOL    HW145620   2.696   6.112   8.028
15198SOL    HW245621   2.752   5.959   8.037
15199SOL     OW45622   2.879   5.625   8.201
15199SOL    HW145623   2.807   5.630   8.132
15199SOL    HW245624   2.855   5.556   8.270
15200SOL     OW45625   3.291   6.759   8.315
15200SOL    HW145626   3.236   6.675   8.308
15200SOL    HW245627   3.317   6.788   8.223
15201SOL     OW45628   3.328   6.176   8.440
15201SOL    HW145629   3.298   6.081   8.447
15201SOL    HW245630   3.401   6.192   8.506
15202SOL     OW45631   3.719   6.419   7.825
15202SOL    HW145632   3.761   6.355   7.889
15202SOL    HW245633   3.681   6.368   7.747
15203SOL     OW45634   2.350   6.971   7.622
15203SOL    HW145635   2.263   6.956   7.669
15203SOL    HW245636   2.333   6.997   7.527
15204SOL     OW45637   3.526   6.866   8.105
15204SOL    HW145638   3.625   6.874   8.119
15204SOL    HW245639   3.481   6.950   8.136
15205SOL     OW45640   3.252   6.161   7.526
15205SOL    HW145641   3.198   6.140   7.607
15205SOL    HW245642   3.343   6.120   7.535
15206SOL     OW45643   2.389   5.842   7.776
15206SOL    HW145644   2.416   5.783   7.701
15206SOL    HW245645   2.389   5.937   7.745
15207SOL     OW45646   3.616   6.809   9.036
15207SOL    HW145647   3.707   6.770   9.023
15207SOL    HW245648   3.624   6.905   9.060
15208SOL     OW45649   2.926   6.933   8.788
15208SOL    HW145650   2.846   6.910   8.843
15208SOL    HW245651   3.009   6.907   8.837
15209SOL     OW45652   3.454   7.215   9.073
15209SOL    HW145653   3.481   7.249   8.983
15209SOL    HW245654   3.533   7.177   9.119
15210SOL     OW45655   2.973   6.781   8.548
15210SOL    HW145656   2.933   6.825   8.629
15210SOL    HW245657   2.932   6.818   8.465
15211SOL     OW45658   3.500   6.685   8.527
15211SOL    HW145659   3.505   6.766   8.586
15211SOL    HW245660   3.414   6.687   8.476
15212SOL     OW45661   2.777   5.675   8.850
15212SOL    HW145662   2.802   5.655   8.755
15212SOL    HW245663   2.849   5.731   8.892
15213SOL     OW45664   2.842   6.702   9.167
15213SOL    HW145665   2.743   6.708   9.177
15213SOL    HW245666   2.865   6.622   9.111
15214SOL     OW45667   2.567   6.636   7.816
15214SOL    HW145668   2.553   6.643   7.915
15214SOL    HW245669   2.651   6.585   7.798
15215SOL     OW45670   2.272   6.399   8.699
15215SOL    HW145671   2.358   6.411   8.749
15215SOL    HW245672   2.230   6.312   8.726
15216SOL     OW45673   3.136   5.972   8.710
15216SOL    HW145674   3.157   6.046   8.774
15216SOL    HW245675   3.047   5.989   8.667
15217SOL     OW45676   1.926   7.150   8.779
15217SOL    HW145677   1.880   7.232   8.745
15217SOL    HW245678   2.024   7.169   8.788
15218SOL     OW45679   2.229   6.686   7.949
15218SOL    HW145680   2.222   6.769   7.893
15218SOL    HW245681   2.233   6.606   7.889
15219SOL     OW45682   2.428   6.123   8.313
15219SOL    HW145683   2.440   6.189   8.239
15219SOL    HW245684   2.474   6.157   8.396
15220SOL     OW45685   3.114   6.934   7.836
15220SOL    HW145686   3.164   7.011   7.876
15220SOL    HW245687   3.019   6.936   7.868
15221SOL     OW45688   3.134   7.031   8.590
15221SOL    HW145689   3.181   7.044   8.677
15221SOL    HW245690   3.068   6.957   8.599
15222SOL     OW45691   3.444   6.225   7.920
15222SOL    HW145692   3.413   6.286   7.993
15222SOL    HW245693   3.494   6.277   7.851
15223SOL     OW45694   2.216   7.096   8.777
15223SOL    HW145695   2.195   7.052   8.690
15223SOL    HW245696   2.313   7.122   8.780
15224SOL     OW45697   2.264   6.337   9.046
15224SOL    HW145698   2.332   6.392   8.999
15224SOL    HW245699   2.304   6.249   9.073
15225SOL     OW45700   3.449   6.365   9.118
15225SOL    HW145701   3.357   6.403   9.113
15225SOL    HW245702   3.509   6.412   9.053
15226SOL     OW45703   2.875   5.691   9.218
15226SOL    HW145704   2.881   5.776   9.166
15226SOL    HW245705   2.907   5.615   9.161
15227SOL     OW45706   2.366   5.636   9.188
15227SOL    HW145707   2.324   5.579   9.118
15227SOL    HW245708   2.300   5.705   9.220
15228SOL     OW45709   2.435   6.456   8.477
15228SOL    HW145710   2.479   6.545   8.468
15228SOL    HW245711   2.372   6.456   8.554
15229SOL     OW45712   3.222   6.448   8.493
15229SOL    HW145713   3.147   6.448   8.427
15229SOL    HW245714   3.259   6.356   8.502
15230SOL     OW45715   3.071   6.111   7.723
15230SOL    HW145716   3.084   6.027   7.777
15230SOL    HW245717   3.042   6.185   7.783
15231SOL     OW45718   2.169   5.799   8.679
15231SOL    HW145719   2.146   5.836   8.769
15231SOL    HW245720   2.139   5.704   8.673
15232SOL     OW45721   1.899   6.896   8.730
15232SOL    HW145722   1.952   6.847   8.798
15232SOL    HW245723   1.921   6.994   8.735
15233SOL     OW45724   2.594   6.220   8.512
15233SOL    HW145725   2.653   6.194   8.436
15233SOL    HW245726   2.566   6.316   8.501
15234SOL     OW45727   3.590   6.521   9.302
15234SOL    HW145728   3.544   6.514   9.213
15234SOL    HW245729   3.528   6.565   9.368
15235SOL     OW45730   2.169   5.649   8.066
15235SOL    HW145731   2.158   5.743   8.099
15235SOL    HW245732   2.164   5.586   8.143
15236SOL     OW45733   3.484   5.953   7.822
15236SOL    HW145734   3.486   5.877   7.886
15236SOL    HW245735   3.436   6.030   7.862
15237SOL     OW45736   2.885   6.352   8.414
15237SOL    HW145737   2.900   6.373   8.510
15237SOL    HW245738   2.855   6.257   8.405
15238SOL     OW45739   2.842   7.159   9.148
15238SOL    HW145740   2.822   7.203   9.060
15238SOL    HW245741   2.881   7.068   9.132
15239SOL     OW45742   3.721   7.104   9.053
15239SOL    HW145743   3.735   7.131   8.958
15239SOL    HW245744   3.804   7.126   9.106
15240SOL     OW45745   2.212   6.484   9.252
15240SOL    HW145746   2.288   6.528   9.300
15240SOL    HW245747   2.247   6.437   9.170
15241SOL     OW45748   3.402   5.860   7.573
15241SOL    HW145749   3.341   5.785   7.596
15241SOL    HW245750   3.424   5.912   7.656
15242SOL     OW45751   3.165   6.424   7.490
15242SOL    HW145752   3.199   6.331   7.505
15242SOL    HW245753   3.183   6.451   7.395
15243SOL     OW45754   2.930   6.919   8.297
15243SOL    HW145755   2.937   6.835   8.242
15243SOL    HW245756   2.992   6.988   8.261
15244SOL     OW45757   2.181   6.396   8.397
15244SOL    HW145758   2.274   6.432   8.402
15244SOL    HW245759   2.175   6.311   8.449
15245SOL     OW45760   2.201   6.095   8.454
15245SOL    HW145761   2.149   6.012   8.437
15245SOL    HW245762   2.278   6.100   8.390
15246SOL     OW45763   3.000   5.966   9.126
15246SOL    HW145764   2.955   6.029   9.190
15246SOL    HW245765   3.093   5.997   9.109
15247SOL     OW45766   3.022   5.793   8.925
15247SOL    HW145767   3.022   5.857   9.002
15247SOL    HW245768   3.050   5.841   8.842
15248SOL     OW45769   1.870   6.912   7.648
15248SOL    HW145770   1.777   6.933   7.617
15248SOL    HW245771   1.880   6.813   7.661
15249SOL     OW45772   1.950   7.387   8.375
15249SOL    HW145773   1.908   7.301   8.348
15249SOL    HW245774   2.044   7.390   8.341
15250SOL     OW45775   2.366   7.154   8.358
15250SOL    HW145776   2.432   7.228   8.367
15250SOL    HW245777   2.410   7.075   8.316
15251SOL     OW45778   2.864   6.382   8.686
15251SOL    HW145779   2.905   6.350   8.772
15251SOL    HW245780   2.768   6.355   8.683
15252SOL     OW45781   1.902   6.130   8.562
15252SOL    HW145782   1.987   6.097   8.521
15252SOL    HW245783   1.915   6.145   8.660
15253SOL     OW45784   2.051   6.106   9.170
15253SOL    HW145785   2.110   6.066   9.100
15253SOL    HW245786   1.993   6.177   9.129
15254SOL     OW45787   3.231   6.536   9.108
15254SOL    HW145788   3.270   6.625   9.128
15254SOL    HW245789   3.241   6.516   9.011
15255SOL     OW45790   2.677   6.158   7.773
15255SOL    HW145791   2.684   6.069   7.727
15255SOL    HW245792   2.583   6.192   7.765
15256SOL     OW45793   3.519   6.190   8.654
15256SOL    HW145794   3.481   6.121   8.716
15256SOL    HW245795   3.601   6.154   8.610
15257SOL     OW45796   2.114   7.150   9.192
15257SOL    HW145797   2.084   7.207   9.268
15257SOL    HW245798   2.107   7.053   9.218
15258SOL     OW45799   2.533   6.050   8.717
15258SOL    HW145800   2.499   5.961   8.687
15258SOL    HW245801   2.559   6.104   8.637
15259SOL     OW45802   2.792   7.264   8.913
15259SOL    HW145803   2.768   7.246   8.818
15259SOL    HW245804   2.822   7.358   8.923
15260SOL     OW45805   2.335   6.086   7.639
15260SOL    HW145806   2.396   6.166   7.643
15260SOL    HW245807   2.240   6.117   7.646
15261SOL     OW45808   2.021   6.723   8.914
15261SOL    HW145809   2.043   6.662   8.990
15261SOL    HW245810   2.031   6.674   8.828
15262SOL     OW45811   3.209   6.645   8.682
15262SOL    HW145812   3.233   6.582   8.608
15262SOL    HW245813   3.119   6.685   8.664
15263SOL     OW45814   3.164   6.441   7.757
15263SOL    HW145815   3.078   6.410   7.799
15263SOL    HW245816   3.160   6.427   7.658
15264SOL     OW45817   3.621   7.333   8.602
15264SOL    HW145818   3.682   7.363   8.529
15264SOL    HW245819   3.583   7.244   8.580
15265SOL     OW45820   3.114   7.317   8.576
15265SOL    HW145821   3.198   7.322   8.522
15265SOL    HW245822   3.091   7.221   8.594
15266SOL     OW45823   1.945   6.844   8.470
15266SOL    HW145824   1.940   6.843   8.570
15266SOL    HW245825   1.862   6.803   8.432
15267SOL     OW45826   2.550   7.248   9.164
15267SOL    HW145827   2.494   7.329   9.173
15267SOL    HW245828   2.602   7.252   9.078
15268SOL     OW45829   3.588   5.721   7.971
15268SOL    HW145830   3.661   5.704   7.904
15268SOL    HW245831   3.557   5.634   8.009
15269SOL     OW45832   3.250   7.159   7.925
15269SOL    HW145833   3.317   7.171   7.851
15269SOL    HW245834   3.210   7.248   7.948
15270SOL     OW45835   1.992   7.380   9.299
15270SOL    HW145836   1.951   7.306   9.352
15270SOL    HW245837   2.056   7.431   9.357
15271SOL     OW45838   3.142   6.513   8.120
15271SOL    HW145839   3.202   6.432   8.122
15271SOL    HW245840   3.182   6.582   8.060
15272SOL     OW45841   2.692   6.859   8.870
15272SOL    HW145842   2.687   6.892   8.965
15272SOL    HW245843   2.606   6.878   8.824
15273SOL     OW45844   2.534   7.202   7.602
15273SOL    HW145845   2.543   7.212   7.503
15273SOL    HW245846   2.494   7.113   7.623
15274SOL     OW45847   3.512   7.306   8.842
15274SOL    HW145848   3.565   7.316   8.758
15274SOL    HW245849   3.485   7.396   8.876
15275SOL     OW45850   3.703   5.761   8.411
15275SOL    HW145851   3.742   5.676   8.375
15275SOL    HW245852   3.605   5.763   8.392
15276SOL     OW45853   2.125   5.912   8.168
15276SOL    HW145854   2.046   5.963   8.134
15276SOL    HW245855   2.116   5.897   8.266
15277SOL     OW45856   3.056   7.198   7.479
15277SOL    HW145857   3.062   7.105   7.516
15277SOL    HW245858   2.997   7.198   7.399
15278SOL     OW45859   2.684   6.588   8.820
15278SOL    HW145860   2.724   6.587   8.728
15278SOL    HW245861   2.694   6.680   8.860
15279SOL     OW45862   2.778   6.496   7.739
15279SOL    HW145863   2.841   6.534   7.671
15279SOL    HW245864   2.818   6.413   7.778
15280SOL     OW45865   3.366   7.193   7.492
15280SOL    HW145866   3.274   7.230   7.499
15280SOL    HW245867   3.404   7.213   7.402
15281SOL     OW45868   2.234   6.874   8.938
15281SOL    HW145869   2.221   6.967   8.904
15281SOL    HW245870   2.150   6.822   8.925
15282SOL     OW45871   3.476   6.878   8.737
15282SOL    HW145872   3.536   6.881   8.817
15282SOL    HW245873   3.401   6.942   8.750
15283SOL     OW45874   2.901   6.684   8.144
15283SOL    HW145875   2.831   6.637   8.198
15283SOL    HW245876   2.960   6.616   8.101
15284SOL     OW45877   2.876   5.822   8.419
15284SOL    HW145878   2.868   5.786   8.326
15284SOL    HW245879   2.874   5.746   8.484
15285SOL     OW45880   2.452   7.073   7.939
15285SOL    HW145881   2.494   7.015   7.869
15285SOL    HW245882   2.408   7.152   7.895
15286SOL     OW45883   3.571   5.971   8.829
15286SOL    HW145884   3.644   6.040   8.833
15286SOL    HW245885   3.599   5.896   8.770
15287SOL     OW45886   2.117   6.934   7.738
15287SOL    HW145887   2.021   6.935   7.711
15287SOL    HW245888   2.129   6.987   7.822
15288SOL     OW45889   1.967   6.599   9.174
15288SOL    HW145890   1.890   6.566   9.228
15288SOL    HW245891   2.052   6.569   9.216
15289SOL     OW45892   2.534   5.789   8.937
15289SOL    HW145893   2.624   5.773   8.897
15289SOL    HW245894   2.542   5.794   9.036
15290SOL     OW45895   1.937   5.931   7.481
15290SOL    HW145896   1.845   5.903   7.452
15290SOL    HW245897   1.968   6.008   7.425
15291SOL     OW45898   3.302   6.442   8.846
15291SOL    HW145899   3.245   6.494   8.783
15291SOL    HW245900   3.398   6.454   8.822
15292SOL     OW45901   1.934   5.752   7.766
15292SOL    HW145902   1.917   5.835   7.712
15292SOL    HW245903   2.024   5.715   7.744
15293SOL     OW45904   3.045   6.921   7.567
15293SOL    HW145905   2.946   6.910   7.569
15293SOL    HW245906   3.079   6.936   7.660
15294SOL     OW45907   2.475   6.428   8.879
15294SOL    HW145908   2.531   6.509   8.862
15294SOL    HW245909   2.534   6.348   8.882
15295SOL     OW45910   3.355   7.353   8.407
15295SOL    HW145911   3.388   7.417   8.338
15295SOL    HW245912   3.421   7.347   8.482
15296SOL     OW45913   2.578   6.151   9.156
15296SOL    HW145914   2.597   6.216   9.230
15296SOL    HW245915   2.638   6.071   9.165
15297SOL     OW45916   3.312   6.806   9.081
15297SOL    HW145917   3.303   6.796   9.180
15297SOL    HW245918   3.408   6.799   9.055
15298SOL     OW45919   2.252   7.327   9.008
15298SOL    HW145920   2.161   7.368   9.006
15298SOL    HW245921   2.245   7.233   9.040
15299SOL     OW45922   3.536   6.469   8.702
15299SOL    HW145923   3.509   6.380   8.665
15299SOL    HW245924   3.537   6.537   8.629
15300SOL     OW45925   3.087   5.911   7.897
15300SOL    HW145926   3.152   5.837   7.886
15300SOL    HW245927   3.107   5.961   7.981
15301SOL     OW45928   2.456   6.331   8.100
15301SOL    HW145929   2.506   6.416   8.081
15301SOL    HW245930   2.368   6.333   8.052
15302SOL     OW45931   3.639   5.928   9.090
15302SOL    HW145932   3.622   5.959   8.996
15302SOL    HW245933   3.555   5.891   9.128
15303SOL     OW45934   3.592   6.520   8.965
15303SOL    HW145935   3.630   6.611   8.980
15303SOL    HW245936   3.584   6.503   8.866
15304SOL     OW45937   2.721   6.960   7.464
15304SOL    HW145938   2.675   6.975   7.552
15304SOL    HW245939   2.765   7.045   7.434
15305SOL     OW45940   2.523   7.376   8.401
15305SOL    HW145941   2.477   7.464   8.388
15305SOL    HW245942   2.622   7.388   8.394
15306SOL     OW45943   2.721   6.542   8.309
15306SOL    HW145944   2.775   6.473   8.357
15306SOL    HW245945   2.689   6.611   8.375
15307SOL     OW45946   2.945   6.570   7.535
15307SOL    HW145947   2.922   6.623   7.453
15307SOL    HW245948   3.026   6.514   7.516
15308SOL     OW45949   3.723   7.155   8.299
15308SOL    HW145950   3.652   7.143   8.229
15308SOL    HW245951   3.724   7.076   8.359
15309SOL     OW45952   2.083   6.900   9.292
15309SOL    HW145953   2.018   6.827   9.271
15309SOL    HW245954   2.087   6.914   9.390
15310SOL     OW45955   1.941   6.826   8.101
15310SOL    HW145956   1.940   6.779   8.189
15310SOL    HW245957   2.023   6.798   8.050
15311SOL     OW45958   2.534   6.977   9.072
15311SOL    HW145959   2.456   6.927   9.110
15311SOL    HW245960   2.531   7.072   9.103
15312SOL     OW45961   3.686   5.778   8.675
15312SOL    HW145962   3.682   5.688   8.719
15312SOL    HW245963   3.689   5.767   8.576
15313SOL     OW45964   2.290   6.010   7.968
15313SOL    HW145965   2.320   5.938   7.906
15313SOL    HW245966   2.251   5.970   8.051
15314SOL     OW45967   3.567   7.073   8.552
15314SOL    HW145968   3.474   7.048   8.525
15314SOL    HW245969   3.593   7.023   8.634
15315SOL     OW45970   2.179   6.133   8.728
15315SOL    HW145971   2.217   6.074   8.800
15315SOL    HW245972   2.219   6.107   8.640
15316SOL     OW45973   2.674   7.172   8.135
15316SOL    HW145974   2.706   7.182   8.041
15316SOL    HW245975   2.595   7.110   8.137
15317SOL     OW45976   3.286   5.800   8.560
15317SOL    HW145977   3.338   5.735   8.615
15317SOL    HW245978   3.237   5.863   8.621
15318SOL     OW45979   2.863   5.620   8.602
15318SOL    HW145980   2.800   5.548   8.571
15318SOL    HW245981   2.956   5.584   8.602
15319SOL     OW45982   2.632   6.916   7.749
15319SOL    HW145983   2.586   6.829   7.766
15319SOL    HW245984   2.723   6.913   7.790
15320SOL     OW45985   2.480   7.153   8.732
15320SOL    HW145986   2.475   7.235   8.789
15320SOL    HW245987   2.569   7.150   8.687
15321SOL     OW45988   3.214   5.638   7.616
15321SOL    HW145989   3.249   5.597   7.532
15321SOL    HW245990   3.124   5.600   7.636
15322SOL     OW45991   3.162   6.039   8.139
15322SOL    HW145992   3.103   6.119   8.143
15322SOL    HW245993   3.177   6.004   8.232
15323SOL     OW45994   3.455   5.807   8.330
15323SOL    HW145995   3.371   5.806   8.384
15323SOL    HW245996   3.457   5.890   8.274
15324SOL     OW45997   1.901   6.663   7.748
15324SOL    HW145998   2.000   6.652   7.739
15324SOL    HW245999   1.861   6.577   7.780
15325SOL     OW46000   2.737   7.232   7.785
15325SOL    HW146001   2.660   7.197   7.731
15325SOL    HW246002   2.705   7.303   7.847
15326SOL     OW46003   2.092   6.214   9.423
15326SOL    HW146004   1.999   6.212   9.460
15326SOL    HW246005   2.093   6.175   9.331
15327SOL     OW46006   2.087   5.861  10.306
15327SOL    HW146007   2.122   5.844  10.398
15327SOL    HW246008   1.999   5.816  10.294
15328SOL     OW46009   1.881   5.954   9.957
15328SOL    HW146010   1.799   5.997   9.996
15328SOL    HW246011   1.853   5.881   9.894
15329SOL     OW46012   2.431   6.861  10.475
15329SOL    HW146013   2.338   6.854  10.438
15329SOL    HW246014   2.442   6.950  10.519
15330SOL     OW46015   3.417   7.097  10.013
15330SOL    HW146016   3.360   7.081  10.094
15330SOL    HW246017   3.358   7.107   9.933
15331SOL     OW46018   2.997   6.289  10.027
15331SOL    HW146019   3.054   6.367  10.002
15331SOL    HW246020   2.937   6.315  10.103
15332SOL     OW46021   3.617   6.193   9.541
15332SOL    HW146022   3.605   6.180   9.442
15332SOL    HW246023   3.587   6.112   9.590
15333SOL     OW46024   2.630   6.730  10.333
15333SOL    HW146025   2.552   6.747  10.393
15333SOL    HW246026   2.664   6.817  10.297
15334SOL     OW46027   2.712   6.384  11.133
15334SOL    HW146028   2.708   6.460  11.198
15334SOL    HW246029   2.734   6.420  11.042
15335SOL     OW46030   2.547   6.598   9.975
15335SOL    HW146031   2.616   6.582  10.045
15335SOL    HW246032   2.474   6.655  10.013
15336SOL     OW46033   2.548   6.747  11.113
15336SOL    HW146034   2.608   6.826  11.127
15336SOL    HW246035   2.462   6.778  11.072
15337SOL     OW46036   2.197   7.021  10.371
15337SOL    HW146037   2.119   6.990  10.318
15337SOL    HW246038   2.255   7.079  10.314
15338SOL     OW46039   3.322   7.091  10.649
15338SOL    HW146040   3.346   7.185  10.675
15338SOL    HW246041   3.306   7.037  10.731
15339SOL     OW46042   2.300   5.978  10.809
15339SOL    HW146043   2.382   5.922  10.818
15339SOL    HW246044   2.219   5.920  10.813
15340SOL     OW46045   3.465   6.033  10.047
15340SOL    HW146046   3.391   6.079   9.997
15340SOL    HW246047   3.516   6.101  10.100
15341SOL     OW46048   2.093   7.299   9.793
15341SOL    HW146049   2.127   7.376   9.847
15341SOL    HW246050   2.137   7.299   9.703
15342SOL     OW46051   2.989   6.927  11.000
15342SOL    HW146052   3.036   6.927  11.088
15342SOL    HW246053   2.941   6.840  10.989
15343SOL     OW46054   2.092   7.020   9.848
15343SOL    HW146055   2.066   7.116   9.848
15343SOL    HW246056   2.021   6.966   9.893
15344SOL     OW46057   2.102   6.677  10.196
15344SOL    HW146058   2.116   6.593  10.248
15344SOL    HW246059   2.047   6.741  10.251
15345SOL     OW46060   2.482   7.372  10.749
15345SOL    HW146061   2.390   7.355  10.784
15345SOL    HW246062   2.510   7.464  10.775
15346SOL     OW46063   2.468   6.550   9.433
15346SOL    HW146064   2.475   6.634   9.379
15346SOL    HW246065   2.514   6.563   9.521
15347SOL     OW46066   3.456   5.700  10.790
15347SOL    HW146067   3.438   5.767  10.718
15347SOL    HW246068   3.453   5.746  10.879
15348SOL     OW46069   1.984   6.229   9.873
15348SOL    HW146070   1.939   6.141   9.890
15348SOL    HW246071   1.983   6.283   9.957
15349SOL     OW46072   3.704   7.353   9.669
15349SOL    HW146073   3.758   7.324   9.749
15349SOL    HW246074   3.734   7.443   9.640
15350SOL     OW46075   1.889   7.182   9.427
15350SOL    HW146076   1.870   7.086   9.448
15350SOL    HW246077   1.856   7.240   9.502
15351SOL     OW46078   3.551   6.508   9.922
15351SOL    HW146079   3.646   6.479   9.930
15351SOL    HW246080   3.543   6.573   9.847
15352SOL     OW46081   3.503   6.694   9.742
15352SOL    HW146082   3.589   6.696   9.690
15352SOL    HW246083   3.517   6.741   9.830
15353SOL     OW46084   1.975   6.323  10.907
15353SOL    HW146085   2.063   6.310  10.952
15353SOL    HW246086   1.962   6.420  10.885
15354SOL     OW46087   2.475   6.951  10.036
15354SOL    HW146088   2.426   6.864  10.045
15354SOL    HW246089   2.452   6.994   9.949
15355SOL     OW46090   3.155   6.814  10.733
15355SOL    HW146091   3.192   6.741  10.675
15355SOL    HW246092   3.207   6.819  10.818
15356SOL     OW46093   2.671   5.590   9.812
15356SOL    HW146094   2.711   5.681   9.803
15356SOL    HW246095   2.571   5.598   9.818
15357SOL     OW46096   2.059   6.562  10.574
15357SOL    HW146097   2.148   6.517  10.560
15357SOL    HW246098   1.986   6.497  10.555
15358SOL     OW46099   3.387   6.585   9.500
15358SOL    HW146100   3.324   6.509   9.513
15358SOL    HW246101   3.435   6.603   9.586
15359SOL     OW46102   3.049   7.378  10.926
15359SOL    HW146103   3.073   7.438  10.850
15359SOL    HW246104   3.056   7.283  10.896
15360SOL     OW46105   2.179   5.837  11.111
15360SOL    HW146106   2.250   5.908  11.117
15360SOL    HW246107   2.091   5.876  11.139
15361SOL     OW46108   3.328   7.003  10.263
15361SOL    HW146109   3.269   7.009  10.343
15361SOL    HW246110   3.313   6.915  10.217
15362SOL     OW46111   3.529   7.300   9.882
15362SOL    HW146112   3.488   7.277   9.794
15362SOL    HW246113   3.511   7.226   9.947
15363SOL     OW46114   2.460   6.315   9.580
15363SOL    HW146115   2.484   6.384   9.512
15363SOL    HW246116   2.382   6.348   9.634
15364SOL     OW46117   3.143   5.931  10.254
15364SOL    HW146118   3.057   5.881  10.241
15364SOL    HW246119   3.205   5.877  10.310
15365SOL     OW46120   3.438   7.248   9.617
15365SOL    HW146121   3.527   7.294   9.620
15365SOL    HW246122   3.417   7.224   9.522
15366SOL     OW46123   2.669   6.191  10.775
15366SOL    HW146124   2.622   6.188  10.864
15366SOL    HW246125   2.618   6.136  10.709
15367SOL     OW46126   3.256   6.055  10.984
15367SOL    HW146127   3.236   6.098  11.072
15367SOL    HW246128   3.334   5.993  10.993
15368SOL     OW46129   2.835   6.476  10.882
15368SOL    HW146130   2.881   6.392  10.853
15368SOL    HW246131   2.779   6.510  10.807
15369SOL     OW46132   2.853   5.996  10.552
15369SOL    HW146133   2.776   6.030  10.606
15369SOL    HW246134   2.819   5.945  10.473
15370SOL     OW46135   2.903   6.287   9.739
15370SOL    HW146136   2.929   6.283   9.835
15370SOL    HW246137   2.818   6.236   9.725
15371SOL     OW46138   1.938   6.397  10.099
15371SOL    HW146139   2.037   6.385  10.108
15371SOL    HW246140   1.914   6.492  10.120
15372SOL     OW46141   1.992   7.407  10.881
15372SOL    HW146142   1.982   7.392  10.980
15372SOL    HW246143   1.906   7.443  10.845
15373SOL     OW46144   2.727   5.934   9.505
15373SOL    HW146145   2.786   5.997   9.456
15373SOL    HW246146   2.746   5.840   9.476
15374SOL     OW46147   3.581   6.171  11.141
15374SOL    HW146148   3.555   6.260  11.105
15374SOL    HW246149   3.579   6.103  11.068
15375SOL     OW46150   3.224   6.730   9.855
15375SOL    HW146151   3.307   6.701   9.807
15375SOL    HW246152   3.175   6.797   9.799
15376SOL     OW46153   2.412   5.782  10.195
15376SOL    HW146154   2.407   5.777  10.295
15376SOL    HW246155   2.414   5.878  10.166
15377SOL     OW46156   2.870   7.042   9.787
15377SOL    HW146157   2.824   7.114   9.735
15377SOL    HW246158   2.866   7.062   9.885
15378SOL     OW46159   2.213   7.387  10.163
15378SOL    HW146160   2.263   7.301  10.169
15378SOL    HW246161   2.278   7.464  10.160
15379SOL     OW46162   3.657   6.652  10.183
15379SOL    HW146163   3.595   6.637  10.107
15379SOL    HW246164   3.605   6.663  10.268
15380SOL     OW46165   3.089   7.136  10.816
15380SOL    HW146166   3.095   7.059  10.880
15380SOL    HW246167   3.037   7.110  10.736
15381SOL     OW46168   2.183   6.529   9.552
15381SOL    HW146169   2.265   6.568   9.510
15381SOL    HW246170   2.156   6.447   9.503
15382SOL     OW46171   3.320   6.321  10.038
15382SOL    HW146172   3.315   6.256  10.113
15382SOL    HW246173   3.400   6.380  10.051
15383SOL     OW46174   2.323   6.852  11.037
15383SOL    HW146175   2.273   6.853  10.951
15383SOL    HW246176   2.260   6.834  11.113
15384SOL     OW46177   2.973   7.362   9.547
15384SOL    HW146178   2.913   7.300   9.597
15384SOL    HW246179   3.004   7.318   9.462
15385SOL     OW46180   2.064   5.871  10.808
15385SOL    HW146181   1.984   5.931  10.795
15385SOL    HW246182   2.054   5.822  10.894
15386SOL     OW46183   3.494   6.963   9.391
15386SOL    HW146184   3.462   7.057   9.381
15386SOL    HW246185   3.418   6.900   9.379
15387SOL     OW46186   2.326   7.329   9.633
15387SOL    HW146187   2.359   7.368   9.719
15387SOL    HW246188   2.402   7.322   9.568
15388SOL     OW46189   3.262   5.693   9.736
15388SOL    HW146190   3.238   5.656   9.646
15388SOL    HW246191   3.361   5.709   9.740
15389SOL     OW46192   2.111   7.371  10.551
15389SOL    HW146193   2.168   7.306  10.601
15389SOL    HW246194   2.095   7.338  10.458
15390SOL     OW46195   2.802   7.284  10.214
15390SOL    HW146196   2.882   7.227  10.235
15390SOL    HW246197   2.753   7.244  10.137
15391SOL     OW46198   2.244   6.286   9.790
15391SOL    HW146199   2.289   6.196   9.787
15391SOL    HW246200   2.150   6.275   9.823
15392SOL     OW46201   3.409   5.808  11.039
15392SOL    HW146202   3.404   5.845  11.131
15392SOL    HW246203   3.337   5.739  11.027
15393SOL     OW46204   2.476   5.708   9.427
15393SOL    HW146205   2.574   5.686   9.434
15393SOL    HW246206   2.445   5.691   9.334
15394SOL     OW46207   2.643   5.850  11.059
15394SOL    HW146208   2.710   5.789  11.102
15394SOL    HW246209   2.570   5.869  11.124
15395SOL     OW46210   2.750   7.100  10.505
15395SOL    HW146211   2.727   7.075  10.411
15395SOL    HW246212   2.811   7.031  10.544
15396SOL     OW46213   3.213   6.176  10.743
15396SOL    HW146214   3.241   6.133  10.828
15396SOL    HW246215   3.238   6.272  10.744
15397SOL     OW46216   2.665   6.988  10.234
15397SOL    HW146217   2.755   7.002  10.192
15397SOL    HW246218   2.594   6.990  10.163
15398SOL     OW46219   2.784   6.089  10.209
15398SOL    HW146220   2.759   6.080  10.113
15398SOL    HW246221   2.832   6.007  10.240
15399SOL     OW46222   2.401   5.650   9.822
15399SOL    HW146223   2.320   5.651   9.880
15399SOL    HW246224   2.404   5.733   9.767
15400SOL     OW46225   3.296   6.774   9.351
15400SOL    HW146226   3.328   6.698   9.408
15400SOL    HW246227   3.204   6.801   9.381
15401SOL     OW46228   2.159   5.621   9.481
15401SOL    HW146229   2.208   5.705   9.460
15401SOL    HW246230   2.221   5.556   9.526
15402SOL     OW46231   2.797   5.822   9.790
15402SOL    HW146232   2.749   5.863   9.712
15402SOL    HW246233   2.896   5.820   9.771
15403SOL     OW46234   2.938   6.269  10.774
15403SOL    HW146235   2.858   6.208  10.777
15403SOL    HW246236   3.019   6.216  10.750
15404SOL     OW46237   3.089   7.156  10.103
15404SOL    HW146238   3.110   7.230  10.038
15404SOL    HW246239   3.157   7.156  10.176
15405SOL     OW46240   2.321   6.738  10.051
15405SOL    HW146241   2.250   6.711  10.116
15405SOL    HW246242   2.295   6.710   9.958
15406SOL     OW46243   3.133   7.383   9.901
15406SOL    HW146244   3.177   7.447   9.837
15406SOL    HW246245   3.083   7.435   9.971
15407SOL     OW46246   2.894   6.135   9.326
15407SOL    HW146247   2.853   6.217   9.287
15407SOL    HW246248   2.958   6.161   9.399
15408SOL     OW46249   1.940   6.142  10.696
15408SOL    HW146250   2.032   6.141  10.655
15408SOL    HW246251   1.934   6.216  10.763
15409SOL     OW46252   2.423   5.808  10.457
15409SOL    HW146253   2.461   5.724  10.494
15409SOL    HW246254   2.335   5.827  10.501
15410SOL     OW46255   2.728   6.040   9.952
15410SOL    HW146256   2.696   6.112   9.890
15410SOL    HW246257   2.752   5.959   9.899
15411SOL     OW46258   2.879   5.625  10.063
15411SOL    HW146259   2.807   5.630   9.994
15411SOL    HW246260   2.855   5.556  10.132
15412SOL     OW46261   3.291   6.759  10.177
15412SOL    HW146262   3.236   6.675  10.170
15412SOL    HW246263   3.317   6.788  10.085
15413SOL     OW46264   3.328   6.176  10.302
15413SOL    HW146265   3.298   6.081  10.309
15413SOL    HW246266   3.401   6.192  10.368
15414SOL     OW46267   3.719   6.419   9.687
15414SOL    HW146268   3.761   6.355   9.751
15414SOL    HW246269   3.681   6.368   9.609
15415SOL     OW46270   2.350   6.971   9.484
15415SOL    HW146271   2.263   6.956   9.531
15415SOL    HW246272   2.333   6.997   9.389
15416SOL     OW46273   3.526   6.866   9.967
15416SOL    HW146274   3.625   6.874   9.981
15416SOL    HW246275   3.481   6.950   9.998
15417SOL     OW46276   3.252   6.161   9.388
15417SOL    HW146277   3.198   6.140   9.469
15417SOL    HW246278   3.343   6.120   9.397
15418SOL     OW46279   2.389   5.842   9.638
15418SOL    HW146280   2.416   5.783   9.563
15418SOL    HW246281   2.389   5.937   9.607
15419SOL     OW46282   3.616   6.809  10.898
15419SOL    HW146283   3.707   6.770  10.885
15419SOL    HW246284   3.624   6.905  10.922
15420SOL     OW46285   2.926   6.933  10.650
15420SOL    HW146286   2.846   6.910  10.705
15420SOL    HW246287   3.009   6.907  10.699
15421SOL     OW46288   3.454   7.215  10.935
15421SOL    HW146289   3.481   7.249  10.845
15421SOL    HW246290   3.533   7.177  10.981
15422SOL     OW46291   2.973   6.781  10.410
15422SOL    HW146292   2.933   6.825  10.491
15422SOL    HW246293   2.932   6.818  10.327
15423SOL     OW46294   3.500   6.685  10.389
15423SOL    HW146295   3.505   6.766  10.448
15423SOL    HW246296   3.414   6.687  10.338
15424SOL     OW46297   2.777   5.675  10.712
15424SOL    HW146298   2.802   5.655  10.617
15424SOL    HW246299   2.849   5.731  10.754
15425SOL     OW46300   2.842   6.702  11.029
15425SOL    HW146301   2.743   6.708  11.039
15425SOL    HW246302   2.865   6.622  10.973
15426SOL     OW46303   2.567   6.636   9.678
15426SOL    HW146304   2.553   6.643   9.777
15426SOL    HW246305   2.651   6.585   9.660
15427SOL     OW46306   2.272   6.399  10.561
15427SOL    HW146307   2.358   6.411  10.611
15427SOL    HW246308   2.230   6.312  10.588
15428SOL     OW46309   3.136   5.972  10.572
15428SOL    HW146310   3.157   6.046  10.636
15428SOL    HW246311   3.047   5.989  10.529
15429SOL     OW46312   1.926   7.150  10.641
15429SOL    HW146313   1.880   7.232  10.607
15429SOL    HW246314   2.024   7.169  10.650
15430SOL     OW46315   2.229   6.686   9.811
15430SOL    HW146316   2.222   6.769   9.755
15430SOL    HW246317   2.233   6.606   9.751
15431SOL     OW46318   2.428   6.123  10.175
15431SOL    HW146319   2.440   6.189  10.101
15431SOL    HW246320   2.474   6.157  10.258
15432SOL     OW46321   3.114   6.934   9.698
15432SOL    HW146322   3.164   7.011   9.738
15432SOL    HW246323   3.019   6.936   9.730
15433SOL     OW46324   3.134   7.031  10.452
15433SOL    HW146325   3.181   7.044  10.539
15433SOL    HW246326   3.068   6.957  10.461
15434SOL     OW46327   3.444   6.225   9.782
15434SOL    HW146328   3.413   6.286   9.855
15434SOL    HW246329   3.494   6.277   9.713
15435SOL     OW46330   2.216   7.096  10.639
15435SOL    HW146331   2.195   7.052  10.552
15435SOL    HW246332   2.313   7.122  10.642
15436SOL     OW46333   2.264   6.337  10.908
15436SOL    HW146334   2.332   6.392  10.861
15436SOL    HW246335   2.304   6.249  10.935
15437SOL     OW46336   3.449   6.365  10.980
15437SOL    HW146337   3.357   6.403  10.975
15437SOL    HW246338   3.509   6.412  10.915
15438SOL     OW46339   2.875   5.691  11.080
15438SOL    HW146340   2.881   5.776  11.028
15438SOL    HW246341   2.907   5.615  11.023
15439SOL     OW46342   2.366   5.636  11.050
15439SOL    HW146343   2.324   5.579  10.980
15439SOL    HW246344   2.300   5.705  11.082
15440SOL     OW46345   2.435   6.456  10.339
15440SOL    HW146346   2.479   6.545  10.330
15440SOL    HW246347   2.372   6.456  10.416
15441SOL     OW46348   3.222   6.448  10.355
15441SOL    HW146349   3.147   6.448  10.289
15441SOL    HW246350   3.259   6.356  10.364
15442SOL     OW46351   3.071   6.111   9.585
15442SOL    HW146352   3.084   6.027   9.639
15442SOL    HW246353   3.042   6.185   9.645
15443SOL     OW46354   2.169   5.799  10.541
15443SOL    HW146355   2.146   5.836  10.631
15443SOL    HW246356   2.139   5.704  10.535
15444SOL     OW46357   1.899   6.896  10.592
15444SOL    HW146358   1.952   6.847  10.660
15444SOL    HW246359   1.921   6.994  10.597
15445SOL     OW46360   2.594   6.220  10.374
15445SOL    HW146361   2.653   6.194  10.298
15445SOL    HW246362   2.566   6.316  10.363
15446SOL     OW46363   3.590   6.521  11.164
15446SOL    HW146364   3.544   6.514  11.075
15446SOL    HW246365   3.528   6.565  11.230
15447SOL     OW46366   2.169   5.649   9.928
15447SOL    HW146367   2.158   5.743   9.961
15447SOL    HW246368   2.164   5.586  10.005
15448SOL     OW46369   3.484   5.953   9.684
15448SOL    HW146370   3.486   5.877   9.748
15448SOL    HW246371   3.436   6.030   9.724
15449SOL     OW46372   2.885   6.352  10.276
15449SOL    HW146373   2.900   6.373  10.372
15449SOL    HW246374   2.855   6.257  10.267
15450SOL     OW46375   2.842   7.159  11.010
15450SOL    HW146376   2.822   7.203  10.922
15450SOL    HW246377   2.881   7.068  10.994
15451SOL     OW46378   3.721   7.104  10.915
15451SOL    HW146379   3.735   7.131  10.820
15451SOL    HW246380   3.804   7.126  10.968
15452SOL     OW46381   2.212   6.484  11.114
15452SOL    HW146382   2.288   6.528  11.162
15452SOL    HW246383   2.247   6.437  11.032
15453SOL     OW46384   3.402   5.860   9.435
15453SOL    HW146385   3.341   5.785   9.458
15453SOL    HW246386   3.424   5.912   9.518
15454SOL     OW46387   3.165   6.424   9.352
15454SOL    HW146388   3.199   6.331   9.367
15454SOL    HW246389   3.183   6.451   9.257
15455SOL     OW46390   2.930   6.919  10.159
15455SOL    HW146391   2.937   6.835  10.104
15455SOL    HW246392   2.992   6.988  10.123
15456SOL     OW46393   2.181   6.396  10.259
15456SOL    HW146394   2.274   6.432  10.264
15456SOL    HW246395   2.175   6.311  10.311
15457SOL     OW46396   2.201   6.095  10.316
15457SOL    HW146397   2.149   6.012  10.299
15457SOL    HW246398   2.278   6.100  10.252
15458SOL     OW46399   3.000   5.966  10.988
15458SOL    HW146400   2.955   6.029  11.052
15458SOL    HW246401   3.093   5.997  10.971
15459SOL     OW46402   3.022   5.793  10.787
15459SOL    HW146403   3.022   5.857  10.864
15459SOL    HW246404   3.050   5.841  10.704
15460SOL     OW46405   1.870   6.912   9.510
15460SOL    HW146406   1.777   6.933   9.479
15460SOL    HW246407   1.880   6.813   9.523
15461SOL     OW46408   1.950   7.387  10.237
15461SOL    HW146409   1.908   7.301  10.210
15461SOL    HW246410   2.044   7.390  10.203
15462SOL     OW46411   2.366   7.154  10.220
15462SOL    HW146412   2.432   7.228  10.229
15462SOL    HW246413   2.410   7.075  10.178
15463SOL     OW46414   2.864   6.382  10.548
15463SOL    HW146415   2.905   6.350  10.634
15463SOL    HW246416   2.768   6.355  10.545
15464SOL     OW46417   1.902   6.130  10.424
15464SOL    HW146418   1.987   6.097  10.383
15464SOL    HW246419   1.915   6.145  10.522
15465SOL     OW46420   2.051   6.106  11.032
15465SOL    HW146421   2.110   6.066  10.962
15465SOL    HW246422   1.993   6.177  10.991
15466SOL     OW46423   3.231   6.536  10.970
15466SOL    HW146424   3.270   6.625  10.990
15466SOL    HW246425   3.241   6.516  10.873
15467SOL     OW46426   2.677   6.158   9.635
15467SOL    HW146427   2.684   6.069   9.589
15467SOL    HW246428   2.583   6.192   9.627
15468SOL     OW46429   3.519   6.190  10.516
15468SOL    HW146430   3.481   6.121  10.578
15468SOL    HW246431   3.601   6.154  10.472
15469SOL     OW46432   2.114   7.150  11.054
15469SOL    HW146433   2.084   7.207  11.130
15469SOL    HW246434   2.107   7.053  11.080
15470SOL     OW46435   2.533   6.050  10.579
15470SOL    HW146436   2.499   5.961  10.549
15470SOL    HW246437   2.559   6.104  10.499
15471SOL     OW46438   2.792   7.264  10.775
15471SOL    HW146439   2.768   7.246  10.680
15471SOL    HW246440   2.822   7.358  10.785
15472SOL     OW46441   2.335   6.086   9.501
15472SOL    HW146442   2.396   6.166   9.505
15472SOL    HW246443   2.240   6.117   9.508
15473SOL     OW46444   2.021   6.723  10.776
15473SOL    HW146445   2.043   6.662  10.852
15473SOL    HW246446   2.031   6.674  10.690
15474SOL     OW46447   3.209   6.645  10.544
15474SOL    HW146448   3.233   6.582  10.470
15474SOL    HW246449   3.119   6.685  10.526
15475SOL     OW46450   3.164   6.441   9.619
15475SOL    HW146451   3.078   6.410   9.661
15475SOL    HW246452   3.160   6.427   9.520
15476SOL     OW46453   3.621   7.333  10.464
15476SOL    HW146454   3.682   7.363  10.391
15476SOL    HW246455   3.583   7.244  10.442
15477SOL     OW46456   3.114   7.317  10.438
15477SOL    HW146457   3.198   7.322  10.384
15477SOL    HW246458   3.091   7.221  10.456
15478SOL     OW46459   1.945   6.844  10.332
15478SOL    HW146460   1.940   6.843  10.432
15478SOL    HW246461   1.862   6.803  10.294
15479SOL     OW46462   2.550   7.248  11.026
15479SOL    HW146463   2.494   7.329  11.035
15479SOL    HW246464   2.602   7.252  10.940
15480SOL     OW46465   3.588   5.721   9.833
15480SOL    HW146466   3.661   5.704   9.766
15480SOL    HW246467   3.557   5.634   9.871
15481SOL     OW46468   3.250   7.159   9.787
15481SOL    HW146469   3.317   7.171   9.713
15481SOL    HW246470   3.210   7.248   9.810
15482SOL     OW46471   1.992   7.380  11.161
15482SOL    HW146472   1.951   7.306  11.214
15482SOL    HW246473   2.056   7.431  11.219
15483SOL     OW46474   3.142   6.513   9.982
15483SOL    HW146475   3.202   6.432   9.984
15483SOL    HW246476   3.182   6.582   9.922
15484SOL     OW46477   2.692   6.859  10.732
15484SOL    HW146478   2.687   6.892  10.827
15484SOL    HW246479   2.606   6.878  10.686
15485SOL     OW46480   2.534   7.202   9.464
15485SOL    HW146481   2.543   7.212   9.365
15485SOL    HW246482   2.494   7.113   9.485
15486SOL     OW46483   3.512   7.306  10.704
15486SOL    HW146484   3.565   7.316  10.620
15486SOL    HW246485   3.485   7.396  10.738
15487SOL     OW46486   3.703   5.761  10.273
15487SOL    HW146487   3.742   5.676  10.237
15487SOL    HW246488   3.605   5.763  10.254
15488SOL     OW46489   2.125   5.912  10.030
15488SOL    HW146490   2.046   5.963   9.996
15488SOL    HW246491   2.116   5.897  10.128
15489SOL     OW46492   3.056   7.198   9.341
15489SOL    HW146493   3.062   7.105   9.378
15489SOL    HW246494   2.997   7.198   9.261
15490SOL     OW46495   2.684   6.588  10.682
15490SOL    HW146496   2.724   6.587  10.590
15490SOL    HW246497   2.694   6.680  10.722
15491SOL     OW46498   2.778   6.496   9.601
15491SOL    HW146499   2.841   6.534   9.533
15491SOL    HW246500   2.818   6.413   9.640
15492SOL     OW46501   3.366   7.193   9.354
15492SOL    HW146502   3.274   7.230   9.361
15492SOL    HW246503   3.404   7.213   9.264
15493SOL     OW46504   2.234   6.874  10.800
15493SOL    HW146505   2.221   6.967  10.766
15493SOL    HW246506   2.150   6.822  10.787
15494SOL     OW46507   3.476   6.878  10.599
15494SOL    HW146508   3.536   6.881  10.679
15494SOL    HW246509   3.401   6.942  10.612
15495SOL     OW46510   2.901   6.684  10.006
15495SOL    HW146511   2.831   6.637  10.060
15495SOL    HW246512   2.960   6.616   9.963
15496SOL     OW46513   2.876   5.822  10.281
15496SOL    HW146514   2.868   5.786  10.188
15496SOL    HW246515   2.874   5.746  10.346
15497SOL     OW46516   2.452   7.073   9.801
15497SOL    HW146517   2.494   7.015   9.731
15497SOL    HW246518   2.408   7.152   9.757
15498SOL     OW46519   3.571   5.971  10.691
15498SOL    HW146520   3.644   6.040  10.695
15498SOL    HW246521   3.599   5.896  10.632
15499SOL     OW46522   2.117   6.934   9.600
15499SOL    HW146523   2.021   6.935   9.573
15499SOL    HW246524   2.129   6.987   9.684
15500SOL     OW46525   1.967   6.599  11.036
15500SOL    HW146526   1.890   6.566  11.090
15500SOL    HW246527   2.052   6.569  11.078
15501SOL     OW46528   2.534   5.789  10.799
15501SOL    HW146529   2.624   5.773  10.759
15501SOL    HW246530   2.542   5.794  10.898
15502SOL     OW46531   1.937   5.931   9.343
15502SOL    HW146532   1.845   5.903   9.314
15502SOL    HW246533   1.968   6.008   9.287
15503SOL     OW46534   3.302   6.442  10.708
15503SOL    HW146535   3.245   6.494  10.645
15503SOL    HW246536   3.398   6.454  10.684
15504SOL     OW46537   1.934   5.752   9.628
15504SOL    HW146538   1.917   5.835   9.574
15504SOL    HW246539   2.024   5.715   9.606
15505SOL     OW46540   3.045   6.921   9.429
15505SOL    HW146541   2.946   6.910   9.431
15505SOL    HW246542   3.079   6.936   9.522
15506SOL     OW46543   2.475   6.428  10.741
15506SOL    HW146544   2.531   6.509  10.724
15506SOL    HW246545   2.534   6.348  10.744
15507SOL     OW46546   3.355   7.353  10.269
15507SOL    HW146547   3.388   7.417  10.200
15507SOL    HW246548   3.421   7.347  10.344
15508SOL     OW46549   2.578   6.151  11.018
15508SOL    HW146550   2.597   6.216  11.092
15508SOL    HW246551   2.638   6.071  11.027
15509SOL     OW46552   3.312   6.806  10.943
15509SOL    HW146553   3.303   6.796  11.042
15509SOL    HW246554   3.408   6.799  10.917
15510SOL     OW46555   2.252   7.327  10.870
15510SOL    HW146556   2.161   7.368  10.868
15510SOL    HW246557   2.245   7.233  10.902
15511SOL     OW46558   3.536   6.469  10.564
15511SOL    HW146559   3.509   6.380  10.527
15511SOL    HW246560   3.537   6.537  10.491
15512SOL     OW46561   3.087   5.911   9.759
15512SOL    HW146562   3.152   5.837   9.748
15512SOL    HW246563   3.107   5.961   9.843
15513SOL     OW46564   2.456   6.331   9.962
15513SOL    HW146565   2.506   6.416   9.943
15513SOL    HW246566   2.368   6.333   9.914
15514SOL     OW46567   3.639   5.928  10.952
15514SOL    HW146568   3.622   5.959  10.858
15514SOL    HW246569   3.555   5.891  10.990
15515SOL     OW46570   3.592   6.520  10.827
15515SOL    HW146571   3.630   6.611  10.842
15515SOL    HW246572   3.584   6.503  10.728
15516SOL     OW46573   2.721   6.960   9.326
15516SOL    HW146574   2.675   6.975   9.414
15516SOL    HW246575   2.765   7.045   9.296
15517SOL     OW46576   2.523   7.376  10.263
15517SOL    HW146577   2.477   7.464  10.250
15517SOL    HW246578   2.622   7.388  10.256
15518SOL     OW46579   2.721   6.542  10.171
15518SOL    HW146580   2.775   6.473  10.219
15518SOL    HW246581   2.689   6.611  10.237
15519SOL     OW46582   2.945   6.570   9.397
15519SOL    HW146583   2.922   6.623   9.315
15519SOL    HW246584   3.026   6.514   9.378
15520SOL     OW46585   3.723   7.155  10.161
15520SOL    HW146586   3.652   7.143  10.091
15520SOL    HW246587   3.724   7.076  10.221
15521SOL     OW46588   2.083   6.900  11.154
15521SOL    HW146589   2.018   6.827  11.133
15521SOL    HW246590   2.087   6.914  11.252
15522SOL     OW46591   1.941   6.826   9.963
15522SOL    HW146592   1.940   6.779  10.051
15522SOL    HW246593   2.023   6.798   9.912
15523SOL     OW46594   2.534   6.977  10.934
15523SOL    HW146595   2.456   6.927  10.972
15523SOL    HW246596   2.531   7.072  10.965
15524SOL     OW46597   3.686   5.778  10.537
15524SOL    HW146598   3.682   5.688  10.581
15524SOL    HW246599   3.689   5.767  10.438
15525SOL     OW46600   2.290   6.010   9.830
15525SOL    HW146601   2.320   5.938   9.768
15525SOL    HW246602   2.251   5.970   9.913
15526SOL     OW46603   3.567   7.073  10.414
15526SOL    HW146604   3.474   7.048  10.387
15526SOL    HW246605   3.593   7.023  10.496
15527SOL     OW46606   2.179   6.133  10.590
15527SOL    HW146607   2.217   6.074  10.662
15527SOL    HW246608   2.219   6.107  10.502
15528SOL     OW46609   2.674   7.172   9.997
15528SOL    HW146610   2.706   7.182   9.903
15528SOL    HW246611   2.595   7.110   9.999
15529SOL     OW46612   3.286   5.800  10.422
15529SOL    HW146613   3.338   5.735  10.477
15529SOL    HW246614   3.237   5.863  10.483
15530SOL     OW46615   2.863   5.620  10.464
15530SOL    HW146616   2.800   5.548  10.433
15530SOL    HW246617   2.956   5.584  10.464
15531SOL     OW46618   2.632   6.916   9.611
15531SOL    HW146619   2.586   6.829   9.628
15531SOL    HW246620   2.723   6.913   9.652
15532SOL     OW46621   2.480   7.153  10.594
15532SOL    HW146622   2.475   7.235  10.651
15532SOL    HW246623   2.569   7.150  10.549
15533SOL     OW46624   3.214   5.638   9.478
15533SOL    HW146625   3.249   5.597   9.394
15533SOL    HW246626   3.124   5.600   9.498
15534SOL     OW46627   3.162   6.039  10.001
15534SOL    HW146628   3.103   6.119  10.005
15534SOL    HW246629   3.177   6.004  10.094
15535SOL     OW46630   3.455   5.807  10.192
15535SOL    HW146631   3.371   5.806  10.246
15535SOL    HW246632   3.457   5.890  10.136
15536SOL     OW46633   1.901   6.663   9.610
15536SOL    HW146634   2.000   6.652   9.601
15536SOL    HW246635   1.861   6.577   9.642
15537SOL     OW46636   2.737   7.232   9.647
15537SOL    HW146637   2.660   7.197   9.593
15537SOL    HW246638   2.705   7.303   9.709
15538SOL     OW46639   2.092   6.214  11.285
15538SOL    HW146640   1.999   6.212  11.322
15538SOL    HW246641   2.093   6.175  11.193
15539SOL     OW46642   2.087   5.861  12.168
15539SOL    HW146643   2.122   5.844  12.260
15539SOL    HW246644   1.999   5.816  12.156
15540SOL     OW46645   1.881   5.954  11.819
15540SOL    HW146646   1.799   5.997  11.858
15540SOL    HW246647   1.853   5.881  11.756
15541SOL     OW46648   2.431   6.861  12.337
15541SOL    HW146649   2.338   6.854  12.300
15541SOL    HW246650   2.442   6.950  12.381
15542SOL     OW46651   3.417   7.097  11.875
15542SOL    HW146652   3.360   7.081  11.956
15542SOL    HW246653   3.358   7.107  11.795
15543SOL     OW46654   2.997   6.289  11.889
15543SOL    HW146655   3.054   6.367  11.864
15543SOL    HW246656   2.937   6.315  11.965
15544SOL     OW46657   3.617   6.193  11.403
15544SOL    HW146658   3.605   6.180  11.304
15544SOL    HW246659   3.587   6.112  11.452
15545SOL     OW46660   2.630   6.730  12.195
15545SOL    HW146661   2.552   6.747  12.255
15545SOL    HW246662   2.664   6.817  12.159
15546SOL     OW46663   2.547   6.598  11.837
15546SOL    HW146664   2.616   6.582  11.907
15546SOL    HW246665   2.474   6.655  11.875
15547SOL     OW46666   2.197   7.021  12.233
15547SOL    HW146667   2.119   6.990  12.180
15547SOL    HW246668   2.255   7.079  12.176
15548SOL     OW46669   3.322   7.091  12.511
15548SOL    HW146670   3.346   7.185  12.537
15548SOL    HW246671   3.306   7.037  12.593
15549SOL     OW46672   2.300   5.978  12.671
15549SOL    HW146673   2.382   5.922  12.680
15549SOL    HW246674   2.219   5.920  12.675
15550SOL     OW46675   3.465   6.033  11.909
15550SOL    HW146676   3.391   6.079  11.859
15550SOL    HW246677   3.516   6.101  11.962
15551SOL     OW46678   2.093   7.299  11.655
15551SOL    HW146679   2.127   7.376  11.709
15551SOL    HW246680   2.137   7.299  11.565
15552SOL     OW46681   2.092   7.020  11.710
15552SOL    HW146682   2.066   7.116  11.710
15552SOL    HW246683   2.021   6.966  11.755
15553SOL     OW46684   2.102   6.677  12.058
15553SOL    HW146685   2.116   6.593  12.110
15553SOL    HW246686   2.047   6.741  12.113
15554SOL     OW46687   2.482   7.372  12.611
15554SOL    HW146688   2.390   7.355  12.646
15554SOL    HW246689   2.510   7.464  12.637
15555SOL     OW46690   2.468   6.550  11.295
15555SOL    HW146691   2.475   6.634  11.241
15555SOL    HW246692   2.514   6.563  11.383
15556SOL     OW46693   3.456   5.700  12.652
15556SOL    HW146694   3.438   5.767  12.580
15556SOL    HW246695   3.453   5.746  12.741
15557SOL     OW46696   1.984   6.229  11.735
15557SOL    HW146697   1.939   6.141  11.752
15557SOL    HW246698   1.983   6.283  11.819
15558SOL     OW46699   3.704   7.353  11.531
15558SOL    HW146700   3.758   7.324  11.611
15558SOL    HW246701   3.734   7.443  11.502
15559SOL     OW46702   1.889   7.182  11.289
15559SOL    HW146703   1.870   7.086  11.310
15559SOL    HW246704   1.856   7.240  11.364
15560SOL     OW46705   3.551   6.508  11.784
15560SOL    HW146706   3.646   6.479  11.792
15560SOL    HW246707   3.543   6.573  11.709
15561SOL     OW46708   3.503   6.694  11.604
15561SOL    HW146709   3.589   6.696  11.552
15561SOL    HW246710   3.517   6.741  11.692
15562SOL     OW46711   2.475   6.951  11.898
15562SOL    HW146712   2.426   6.864  11.907
15562SOL    HW246713   2.452   6.994  11.811
15563SOL     OW46714   2.671   5.590  11.674
15563SOL    HW146715   2.711   5.681  11.665
15563SOL    HW246716   2.571   5.598  11.680
15564SOL     OW46717   2.059   6.562  12.436
15564SOL    HW146718   2.148   6.517  12.422
15564SOL    HW246719   1.986   6.497  12.417
15565SOL     OW46720   3.387   6.585  11.362
15565SOL    HW146721   3.324   6.509  11.375
15565SOL    HW246722   3.435   6.603  11.448
15566SOL     OW46723   2.179   5.837  12.973
15566SOL    HW146724   2.250   5.908  12.979
15566SOL    HW246725   2.091   5.876  13.001
15567SOL     OW46726   3.328   7.003  12.125
15567SOL    HW146727   3.269   7.009  12.205
15567SOL    HW246728   3.313   6.915  12.079
15568SOL     OW46729   3.529   7.300  11.744
15568SOL    HW146730   3.488   7.277  11.656
15568SOL    HW246731   3.511   7.226  11.809
15569SOL     OW46732   2.460   6.315  11.442
15569SOL    HW146733   2.484   6.384  11.374
15569SOL    HW246734   2.382   6.348  11.496
15570SOL     OW46735   3.143   5.931  12.116
15570SOL    HW146736   3.057   5.881  12.103
15570SOL    HW246737   3.205   5.877  12.172
15571SOL     OW46738   3.438   7.248  11.479
15571SOL    HW146739   3.527   7.294  11.482
15571SOL    HW246740   3.417   7.224  11.384
15572SOL     OW46741   2.669   6.191  12.637
15572SOL    HW146742   2.622   6.188  12.726
15572SOL    HW246743   2.618   6.136  12.571
15573SOL     OW46744   2.853   5.996  12.414
15573SOL    HW146745   2.776   6.030  12.468
15573SOL    HW246746   2.819   5.945  12.335
15574SOL     OW46747   2.903   6.287  11.601
15574SOL    HW146748   2.929   6.283  11.697
15574SOL    HW246749   2.818   6.236  11.587
15575SOL     OW46750   1.938   6.397  11.961
15575SOL    HW146751   2.037   6.385  11.970
15575SOL    HW246752   1.914   6.492  11.982
15576SOL     OW46753   1.992   7.407  12.743
15576SOL    HW146754   1.982   7.392  12.842
15576SOL    HW246755   1.906   7.443  12.707
15577SOL     OW46756   2.727   5.934  11.367
15577SOL    HW146757   2.786   5.997  11.318
15577SOL    HW246758   2.746   5.840  11.338
15578SOL     OW46759   3.224   6.730  11.717
15578SOL    HW146760   3.307   6.701  11.669
15578SOL    HW246761   3.175   6.797  11.661
15579SOL     OW46762   2.412   5.782  12.057
15579SOL    HW146763   2.407   5.777  12.157
15579SOL    HW246764   2.414   5.878  12.028
15580SOL     OW46765   2.870   7.042  11.649
15580SOL    HW146766   2.824   7.114  11.597
15580SOL    HW246767   2.866   7.062  11.747
15581SOL     OW46768   2.213   7.387  12.025
15581SOL    HW146769   2.263   7.301  12.031
15581SOL    HW246770   2.278   7.464  12.022
15582SOL     OW46771   3.657   6.652  12.045
15582SOL    HW146772   3.595   6.637  11.969
15582SOL    HW246773   3.605   6.663  12.130
15583SOL     OW46774   2.183   6.529  11.414
15583SOL    HW146775   2.265   6.568  11.372
15583SOL    HW246776   2.156   6.447  11.365
15584SOL     OW46777   3.320   6.321  11.900
15584SOL    HW146778   3.315   6.256  11.975
15584SOL    HW246779   3.400   6.380  11.913
15585SOL     OW46780   2.973   7.362  11.409
15585SOL    HW146781   2.913   7.300  11.459
15585SOL    HW246782   3.004   7.318  11.324
15586SOL     OW46783   3.494   6.963  11.253
15586SOL    HW146784   3.462   7.057  11.243
15586SOL    HW246785   3.418   6.900  11.241
15587SOL     OW46786   2.326   7.329  11.495
15587SOL    HW146787   2.359   7.368  11.581
15587SOL    HW246788   2.402   7.322  11.430
15588SOL     OW46789   3.262   5.693  11.598
15588SOL    HW146790   3.238   5.656  11.508
15588SOL    HW246791   3.361   5.709  11.602
15589SOL     OW46792   2.111   7.371  12.413
15589SOL    HW146793   2.168   7.306  12.463
15589SOL    HW246794   2.095   7.338  12.320
15590SOL     OW46795   2.802   7.284  12.076
15590SOL    HW146796   2.882   7.227  12.097
15590SOL    HW246797   2.753   7.244  11.999
15591SOL     OW46798   2.244   6.286  11.652
15591SOL    HW146799   2.289   6.196  11.649
15591SOL    HW246800   2.150   6.275  11.685
15592SOL     OW46801   2.476   5.708  11.289
15592SOL    HW146802   2.574   5.686  11.296
15592SOL    HW246803   2.445   5.691  11.196
15593SOL     OW46804   2.750   7.100  12.367
15593SOL    HW146805   2.727   7.075  12.273
15593SOL    HW246806   2.811   7.031  12.406
15594SOL     OW46807   2.665   6.988  12.096
15594SOL    HW146808   2.755   7.002  12.054
15594SOL    HW246809   2.594   6.990  12.025
15595SOL     OW46810   2.784   6.089  12.071
15595SOL    HW146811   2.759   6.080  11.975
15595SOL    HW246812   2.832   6.007  12.102
15596SOL     OW46813   2.401   5.650  11.684
15596SOL    HW146814   2.320   5.651  11.742
15596SOL    HW246815   2.404   5.733  11.629
15597SOL     OW46816   3.296   6.774  11.213
15597SOL    HW146817   3.328   6.698  11.270
15597SOL    HW246818   3.204   6.801  11.243
15598SOL     OW46819   2.159   5.621  11.343
15598SOL    HW146820   2.208   5.705  11.322
15598SOL    HW246821   2.221   5.556  11.388
15599SOL     OW46822   2.797   5.822  11.652
15599SOL    HW146823   2.749   5.863  11.574
15599SOL    HW246824   2.896   5.820  11.633
15600SOL     OW46825   3.089   7.156  11.965
15600SOL    HW146826   3.110   7.230  11.900
15600SOL    HW246827   3.157   7.156  12.038
15601SOL     OW46828   2.321   6.738  11.913
15601SOL    HW146829   2.250   6.711  11.978
15601SOL    HW246830   2.295   6.710  11.820
15602SOL     OW46831   3.133   7.383  11.763
15602SOL    HW146832   3.177   7.447  11.699
15602SOL    HW246833   3.083   7.435  11.833
15603SOL     OW46834   2.894   6.135  11.188
15603SOL    HW146835   2.853   6.217  11.149
15603SOL    HW246836   2.958   6.161  11.261
15604SOL     OW46837   1.940   6.142  12.558
15604SOL    HW146838   2.032   6.141  12.517
15604SOL    HW246839   1.934   6.216  12.625
15605SOL     OW46840   2.423   5.808  12.319
15605SOL    HW146841   2.461   5.724  12.356
15605SOL    HW246842   2.335   5.827  12.363
15606SOL     OW46843   2.728   6.040  11.814
15606SOL    HW146844   2.696   6.112  11.752
15606SOL    HW246845   2.752   5.959  11.761
15607SOL     OW46846   2.879   5.625  11.925
15607SOL    HW146847   2.807   5.630  11.856
15607SOL    HW246848   2.855   5.556  11.994
15608SOL     OW46849   3.291   6.759  12.039
15608SOL    HW146850   3.236   6.675  12.032
15608SOL    HW246851   3.317   6.788  11.947
15609SOL     OW46852   3.328   6.176  12.164
15609SOL    HW146853   3.298   6.081  12.171
15609SOL    HW246854   3.401   6.192  12.230
15610SOL     OW46855   3.719   6.419  11.549
15610SOL    HW146856   3.761   6.355  11.613
15610SOL    HW246857   3.681   6.368  11.471
15611SOL     OW46858   2.350   6.971  11.346
15611SOL    HW146859   2.263   6.956  11.393
15611SOL    HW246860   2.333   6.997  11.251
15612SOL     OW46861   3.526   6.866  11.829
15612SOL    HW146862   3.625   6.874  11.843
15612SOL    HW246863   3.481   6.950  11.860
15613SOL     OW46864   3.252   6.161  11.250
15613SOL    HW146865   3.198   6.140  11.331
15613SOL    HW246866   3.343   6.120  11.259
15614SOL     OW46867   2.389   5.842  11.500
15614SOL    HW146868   2.416   5.783  11.425
15614SOL    HW246869   2.389   5.937  11.469
15615SOL     OW46870   2.926   6.933  12.512
15615SOL    HW146871   2.846   6.910  12.567
15615SOL    HW246872   3.009   6.907  12.561
15616SOL     OW46873   2.973   6.781  12.272
15616SOL    HW146874   2.933   6.825  12.353
15616SOL    HW246875   2.932   6.818  12.189
15617SOL     OW46876   3.500   6.685  12.251
15617SOL    HW146877   3.505   6.766  12.310
15617SOL    HW246878   3.414   6.687  12.200
15618SOL     OW46879   2.777   5.675  12.574
15618SOL    HW146880   2.802   5.655  12.479
15618SOL    HW246881   2.849   5.731  12.616
15619SOL     OW46882   2.567   6.636  11.540
15619SOL    HW146883   2.553   6.643  11.639
15619SOL    HW246884   2.651   6.585  11.522
15620SOL     OW46885   2.272   6.399  12.423
15620SOL    HW146886   2.358   6.411  12.473
15620SOL    HW246887   2.230   6.312  12.450
15621SOL     OW46888   3.136   5.972  12.434
15621SOL    HW146889   3.157   6.046  12.498
15621SOL    HW246890   3.047   5.989  12.391
15622SOL     OW46891   1.926   7.150  12.503
15622SOL    HW146892   1.880   7.232  12.469
15622SOL    HW246893   2.024   7.169  12.512
15623SOL     OW46894   2.229   6.686  11.673
15623SOL    HW146895   2.222   6.769  11.617
15623SOL    HW246896   2.233   6.606  11.613
15624SOL     OW46897   2.428   6.123  12.037
15624SOL    HW146898   2.440   6.189  11.963
15624SOL    HW246899   2.474   6.157  12.120
15625SOL     OW46900   3.114   6.934  11.560
15625SOL    HW146901   3.164   7.011  11.600
15625SOL    HW246902   3.019   6.936  11.592
15626SOL     OW46903   3.134   7.031  12.314
15626SOL    HW146904   3.181   7.044  12.401
15626SOL    HW246905   3.068   6.957  12.323
15627SOL     OW46906   3.444   6.225  11.644
15627SOL    HW146907   3.413   6.286  11.717
15627SOL    HW246908   3.494   6.277  11.575
15628SOL     OW46909   2.216   7.096  12.501
15628SOL    HW146910   2.195   7.052  12.414
15628SOL    HW246911   2.313   7.122  12.504
15629SOL     OW46912   2.264   6.337  12.770
15629SOL    HW146913   2.332   6.392  12.723
15629SOL    HW246914   2.304   6.249  12.797
15630SOL     OW46915   3.449   6.365  12.842
15630SOL    HW146916   3.357   6.403  12.837
15630SOL    HW246917   3.509   6.412  12.777
15631SOL     OW46918   2.435   6.456  12.201
15631SOL    HW146919   2.479   6.545  12.192
15631SOL    HW246920   2.372   6.456  12.278
15632SOL     OW46921   3.222   6.448  12.217
15632SOL    HW146922   3.147   6.448  12.151
15632SOL    HW246923   3.259   6.356  12.226
15633SOL     OW46924   3.071   6.111  11.447
15633SOL    HW146925   3.084   6.027  11.501
15633SOL    HW246926   3.042   6.185  11.507
15634SOL     OW46927   2.169   5.799  12.403
15634SOL    HW146928   2.146   5.836  12.493
15634SOL    HW246929   2.139   5.704  12.397
15635SOL     OW46930   1.899   6.896  12.454
15635SOL    HW146931   1.952   6.847  12.522
15635SOL    HW246932   1.921   6.994  12.459
15636SOL     OW46933   2.594   6.220  12.236
15636SOL    HW146934   2.653   6.194  12.160
15636SOL    HW246935   2.566   6.316  12.225
15637SOL     OW46936   2.169   5.649  11.790
15637SOL    HW146937   2.158   5.743  11.823
15637SOL    HW246938   2.164   5.586  11.867
15638SOL     OW46939   3.484   5.953  11.546
15638SOL    HW146940   3.486   5.877  11.610
15638SOL    HW246941   3.436   6.030  11.586
15639SOL     OW46942   2.885   6.352  12.138
15639SOL    HW146943   2.900   6.373  12.234
15639SOL    HW246944   2.855   6.257  12.129
15640SOL     OW46945   2.842   7.159  12.872
15640SOL    HW146946   2.822   7.203  12.784
15640SOL    HW246947   2.881   7.068  12.856
15641SOL     OW46948   3.402   5.860  11.297
15641SOL    HW146949   3.341   5.785  11.320
15641SOL    HW246950   3.424   5.912  11.380
15642SOL     OW46951   3.165   6.424  11.214
15642SOL    HW146952   3.199   6.331  11.229
15642SOL    HW246953   3.183   6.451  11.119
15643SOL     OW46954   2.930   6.919  12.021
15643SOL    HW146955   2.937   6.835  11.966
15643SOL    HW246956   2.992   6.988  11.985
15644SOL     OW46957   2.181   6.396  12.121
15644SOL    HW146958   2.274   6.432  12.126
15644SOL    HW246959   2.175   6.311  12.173
15645SOL     OW46960   2.201   6.095  12.178
15645SOL    HW146961   2.149   6.012  12.161
15645SOL    HW246962   2.278   6.100  12.114
15646SOL     OW46963   3.000   5.966  12.850
15646SOL    HW146964   2.955   6.029  12.914
15646SOL    HW246965   3.093   5.997  12.833
15647SOL     OW46966   3.022   5.793  12.649
15647SOL    HW146967   3.022   5.857  12.726
15647SOL    HW246968   3.050   5.841  12.566
15648SOL     OW46969   1.870   6.912  11.372
15648SOL    HW146970   1.777   6.933  11.341
15648SOL    HW246971   1.880   6.813  11.385
15649SOL     OW46972   1.950   7.387  12.099
15649SOL    HW146973   1.908   7.301  12.072
15649SOL    HW246974   2.044   7.390  12.065
15650SOL     OW46975   2.366   7.154  12.082
15650SOL    HW146976   2.432   7.228  12.091
15650SOL    HW246977   2.410   7.075  12.040
15651SOL     OW46978   2.864   6.382  12.410
15651SOL    HW146979   2.905   6.350  12.496
15651SOL    HW246980   2.768   6.355  12.407
15652SOL     OW46981   1.902   6.130  12.286
15652SOL    HW146982   1.987   6.097  12.245
15652SOL    HW246983   1.915   6.145  12.384
15653SOL     OW46984   2.677   6.158  11.497
15653SOL    HW146985   2.684   6.069  11.451
15653SOL    HW246986   2.583   6.192  11.489
15654SOL     OW46987   3.519   6.190  12.378
15654SOL    HW146988   3.481   6.121  12.440
15654SOL    HW246989   3.601   6.154  12.334
15655SOL     OW46990   2.533   6.050  12.441
15655SOL    HW146991   2.499   5.961  12.411
15655SOL    HW246992   2.559   6.104  12.361
15656SOL     OW46993   2.792   7.264  12.637
15656SOL    HW146994   2.768   7.246  12.542
15656SOL    HW246995   2.822   7.358  12.647
15657SOL     OW46996   2.335   6.086  11.363
15657SOL    HW146997   2.396   6.166  11.367
15657SOL    HW246998   2.240   6.117  11.370
15658SOL     OW46999   2.021   6.723  12.638
15658SOL    HW147000   2.043   6.662  12.714
15658SOL    HW247001   2.031   6.674  12.552
15659SOL     OW47002   3.209   6.645  12.406
15659SOL    HW147003   3.233   6.582  12.332
15659SOL    HW247004   3.119   6.685  12.388
15660SOL     OW47005   3.164   6.441  11.481
15660SOL    HW147006   3.078   6.410  11.523
15660SOL    HW247007   3.160   6.427  11.382
15661SOL     OW47008   3.621   7.333  12.326
15661SOL    HW147009   3.682   7.363  12.253
15661SOL    HW247010   3.583   7.244  12.304
15662SOL     OW47011   3.114   7.317  12.300
15662SOL    HW147012   3.198   7.322  12.246
15662SOL    HW247013   3.091   7.221  12.318
15663SOL     OW47014   1.945   6.844  12.194
15663SOL    HW147015   1.940   6.843  12.294
15663SOL    HW247016   1.862   6.803  12.156
15664SOL     OW47017   3.588   5.721  11.695
15664SOL    HW147018   3.661   5.704  11.628
15664SOL    HW247019   3.557   5.634  11.733
15665SOL     OW47020   3.250   7.159  11.649
15665SOL    HW147021   3.317   7.171  11.575
15665SOL    HW247022   3.210   7.248  11.672
15666SOL     OW47023   3.142   6.513  11.844
15666SOL    HW147024   3.202   6.432  11.846
15666SOL    HW247025   3.182   6.582  11.784
15667SOL     OW47026   2.534   7.202  11.326
15667SOL    HW147027   2.543   7.212  11.227
15667SOL    HW247028   2.494   7.113  11.347
15668SOL     OW47029   3.512   7.306  12.566
15668SOL    HW147030   3.565   7.316  12.482
15668SOL    HW247031   3.485   7.396  12.600
15669SOL     OW47032   3.703   5.761  12.135
15669SOL    HW147033   3.742   5.676  12.099
15669SOL    HW247034   3.605   5.763  12.116
15670SOL     OW47035   2.125   5.912  11.892
15670SOL    HW147036   2.046   5.963  11.858
15670SOL    HW247037   2.116   5.897  11.990
15671SOL     OW47038   3.056   7.198  11.203
15671SOL    HW147039   3.062   7.105  11.240
15671SOL    HW247040   2.997   7.198  11.123
15672SOL     OW47041   2.684   6.588  12.544
15672SOL    HW147042   2.724   6.587  12.452
15672SOL    HW247043   2.694   6.680  12.584
15673SOL     OW47044   2.778   6.496  11.463
15673SOL    HW147045   2.841   6.534  11.395
15673SOL    HW247046   2.818   6.413  11.502
15674SOL     OW47047   3.366   7.193  11.216
15674SOL    HW147048   3.274   7.230  11.223
15674SOL    HW247049   3.404   7.213  11.126
15675SOL     OW47050   2.234   6.874  12.662
15675SOL    HW147051   2.221   6.967  12.628
15675SOL    HW247052   2.150   6.822  12.649
15676SOL     OW47053   3.476   6.878  12.461
15676SOL    HW147054   3.536   6.881  12.541
15676SOL    HW247055   3.401   6.942  12.474
15677SOL     OW47056   2.901   6.684  11.868
15677SOL    HW147057   2.831   6.637  11.922
15677SOL    HW247058   2.960   6.616  11.825
15678SOL     OW47059   2.876   5.822  12.143
15678SOL    HW147060   2.868   5.786  12.050
15678SOL    HW247061   2.874   5.746  12.208
15679SOL     OW47062   2.452   7.073  11.663
15679SOL    HW147063   2.494   7.015  11.593
15679SOL    HW247064   2.408   7.152  11.619
15680SOL     OW47065   3.571   5.971  12.553
15680SOL    HW147066   3.644   6.040  12.557
15680SOL    HW247067   3.599   5.896  12.494
15681SOL     OW47068   2.117   6.934  11.462
15681SOL    HW147069   2.021   6.935  11.435
15681SOL    HW247070   2.129   6.987  11.546
15682SOL     OW47071   1.937   5.931  11.205
15682SOL    HW147072   1.845   5.903  11.176
15682SOL    HW247073   1.968   6.008  11.149
15683SOL     OW47074   3.302   6.442  12.570
15683SOL    HW147075   3.245   6.494  12.507
15683SOL    HW247076   3.398   6.454  12.546
15684SOL     OW47077   1.934   5.752  11.490
15684SOL    HW147078   1.917   5.835  11.436
15684SOL    HW247079   2.024   5.715  11.468
15685SOL     OW47080   3.045   6.921  11.291
15685SOL    HW147081   2.946   6.910  11.293
15685SOL    HW247082   3.079   6.936  11.384
15686SOL     OW47083   2.475   6.428  12.603
15686SOL    HW147084   2.531   6.509  12.586
15686SOL    HW247085   2.534   6.348  12.606
15687SOL     OW47086   3.355   7.353  12.131
15687SOL    HW147087   3.388   7.417  12.062
15687SOL    HW247088   3.421   7.347  12.206
15688SOL     OW47089   2.252   7.327  12.732
15688SOL    HW147090   2.161   7.368  12.730
15688SOL    HW247091   2.245   7.233  12.764
15689SOL     OW47092   3.536   6.469  12.426
15689SOL    HW147093   3.509   6.380  12.389
15689SOL    HW247094   3.537   6.537  12.353
15690SOL     OW47095   3.087   5.911  11.621
15690SOL    HW147096   3.152   5.837  11.610
15690SOL    HW247097   3.107   5.961  11.705
15691SOL     OW47098   2.456   6.331  11.824
15691SOL    HW147099   2.506   6.416  11.805
15691SOL    HW247100   2.368   6.333  11.776
15692SOL     OW47101   3.592   6.520  12.689
15692SOL    HW147102   3.630   6.611  12.704
15692SOL    HW247103   3.584   6.503  12.590
15693SOL     OW47104   2.721   6.960  11.188
15693SOL    HW147105   2.675   6.975  11.276
15693SOL    HW247106   2.765   7.045  11.158
15694SOL     OW47107   2.523   7.376  12.125
15694SOL    HW147108   2.477   7.464  12.112
15694SOL    HW247109   2.622   7.388  12.118
15695SOL     OW47110   2.721   6.542  12.033
15695SOL    HW147111   2.775   6.473  12.081
15695SOL    HW247112   2.689   6.611  12.099
15696SOL     OW47113   2.945   6.570  11.259
15696SOL    HW147114   2.922   6.623  11.177
15696SOL    HW247115   3.026   6.514  11.240
15697SOL     OW47116   3.723   7.155  12.023
15697SOL    HW147117   3.652   7.143  11.953
15697SOL    HW247118   3.724   7.076  12.083
15698SOL     OW47119   1.941   6.826  11.825
15698SOL    HW147120   1.940   6.779  11.913
15698SOL    HW247121   2.023   6.798  11.774
15699SOL     OW47122   3.686   5.778  12.399
15699SOL    HW147123   3.682   5.688  12.443
15699SOL    HW247124   3.689   5.767  12.300
15700SOL     OW47125   2.290   6.010  11.692
15700SOL    HW147126   2.320   5.938  11.630
15700SOL    HW247127   2.251   5.970  11.775
15701SOL     OW47128   3.567   7.073  12.276
15701SOL    HW147129   3.474   7.048  12.249
15701SOL    HW247130   3.593   7.023  12.358
15702SOL     OW47131   2.179   6.133  12.452
15702SOL    HW147132   2.217   6.074  12.524
15702SOL    HW247133   2.219   6.107  12.364
15703SOL     OW47134   2.674   7.172  11.859
15703SOL    HW147135   2.706   7.182  11.765
15703SOL    HW247136   2.595   7.110  11.861
15704SOL     OW47137   3.286   5.800  12.284
15704SOL    HW147138   3.338   5.735  12.339
15704SOL    HW247139   3.237   5.863  12.345
15705SOL     OW47140   2.863   5.620  12.326
15705SOL    HW147141   2.800   5.548  12.295
15705SOL    HW247142   2.956   5.584  12.326
15706SOL     OW47143   2.632   6.916  11.473
15706SOL    HW147144   2.586   6.829  11.490
15706SOL    HW247145   2.723   6.913  11.514
15707SOL     OW47146   2.480   7.153  12.456
15707SOL    HW147147   2.475   7.235  12.513
15707SOL    HW247148   2.569   7.150  12.411
15708SOL     OW47149   3.214   5.638  11.340
15708SOL    HW147150   3.249   5.597  11.256
15708SOL    HW247151   3.124   5.600  11.360
15709SOL     OW47152   3.162   6.039  11.863
15709SOL    HW147153   3.103   6.119  11.867
15709SOL    HW247154   3.177   6.004  11.956
15710SOL     OW47155   3.455   5.807  12.054
15710SOL    HW147156   3.371   5.806  12.108
15710SOL    HW247157   3.457   5.890  11.998
15711SOL     OW47158   1.901   6.663  11.472
15711SOL    HW147159   2.000   6.652  11.463
15711SOL    HW247160   1.861   6.577  11.504
15712SOL     OW47161   2.737   7.232  11.509
15712SOL    HW147162   2.660   7.197  11.455
15712SOL    HW247163   2.705   7.303  11.571
15713SOL     OW47164   2.092   8.076   0.113
15713SOL    HW147165   1.999   8.074   0.150
15713SOL    HW247166   2.093   8.037   0.021
15714SOL     OW47167   2.087   7.723   0.996
15714SOL    HW147168   2.122   7.706   1.088
15714SOL    HW247169   1.999   7.678   0.984
15715SOL     OW47170   1.881   7.816   0.647
15715SOL    HW147171   1.799   7.859   0.686
15715SOL    HW247172   1.853   7.743   0.584
15716SOL     OW47173   2.431   8.723   1.165
15716SOL    HW147174   2.338   8.716   1.128
15716SOL    HW247175   2.442   8.812   1.209
15717SOL     OW47176   3.417   8.959   0.703
15717SOL    HW147177   3.360   8.943   0.784
15717SOL    HW247178   3.358   8.969   0.623
15718SOL     OW47179   2.997   8.151   0.717
15718SOL    HW147180   3.054   8.229   0.692
15718SOL    HW247181   2.937   8.177   0.793
15719SOL     OW47182   3.617   8.055   0.231
15719SOL    HW147183   3.605   8.042   0.132
15719SOL    HW247184   3.587   7.974   0.280
15720SOL     OW47185   2.630   8.592   1.023
15720SOL    HW147186   2.552   8.609   1.083
15720SOL    HW247187   2.664   8.679   0.987
15721SOL     OW47188   2.712   8.246   1.823
15721SOL    HW147189   2.708   8.322   1.888
15721SOL    HW247190   2.734   8.282   1.732
15722SOL     OW47191   2.547   8.460   0.665
15722SOL    HW147192   2.616   8.444   0.735
15722SOL    HW247193   2.474   8.517   0.703
15723SOL     OW47194   2.548   8.609   1.803
15723SOL    HW147195   2.608   8.688   1.817
15723SOL    HW247196   2.462   8.640   1.762
15724SOL     OW47197   2.197   8.883   1.061
15724SOL    HW147198   2.119   8.852   1.008
15724SOL    HW247199   2.255   8.941   1.004
15725SOL     OW47200   3.322   8.953   1.339
15725SOL    HW147201   3.346   9.047   1.365
15725SOL    HW247202   3.306   8.899   1.421
15726SOL     OW47203   2.300   7.840   1.499
15726SOL    HW147204   2.382   7.784   1.508
15726SOL    HW247205   2.219   7.782   1.503
15727SOL     OW47206   3.465   7.895   0.737
15727SOL    HW147207   3.391   7.941   0.687
15727SOL    HW247208   3.516   7.963   0.790
15728SOL     OW47209   2.093   9.161   0.483
15728SOL    HW147210   2.127   9.238   0.537
15728SOL    HW247211   2.137   9.161   0.393
15729SOL     OW47212   2.989   8.789   1.690
15729SOL    HW147213   3.036   8.789   1.778
15729SOL    HW247214   2.941   8.702   1.679
15730SOL     OW47215   2.092   8.882   0.538
15730SOL    HW147216   2.066   8.978   0.538
15730SOL    HW247217   2.021   8.828   0.583
15731SOL     OW47218   2.102   8.539   0.886
15731SOL    HW147219   2.116   8.455   0.938
15731SOL    HW247220   2.047   8.603   0.941
15732SOL     OW47221   2.482   9.234   1.439
15732SOL    HW147222   2.390   9.217   1.474
15732SOL    HW247223   2.510   9.326   1.465
15733SOL     OW47224   2.468   8.412   0.123
15733SOL    HW147225   2.475   8.496   0.069
15733SOL    HW247226   2.514   8.425   0.211
15734SOL     OW47227   3.456   7.562   1.480
15734SOL    HW147228   3.438   7.629   1.408
15734SOL    HW247229   3.453   7.608   1.569
15735SOL     OW47230   1.984   8.091   0.563
15735SOL    HW147231   1.939   8.003   0.580
15735SOL    HW247232   1.983   8.145   0.647
15736SOL     OW47233   3.704   9.215   0.359
15736SOL    HW147234   3.758   9.186   0.439
15736SOL    HW247235   3.734   9.305   0.330
15737SOL     OW47236   1.889   9.044   0.117
15737SOL    HW147237   1.870   8.948   0.138
15737SOL    HW247238   1.856   9.102   0.192
15738SOL     OW47239   3.551   8.370   0.612
15738SOL    HW147240   3.646   8.341   0.620
15738SOL    HW247241   3.543   8.435   0.537
15739SOL     OW47242   3.503   8.556   0.432
15739SOL    HW147243   3.589   8.558   0.380
15739SOL    HW247244   3.517   8.603   0.520
15740SOL     OW47245   1.975   8.185   1.597
15740SOL    HW147246   2.063   8.172   1.642
15740SOL    HW247247   1.962   8.282   1.575
15741SOL     OW47248   2.475   8.813   0.726
15741SOL    HW147249   2.426   8.726   0.735
15741SOL    HW247250   2.452   8.856   0.639
15742SOL     OW47251   3.155   8.676   1.423
15742SOL    HW147252   3.192   8.603   1.365
15742SOL    HW247253   3.207   8.681   1.508
15743SOL     OW47254   2.671   7.452   0.502
15743SOL    HW147255   2.711   7.543   0.493
15743SOL    HW247256   2.571   7.460   0.508
15744SOL     OW47257   2.059   8.424   1.264
15744SOL    HW147258   2.148   8.379   1.250
15744SOL    HW247259   1.986   8.359   1.245
15745SOL     OW47260   3.387   8.447   0.190
15745SOL    HW147261   3.324   8.371   0.203
15745SOL    HW247262   3.435   8.465   0.276
15746SOL     OW47263   3.049   9.240   1.616
15746SOL    HW147264   3.073   9.300   1.540
15746SOL    HW247265   3.056   9.145   1.586
15747SOL     OW47266   2.179   7.699   1.801
15747SOL    HW147267   2.250   7.770   1.807
15747SOL    HW247268   2.091   7.738   1.829
15748SOL     OW47269   3.328   8.865   0.953
15748SOL    HW147270   3.269   8.871   1.033
15748SOL    HW247271   3.313   8.777   0.907
15749SOL     OW47272   3.529   9.162   0.572
15749SOL    HW147273   3.488   9.139   0.484
15749SOL    HW247274   3.511   9.088   0.637
15750SOL     OW47275   2.460   8.177   0.270
15750SOL    HW147276   2.484   8.246   0.202
15750SOL    HW247277   2.382   8.210   0.324
15751SOL     OW47278   3.143   7.793   0.944
15751SOL    HW147279   3.057   7.743   0.931
15751SOL    HW247280   3.205   7.739   1.000
15752SOL     OW47281   3.438   9.110   0.307
15752SOL    HW147282   3.527   9.156   0.310
15752SOL    HW247283   3.417   9.086   0.212
15753SOL     OW47284   2.669   8.053   1.465
15753SOL    HW147285   2.622   8.050   1.554
15753SOL    HW247286   2.618   7.998   1.399
15754SOL     OW47287   3.256   7.917   1.674
15754SOL    HW147288   3.236   7.960   1.762
15754SOL    HW247289   3.334   7.855   1.683
15755SOL     OW47290   2.835   8.338   1.572
15755SOL    HW147291   2.881   8.254   1.543
15755SOL    HW247292   2.779   8.372   1.497
15756SOL     OW47293   2.853   7.858   1.242
15756SOL    HW147294   2.776   7.892   1.296
15756SOL    HW247295   2.819   7.807   1.163
15757SOL     OW47296   2.903   8.149   0.429
15757SOL    HW147297   2.929   8.145   0.525
15757SOL    HW247298   2.818   8.098   0.415
15758SOL     OW47299   1.938   8.259   0.789
15758SOL    HW147300   2.037   8.247   0.798
15758SOL    HW247301   1.914   8.354   0.810
15759SOL     OW47302   1.992   9.269   1.571
15759SOL    HW147303   1.982   9.254   1.670
15759SOL    HW247304   1.906   9.305   1.535
15760SOL     OW47305   2.727   7.796   0.195
15760SOL    HW147306   2.786   7.859   0.146
15760SOL    HW247307   2.746   7.702   0.166
15761SOL     OW47308   3.581   8.033   1.831
15761SOL    HW147309   3.555   8.122   1.795
15761SOL    HW247310   3.579   7.965   1.758
15762SOL     OW47311   3.224   8.592   0.545
15762SOL    HW147312   3.307   8.563   0.497
15762SOL    HW247313   3.175   8.659   0.489
15763SOL     OW47314   2.412   7.644   0.885
15763SOL    HW147315   2.407   7.639   0.985
15763SOL    HW247316   2.414   7.740   0.856
15764SOL     OW47317   2.870   8.904   0.477
15764SOL    HW147318   2.824   8.976   0.425
15764SOL    HW247319   2.866   8.924   0.575
15765SOL     OW47320   2.213   9.249   0.853
15765SOL    HW147321   2.263   9.163   0.859
15765SOL    HW247322   2.278   9.326   0.850
15766SOL     OW47323   3.657   8.514   0.873
15766SOL    HW147324   3.595   8.499   0.797
15766SOL    HW247325   3.605   8.525   0.958
15767SOL     OW47326   3.089   8.998   1.506
15767SOL    HW147327   3.095   8.921   1.570
15767SOL    HW247328   3.037   8.972   1.426
15768SOL     OW47329   2.183   8.391   0.242
15768SOL    HW147330   2.265   8.430   0.200
15768SOL    HW247331   2.156   8.309   0.193
15769SOL     OW47332   3.320   8.183   0.728
15769SOL    HW147333   3.315   8.118   0.803
15769SOL    HW247334   3.400   8.242   0.741
15770SOL     OW47335   2.323   8.714   1.727
15770SOL    HW147336   2.273   8.715   1.641
15770SOL    HW247337   2.260   8.696   1.803
15771SOL     OW47338   2.973   9.224   0.237
15771SOL    HW147339   2.913   9.162   0.287
15771SOL    HW247340   3.004   9.180   0.152
15772SOL     OW47341   2.064   7.733   1.498
15772SOL    HW147342   1.984   7.793   1.485
15772SOL    HW247343   2.054   7.684   1.584
15773SOL     OW47344   3.494   8.825   0.081
15773SOL    HW147345   3.462   8.919   0.071
15773SOL    HW247346   3.418   8.762   0.069
15774SOL     OW47347   2.326   9.191   0.323
15774SOL    HW147348   2.359   9.230   0.409
15774SOL    HW247349   2.402   9.184   0.258
15775SOL     OW47350   3.262   7.555   0.426
15775SOL    HW147351   3.238   7.518   0.336
15775SOL    HW247352   3.361   7.571   0.430
15776SOL     OW47353   2.111   9.233   1.241
15776SOL    HW147354   2.168   9.168   1.291
15776SOL    HW247355   2.095   9.200   1.148
15777SOL     OW47356   2.802   9.146   0.904
15777SOL    HW147357   2.882   9.089   0.925
15777SOL    HW247358   2.753   9.106   0.827
15778SOL     OW47359   2.244   8.148   0.480
15778SOL    HW147360   2.289   8.058   0.477
15778SOL    HW247361   2.150   8.137   0.513
15779SOL     OW47362   3.409   7.670   1.729
15779SOL    HW147363   3.404   7.707   1.821
15779SOL    HW247364   3.337   7.601   1.717
15780SOL     OW47365   2.476   7.570   0.117
15780SOL    HW147366   2.574   7.548   0.124
15780SOL    HW247367   2.445   7.553   0.024
15781SOL     OW47368   2.643   7.712   1.749
15781SOL    HW147369   2.710   7.651   1.792
15781SOL    HW247370   2.570   7.731   1.814
15782SOL     OW47371   2.750   8.962   1.195
15782SOL    HW147372   2.727   8.937   1.101
15782SOL    HW247373   2.811   8.893   1.234
15783SOL     OW47374   3.213   8.038   1.433
15783SOL    HW147375   3.241   7.995   1.518
15783SOL    HW247376   3.238   8.134   1.434
15784SOL     OW47377   2.665   8.850   0.924
15784SOL    HW147378   2.755   8.864   0.882
15784SOL    HW247379   2.594   8.852   0.853
15785SOL     OW47380   2.784   7.951   0.899
15785SOL    HW147381   2.759   7.942   0.803
15785SOL    HW247382   2.832   7.869   0.930
15786SOL     OW47383   2.401   7.512   0.512
15786SOL    HW147384   2.320   7.513   0.570
15786SOL    HW247385   2.404   7.595   0.457
15787SOL     OW47386   3.296   8.636   0.041
15787SOL    HW147387   3.328   8.560   0.098
15787SOL    HW247388   3.204   8.663   0.071
15788SOL     OW47389   2.159   7.483   0.171
15788SOL    HW147390   2.208   7.567   0.150
15788SOL    HW247391   2.221   7.418   0.216
15789SOL     OW47392   2.797   7.684   0.480
15789SOL    HW147393   2.749   7.725   0.402
15789SOL    HW247394   2.896   7.682   0.461
15790SOL     OW47395   2.938   8.131   1.464
15790SOL    HW147396   2.858   8.070   1.467
15790SOL    HW247397   3.019   8.078   1.440
15791SOL     OW47398   3.089   9.018   0.793
15791SOL    HW147399   3.110   9.092   0.728
15791SOL    HW247400   3.157   9.018   0.866
15792SOL     OW47401   2.321   8.600   0.741
15792SOL    HW147402   2.250   8.573   0.806
15792SOL    HW247403   2.295   8.572   0.648
15793SOL     OW47404   3.133   9.245   0.591
15793SOL    HW147405   3.177   9.309   0.527
15793SOL    HW247406   3.083   9.297   0.661
15794SOL     OW47407   2.894   7.997   0.016
15794SOL    HW147408   2.853   8.079  -0.023
15794SOL    HW247409   2.958   8.023   0.089
15795SOL     OW47410   1.940   8.004   1.386
15795SOL    HW147411   2.032   8.003   1.345
15795SOL    HW247412   1.934   8.078   1.453
15796SOL     OW47413   2.423   7.670   1.147
15796SOL    HW147414   2.461   7.586   1.184
15796SOL    HW247415   2.335   7.689   1.191
15797SOL     OW47416   2.728   7.902   0.642
15797SOL    HW147417   2.696   7.974   0.580
15797SOL    HW247418   2.752   7.821   0.589
15798SOL     OW47419   2.879   7.487   0.753
15798SOL    HW147420   2.807   7.492   0.684
15798SOL    HW247421   2.855   7.418   0.822
15799SOL     OW47422   3.291   8.621   0.867
15799SOL    HW147423   3.236   8.537   0.860
15799SOL    HW247424   3.317   8.650   0.775
15800SOL     OW47425   3.328   8.038   0.992
15800SOL    HW147426   3.298   7.943   0.999
15800SOL    HW247427   3.401   8.054   1.058
15801SOL     OW47428   3.719   8.281   0.377
15801SOL    HW147429   3.761   8.217   0.441
15801SOL    HW247430   3.681   8.230   0.299
15802SOL     OW47431   2.350   8.833   0.174
15802SOL    HW147432   2.263   8.818   0.221
15802SOL    HW247433   2.333   8.859   0.079
15803SOL     OW47434   3.526   8.728   0.657
15803SOL    HW147435   3.625   8.736   0.671
15803SOL    HW247436   3.481   8.812   0.688
15804SOL     OW47437   3.252   8.023   0.078
15804SOL    HW147438   3.198   8.002   0.159
15804SOL    HW247439   3.343   7.982   0.087
15805SOL     OW47440   2.389   7.704   0.328
15805SOL    HW147441   2.416   7.645   0.253
15805SOL    HW247442   2.389   7.799   0.297
15806SOL     OW47443   3.616   8.671   1.588
15806SOL    HW147444   3.707   8.632   1.575
15806SOL    HW247445   3.624   8.767   1.612
15807SOL     OW47446   2.926   8.795   1.340
15807SOL    HW147447   2.846   8.772   1.395
15807SOL    HW247448   3.009   8.769   1.389
15808SOL     OW47449   3.454   9.077   1.625
15808SOL    HW147450   3.481   9.111   1.535
15808SOL    HW247451   3.533   9.039   1.671
15809SOL     OW47452   2.973   8.643   1.100
15809SOL    HW147453   2.933   8.687   1.181
15809SOL    HW247454   2.932   8.680   1.017
15810SOL     OW47455   3.500   8.547   1.079
15810SOL    HW147456   3.505   8.628   1.138
15810SOL    HW247457   3.414   8.549   1.028
15811SOL     OW47458   2.777   7.537   1.402
15811SOL    HW147459   2.802   7.517   1.307
15811SOL    HW247460   2.849   7.593   1.444
15812SOL     OW47461   2.842   8.564   1.719
15812SOL    HW147462   2.743   8.570   1.729
15812SOL    HW247463   2.865   8.484   1.663
15813SOL     OW47464   2.567   8.498   0.368
15813SOL    HW147465   2.553   8.505   0.467
15813SOL    HW247466   2.651   8.447   0.350
15814SOL     OW47467   2.272   8.261   1.251
15814SOL    HW147468   2.358   8.273   1.301
15814SOL    HW247469   2.230   8.174   1.278
15815SOL     OW47470   3.136   7.834   1.262
15815SOL    HW147471   3.157   7.908   1.326
15815SOL    HW247472   3.047   7.851   1.219
15816SOL     OW47473   1.926   9.012   1.331
15816SOL    HW147474   1.880   9.094   1.297
15816SOL    HW247475   2.024   9.031   1.340
15817SOL     OW47476   2.229   8.548   0.501
15817SOL    HW147477   2.222   8.631   0.445
15817SOL    HW247478   2.233   8.468   0.441
15818SOL     OW47479   2.428   7.985   0.865
15818SOL    HW147480   2.440   8.051   0.791
15818SOL    HW247481   2.474   8.019   0.948
15819SOL     OW47482   3.114   8.796   0.388
15819SOL    HW147483   3.164   8.873   0.428
15819SOL    HW247484   3.019   8.798   0.420
15820SOL     OW47485   3.134   8.893   1.142
15820SOL    HW147486   3.181   8.906   1.229
15820SOL    HW247487   3.068   8.819   1.151
15821SOL     OW47488   3.444   8.087   0.472
15821SOL    HW147489   3.413   8.148   0.545
15821SOL    HW247490   3.494   8.139   0.403
15822SOL     OW47491   2.216   8.958   1.329
15822SOL    HW147492   2.195   8.914   1.242
15822SOL    HW247493   2.313   8.984   1.332
15823SOL     OW47494   2.264   8.199   1.598
15823SOL    HW147495   2.332   8.254   1.551
15823SOL    HW247496   2.304   8.111   1.625
15824SOL     OW47497   3.449   8.227   1.670
15824SOL    HW147498   3.357   8.265   1.665
15824SOL    HW247499   3.509   8.274   1.605
15825SOL     OW47500   2.875   7.553   1.770
15825SOL    HW147501   2.881   7.638   1.718
15825SOL    HW247502   2.907   7.477   1.713
15826SOL     OW47503   2.366   7.498   1.740
15826SOL    HW147504   2.324   7.441   1.670
15826SOL    HW247505   2.300   7.567   1.772
15827SOL     OW47506   2.435   8.318   1.029
15827SOL    HW147507   2.479   8.407   1.020
15827SOL    HW247508   2.372   8.318   1.106
15828SOL     OW47509   3.222   8.310   1.045
15828SOL    HW147510   3.147   8.310   0.979
15828SOL    HW247511   3.259   8.218   1.054
15829SOL     OW47512   3.071   7.973   0.275
15829SOL    HW147513   3.084   7.889   0.329
15829SOL    HW247514   3.042   8.047   0.335
15830SOL     OW47515   2.169   7.661   1.231
15830SOL    HW147516   2.146   7.698   1.321
15830SOL    HW247517   2.139   7.566   1.225
15831SOL     OW47518   1.899   8.758   1.282
15831SOL    HW147519   1.952   8.709   1.350
15831SOL    HW247520   1.921   8.856   1.287
15832SOL     OW47521   2.594   8.082   1.064
15832SOL    HW147522   2.653   8.056   0.988
15832SOL    HW247523   2.566   8.178   1.053
15833SOL     OW47524   3.590   8.383   1.854
15833SOL    HW147525   3.544   8.376   1.765
15833SOL    HW247526   3.528   8.427   1.920
15834SOL     OW47527   2.169   7.511   0.618
15834SOL    HW147528   2.158   7.605   0.651
15834SOL    HW247529   2.164   7.448   0.695
15835SOL     OW47530   3.484   7.815   0.374
15835SOL    HW147531   3.486   7.739   0.438
15835SOL    HW247532   3.436   7.892   0.414
15836SOL     OW47533   2.885   8.214   0.966
15836SOL    HW147534   2.900   8.235   1.062
15836SOL    HW247535   2.855   8.119   0.957
15837SOL     OW47536   2.842   9.021   1.700
15837SOL    HW147537   2.822   9.065   1.612
15837SOL    HW247538   2.881   8.930   1.684
15838SOL     OW47539   3.721   8.966   1.605
15838SOL    HW147540   3.735   8.993   1.510
15838SOL    HW247541   3.804   8.988   1.658
15839SOL     OW47542   2.212   8.346   1.804
15839SOL    HW147543   2.288   8.390   1.852
15839SOL    HW247544   2.247   8.299   1.722
15840SOL     OW47545   3.402   7.722   0.125
15840SOL    HW147546   3.341   7.647   0.148
15840SOL    HW247547   3.424   7.774   0.208
15841SOL     OW47548   3.165   8.286   0.042
15841SOL    HW147549   3.199   8.193   0.057
15841SOL    HW247550   3.183   8.313  -0.053
15842SOL     OW47551   2.930   8.781   0.849
15842SOL    HW147552   2.937   8.697   0.794
15842SOL    HW247553   2.992   8.850   0.813
15843SOL     OW47554   2.181   8.258   0.949
15843SOL    HW147555   2.274   8.294   0.954
15843SOL    HW247556   2.175   8.173   1.001
15844SOL     OW47557   2.201   7.957   1.006
15844SOL    HW147558   2.149   7.874   0.989
15844SOL    HW247559   2.278   7.962   0.942
15845SOL     OW47560   3.000   7.828   1.678
15845SOL    HW147561   2.955   7.891   1.742
15845SOL    HW247562   3.093   7.859   1.661
15846SOL     OW47563   3.022   7.655   1.477
15846SOL    HW147564   3.022   7.719   1.554
15846SOL    HW247565   3.050   7.703   1.394
15847SOL     OW47566   1.870   8.774   0.200
15847SOL    HW147567   1.777   8.795   0.169
15847SOL    HW247568   1.880   8.675   0.213
15848SOL     OW47569   1.950   9.249   0.927
15848SOL    HW147570   1.908   9.163   0.900
15848SOL    HW247571   2.044   9.252   0.893
15849SOL     OW47572   2.366   9.016   0.910
15849SOL    HW147573   2.432   9.090   0.919
15849SOL    HW247574   2.410   8.937   0.868
15850SOL     OW47575   2.864   8.244   1.238
15850SOL    HW147576   2.905   8.212   1.324
15850SOL    HW247577   2.768   8.217   1.235
15851SOL     OW47578   1.902   7.992   1.114
15851SOL    HW147579   1.987   7.959   1.073
15851SOL    HW247580   1.915   8.007   1.212
15852SOL     OW47581   2.051   7.968   1.722
15852SOL    HW147582   2.110   7.928   1.652
15852SOL    HW247583   1.993   8.039   1.681
15853SOL     OW47584   3.231   8.398   1.660
15853SOL    HW147585   3.270   8.487   1.680
15853SOL    HW247586   3.241   8.378   1.563
15854SOL     OW47587   2.677   8.020   0.325
15854SOL    HW147588   2.684   7.931   0.279
15854SOL    HW247589   2.583   8.054   0.317
15855SOL     OW47590   3.519   8.052   1.206
15855SOL    HW147591   3.481   7.983   1.268
15855SOL    HW247592   3.601   8.016   1.162
15856SOL     OW47593   2.114   9.012   1.744
15856SOL    HW147594   2.084   9.069   1.820
15856SOL    HW247595   2.107   8.915   1.770
15857SOL     OW47596   2.533   7.912   1.269
15857SOL    HW147597   2.499   7.823   1.239
15857SOL    HW247598   2.559   7.966   1.189
15858SOL     OW47599   2.792   9.126   1.465
15858SOL    HW147600   2.768   9.108   1.370
15858SOL    HW247601   2.822   9.220   1.475
15859SOL     OW47602   2.335   7.948   0.191
15859SOL    HW147603   2.396   8.028   0.195
15859SOL    HW247604   2.240   7.979   0.198
15860SOL     OW47605   2.021   8.585   1.466
15860SOL    HW147606   2.043   8.524   1.542
15860SOL    HW247607   2.031   8.536   1.380
15861SOL     OW47608   3.209   8.507   1.234
15861SOL    HW147609   3.233   8.444   1.160
15861SOL    HW247610   3.119   8.547   1.216
15862SOL     OW47611   3.164   8.303   0.309
15862SOL    HW147612   3.078   8.272   0.351
15862SOL    HW247613   3.160   8.289   0.210
15863SOL     OW47614   3.621   9.195   1.154
15863SOL    HW147615   3.682   9.225   1.081
15863SOL    HW247616   3.583   9.106   1.132
15864SOL     OW47617   3.114   9.179   1.128
15864SOL    HW147618   3.198   9.184   1.074
15864SOL    HW247619   3.091   9.083   1.146
15865SOL     OW47620   1.945   8.706   1.022
15865SOL    HW147621   1.940   8.705   1.122
15865SOL    HW247622   1.862   8.665   0.984
15866SOL     OW47623   2.550   9.110   1.716
15866SOL    HW147624   2.494   9.191   1.725
15866SOL    HW247625   2.602   9.114   1.630
15867SOL     OW47626   2.765   7.534   0.133
15867SOL    HW147627   2.816   7.535   0.047
15867SOL    HW247628   2.821   7.492   0.204
15868SOL     OW47629   3.588   7.583   0.523
15868SOL    HW147630   3.661   7.566   0.456
15868SOL    HW247631   3.557   7.496   0.561
15869SOL     OW47632   3.250   9.021   0.477
15869SOL    HW147633   3.317   9.033   0.403
15869SOL    HW247634   3.210   9.110   0.500
15870SOL     OW47635   1.992   9.242   1.851
15870SOL    HW147636   1.951   9.168   1.904
15870SOL    HW247637   2.056   9.293   1.909
15871SOL     OW47638   3.142   8.375   0.672
15871SOL    HW147639   3.202   8.294   0.674
15871SOL    HW247640   3.182   8.444   0.612
15872SOL     OW47641   2.692   8.721   1.422
15872SOL    HW147642   2.687   8.754   1.517
15872SOL    HW247643   2.606   8.740   1.376
15873SOL     OW47644   2.534   9.064   0.154
15873SOL    HW147645   2.543   9.074   0.055
15873SOL    HW247646   2.494   8.975   0.175
15874SOL     OW47647   3.512   9.168   1.394
15874SOL    HW147648   3.565   9.178   1.310
15874SOL    HW247649   3.485   9.258   1.428
15875SOL     OW47650   3.703   7.623   0.963
15875SOL    HW147651   3.742   7.538   0.927
15875SOL    HW247652   3.605   7.625   0.944
15876SOL     OW47653   2.125   7.774   0.720
15876SOL    HW147654   2.046   7.825   0.686
15876SOL    HW247655   2.116   7.759   0.818
15877SOL     OW47656   3.056   9.060   0.031
15877SOL    HW147657   3.062   8.967   0.068
15877SOL    HW247658   2.997   9.060  -0.049
15878SOL     OW47659   2.684   8.450   1.372
15878SOL    HW147660   2.724   8.449   1.280
15878SOL    HW247661   2.694   8.542   1.412
15879SOL     OW47662   2.778   8.358   0.291
15879SOL    HW147663   2.841   8.396   0.223
15879SOL    HW247664   2.818   8.275   0.330
15880SOL     OW47665   3.366   9.055   0.044
15880SOL    HW147666   3.274   9.092   0.051
15880SOL    HW247667   3.404   9.075  -0.046
15881SOL     OW47668   2.234   8.736   1.490
15881SOL    HW147669   2.221   8.829   1.456
15881SOL    HW247670   2.150   8.684   1.477
15882SOL     OW47671   3.476   8.740   1.289
15882SOL    HW147672   3.536   8.743   1.369
15882SOL    HW247673   3.401   8.804   1.302
15883SOL     OW47674   2.901   8.546   0.696
15883SOL    HW147675   2.831   8.499   0.750
15883SOL    HW247676   2.960   8.478   0.653
15884SOL     OW47677   2.876   7.684   0.971
15884SOL    HW147678   2.868   7.648   0.878
15884SOL    HW247679   2.874   7.608   1.036
15885SOL     OW47680   2.452   8.935   0.491
15885SOL    HW147681   2.494   8.877   0.421
15885SOL    HW247682   2.408   9.014   0.447
15886SOL     OW47683   3.571   7.833   1.381
15886SOL    HW147684   3.644   7.902   1.385
15886SOL    HW247685   3.599   7.758   1.322
15887SOL     OW47686   2.117   8.796   0.290
15887SOL    HW147687   2.021   8.797   0.263
15887SOL    HW247688   2.129   8.849   0.374
15888SOL     OW47689   1.967   8.461   1.726
15888SOL    HW147690   1.890   8.428   1.780
15888SOL    HW247691   2.052   8.431   1.768
15889SOL     OW47692   2.534   7.651   1.489
15889SOL    HW147693   2.624   7.635   1.449
15889SOL    HW247694   2.542   7.656   1.588
15890SOL     OW47695   3.302   8.304   1.398
15890SOL    HW147696   3.245   8.356   1.335
15890SOL    HW247697   3.398   8.316   1.374
15891SOL     OW47698   1.934   7.614   0.318
15891SOL    HW147699   1.917   7.697   0.264
15891SOL    HW247700   2.024   7.577   0.296
15892SOL     OW47701   3.045   8.783   0.119
15892SOL    HW147702   2.946   8.772   0.121
15892SOL    HW247703   3.079   8.798   0.212
15893SOL     OW47704   2.475   8.290   1.431
15893SOL    HW147705   2.531   8.371   1.414
15893SOL    HW247706   2.534   8.210   1.434
15894SOL     OW47707   3.355   9.215   0.959
15894SOL    HW147708   3.388   9.279   0.890
15894SOL    HW247709   3.421   9.209   1.034
15895SOL     OW47710   2.578   8.013   1.708
15895SOL    HW147711   2.597   8.078   1.782
15895SOL    HW247712   2.638   7.933   1.717
15896SOL     OW47713   3.312   8.668   1.633
15896SOL    HW147714   3.303   8.658   1.732
15896SOL    HW247715   3.408   8.661   1.607
15897SOL     OW47716   2.252   9.189   1.560
15897SOL    HW147717   2.161   9.230   1.558
15897SOL    HW247718   2.245   9.095   1.592
15898SOL     OW47719   3.536   8.331   1.254
15898SOL    HW147720   3.509   8.242   1.217
15898SOL    HW247721   3.537   8.399   1.181
15899SOL     OW47722   3.087   7.773   0.449
15899SOL    HW147723   3.152   7.699   0.438
15899SOL    HW247724   3.107   7.823   0.533
15900SOL     OW47725   2.456   8.193   0.652
15900SOL    HW147726   2.506   8.278   0.633
15900SOL    HW247727   2.368   8.195   0.604
15901SOL     OW47728   3.639   7.790   1.642
15901SOL    HW147729   3.622   7.821   1.548
15901SOL    HW247730   3.555   7.753   1.680
15902SOL     OW47731   3.592   8.382   1.517
15902SOL    HW147732   3.630   8.473   1.532
15902SOL    HW247733   3.584   8.365   1.418
15903SOL     OW47734   2.721   8.822   0.016
15903SOL    HW147735   2.675   8.837   0.104
15903SOL    HW247736   2.765   8.907  -0.014
15904SOL     OW47737   2.523   9.238   0.953
15904SOL    HW147738   2.477   9.326   0.940
15904SOL    HW247739   2.622   9.250   0.946
15905SOL     OW47740   2.721   8.404   0.861
15905SOL    HW147741   2.775   8.335   0.909
15905SOL    HW247742   2.689   8.473   0.927
15906SOL     OW47743   2.945   8.432   0.087
15906SOL    HW147744   2.922   8.485   0.005
15906SOL    HW247745   3.026   8.376   0.068
15907SOL     OW47746   3.723   9.017   0.851
15907SOL    HW147747   3.652   9.005   0.781
15907SOL    HW247748   3.724   8.938   0.911
15908SOL     OW47749   2.083   8.762   1.844
15908SOL    HW147750   2.018   8.689   1.823
15908SOL    HW247751   2.087   8.776   1.942
15909SOL     OW47752   1.941   8.688   0.653
15909SOL    HW147753   1.940   8.641   0.741
15909SOL    HW247754   2.023   8.660   0.602
15910SOL     OW47755   2.534   8.839   1.624
15910SOL    HW147756   2.456   8.789   1.662
15910SOL    HW247757   2.531   8.934   1.655
15911SOL     OW47758   3.686   7.640   1.227
15911SOL    HW147759   3.682   7.550   1.271
15911SOL    HW247760   3.689   7.629   1.128
15912SOL     OW47761   2.290   7.872   0.520
15912SOL    HW147762   2.320   7.800   0.458
15912SOL    HW247763   2.251   7.832   0.603
15913SOL     OW47764   3.567   8.935   1.104
15913SOL    HW147765   3.474   8.910   1.077
15913SOL    HW247766   3.593   8.885   1.186
15914SOL     OW47767   2.179   7.995   1.280
15914SOL    HW147768   2.217   7.936   1.352
15914SOL    HW247769   2.219   7.969   1.192
15915SOL     OW47770   2.674   9.034   0.687
15915SOL    HW147771   2.706   9.044   0.593
15915SOL    HW247772   2.595   8.972   0.689
15916SOL     OW47773   3.286   7.662   1.112
15916SOL    HW147774   3.338   7.597   1.167
15916SOL    HW247775   3.237   7.725   1.173
15917SOL     OW47776   2.863   7.482   1.154
15917SOL    HW147777   2.800   7.410   1.123
15917SOL    HW247778   2.956   7.446   1.154
15918SOL     OW47779   2.632   8.778   0.301
15918SOL    HW147780   2.586   8.691   0.318
15918SOL    HW247781   2.723   8.775   0.342
15919SOL     OW47782   2.480   9.015   1.284
15919SOL    HW147783   2.475   9.097   1.341
15919SOL    HW247784   2.569   9.012   1.239
15920SOL     OW47785   3.214   7.500   0.168
15920SOL    HW147786   3.249   7.459   0.084
15920SOL    HW247787   3.124   7.462   0.188
15921SOL     OW47788   3.162   7.901   0.691
15921SOL    HW147789   3.103   7.981   0.695
15921SOL    HW247790   3.177   7.866   0.784
15922SOL     OW47791   3.455   7.669   0.882
15922SOL    HW147792   3.371   7.668   0.936
15922SOL    HW247793   3.457   7.752   0.826
15923SOL     OW47794   1.901   8.525   0.300
15923SOL    HW147795   2.000   8.514   0.291
15923SOL    HW247796   1.861   8.439   0.332
15924SOL     OW47797   2.737   9.094   0.337
15924SOL    HW147798   2.660   9.059   0.283
15924SOL    HW247799   2.705   9.165   0.399
15925SOL     OW47800   2.092   8.076   1.975
15925SOL    HW147801   1.999   8.074   2.012
15925SOL    HW247802   2.093   8.037   1.883
15926SOL     OW47803   2.087   7.723   2.858
15926SOL    HW147804   2.122   7.706   2.950
15926SOL    HW247805   1.999   7.678   2.846
15927SOL     OW47806   1.881   7.816   2.509
15927SOL    HW147807   1.799   7.859   2.548
15927SOL    HW247808   1.853   7.743   2.446
15928SOL     OW47809   2.431   8.723   3.027
15928SOL    HW147810   2.338   8.716   2.990
15928SOL    HW247811   2.442   8.812   3.071
15929SOL     OW47812   3.417   8.959   2.565
15929SOL    HW147813   3.360   8.943   2.646
15929SOL    HW247814   3.358   8.969   2.485
15930SOL     OW47815   2.997   8.151   2.579
15930SOL    HW147816   3.054   8.229   2.554
15930SOL    HW247817   2.937   8.177   2.655
15931SOL     OW47818   3.617   8.055   2.093
15931SOL    HW147819   3.605   8.042   1.994
15931SOL    HW247820   3.587   7.974   2.142
15932SOL     OW47821   2.630   8.592   2.885
15932SOL    HW147822   2.552   8.609   2.945
15932SOL    HW247823   2.664   8.679   2.849
15933SOL     OW47824   2.712   8.246   3.685
15933SOL    HW147825   2.708   8.322   3.750
15933SOL    HW247826   2.734   8.282   3.594
15934SOL     OW47827   2.547   8.460   2.527
15934SOL    HW147828   2.616   8.444   2.597
15934SOL    HW247829   2.474   8.517   2.565
15935SOL     OW47830   2.548   8.609   3.665
15935SOL    HW147831   2.608   8.688   3.679
15935SOL    HW247832   2.462   8.640   3.624
15936SOL     OW47833   2.197   8.883   2.923
15936SOL    HW147834   2.119   8.852   2.870
15936SOL    HW247835   2.255   8.941   2.866
15937SOL     OW47836   3.322   8.953   3.201
15937SOL    HW147837   3.346   9.047   3.227
15937SOL    HW247838   3.306   8.899   3.283
15938SOL     OW47839   2.300   7.840   3.361
15938SOL    HW147840   2.382   7.784   3.370
15938SOL    HW247841   2.219   7.782   3.365
15939SOL     OW47842   3.465   7.895   2.599
15939SOL    HW147843   3.391   7.941   2.549
15939SOL    HW247844   3.516   7.963   2.652
15940SOL     OW47845   2.093   9.161   2.345
15940SOL    HW147846   2.127   9.238   2.399
15940SOL    HW247847   2.137   9.161   2.255
15941SOL     OW47848   2.989   8.789   3.552
15941SOL    HW147849   3.036   8.789   3.640
15941SOL    HW247850   2.941   8.702   3.541
15942SOL     OW47851   2.092   8.882   2.400
15942SOL    HW147852   2.066   8.978   2.400
15942SOL    HW247853   2.021   8.828   2.445
15943SOL     OW47854   2.102   8.539   2.748
15943SOL    HW147855   2.116   8.455   2.800
15943SOL    HW247856   2.047   8.603   2.803
15944SOL     OW47857   2.482   9.234   3.301
15944SOL    HW147858   2.390   9.217   3.336
15944SOL    HW247859   2.510   9.326   3.327
15945SOL     OW47860   2.468   8.412   1.985
15945SOL    HW147861   2.475   8.496   1.931
15945SOL    HW247862   2.514   8.425   2.073
15946SOL     OW47863   3.456   7.562   3.342
15946SOL    HW147864   3.438   7.629   3.270
15946SOL    HW247865   3.453   7.608   3.431
15947SOL     OW47866   1.984   8.091   2.425
15947SOL    HW147867   1.939   8.003   2.442
15947SOL    HW247868   1.983   8.145   2.509
15948SOL     OW47869   3.704   9.215   2.221
15948SOL    HW147870   3.758   9.186   2.301
15948SOL    HW247871   3.734   9.305   2.192
15949SOL     OW47872   1.889   9.044   1.979
15949SOL    HW147873   1.870   8.948   2.000
15949SOL    HW247874   1.856   9.102   2.054
15950SOL     OW47875   3.551   8.370   2.474
15950SOL    HW147876   3.646   8.341   2.482
15950SOL    HW247877   3.543   8.435   2.399
15951SOL     OW47878   3.503   8.556   2.294
15951SOL    HW147879   3.589   8.558   2.242
15951SOL    HW247880   3.517   8.603   2.382
15952SOL     OW47881   1.975   8.185   3.459
15952SOL    HW147882   2.063   8.172   3.504
15952SOL    HW247883   1.962   8.282   3.437
15953SOL     OW47884   2.475   8.813   2.588
15953SOL    HW147885   2.426   8.726   2.597
15953SOL    HW247886   2.452   8.856   2.501
15954SOL     OW47887   3.155   8.676   3.285
15954SOL    HW147888   3.192   8.603   3.227
15954SOL    HW247889   3.207   8.681   3.370
15955SOL     OW47890   2.671   7.452   2.364
15955SOL    HW147891   2.711   7.543   2.355
15955SOL    HW247892   2.571   7.460   2.370
15956SOL     OW47893   2.059   8.424   3.126
15956SOL    HW147894   2.148   8.379   3.112
15956SOL    HW247895   1.986   8.359   3.107
15957SOL     OW47896   3.387   8.447   2.052
15957SOL    HW147897   3.324   8.371   2.065
15957SOL    HW247898   3.435   8.465   2.138
15958SOL     OW47899   3.049   9.240   3.478
15958SOL    HW147900   3.073   9.300   3.402
15958SOL    HW247901   3.056   9.145   3.448
15959SOL     OW47902   2.179   7.699   3.663
15959SOL    HW147903   2.250   7.770   3.669
15959SOL    HW247904   2.091   7.738   3.691
15960SOL     OW47905   3.328   8.865   2.815
15960SOL    HW147906   3.269   8.871   2.895
15960SOL    HW247907   3.313   8.777   2.769
15961SOL     OW47908   3.529   9.162   2.434
15961SOL    HW147909   3.488   9.139   2.346
15961SOL    HW247910   3.511   9.088   2.499
15962SOL     OW47911   2.460   8.177   2.132
15962SOL    HW147912   2.484   8.246   2.064
15962SOL    HW247913   2.382   8.210   2.186
15963SOL     OW47914   3.143   7.793   2.806
15963SOL    HW147915   3.057   7.743   2.793
15963SOL    HW247916   3.205   7.739   2.862
15964SOL     OW47917   3.438   9.110   2.169
15964SOL    HW147918   3.527   9.156   2.172
15964SOL    HW247919   3.417   9.086   2.074
15965SOL     OW47920   2.669   8.053   3.327
15965SOL    HW147921   2.622   8.050   3.416
15965SOL    HW247922   2.618   7.998   3.261
15966SOL     OW47923   3.256   7.917   3.536
15966SOL    HW147924   3.236   7.960   3.624
15966SOL    HW247925   3.334   7.855   3.545
15967SOL     OW47926   2.835   8.338   3.434
15967SOL    HW147927   2.881   8.254   3.405
15967SOL    HW247928   2.779   8.372   3.359
15968SOL     OW47929   2.853   7.858   3.104
15968SOL    HW147930   2.776   7.892   3.158
15968SOL    HW247931   2.819   7.807   3.025
15969SOL     OW47932   2.903   8.149   2.291
15969SOL    HW147933   2.929   8.145   2.387
15969SOL    HW247934   2.818   8.098   2.277
15970SOL     OW47935   1.938   8.259   2.651
15970SOL    HW147936   2.037   8.247   2.660
15970SOL    HW247937   1.914   8.354   2.672
15971SOL     OW47938   1.992   9.269   3.433
15971SOL    HW147939   1.982   9.254   3.532
15971SOL    HW247940   1.906   9.305   3.397
15972SOL     OW47941   2.727   7.796   2.057
15972SOL    HW147942   2.786   7.859   2.008
15972SOL    HW247943   2.746   7.702   2.028
15973SOL     OW47944   3.581   8.033   3.693
15973SOL    HW147945   3.555   8.122   3.657
15973SOL    HW247946   3.579   7.965   3.620
15974SOL     OW47947   3.224   8.592   2.407
15974SOL    HW147948   3.307   8.563   2.359
15974SOL    HW247949   3.175   8.659   2.351
15975SOL     OW47950   2.412   7.644   2.747
15975SOL    HW147951   2.407   7.639   2.847
15975SOL    HW247952   2.414   7.740   2.718
15976SOL     OW47953   2.870   8.904   2.339
15976SOL    HW147954   2.824   8.976   2.287
15976SOL    HW247955   2.866   8.924   2.437
15977SOL     OW47956   2.213   9.249   2.715
15977SOL    HW147957   2.263   9.163   2.721
15977SOL    HW247958   2.278   9.326   2.712
15978SOL     OW47959   3.657   8.514   2.735
15978SOL    HW147960   3.595   8.499   2.659
15978SOL    HW247961   3.605   8.525   2.820
15979SOL     OW47962   3.089   8.998   3.368
15979SOL    HW147963   3.095   8.921   3.432
15979SOL    HW247964   3.037   8.972   3.288
15980SOL     OW47965   2.183   8.391   2.104
15980SOL    HW147966   2.265   8.430   2.062
15980SOL    HW247967   2.156   8.309   2.055
15981SOL     OW47968   3.320   8.183   2.590
15981SOL    HW147969   3.315   8.118   2.665
15981SOL    HW247970   3.400   8.242   2.603
15982SOL     OW47971   2.323   8.714   3.589
15982SOL    HW147972   2.273   8.715   3.503
15982SOL    HW247973   2.260   8.696   3.665
15983SOL     OW47974   2.973   9.224   2.099
15983SOL    HW147975   2.913   9.162   2.149
15983SOL    HW247976   3.004   9.180   2.014
15984SOL     OW47977   2.064   7.733   3.360
15984SOL    HW147978   1.984   7.793   3.347
15984SOL    HW247979   2.054   7.684   3.446
15985SOL     OW47980   3.494   8.825   1.943
15985SOL    HW147981   3.462   8.919   1.933
15985SOL    HW247982   3.418   8.762   1.931
15986SOL     OW47983   2.326   9.191   2.185
15986SOL    HW147984   2.359   9.230   2.271
15986SOL    HW247985   2.402   9.184   2.120
15987SOL     OW47986   3.262   7.555   2.288
15987SOL    HW147987   3.238   7.518   2.198
15987SOL    HW247988   3.361   7.571   2.292
15988SOL     OW47989   2.111   9.233   3.103
15988SOL    HW147990   2.168   9.168   3.153
15988SOL    HW247991   2.095   9.200   3.010
15989SOL     OW47992   2.802   9.146   2.766
15989SOL    HW147993   2.882   9.089   2.787
15989SOL    HW247994   2.753   9.106   2.689
15990SOL     OW47995   2.244   8.148   2.342
15990SOL    HW147996   2.289   8.058   2.339
15990SOL    HW247997   2.150   8.137   2.375
15991SOL     OW47998   3.409   7.670   3.591
15991SOL    HW147999   3.404   7.707   3.683
15991SOL    HW248000   3.337   7.601   3.579
15992SOL     OW48001   2.476   7.570   1.979
15992SOL    HW148002   2.574   7.548   1.986
15992SOL    HW248003   2.445   7.553   1.886
15993SOL     OW48004   2.643   7.712   3.611
15993SOL    HW148005   2.710   7.651   3.654
15993SOL    HW248006   2.570   7.731   3.676
15994SOL     OW48007   2.750   8.962   3.057
15994SOL    HW148008   2.727   8.937   2.963
15994SOL    HW248009   2.811   8.893   3.096
15995SOL     OW48010   3.213   8.038   3.295
15995SOL    HW148011   3.241   7.995   3.380
15995SOL    HW248012   3.238   8.134   3.296
15996SOL     OW48013   2.665   8.850   2.786
15996SOL    HW148014   2.755   8.864   2.744
15996SOL    HW248015   2.594   8.852   2.715
15997SOL     OW48016   2.784   7.951   2.761
15997SOL    HW148017   2.759   7.942   2.665
15997SOL    HW248018   2.832   7.869   2.792
15998SOL     OW48019   2.401   7.512   2.374
15998SOL    HW148020   2.320   7.513   2.432
15998SOL    HW248021   2.404   7.595   2.319
15999SOL     OW48022   3.296   8.636   1.903
15999SOL    HW148023   3.328   8.560   1.960
15999SOL    HW248024   3.204   8.663   1.933
16000SOL     OW48025   2.159   7.483   2.033
16000SOL    HW148026   2.208   7.567   2.012
16000SOL    HW248027   2.221   7.418   2.078
16001SOL     OW48028   2.797   7.684   2.342
16001SOL    HW148029   2.749   7.725   2.264
16001SOL    HW248030   2.896   7.682   2.323
16002SOL     OW48031   2.938   8.131   3.326
16002SOL    HW148032   2.858   8.070   3.329
16002SOL    HW248033   3.019   8.078   3.302
16003SOL     OW48034   3.089   9.018   2.655
16003SOL    HW148035   3.110   9.092   2.590
16003SOL    HW248036   3.157   9.018   2.728
16004SOL     OW48037   2.321   8.600   2.603
16004SOL    HW148038   2.250   8.573   2.668
16004SOL    HW248039   2.295   8.572   2.510
16005SOL     OW48040   3.133   9.245   2.453
16005SOL    HW148041   3.177   9.309   2.389
16005SOL    HW248042   3.083   9.297   2.523
16006SOL     OW48043   2.894   7.997   1.878
16006SOL    HW148044   2.853   8.079   1.839
16006SOL    HW248045   2.958   8.023   1.951
16007SOL     OW48046   1.940   8.004   3.248
16007SOL    HW148047   2.032   8.003   3.207
16007SOL    HW248048   1.934   8.078   3.315
16008SOL     OW48049   2.423   7.670   3.009
16008SOL    HW148050   2.461   7.586   3.046
16008SOL    HW248051   2.335   7.689   3.053
16009SOL     OW48052   2.728   7.902   2.504
16009SOL    HW148053   2.696   7.974   2.442
16009SOL    HW248054   2.752   7.821   2.451
16010SOL     OW48055   2.879   7.487   2.615
16010SOL    HW148056   2.807   7.492   2.546
16010SOL    HW248057   2.855   7.418   2.684
16011SOL     OW48058   3.291   8.621   2.729
16011SOL    HW148059   3.236   8.537   2.722
16011SOL    HW248060   3.317   8.650   2.637
16012SOL     OW48061   3.328   8.038   2.854
16012SOL    HW148062   3.298   7.943   2.861
16012SOL    HW248063   3.401   8.054   2.920
16013SOL     OW48064   3.719   8.281   2.239
16013SOL    HW148065   3.761   8.217   2.303
16013SOL    HW248066   3.681   8.230   2.161
16014SOL     OW48067   2.350   8.833   2.036
16014SOL    HW148068   2.263   8.818   2.083
16014SOL    HW248069   2.333   8.859   1.941
16015SOL     OW48070   3.526   8.728   2.519
16015SOL    HW148071   3.625   8.736   2.533
16015SOL    HW248072   3.481   8.812   2.550
16016SOL     OW48073   3.252   8.023   1.940
16016SOL    HW148074   3.198   8.002   2.021
16016SOL    HW248075   3.343   7.982   1.949
16017SOL     OW48076   2.389   7.704   2.190
16017SOL    HW148077   2.416   7.645   2.115
16017SOL    HW248078   2.389   7.799   2.159
16018SOL     OW48079   3.616   8.671   3.450
16018SOL    HW148080   3.707   8.632   3.437
16018SOL    HW248081   3.624   8.767   3.474
16019SOL     OW48082   2.926   8.795   3.202
16019SOL    HW148083   2.846   8.772   3.257
16019SOL    HW248084   3.009   8.769   3.251
16020SOL     OW48085   3.454   9.077   3.487
16020SOL    HW148086   3.481   9.111   3.397
16020SOL    HW248087   3.533   9.039   3.533
16021SOL     OW48088   2.973   8.643   2.962
16021SOL    HW148089   2.933   8.687   3.043
16021SOL    HW248090   2.932   8.680   2.879
16022SOL     OW48091   3.500   8.547   2.941
16022SOL    HW148092   3.505   8.628   3.000
16022SOL    HW248093   3.414   8.549   2.890
16023SOL     OW48094   2.777   7.537   3.264
16023SOL    HW148095   2.802   7.517   3.169
16023SOL    HW248096   2.849   7.593   3.306
16024SOL     OW48097   2.842   8.564   3.581
16024SOL    HW148098   2.743   8.570   3.591
16024SOL    HW248099   2.865   8.484   3.525
16025SOL     OW48100   2.567   8.498   2.230
16025SOL    HW148101   2.553   8.505   2.329
16025SOL    HW248102   2.651   8.447   2.212
16026SOL     OW48103   2.272   8.261   3.113
16026SOL    HW148104   2.358   8.273   3.163
16026SOL    HW248105   2.230   8.174   3.140
16027SOL     OW48106   3.136   7.834   3.124
16027SOL    HW148107   3.157   7.908   3.188
16027SOL    HW248108   3.047   7.851   3.081
16028SOL     OW48109   1.926   9.012   3.193
16028SOL    HW148110   1.880   9.094   3.159
16028SOL    HW248111   2.024   9.031   3.202
16029SOL     OW48112   2.229   8.548   2.363
16029SOL    HW148113   2.222   8.631   2.307
16029SOL    HW248114   2.233   8.468   2.303
16030SOL     OW48115   2.428   7.985   2.727
16030SOL    HW148116   2.440   8.051   2.653
16030SOL    HW248117   2.474   8.019   2.810
16031SOL     OW48118   3.114   8.796   2.250
16031SOL    HW148119   3.164   8.873   2.290
16031SOL    HW248120   3.019   8.798   2.282
16032SOL     OW48121   3.134   8.893   3.004
16032SOL    HW148122   3.181   8.906   3.091
16032SOL    HW248123   3.068   8.819   3.013
16033SOL     OW48124   3.444   8.087   2.334
16033SOL    HW148125   3.413   8.148   2.407
16033SOL    HW248126   3.494   8.139   2.265
16034SOL     OW48127   2.216   8.958   3.191
16034SOL    HW148128   2.195   8.914   3.104
16034SOL    HW248129   2.313   8.984   3.194
16035SOL     OW48130   2.264   8.199   3.460
16035SOL    HW148131   2.332   8.254   3.413
16035SOL    HW248132   2.304   8.111   3.487
16036SOL     OW48133   3.449   8.227   3.532
16036SOL    HW148134   3.357   8.265   3.527
16036SOL    HW248135   3.509   8.274   3.467
16037SOL     OW48136   2.875   7.553   3.632
16037SOL    HW148137   2.881   7.638   3.580
16037SOL    HW248138   2.907   7.477   3.575
16038SOL     OW48139   2.366   7.498   3.602
16038SOL    HW148140   2.324   7.441   3.532
16038SOL    HW248141   2.300   7.567   3.634
16039SOL     OW48142   2.435   8.318   2.891
16039SOL    HW148143   2.479   8.407   2.882
16039SOL    HW248144   2.372   8.318   2.968
16040SOL     OW48145   3.222   8.310   2.907
16040SOL    HW148146   3.147   8.310   2.841
16040SOL    HW248147   3.259   8.218   2.916
16041SOL     OW48148   3.071   7.973   2.137
16041SOL    HW148149   3.084   7.889   2.191
16041SOL    HW248150   3.042   8.047   2.197
16042SOL     OW48151   2.169   7.661   3.093
16042SOL    HW148152   2.146   7.698   3.183
16042SOL    HW248153   2.139   7.566   3.087
16043SOL     OW48154   1.899   8.758   3.144
16043SOL    HW148155   1.952   8.709   3.212
16043SOL    HW248156   1.921   8.856   3.149
16044SOL     OW48157   2.594   8.082   2.926
16044SOL    HW148158   2.653   8.056   2.850
16044SOL    HW248159   2.566   8.178   2.915
16045SOL     OW48160   3.590   8.383   3.716
16045SOL    HW148161   3.544   8.376   3.627
16045SOL    HW248162   3.528   8.427   3.782
16046SOL     OW48163   2.169   7.511   2.480
16046SOL    HW148164   2.158   7.605   2.513
16046SOL    HW248165   2.164   7.448   2.557
16047SOL     OW48166   3.484   7.815   2.236
16047SOL    HW148167   3.486   7.739   2.300
16047SOL    HW248168   3.436   7.892   2.276
16048SOL     OW48169   2.885   8.214   2.828
16048SOL    HW148170   2.900   8.235   2.924
16048SOL    HW248171   2.855   8.119   2.819
16049SOL     OW48172   2.842   9.021   3.562
16049SOL    HW148173   2.822   9.065   3.474
16049SOL    HW248174   2.881   8.930   3.546
16050SOL     OW48175   3.721   8.966   3.467
16050SOL    HW148176   3.735   8.993   3.372
16050SOL    HW248177   3.804   8.988   3.520
16051SOL     OW48178   2.212   8.346   3.666
16051SOL    HW148179   2.288   8.390   3.714
16051SOL    HW248180   2.247   8.299   3.584
16052SOL     OW48181   3.402   7.722   1.987
16052SOL    HW148182   3.341   7.647   2.010
16052SOL    HW248183   3.424   7.774   2.070
16053SOL     OW48184   3.165   8.286   1.904
16053SOL    HW148185   3.199   8.193   1.919
16053SOL    HW248186   3.183   8.313   1.809
16054SOL     OW48187   2.930   8.781   2.711
16054SOL    HW148188   2.937   8.697   2.656
16054SOL    HW248189   2.992   8.850   2.675
16055SOL     OW48190   2.181   8.258   2.811
16055SOL    HW148191   2.274   8.294   2.816
16055SOL    HW248192   2.175   8.173   2.863
16056SOL     OW48193   2.201   7.957   2.868
16056SOL    HW148194   2.149   7.874   2.851
16056SOL    HW248195   2.278   7.962   2.804
16057SOL     OW48196   3.000   7.828   3.540
16057SOL    HW148197   2.955   7.891   3.604
16057SOL    HW248198   3.093   7.859   3.523
16058SOL     OW48199   3.022   7.655   3.339
16058SOL    HW148200   3.022   7.719   3.416
16058SOL    HW248201   3.050   7.703   3.256
16059SOL     OW48202   1.870   8.774   2.062
16059SOL    HW148203   1.777   8.795   2.031
16059SOL    HW248204   1.880   8.675   2.075
16060SOL     OW48205   1.950   9.249   2.789
16060SOL    HW148206   1.908   9.163   2.762
16060SOL    HW248207   2.044   9.252   2.755
16061SOL     OW48208   2.366   9.016   2.772
16061SOL    HW148209   2.432   9.090   2.781
16061SOL    HW248210   2.410   8.937   2.730
16062SOL     OW48211   2.864   8.244   3.100
16062SOL    HW148212   2.905   8.212   3.186
16062SOL    HW248213   2.768   8.217   3.097
16063SOL     OW48214   1.902   7.992   2.976
16063SOL    HW148215   1.987   7.959   2.935
16063SOL    HW248216   1.915   8.007   3.074
16064SOL     OW48217   2.051   7.968   3.584
16064SOL    HW148218   2.110   7.928   3.514
16064SOL    HW248219   1.993   8.039   3.543
16065SOL     OW48220   3.231   8.398   3.522
16065SOL    HW148221   3.270   8.487   3.542
16065SOL    HW248222   3.241   8.378   3.425
16066SOL     OW48223   2.677   8.020   2.187
16066SOL    HW148224   2.684   7.931   2.141
16066SOL    HW248225   2.583   8.054   2.179
16067SOL     OW48226   3.519   8.052   3.068
16067SOL    HW148227   3.481   7.983   3.130
16067SOL    HW248228   3.601   8.016   3.024
16068SOL     OW48229   2.114   9.012   3.606
16068SOL    HW148230   2.084   9.069   3.682
16068SOL    HW248231   2.107   8.915   3.632
16069SOL     OW48232   2.533   7.912   3.131
16069SOL    HW148233   2.499   7.823   3.101
16069SOL    HW248234   2.559   7.966   3.051
16070SOL     OW48235   2.792   9.126   3.327
16070SOL    HW148236   2.768   9.108   3.232
16070SOL    HW248237   2.822   9.220   3.337
16071SOL     OW48238   2.335   7.948   2.053
16071SOL    HW148239   2.396   8.028   2.057
16071SOL    HW248240   2.240   7.979   2.060
16072SOL     OW48241   2.021   8.585   3.328
16072SOL    HW148242   2.043   8.524   3.404
16072SOL    HW248243   2.031   8.536   3.242
16073SOL     OW48244   3.209   8.507   3.096
16073SOL    HW148245   3.233   8.444   3.022
16073SOL    HW248246   3.119   8.547   3.078
16074SOL     OW48247   3.164   8.303   2.171
16074SOL    HW148248   3.078   8.272   2.213
16074SOL    HW248249   3.160   8.289   2.072
16075SOL     OW48250   3.621   9.195   3.016
16075SOL    HW148251   3.682   9.225   2.943
16075SOL    HW248252   3.583   9.106   2.994
16076SOL     OW48253   3.114   9.179   2.990
16076SOL    HW148254   3.198   9.184   2.936
16076SOL    HW248255   3.091   9.083   3.008
16077SOL     OW48256   1.945   8.706   2.884
16077SOL    HW148257   1.940   8.705   2.984
16077SOL    HW248258   1.862   8.665   2.846
16078SOL     OW48259   2.550   9.110   3.578
16078SOL    HW148260   2.494   9.191   3.587
16078SOL    HW248261   2.602   9.114   3.492
16079SOL     OW48262   3.588   7.583   2.385
16079SOL    HW148263   3.661   7.566   2.318
16079SOL    HW248264   3.557   7.496   2.423
16080SOL     OW48265   3.250   9.021   2.339
16080SOL    HW148266   3.317   9.033   2.265
16080SOL    HW248267   3.210   9.110   2.362
16081SOL     OW48268   1.992   9.242   3.713
16081SOL    HW148269   1.951   9.168   3.766
16081SOL    HW248270   2.056   9.293   3.771
16082SOL     OW48271   3.142   8.375   2.534
16082SOL    HW148272   3.202   8.294   2.536
16082SOL    HW248273   3.182   8.444   2.474
16083SOL     OW48274   2.692   8.721   3.284
16083SOL    HW148275   2.687   8.754   3.379
16083SOL    HW248276   2.606   8.740   3.238
16084SOL     OW48277   2.534   9.064   2.016
16084SOL    HW148278   2.543   9.074   1.917
16084SOL    HW248279   2.494   8.975   2.037
16085SOL     OW48280   3.512   9.168   3.256
16085SOL    HW148281   3.565   9.178   3.172
16085SOL    HW248282   3.485   9.258   3.290
16086SOL     OW48283   3.703   7.623   2.825
16086SOL    HW148284   3.742   7.538   2.789
16086SOL    HW248285   3.605   7.625   2.806
16087SOL     OW48286   2.125   7.774   2.582
16087SOL    HW148287   2.046   7.825   2.548
16087SOL    HW248288   2.116   7.759   2.680
16088SOL     OW48289   3.056   9.060   1.893
16088SOL    HW148290   3.062   8.967   1.930
16088SOL    HW248291   2.997   9.060   1.813
16089SOL     OW48292   2.684   8.450   3.234
16089SOL    HW148293   2.724   8.449   3.142
16089SOL    HW248294   2.694   8.542   3.274
16090SOL     OW48295   2.778   8.358   2.153
16090SOL    HW148296   2.841   8.396   2.085
16090SOL    HW248297   2.818   8.275   2.192
16091SOL     OW48298   3.366   9.055   1.906
16091SOL    HW148299   3.274   9.092   1.913
16091SOL    HW248300   3.404   9.075   1.816
16092SOL     OW48301   2.234   8.736   3.352
16092SOL    HW148302   2.221   8.829   3.318
16092SOL    HW248303   2.150   8.684   3.339
16093SOL     OW48304   3.476   8.740   3.151
16093SOL    HW148305   3.536   8.743   3.231
16093SOL    HW248306   3.401   8.804   3.164
16094SOL     OW48307   2.901   8.546   2.558
16094SOL    HW148308   2.831   8.499   2.612
16094SOL    HW248309   2.960   8.478   2.515
16095SOL     OW48310   2.876   7.684   2.833
16095SOL    HW148311   2.868   7.648   2.740
16095SOL    HW248312   2.874   7.608   2.898
16096SOL     OW48313   2.452   8.935   2.353
16096SOL    HW148314   2.494   8.877   2.283
16096SOL    HW248315   2.408   9.014   2.309
16097SOL     OW48316   3.571   7.833   3.243
16097SOL    HW148317   3.644   7.902   3.247
16097SOL    HW248318   3.599   7.758   3.184
16098SOL     OW48319   2.117   8.796   2.152
16098SOL    HW148320   2.021   8.797   2.125
16098SOL    HW248321   2.129   8.849   2.236
16099SOL     OW48322   1.967   8.461   3.588
16099SOL    HW148323   1.890   8.428   3.642
16099SOL    HW248324   2.052   8.431   3.630
16100SOL     OW48325   2.534   7.651   3.351
16100SOL    HW148326   2.624   7.635   3.311
16100SOL    HW248327   2.542   7.656   3.450
16101SOL     OW48328   1.937   7.793   1.895
16101SOL    HW148329   1.845   7.765   1.866
16101SOL    HW248330   1.968   7.870   1.839
16102SOL     OW48331   3.302   8.304   3.260
16102SOL    HW148332   3.245   8.356   3.197
16102SOL    HW248333   3.398   8.316   3.236
16103SOL     OW48334   1.934   7.614   2.180
16103SOL    HW148335   1.917   7.697   2.126
16103SOL    HW248336   2.024   7.577   2.158
16104SOL     OW48337   3.045   8.783   1.981
16104SOL    HW148338   2.946   8.772   1.983
16104SOL    HW248339   3.079   8.798   2.074
16105SOL     OW48340   2.475   8.290   3.293
16105SOL    HW148341   2.531   8.371   3.276
16105SOL    HW248342   2.534   8.210   3.296
16106SOL     OW48343   3.355   9.215   2.821
16106SOL    HW148344   3.388   9.279   2.752
16106SOL    HW248345   3.421   9.209   2.896
16107SOL     OW48346   2.578   8.013   3.570
16107SOL    HW148347   2.597   8.078   3.644
16107SOL    HW248348   2.638   7.933   3.579
16108SOL     OW48349   3.312   8.668   3.495
16108SOL    HW148350   3.303   8.658   3.594
16108SOL    HW248351   3.408   8.661   3.469
16109SOL     OW48352   2.252   9.189   3.422
16109SOL    HW148353   2.161   9.230   3.420
16109SOL    HW248354   2.245   9.095   3.454
16110SOL     OW48355   3.536   8.331   3.116
16110SOL    HW148356   3.509   8.242   3.079
16110SOL    HW248357   3.537   8.399   3.043
16111SOL     OW48358   3.087   7.773   2.311
16111SOL    HW148359   3.152   7.699   2.300
16111SOL    HW248360   3.107   7.823   2.395
16112SOL     OW48361   2.456   8.193   2.514
16112SOL    HW148362   2.506   8.278   2.495
16112SOL    HW248363   2.368   8.195   2.466
16113SOL     OW48364   3.639   7.790   3.504
16113SOL    HW148365   3.622   7.821   3.410
16113SOL    HW248366   3.555   7.753   3.542
16114SOL     OW48367   3.592   8.382   3.379
16114SOL    HW148368   3.630   8.473   3.394
16114SOL    HW248369   3.584   8.365   3.280
16115SOL     OW48370   2.721   8.822   1.878
16115SOL    HW148371   2.675   8.837   1.966
16115SOL    HW248372   2.765   8.907   1.848
16116SOL     OW48373   2.523   9.238   2.815
16116SOL    HW148374   2.477   9.326   2.802
16116SOL    HW248375   2.622   9.250   2.808
16117SOL     OW48376   2.721   8.404   2.723
16117SOL    HW148377   2.775   8.335   2.771
16117SOL    HW248378   2.689   8.473   2.789
16118SOL     OW48379   2.945   8.432   1.949
16118SOL    HW148380   2.922   8.485   1.867
16118SOL    HW248381   3.026   8.376   1.930
16119SOL     OW48382   3.723   9.017   2.713
16119SOL    HW148383   3.652   9.005   2.643
16119SOL    HW248384   3.724   8.938   2.773
16120SOL     OW48385   2.083   8.762   3.706
16120SOL    HW148386   2.018   8.689   3.685
16120SOL    HW248387   2.087   8.776   3.804
16121SOL     OW48388   1.941   8.688   2.515
16121SOL    HW148389   1.940   8.641   2.603
16121SOL    HW248390   2.023   8.660   2.464
16122SOL     OW48391   2.534   8.839   3.486
16122SOL    HW148392   2.456   8.789   3.524
16122SOL    HW248393   2.531   8.934   3.517
16123SOL     OW48394   3.686   7.640   3.089
16123SOL    HW148395   3.682   7.550   3.133
16123SOL    HW248396   3.689   7.629   2.990
16124SOL     OW48397   2.290   7.872   2.382
16124SOL    HW148398   2.320   7.800   2.320
16124SOL    HW248399   2.251   7.832   2.465
16125SOL     OW48400   3.567   8.935   2.966
16125SOL    HW148401   3.474   8.910   2.939
16125SOL    HW248402   3.593   8.885   3.048
16126SOL     OW48403   2.179   7.995   3.142
16126SOL    HW148404   2.217   7.936   3.214
16126SOL    HW248405   2.219   7.969   3.054
16127SOL     OW48406   2.674   9.034   2.549
16127SOL    HW148407   2.706   9.044   2.455
16127SOL    HW248408   2.595   8.972   2.551
16128SOL     OW48409   3.286   7.662   2.974
16128SOL    HW148410   3.338   7.597   3.029
16128SOL    HW248411   3.237   7.725   3.035
16129SOL     OW48412   2.863   7.482   3.016
16129SOL    HW148413   2.800   7.410   2.985
16129SOL    HW248414   2.956   7.446   3.016
16130SOL     OW48415   2.632   8.778   2.163
16130SOL    HW148416   2.586   8.691   2.180
16130SOL    HW248417   2.723   8.775   2.204
16131SOL     OW48418   2.480   9.015   3.146
16131SOL    HW148419   2.475   9.097   3.203
16131SOL    HW248420   2.569   9.012   3.101
16132SOL     OW48421   3.214   7.500   2.030
16132SOL    HW148422   3.249   7.459   1.946
16132SOL    HW248423   3.124   7.462   2.050
16133SOL     OW48424   3.162   7.901   2.553
16133SOL    HW148425   3.103   7.981   2.557
16133SOL    HW248426   3.177   7.866   2.646
16134SOL     OW48427   3.455   7.669   2.744
16134SOL    HW148428   3.371   7.668   2.798
16134SOL    HW248429   3.457   7.752   2.688
16135SOL     OW48430   1.901   8.525   2.162
16135SOL    HW148431   2.000   8.514   2.153
16135SOL    HW248432   1.861   8.439   2.194
16136SOL     OW48433   2.737   9.094   2.199
16136SOL    HW148434   2.660   9.059   2.145
16136SOL    HW248435   2.705   9.165   2.261
16137SOL     OW48436   2.092   8.076   3.837
16137SOL    HW148437   1.999   8.074   3.874
16137SOL    HW248438   2.093   8.037   3.745
16138SOL     OW48439   2.087   7.723   4.720
16138SOL    HW148440   2.122   7.706   4.812
16138SOL    HW248441   1.999   7.678   4.708
16139SOL     OW48442   1.881   7.816   4.371
16139SOL    HW148443   1.799   7.859   4.410
16139SOL    HW248444   1.853   7.743   4.308
16140SOL     OW48445   2.431   8.723   4.889
16140SOL    HW148446   2.338   8.716   4.852
16140SOL    HW248447   2.442   8.812   4.933
16141SOL     OW48448   3.417   8.959   4.427
16141SOL    HW148449   3.360   8.943   4.508
16141SOL    HW248450   3.358   8.969   4.347
16142SOL     OW48451   2.997   8.151   4.441
16142SOL    HW148452   3.054   8.229   4.416
16142SOL    HW248453   2.937   8.177   4.517
16143SOL     OW48454   3.617   8.055   3.955
16143SOL    HW148455   3.605   8.042   3.856
16143SOL    HW248456   3.587   7.974   4.004
16144SOL     OW48457   2.630   8.592   4.747
16144SOL    HW148458   2.552   8.609   4.807
16144SOL    HW248459   2.664   8.679   4.711
16145SOL     OW48460   2.712   8.246   5.547
16145SOL    HW148461   2.708   8.322   5.612
16145SOL    HW248462   2.734   8.282   5.456
16146SOL     OW48463   2.547   8.460   4.389
16146SOL    HW148464   2.616   8.444   4.459
16146SOL    HW248465   2.474   8.517   4.427
16147SOL     OW48466   2.548   8.609   5.527
16147SOL    HW148467   2.608   8.688   5.541
16147SOL    HW248468   2.462   8.640   5.486
16148SOL     OW48469   2.197   8.883   4.785
16148SOL    HW148470   2.119   8.852   4.732
16148SOL    HW248471   2.255   8.941   4.728
16149SOL     OW48472   3.322   8.953   5.063
16149SOL    HW148473   3.346   9.047   5.089
16149SOL    HW248474   3.306   8.899   5.145
16150SOL     OW48475   2.300   7.840   5.223
16150SOL    HW148476   2.382   7.784   5.232
16150SOL    HW248477   2.219   7.782   5.227
16151SOL     OW48478   3.465   7.895   4.461
16151SOL    HW148479   3.391   7.941   4.411
16151SOL    HW248480   3.516   7.963   4.514
16152SOL     OW48481   2.093   9.161   4.207
16152SOL    HW148482   2.127   9.238   4.261
16152SOL    HW248483   2.137   9.161   4.117
16153SOL     OW48484   2.989   8.789   5.414
16153SOL    HW148485   3.036   8.789   5.502
16153SOL    HW248486   2.941   8.702   5.403
16154SOL     OW48487   2.092   8.882   4.262
16154SOL    HW148488   2.066   8.978   4.262
16154SOL    HW248489   2.021   8.828   4.307
16155SOL     OW48490   2.102   8.539   4.610
16155SOL    HW148491   2.116   8.455   4.662
16155SOL    HW248492   2.047   8.603   4.665
16156SOL     OW48493   2.482   9.234   5.163
16156SOL    HW148494   2.390   9.217   5.198
16156SOL    HW248495   2.510   9.326   5.189
16157SOL     OW48496   2.468   8.412   3.847
16157SOL    HW148497   2.475   8.496   3.793
16157SOL    HW248498   2.514   8.425   3.935
16158SOL     OW48499   3.456   7.562   5.204
16158SOL    HW148500   3.438   7.629   5.132
16158SOL    HW248501   3.453   7.608   5.293
16159SOL     OW48502   1.984   8.091   4.287
16159SOL    HW148503   1.939   8.003   4.304
16159SOL    HW248504   1.983   8.145   4.371
16160SOL     OW48505   3.704   9.215   4.083
16160SOL    HW148506   3.758   9.186   4.163
16160SOL    HW248507   3.734   9.305   4.054
16161SOL     OW48508   1.889   9.044   3.841
16161SOL    HW148509   1.870   8.948   3.862
16161SOL    HW248510   1.856   9.102   3.916
16162SOL     OW48511   3.551   8.370   4.336
16162SOL    HW148512   3.646   8.341   4.344
16162SOL    HW248513   3.543   8.435   4.261
16163SOL     OW48514   3.503   8.556   4.156
16163SOL    HW148515   3.589   8.558   4.104
16163SOL    HW248516   3.517   8.603   4.244
16164SOL     OW48517   1.975   8.185   5.321
16164SOL    HW148518   2.063   8.172   5.366
16164SOL    HW248519   1.962   8.282   5.299
16165SOL     OW48520   2.475   8.813   4.450
16165SOL    HW148521   2.426   8.726   4.459
16165SOL    HW248522   2.452   8.856   4.363
16166SOL     OW48523   3.155   8.676   5.147
16166SOL    HW148524   3.192   8.603   5.089
16166SOL    HW248525   3.207   8.681   5.232
16167SOL     OW48526   2.671   7.452   4.226
16167SOL    HW148527   2.711   7.543   4.217
16167SOL    HW248528   2.571   7.460   4.232
16168SOL     OW48529   2.059   8.424   4.988
16168SOL    HW148530   2.148   8.379   4.974
16168SOL    HW248531   1.986   8.359   4.969
16169SOL     OW48532   3.387   8.447   3.914
16169SOL    HW148533   3.324   8.371   3.927
16169SOL    HW248534   3.435   8.465   4.000
16170SOL     OW48535   3.049   9.240   5.340
16170SOL    HW148536   3.073   9.300   5.264
16170SOL    HW248537   3.056   9.145   5.310
16171SOL     OW48538   2.179   7.699   5.525
16171SOL    HW148539   2.250   7.770   5.531
16171SOL    HW248540   2.091   7.738   5.553
16172SOL     OW48541   3.328   8.865   4.677
16172SOL    HW148542   3.269   8.871   4.757
16172SOL    HW248543   3.313   8.777   4.631
16173SOL     OW48544   3.529   9.162   4.296
16173SOL    HW148545   3.488   9.139   4.208
16173SOL    HW248546   3.511   9.088   4.361
16174SOL     OW48547   2.460   8.177   3.994
16174SOL    HW148548   2.484   8.246   3.926
16174SOL    HW248549   2.382   8.210   4.048
16175SOL     OW48550   3.143   7.793   4.668
16175SOL    HW148551   3.057   7.743   4.655
16175SOL    HW248552   3.205   7.739   4.724
16176SOL     OW48553   3.438   9.110   4.031
16176SOL    HW148554   3.527   9.156   4.034
16176SOL    HW248555   3.417   9.086   3.936
16177SOL     OW48556   2.669   8.053   5.189
16177SOL    HW148557   2.622   8.050   5.278
16177SOL    HW248558   2.618   7.998   5.123
16178SOL     OW48559   3.256   7.917   5.398
16178SOL    HW148560   3.236   7.960   5.486
16178SOL    HW248561   3.334   7.855   5.407
16179SOL     OW48562   2.835   8.338   5.296
16179SOL    HW148563   2.881   8.254   5.267
16179SOL    HW248564   2.779   8.372   5.221
16180SOL     OW48565   2.853   7.858   4.966
16180SOL    HW148566   2.776   7.892   5.020
16180SOL    HW248567   2.819   7.807   4.887
16181SOL     OW48568   2.903   8.149   4.153
16181SOL    HW148569   2.929   8.145   4.249
16181SOL    HW248570   2.818   8.098   4.139
16182SOL     OW48571   1.938   8.259   4.513
16182SOL    HW148572   2.037   8.247   4.522
16182SOL    HW248573   1.914   8.354   4.534
16183SOL     OW48574   1.992   9.269   5.295
16183SOL    HW148575   1.982   9.254   5.394
16183SOL    HW248576   1.906   9.305   5.259
16184SOL     OW48577   2.727   7.796   3.919
16184SOL    HW148578   2.786   7.859   3.870
16184SOL    HW248579   2.746   7.702   3.890
16185SOL     OW48580   3.581   8.033   5.555
16185SOL    HW148581   3.555   8.122   5.519
16185SOL    HW248582   3.579   7.965   5.482
16186SOL     OW48583   3.224   8.592   4.269
16186SOL    HW148584   3.307   8.563   4.221
16186SOL    HW248585   3.175   8.659   4.213
16187SOL     OW48586   2.412   7.644   4.609
16187SOL    HW148587   2.407   7.639   4.709
16187SOL    HW248588   2.414   7.740   4.580
16188SOL     OW48589   2.870   8.904   4.201
16188SOL    HW148590   2.824   8.976   4.149
16188SOL    HW248591   2.866   8.924   4.299
16189SOL     OW48592   2.213   9.249   4.577
16189SOL    HW148593   2.263   9.163   4.583
16189SOL    HW248594   2.278   9.326   4.574
16190SOL     OW48595   3.657   8.514   4.597
16190SOL    HW148596   3.595   8.499   4.521
16190SOL    HW248597   3.605   8.525   4.682
16191SOL     OW48598   3.089   8.998   5.230
16191SOL    HW148599   3.095   8.921   5.294
16191SOL    HW248600   3.037   8.972   5.150
16192SOL     OW48601   2.183   8.391   3.966
16192SOL    HW148602   2.265   8.430   3.924
16192SOL    HW248603   2.156   8.309   3.917
16193SOL     OW48604   3.320   8.183   4.452
16193SOL    HW148605   3.315   8.118   4.527
16193SOL    HW248606   3.400   8.242   4.465
16194SOL     OW48607   2.323   8.714   5.451
16194SOL    HW148608   2.273   8.715   5.365
16194SOL    HW248609   2.260   8.696   5.527
16195SOL     OW48610   2.973   9.224   3.961
16195SOL    HW148611   2.913   9.162   4.011
16195SOL    HW248612   3.004   9.180   3.876
16196SOL     OW48613   2.064   7.733   5.222
16196SOL    HW148614   1.984   7.793   5.209
16196SOL    HW248615   2.054   7.684   5.308
16197SOL     OW48616   3.494   8.825   3.805
16197SOL    HW148617   3.462   8.919   3.795
16197SOL    HW248618   3.418   8.762   3.793
16198SOL     OW48619   2.326   9.191   4.047
16198SOL    HW148620   2.359   9.230   4.133
16198SOL    HW248621   2.402   9.184   3.982
16199SOL     OW48622   3.262   7.555   4.150
16199SOL    HW148623   3.238   7.518   4.060
16199SOL    HW248624   3.361   7.571   4.154
16200SOL     OW48625   2.111   9.233   4.965
16200SOL    HW148626   2.168   9.168   5.015
16200SOL    HW248627   2.095   9.200   4.872
16201SOL     OW48628   2.802   9.146   4.628
16201SOL    HW148629   2.882   9.089   4.649
16201SOL    HW248630   2.753   9.106   4.551
16202SOL     OW48631   2.244   8.148   4.204
16202SOL    HW148632   2.289   8.058   4.201
16202SOL    HW248633   2.150   8.137   4.237
16203SOL     OW48634   3.409   7.670   5.453
16203SOL    HW148635   3.404   7.707   5.545
16203SOL    HW248636   3.337   7.601   5.441
16204SOL     OW48637   2.476   7.570   3.841
16204SOL    HW148638   2.574   7.548   3.848
16204SOL    HW248639   2.445   7.553   3.748
16205SOL     OW48640   2.643   7.712   5.473
16205SOL    HW148641   2.710   7.651   5.516
16205SOL    HW248642   2.570   7.731   5.538
16206SOL     OW48643   2.750   8.962   4.919
16206SOL    HW148644   2.727   8.937   4.825
16206SOL    HW248645   2.811   8.893   4.958
16207SOL     OW48646   3.213   8.038   5.157
16207SOL    HW148647   3.241   7.995   5.242
16207SOL    HW248648   3.238   8.134   5.158
16208SOL     OW48649   2.665   8.850   4.648
16208SOL    HW148650   2.755   8.864   4.606
16208SOL    HW248651   2.594   8.852   4.577
16209SOL     OW48652   2.784   7.951   4.623
16209SOL    HW148653   2.759   7.942   4.527
16209SOL    HW248654   2.832   7.869   4.654
16210SOL     OW48655   2.401   7.512   4.236
16210SOL    HW148656   2.320   7.513   4.294
16210SOL    HW248657   2.404   7.595   4.181
16211SOL     OW48658   3.296   8.636   3.765
16211SOL    HW148659   3.328   8.560   3.822
16211SOL    HW248660   3.204   8.663   3.795
16212SOL     OW48661   2.159   7.483   3.895
16212SOL    HW148662   2.208   7.567   3.874
16212SOL    HW248663   2.221   7.418   3.940
16213SOL     OW48664   2.797   7.684   4.204
16213SOL    HW148665   2.749   7.725   4.126
16213SOL    HW248666   2.896   7.682   4.185
16214SOL     OW48667   2.938   8.131   5.188
16214SOL    HW148668   2.858   8.070   5.191
16214SOL    HW248669   3.019   8.078   5.164
16215SOL     OW48670   3.089   9.018   4.517
16215SOL    HW148671   3.110   9.092   4.452
16215SOL    HW248672   3.157   9.018   4.590
16216SOL     OW48673   2.321   8.600   4.465
16216SOL    HW148674   2.250   8.573   4.530
16216SOL    HW248675   2.295   8.572   4.372
16217SOL     OW48676   3.133   9.245   4.315
16217SOL    HW148677   3.177   9.309   4.251
16217SOL    HW248678   3.083   9.297   4.385
16218SOL     OW48679   2.894   7.997   3.740
16218SOL    HW148680   2.853   8.079   3.701
16218SOL    HW248681   2.958   8.023   3.813
16219SOL     OW48682   1.940   8.004   5.110
16219SOL    HW148683   2.032   8.003   5.069
16219SOL    HW248684   1.934   8.078   5.177
16220SOL     OW48685   2.423   7.670   4.871
16220SOL    HW148686   2.461   7.586   4.908
16220SOL    HW248687   2.335   7.689   4.915
16221SOL     OW48688   2.728   7.902   4.366
16221SOL    HW148689   2.696   7.974   4.304
16221SOL    HW248690   2.752   7.821   4.313
16222SOL     OW48691   2.879   7.487   4.477
16222SOL    HW148692   2.807   7.492   4.408
16222SOL    HW248693   2.855   7.418   4.546
16223SOL     OW48694   3.291   8.621   4.591
16223SOL    HW148695   3.236   8.537   4.584
16223SOL    HW248696   3.317   8.650   4.499
16224SOL     OW48697   3.328   8.038   4.716
16224SOL    HW148698   3.298   7.943   4.723
16224SOL    HW248699   3.401   8.054   4.782
16225SOL     OW48700   3.719   8.281   4.101
16225SOL    HW148701   3.761   8.217   4.165
16225SOL    HW248702   3.681   8.230   4.023
16226SOL     OW48703   2.350   8.833   3.898
16226SOL    HW148704   2.263   8.818   3.945
16226SOL    HW248705   2.333   8.859   3.803
16227SOL     OW48706   3.526   8.728   4.381
16227SOL    HW148707   3.625   8.736   4.395
16227SOL    HW248708   3.481   8.812   4.412
16228SOL     OW48709   3.252   8.023   3.802
16228SOL    HW148710   3.198   8.002   3.883
16228SOL    HW248711   3.343   7.982   3.811
16229SOL     OW48712   2.389   7.704   4.052
16229SOL    HW148713   2.416   7.645   3.977
16229SOL    HW248714   2.389   7.799   4.021
16230SOL     OW48715   3.616   8.671   5.312
16230SOL    HW148716   3.707   8.632   5.299
16230SOL    HW248717   3.624   8.767   5.336
16231SOL     OW48718   2.926   8.795   5.064
16231SOL    HW148719   2.846   8.772   5.119
16231SOL    HW248720   3.009   8.769   5.113
16232SOL     OW48721   3.454   9.077   5.349
16232SOL    HW148722   3.481   9.111   5.259
16232SOL    HW248723   3.533   9.039   5.395
16233SOL     OW48724   2.973   8.643   4.824
16233SOL    HW148725   2.933   8.687   4.905
16233SOL    HW248726   2.932   8.680   4.741
16234SOL     OW48727   3.500   8.547   4.803
16234SOL    HW148728   3.505   8.628   4.862
16234SOL    HW248729   3.414   8.549   4.752
16235SOL     OW48730   2.777   7.537   5.126
16235SOL    HW148731   2.802   7.517   5.031
16235SOL    HW248732   2.849   7.593   5.168
16236SOL     OW48733   2.842   8.564   5.443
16236SOL    HW148734   2.743   8.570   5.453
16236SOL    HW248735   2.865   8.484   5.387
16237SOL     OW48736   2.567   8.498   4.092
16237SOL    HW148737   2.553   8.505   4.191
16237SOL    HW248738   2.651   8.447   4.074
16238SOL     OW48739   2.272   8.261   4.975
16238SOL    HW148740   2.358   8.273   5.025
16238SOL    HW248741   2.230   8.174   5.002
16239SOL     OW48742   3.136   7.834   4.986
16239SOL    HW148743   3.157   7.908   5.050
16239SOL    HW248744   3.047   7.851   4.943
16240SOL     OW48745   1.926   9.012   5.055
16240SOL    HW148746   1.880   9.094   5.021
16240SOL    HW248747   2.024   9.031   5.064
16241SOL     OW48748   2.229   8.548   4.225
16241SOL    HW148749   2.222   8.631   4.169
16241SOL    HW248750   2.233   8.468   4.165
16242SOL     OW48751   2.428   7.985   4.589
16242SOL    HW148752   2.440   8.051   4.515
16242SOL    HW248753   2.474   8.019   4.672
16243SOL     OW48754   3.114   8.796   4.112
16243SOL    HW148755   3.164   8.873   4.152
16243SOL    HW248756   3.019   8.798   4.144
16244SOL     OW48757   3.134   8.893   4.866
16244SOL    HW148758   3.181   8.906   4.953
16244SOL    HW248759   3.068   8.819   4.875
16245SOL     OW48760   3.444   8.087   4.196
16245SOL    HW148761   3.413   8.148   4.269
16245SOL    HW248762   3.494   8.139   4.127
16246SOL     OW48763   2.216   8.958   5.053
16246SOL    HW148764   2.195   8.914   4.966
16246SOL    HW248765   2.313   8.984   5.056
16247SOL     OW48766   2.264   8.199   5.322
16247SOL    HW148767   2.332   8.254   5.275
16247SOL    HW248768   2.304   8.111   5.349
16248SOL     OW48769   3.449   8.227   5.394
16248SOL    HW148770   3.357   8.265   5.389
16248SOL    HW248771   3.509   8.274   5.329
16249SOL     OW48772   2.875   7.553   5.494
16249SOL    HW148773   2.881   7.638   5.442
16249SOL    HW248774   2.907   7.477   5.437
16250SOL     OW48775   2.366   7.498   5.464
16250SOL    HW148776   2.324   7.441   5.394
16250SOL    HW248777   2.300   7.567   5.496
16251SOL     OW48778   2.435   8.318   4.753
16251SOL    HW148779   2.479   8.407   4.744
16251SOL    HW248780   2.372   8.318   4.830
16252SOL     OW48781   3.222   8.310   4.769
16252SOL    HW148782   3.147   8.310   4.703
16252SOL    HW248783   3.259   8.218   4.778
16253SOL     OW48784   3.071   7.973   3.999
16253SOL    HW148785   3.084   7.889   4.053
16253SOL    HW248786   3.042   8.047   4.059
16254SOL     OW48787   2.169   7.661   4.955
16254SOL    HW148788   2.146   7.698   5.045
16254SOL    HW248789   2.139   7.566   4.949
16255SOL     OW48790   1.899   8.758   5.006
16255SOL    HW148791   1.952   8.709   5.074
16255SOL    HW248792   1.921   8.856   5.011
16256SOL     OW48793   2.594   8.082   4.788
16256SOL    HW148794   2.653   8.056   4.712
16256SOL    HW248795   2.566   8.178   4.777
16257SOL     OW48796   3.590   8.383   5.578
16257SOL    HW148797   3.544   8.376   5.489
16257SOL    HW248798   3.528   8.427   5.644
16258SOL     OW48799   2.169   7.511   4.342
16258SOL    HW148800   2.158   7.605   4.375
16258SOL    HW248801   2.164   7.448   4.419
16259SOL     OW48802   3.484   7.815   4.098
16259SOL    HW148803   3.486   7.739   4.162
16259SOL    HW248804   3.436   7.892   4.138
16260SOL     OW48805   2.885   8.214   4.690
16260SOL    HW148806   2.900   8.235   4.786
16260SOL    HW248807   2.855   8.119   4.681
16261SOL     OW48808   2.842   9.021   5.424
16261SOL    HW148809   2.822   9.065   5.336
16261SOL    HW248810   2.881   8.930   5.408
16262SOL     OW48811   3.721   8.966   5.329
16262SOL    HW148812   3.735   8.993   5.234
16262SOL    HW248813   3.804   8.988   5.382
16263SOL     OW48814   2.212   8.346   5.528
16263SOL    HW148815   2.288   8.390   5.576
16263SOL    HW248816   2.247   8.299   5.446
16264SOL     OW48817   3.402   7.722   3.849
16264SOL    HW148818   3.341   7.647   3.872
16264SOL    HW248819   3.424   7.774   3.932
16265SOL     OW48820   3.165   8.286   3.766
16265SOL    HW148821   3.199   8.193   3.781
16265SOL    HW248822   3.183   8.313   3.671
16266SOL     OW48823   2.930   8.781   4.573
16266SOL    HW148824   2.937   8.697   4.518
16266SOL    HW248825   2.992   8.850   4.537
16267SOL     OW48826   2.181   8.258   4.673
16267SOL    HW148827   2.274   8.294   4.678
16267SOL    HW248828   2.175   8.173   4.725
16268SOL     OW48829   2.201   7.957   4.730
16268SOL    HW148830   2.149   7.874   4.713
16268SOL    HW248831   2.278   7.962   4.666
16269SOL     OW48832   3.000   7.828   5.402
16269SOL    HW148833   2.955   7.891   5.466
16269SOL    HW248834   3.093   7.859   5.385
16270SOL     OW48835   3.022   7.655   5.201
16270SOL    HW148836   3.022   7.719   5.278
16270SOL    HW248837   3.050   7.703   5.118
16271SOL     OW48838   1.870   8.774   3.924
16271SOL    HW148839   1.777   8.795   3.893
16271SOL    HW248840   1.880   8.675   3.937
16272SOL     OW48841   1.950   9.249   4.651
16272SOL    HW148842   1.908   9.163   4.624
16272SOL    HW248843   2.044   9.252   4.617
16273SOL     OW48844   2.366   9.016   4.634
16273SOL    HW148845   2.432   9.090   4.643
16273SOL    HW248846   2.410   8.937   4.592
16274SOL     OW48847   2.864   8.244   4.962
16274SOL    HW148848   2.905   8.212   5.048
16274SOL    HW248849   2.768   8.217   4.959
16275SOL     OW48850   1.902   7.992   4.838
16275SOL    HW148851   1.987   7.959   4.797
16275SOL    HW248852   1.915   8.007   4.936
16276SOL     OW48853   2.051   7.968   5.446
16276SOL    HW148854   2.110   7.928   5.376
16276SOL    HW248855   1.993   8.039   5.405
16277SOL     OW48856   3.231   8.398   5.384
16277SOL    HW148857   3.270   8.487   5.404
16277SOL    HW248858   3.241   8.378   5.287
16278SOL     OW48859   2.677   8.020   4.049
16278SOL    HW148860   2.684   7.931   4.003
16278SOL    HW248861   2.583   8.054   4.041
16279SOL     OW48862   3.519   8.052   4.930
16279SOL    HW148863   3.481   7.983   4.992
16279SOL    HW248864   3.601   8.016   4.886
16280SOL     OW48865   2.114   9.012   5.468
16280SOL    HW148866   2.084   9.069   5.544
16280SOL    HW248867   2.107   8.915   5.494
16281SOL     OW48868   2.533   7.912   4.993
16281SOL    HW148869   2.499   7.823   4.963
16281SOL    HW248870   2.559   7.966   4.913
16282SOL     OW48871   2.792   9.126   5.189
16282SOL    HW148872   2.768   9.108   5.094
16282SOL    HW248873   2.822   9.220   5.199
16283SOL     OW48874   2.335   7.948   3.915
16283SOL    HW148875   2.396   8.028   3.919
16283SOL    HW248876   2.240   7.979   3.922
16284SOL     OW48877   2.021   8.585   5.190
16284SOL    HW148878   2.043   8.524   5.266
16284SOL    HW248879   2.031   8.536   5.104
16285SOL     OW48880   3.209   8.507   4.958
16285SOL    HW148881   3.233   8.444   4.884
16285SOL    HW248882   3.119   8.547   4.940
16286SOL     OW48883   3.164   8.303   4.033
16286SOL    HW148884   3.078   8.272   4.075
16286SOL    HW248885   3.160   8.289   3.934
16287SOL     OW48886   3.621   9.195   4.878
16287SOL    HW148887   3.682   9.225   4.805
16287SOL    HW248888   3.583   9.106   4.856
16288SOL     OW48889   3.114   9.179   4.852
16288SOL    HW148890   3.198   9.184   4.798
16288SOL    HW248891   3.091   9.083   4.870
16289SOL     OW48892   1.945   8.706   4.746
16289SOL    HW148893   1.940   8.705   4.846
16289SOL    HW248894   1.862   8.665   4.708
16290SOL     OW48895   2.550   9.110   5.440
16290SOL    HW148896   2.494   9.191   5.449
16290SOL    HW248897   2.602   9.114   5.354
16291SOL     OW48898   3.588   7.583   4.247
16291SOL    HW148899   3.661   7.566   4.180
16291SOL    HW248900   3.557   7.496   4.285
16292SOL     OW48901   3.250   9.021   4.201
16292SOL    HW148902   3.317   9.033   4.127
16292SOL    HW248903   3.210   9.110   4.224
16293SOL     OW48904   1.992   9.242   5.575
16293SOL    HW148905   1.951   9.168   5.628
16293SOL    HW248906   2.056   9.293   5.633
16294SOL     OW48907   3.142   8.375   4.396
16294SOL    HW148908   3.202   8.294   4.398
16294SOL    HW248909   3.182   8.444   4.336
16295SOL     OW48910   2.692   8.721   5.146
16295SOL    HW148911   2.687   8.754   5.241
16295SOL    HW248912   2.606   8.740   5.100
16296SOL     OW48913   2.534   9.064   3.878
16296SOL    HW148914   2.543   9.074   3.779
16296SOL    HW248915   2.494   8.975   3.899
16297SOL     OW48916   3.512   9.168   5.118
16297SOL    HW148917   3.565   9.178   5.034
16297SOL    HW248918   3.485   9.258   5.152
16298SOL     OW48919   3.703   7.623   4.687
16298SOL    HW148920   3.742   7.538   4.651
16298SOL    HW248921   3.605   7.625   4.668
16299SOL     OW48922   2.125   7.774   4.444
16299SOL    HW148923   2.046   7.825   4.410
16299SOL    HW248924   2.116   7.759   4.542
16300SOL     OW48925   3.056   9.060   3.755
16300SOL    HW148926   3.062   8.967   3.792
16300SOL    HW248927   2.997   9.060   3.675
16301SOL     OW48928   2.684   8.450   5.096
16301SOL    HW148929   2.724   8.449   5.004
16301SOL    HW248930   2.694   8.542   5.136
16302SOL     OW48931   2.778   8.358   4.015
16302SOL    HW148932   2.841   8.396   3.947
16302SOL    HW248933   2.818   8.275   4.054
16303SOL     OW48934   3.366   9.055   3.768
16303SOL    HW148935   3.274   9.092   3.775
16303SOL    HW248936   3.404   9.075   3.678
16304SOL     OW48937   2.234   8.736   5.214
16304SOL    HW148938   2.221   8.829   5.180
16304SOL    HW248939   2.150   8.684   5.201
16305SOL     OW48940   3.476   8.740   5.013
16305SOL    HW148941   3.536   8.743   5.093
16305SOL    HW248942   3.401   8.804   5.026
16306SOL     OW48943   2.901   8.546   4.420
16306SOL    HW148944   2.831   8.499   4.474
16306SOL    HW248945   2.960   8.478   4.377
16307SOL     OW48946   2.876   7.684   4.695
16307SOL    HW148947   2.868   7.648   4.602
16307SOL    HW248948   2.874   7.608   4.760
16308SOL     OW48949   2.452   8.935   4.215
16308SOL    HW148950   2.494   8.877   4.145
16308SOL    HW248951   2.408   9.014   4.171
16309SOL     OW48952   3.571   7.833   5.105
16309SOL    HW148953   3.644   7.902   5.109
16309SOL    HW248954   3.599   7.758   5.046
16310SOL     OW48955   2.117   8.796   4.014
16310SOL    HW148956   2.021   8.797   3.987
16310SOL    HW248957   2.129   8.849   4.098
16311SOL     OW48958   1.967   8.461   5.450
16311SOL    HW148959   1.890   8.428   5.504
16311SOL    HW248960   2.052   8.431   5.492
16312SOL     OW48961   2.534   7.651   5.213
16312SOL    HW148962   2.624   7.635   5.173
16312SOL    HW248963   2.542   7.656   5.312
16313SOL     OW48964   1.937   7.793   3.757
16313SOL    HW148965   1.845   7.765   3.728
16313SOL    HW248966   1.968   7.870   3.701
16314SOL     OW48967   3.302   8.304   5.122
16314SOL    HW148968   3.245   8.356   5.059
16314SOL    HW248969   3.398   8.316   5.098
16315SOL     OW48970   1.934   7.614   4.042
16315SOL    HW148971   1.917   7.697   3.988
16315SOL    HW248972   2.024   7.577   4.020
16316SOL     OW48973   3.045   8.783   3.843
16316SOL    HW148974   2.946   8.772   3.845
16316SOL    HW248975   3.079   8.798   3.936
16317SOL     OW48976   2.475   8.290   5.155
16317SOL    HW148977   2.531   8.371   5.138
16317SOL    HW248978   2.534   8.210   5.158
16318SOL     OW48979   3.355   9.215   4.683
16318SOL    HW148980   3.388   9.279   4.614
16318SOL    HW248981   3.421   9.209   4.758
16319SOL     OW48982   2.578   8.013   5.432
16319SOL    HW148983   2.597   8.078   5.506
16319SOL    HW248984   2.638   7.933   5.441
16320SOL     OW48985   3.312   8.668   5.357
16320SOL    HW148986   3.303   8.658   5.456
16320SOL    HW248987   3.408   8.661   5.331
16321SOL     OW48988   2.252   9.189   5.284
16321SOL    HW148989   2.161   9.230   5.282
16321SOL    HW248990   2.245   9.095   5.316
16322SOL     OW48991   3.536   8.331   4.978
16322SOL    HW148992   3.509   8.242   4.941
16322SOL    HW248993   3.537   8.399   4.905
16323SOL     OW48994   3.087   7.773   4.173
16323SOL    HW148995   3.152   7.699   4.162
16323SOL    HW248996   3.107   7.823   4.257
16324SOL     OW48997   2.456   8.193   4.376
16324SOL    HW148998   2.506   8.278   4.357
16324SOL    HW248999   2.368   8.195   4.328
16325SOL     OW49000   3.639   7.790   5.366
16325SOL    HW149001   3.622   7.821   5.272
16325SOL    HW249002   3.555   7.753   5.404
16326SOL     OW49003   3.592   8.382   5.241
16326SOL    HW149004   3.630   8.473   5.256
16326SOL    HW249005   3.584   8.365   5.142
16327SOL     OW49006   2.721   8.822   3.740
16327SOL    HW149007   2.675   8.837   3.828
16327SOL    HW249008   2.765   8.907   3.710
16328SOL     OW49009   2.523   9.238   4.677
16328SOL    HW149010   2.477   9.326   4.664
16328SOL    HW249011   2.622   9.250   4.670
16329SOL     OW49012   2.721   8.404   4.585
16329SOL    HW149013   2.775   8.335   4.633
16329SOL    HW249014   2.689   8.473   4.651
16330SOL     OW49015   2.945   8.432   3.811
16330SOL    HW149016   2.922   8.485   3.729
16330SOL    HW249017   3.026   8.376   3.792
16331SOL     OW49018   3.723   9.017   4.575
16331SOL    HW149019   3.652   9.005   4.505
16331SOL    HW249020   3.724   8.938   4.635
16332SOL     OW49021   2.083   8.762   5.568
16332SOL    HW149022   2.018   8.689   5.547
16332SOL    HW249023   2.087   8.776   5.666
16333SOL     OW49024   1.941   8.688   4.377
16333SOL    HW149025   1.940   8.641   4.465
16333SOL    HW249026   2.023   8.660   4.326
16334SOL     OW49027   2.534   8.839   5.348
16334SOL    HW149028   2.456   8.789   5.386
16334SOL    HW249029   2.531   8.934   5.379
16335SOL     OW49030   3.686   7.640   4.951
16335SOL    HW149031   3.682   7.550   4.995
16335SOL    HW249032   3.689   7.629   4.852
16336SOL     OW49033   2.290   7.872   4.244
16336SOL    HW149034   2.320   7.800   4.182
16336SOL    HW249035   2.251   7.832   4.327
16337SOL     OW49036   3.567   8.935   4.828
16337SOL    HW149037   3.474   8.910   4.801
16337SOL    HW249038   3.593   8.885   4.910
16338SOL     OW49039   2.179   7.995   5.004
16338SOL    HW149040   2.217   7.936   5.076
16338SOL    HW249041   2.219   7.969   4.916
16339SOL     OW49042   2.674   9.034   4.411
16339SOL    HW149043   2.706   9.044   4.317
16339SOL    HW249044   2.595   8.972   4.413
16340SOL     OW49045   3.286   7.662   4.836
16340SOL    HW149046   3.338   7.597   4.891
16340SOL    HW249047   3.237   7.725   4.897
16341SOL     OW49048   2.863   7.482   4.878
16341SOL    HW149049   2.800   7.410   4.847
16341SOL    HW249050   2.956   7.446   4.878
16342SOL     OW49051   2.632   8.778   4.025
16342SOL    HW149052   2.586   8.691   4.042
16342SOL    HW249053   2.723   8.775   4.066
16343SOL     OW49054   2.480   9.015   5.008
16343SOL    HW149055   2.475   9.097   5.065
16343SOL    HW249056   2.569   9.012   4.963
16344SOL     OW49057   3.214   7.500   3.892
16344SOL    HW149058   3.249   7.459   3.808
16344SOL    HW249059   3.124   7.462   3.912
16345SOL     OW49060   3.162   7.901   4.415
16345SOL    HW149061   3.103   7.981   4.419
16345SOL    HW249062   3.177   7.866   4.508
16346SOL     OW49063   3.455   7.669   4.606
16346SOL    HW149064   3.371   7.668   4.660
16346SOL    HW249065   3.457   7.752   4.550
16347SOL     OW49066   1.901   8.525   4.024
16347SOL    HW149067   2.000   8.514   4.015
16347SOL    HW249068   1.861   8.439   4.056
16348SOL     OW49069   2.737   9.094   4.061
16348SOL    HW149070   2.660   9.059   4.007
16348SOL    HW249071   2.705   9.165   4.123
16349SOL     OW49072   2.092   8.076   5.699
16349SOL    HW149073   1.999   8.074   5.736
16349SOL    HW249074   2.093   8.037   5.607
16350SOL     OW49075   2.087   7.723   6.582
16350SOL    HW149076   2.122   7.706   6.674
16350SOL    HW249077   1.999   7.678   6.570
16351SOL     OW49078   1.881   7.816   6.233
16351SOL    HW149079   1.799   7.859   6.272
16351SOL    HW249080   1.853   7.743   6.170
16352SOL     OW49081   2.431   8.723   6.751
16352SOL    HW149082   2.338   8.716   6.714
16352SOL    HW249083   2.442   8.812   6.795
16353SOL     OW49084   3.417   8.959   6.289
16353SOL    HW149085   3.360   8.943   6.370
16353SOL    HW249086   3.358   8.969   6.209
16354SOL     OW49087   2.997   8.151   6.303
16354SOL    HW149088   3.054   8.229   6.278
16354SOL    HW249089   2.937   8.177   6.379
16355SOL     OW49090   3.617   8.055   5.817
16355SOL    HW149091   3.605   8.042   5.718
16355SOL    HW249092   3.587   7.974   5.866
16356SOL     OW49093   2.630   8.592   6.609
16356SOL    HW149094   2.552   8.609   6.669
16356SOL    HW249095   2.664   8.679   6.573
16357SOL     OW49096   2.712   8.246   7.409
16357SOL    HW149097   2.708   8.322   7.474
16357SOL    HW249098   2.734   8.282   7.318
16358SOL     OW49099   2.547   8.460   6.251
16358SOL    HW149100   2.616   8.444   6.321
16358SOL    HW249101   2.474   8.517   6.289
16359SOL     OW49102   2.548   8.609   7.389
16359SOL    HW149103   2.608   8.688   7.403
16359SOL    HW249104   2.462   8.640   7.348
16360SOL     OW49105   2.197   8.883   6.647
16360SOL    HW149106   2.119   8.852   6.594
16360SOL    HW249107   2.255   8.941   6.590
16361SOL     OW49108   3.322   8.953   6.925
16361SOL    HW149109   3.346   9.047   6.951
16361SOL    HW249110   3.306   8.899   7.007
16362SOL     OW49111   2.300   7.840   7.085
16362SOL    HW149112   2.382   7.784   7.094
16362SOL    HW249113   2.219   7.782   7.089
16363SOL     OW49114   3.465   7.895   6.323
16363SOL    HW149115   3.391   7.941   6.273
16363SOL    HW249116   3.516   7.963   6.376
16364SOL     OW49117   2.093   9.161   6.069
16364SOL    HW149118   2.127   9.238   6.123
16364SOL    HW249119   2.137   9.161   5.979
16365SOL     OW49120   2.989   8.789   7.276
16365SOL    HW149121   3.036   8.789   7.364
16365SOL    HW249122   2.941   8.702   7.265
16366SOL     OW49123   2.092   8.882   6.124
16366SOL    HW149124   2.066   8.978   6.124
16366SOL    HW249125   2.021   8.828   6.169
16367SOL     OW49126   2.102   8.539   6.472
16367SOL    HW149127   2.116   8.455   6.524
16367SOL    HW249128   2.047   8.603   6.527
16368SOL     OW49129   2.482   9.234   7.025
16368SOL    HW149130   2.390   9.217   7.060
16368SOL    HW249131   2.510   9.326   7.051
16369SOL     OW49132   2.468   8.412   5.709
16369SOL    HW149133   2.475   8.496   5.655
16369SOL    HW249134   2.514   8.425   5.797
16370SOL     OW49135   3.456   7.562   7.066
16370SOL    HW149136   3.438   7.629   6.994
16370SOL    HW249137   3.453   7.608   7.155
16371SOL     OW49138   1.984   8.091   6.149
16371SOL    HW149139   1.939   8.003   6.166
16371SOL    HW249140   1.983   8.145   6.233
16372SOL     OW49141   3.704   9.215   5.945
16372SOL    HW149142   3.758   9.186   6.025
16372SOL    HW249143   3.734   9.305   5.916
16373SOL     OW49144   1.889   9.044   5.703
16373SOL    HW149145   1.870   8.948   5.724
16373SOL    HW249146   1.856   9.102   5.778
16374SOL     OW49147   3.551   8.370   6.198
16374SOL    HW149148   3.646   8.341   6.206
16374SOL    HW249149   3.543   8.435   6.123
16375SOL     OW49150   3.503   8.556   6.018
16375SOL    HW149151   3.589   8.558   5.966
16375SOL    HW249152   3.517   8.603   6.106
16376SOL     OW49153   1.975   8.185   7.183
16376SOL    HW149154   2.063   8.172   7.228
16376SOL    HW249155   1.962   8.282   7.161
16377SOL     OW49156   2.475   8.813   6.312
16377SOL    HW149157   2.426   8.726   6.321
16377SOL    HW249158   2.452   8.856   6.225
16378SOL     OW49159   3.155   8.676   7.009
16378SOL    HW149160   3.192   8.603   6.951
16378SOL    HW249161   3.207   8.681   7.094
16379SOL     OW49162   2.671   7.452   6.088
16379SOL    HW149163   2.711   7.543   6.079
16379SOL    HW249164   2.571   7.460   6.094
16380SOL     OW49165   2.059   8.424   6.850
16380SOL    HW149166   2.148   8.379   6.836
16380SOL    HW249167   1.986   8.359   6.831
16381SOL     OW49168   3.387   8.447   5.776
16381SOL    HW149169   3.324   8.371   5.789
16381SOL    HW249170   3.435   8.465   5.862
16382SOL     OW49171   3.049   9.240   7.202
16382SOL    HW149172   3.073   9.300   7.126
16382SOL    HW249173   3.056   9.145   7.172
16383SOL     OW49174   2.179   7.699   7.387
16383SOL    HW149175   2.250   7.770   7.393
16383SOL    HW249176   2.091   7.738   7.415
16384SOL     OW49177   3.328   8.865   6.539
16384SOL    HW149178   3.269   8.871   6.619
16384SOL    HW249179   3.313   8.777   6.493
16385SOL     OW49180   3.529   9.162   6.158
16385SOL    HW149181   3.488   9.139   6.070
16385SOL    HW249182   3.511   9.088   6.223
16386SOL     OW49183   2.460   8.177   5.856
16386SOL    HW149184   2.484   8.246   5.788
16386SOL    HW249185   2.382   8.210   5.910
16387SOL     OW49186   3.143   7.793   6.530
16387SOL    HW149187   3.057   7.743   6.517
16387SOL    HW249188   3.205   7.739   6.586
16388SOL     OW49189   3.438   9.110   5.893
16388SOL    HW149190   3.527   9.156   5.896
16388SOL    HW249191   3.417   9.086   5.798
16389SOL     OW49192   2.669   8.053   7.051
16389SOL    HW149193   2.622   8.050   7.140
16389SOL    HW249194   2.618   7.998   6.985
16390SOL     OW49195   3.256   7.917   7.260
16390SOL    HW149196   3.236   7.960   7.348
16390SOL    HW249197   3.334   7.855   7.269
16391SOL     OW49198   2.835   8.338   7.158
16391SOL    HW149199   2.881   8.254   7.129
16391SOL    HW249200   2.779   8.372   7.083
16392SOL     OW49201   2.853   7.858   6.828
16392SOL    HW149202   2.776   7.892   6.882
16392SOL    HW249203   2.819   7.807   6.749
16393SOL     OW49204   2.903   8.149   6.015
16393SOL    HW149205   2.929   8.145   6.111
16393SOL    HW249206   2.818   8.098   6.001
16394SOL     OW49207   1.938   8.259   6.375
16394SOL    HW149208   2.037   8.247   6.384
16394SOL    HW249209   1.914   8.354   6.396
16395SOL     OW49210   1.992   9.269   7.157
16395SOL    HW149211   1.982   9.254   7.256
16395SOL    HW249212   1.906   9.305   7.121
16396SOL     OW49213   2.727   7.796   5.781
16396SOL    HW149214   2.786   7.859   5.732
16396SOL    HW249215   2.746   7.702   5.752
16397SOL     OW49216   3.581   8.033   7.417
16397SOL    HW149217   3.555   8.122   7.381
16397SOL    HW249218   3.579   7.965   7.344
16398SOL     OW49219   3.224   8.592   6.131
16398SOL    HW149220   3.307   8.563   6.083
16398SOL    HW249221   3.175   8.659   6.075
16399SOL     OW49222   2.412   7.644   6.471
16399SOL    HW149223   2.407   7.639   6.571
16399SOL    HW249224   2.414   7.740   6.442
16400SOL     OW49225   2.870   8.904   6.063
16400SOL    HW149226   2.824   8.976   6.011
16400SOL    HW249227   2.866   8.924   6.161
16401SOL     OW49228   2.213   9.249   6.439
16401SOL    HW149229   2.263   9.163   6.445
16401SOL    HW249230   2.278   9.326   6.436
16402SOL     OW49231   3.657   8.514   6.459
16402SOL    HW149232   3.595   8.499   6.383
16402SOL    HW249233   3.605   8.525   6.544
16403SOL     OW49234   3.089   8.998   7.092
16403SOL    HW149235   3.095   8.921   7.156
16403SOL    HW249236   3.037   8.972   7.012
16404SOL     OW49237   2.183   8.391   5.828
16404SOL    HW149238   2.265   8.430   5.786
16404SOL    HW249239   2.156   8.309   5.779
16405SOL     OW49240   3.320   8.183   6.314
16405SOL    HW149241   3.315   8.118   6.389
16405SOL    HW249242   3.400   8.242   6.327
16406SOL     OW49243   2.323   8.714   7.313
16406SOL    HW149244   2.273   8.715   7.227
16406SOL    HW249245   2.260   8.696   7.389
16407SOL     OW49246   2.973   9.224   5.823
16407SOL    HW149247   2.913   9.162   5.873
16407SOL    HW249248   3.004   9.180   5.738
16408SOL     OW49249   2.064   7.733   7.084
16408SOL    HW149250   1.984   7.793   7.071
16408SOL    HW249251   2.054   7.684   7.170
16409SOL     OW49252   3.494   8.825   5.667
16409SOL    HW149253   3.462   8.919   5.657
16409SOL    HW249254   3.418   8.762   5.655
16410SOL     OW49255   2.326   9.191   5.909
16410SOL    HW149256   2.359   9.230   5.995
16410SOL    HW249257   2.402   9.184   5.844
16411SOL     OW49258   3.262   7.555   6.012
16411SOL    HW149259   3.238   7.518   5.922
16411SOL    HW249260   3.361   7.571   6.016
16412SOL     OW49261   2.111   9.233   6.827
16412SOL    HW149262   2.168   9.168   6.877
16412SOL    HW249263   2.095   9.200   6.734
16413SOL     OW49264   2.802   9.146   6.490
16413SOL    HW149265   2.882   9.089   6.511
16413SOL    HW249266   2.753   9.106   6.413
16414SOL     OW49267   2.244   8.148   6.066
16414SOL    HW149268   2.289   8.058   6.063
16414SOL    HW249269   2.150   8.137   6.099
16415SOL     OW49270   3.409   7.670   7.315
16415SOL    HW149271   3.404   7.707   7.407
16415SOL    HW249272   3.337   7.601   7.303
16416SOL     OW49273   2.476   7.570   5.703
16416SOL    HW149274   2.574   7.548   5.710
16416SOL    HW249275   2.445   7.553   5.610
16417SOL     OW49276   2.643   7.712   7.335
16417SOL    HW149277   2.710   7.651   7.378
16417SOL    HW249278   2.570   7.731   7.400
16418SOL     OW49279   2.750   8.962   6.781
16418SOL    HW149280   2.727   8.937   6.687
16418SOL    HW249281   2.811   8.893   6.820
16419SOL     OW49282   3.213   8.038   7.019
16419SOL    HW149283   3.241   7.995   7.104
16419SOL    HW249284   3.238   8.134   7.020
16420SOL     OW49285   2.665   8.850   6.510
16420SOL    HW149286   2.755   8.864   6.468
16420SOL    HW249287   2.594   8.852   6.439
16421SOL     OW49288   2.784   7.951   6.485
16421SOL    HW149289   2.759   7.942   6.389
16421SOL    HW249290   2.832   7.869   6.516
16422SOL     OW49291   2.401   7.512   6.098
16422SOL    HW149292   2.320   7.513   6.156
16422SOL    HW249293   2.404   7.595   6.043
16423SOL     OW49294   3.296   8.636   5.627
16423SOL    HW149295   3.328   8.560   5.684
16423SOL    HW249296   3.204   8.663   5.657
16424SOL     OW49297   2.159   7.483   5.757
16424SOL    HW149298   2.208   7.567   5.736
16424SOL    HW249299   2.221   7.418   5.802
16425SOL     OW49300   2.797   7.684   6.066
16425SOL    HW149301   2.749   7.725   5.988
16425SOL    HW249302   2.896   7.682   6.047
16426SOL     OW49303   2.938   8.131   7.050
16426SOL    HW149304   2.858   8.070   7.053
16426SOL    HW249305   3.019   8.078   7.026
16427SOL     OW49306   3.089   9.018   6.379
16427SOL    HW149307   3.110   9.092   6.314
16427SOL    HW249308   3.157   9.018   6.452
16428SOL     OW49309   2.321   8.600   6.327
16428SOL    HW149310   2.250   8.573   6.392
16428SOL    HW249311   2.295   8.572   6.234
16429SOL     OW49312   3.133   9.245   6.177
16429SOL    HW149313   3.177   9.309   6.113
16429SOL    HW249314   3.083   9.297   6.247
16430SOL     OW49315   2.894   7.997   5.602
16430SOL    HW149316   2.853   8.079   5.563
16430SOL    HW249317   2.958   8.023   5.675
16431SOL     OW49318   1.940   8.004   6.972
16431SOL    HW149319   2.032   8.003   6.931
16431SOL    HW249320   1.934   8.078   7.039
16432SOL     OW49321   2.423   7.670   6.733
16432SOL    HW149322   2.461   7.586   6.770
16432SOL    HW249323   2.335   7.689   6.777
16433SOL     OW49324   2.728   7.902   6.228
16433SOL    HW149325   2.696   7.974   6.166
16433SOL    HW249326   2.752   7.821   6.175
16434SOL     OW49327   2.879   7.487   6.339
16434SOL    HW149328   2.807   7.492   6.270
16434SOL    HW249329   2.855   7.418   6.408
16435SOL     OW49330   3.291   8.621   6.453
16435SOL    HW149331   3.236   8.537   6.446
16435SOL    HW249332   3.317   8.650   6.361
16436SOL     OW49333   3.328   8.038   6.578
16436SOL    HW149334   3.298   7.943   6.585
16436SOL    HW249335   3.401   8.054   6.644
16437SOL     OW49336   3.719   8.281   5.963
16437SOL    HW149337   3.761   8.217   6.027
16437SOL    HW249338   3.681   8.230   5.885
16438SOL     OW49339   2.350   8.833   5.760
16438SOL    HW149340   2.263   8.818   5.807
16438SOL    HW249341   2.333   8.859   5.665
16439SOL     OW49342   3.526   8.728   6.243
16439SOL    HW149343   3.625   8.736   6.257
16439SOL    HW249344   3.481   8.812   6.274
16440SOL     OW49345   3.252   8.023   5.664
16440SOL    HW149346   3.198   8.002   5.745
16440SOL    HW249347   3.343   7.982   5.673
16441SOL     OW49348   2.389   7.704   5.914
16441SOL    HW149349   2.416   7.645   5.839
16441SOL    HW249350   2.389   7.799   5.883
16442SOL     OW49351   3.616   8.671   7.174
16442SOL    HW149352   3.707   8.632   7.161
16442SOL    HW249353   3.624   8.767   7.198
16443SOL     OW49354   2.926   8.795   6.926
16443SOL    HW149355   2.846   8.772   6.981
16443SOL    HW249356   3.009   8.769   6.975
16444SOL     OW49357   3.454   9.077   7.211
16444SOL    HW149358   3.481   9.111   7.121
16444SOL    HW249359   3.533   9.039   7.257
16445SOL     OW49360   2.973   8.643   6.686
16445SOL    HW149361   2.933   8.687   6.767
16445SOL    HW249362   2.932   8.680   6.603
16446SOL     OW49363   3.500   8.547   6.665
16446SOL    HW149364   3.505   8.628   6.724
16446SOL    HW249365   3.414   8.549   6.614
16447SOL     OW49366   2.777   7.537   6.988
16447SOL    HW149367   2.802   7.517   6.893
16447SOL    HW249368   2.849   7.593   7.030
16448SOL     OW49369   2.842   8.564   7.305
16448SOL    HW149370   2.743   8.570   7.315
16448SOL    HW249371   2.865   8.484   7.249
16449SOL     OW49372   2.567   8.498   5.954
16449SOL    HW149373   2.553   8.505   6.053
16449SOL    HW249374   2.651   8.447   5.936
16450SOL     OW49375   2.272   8.261   6.837
16450SOL    HW149376   2.358   8.273   6.887
16450SOL    HW249377   2.230   8.174   6.864
16451SOL     OW49378   3.136   7.834   6.848
16451SOL    HW149379   3.157   7.908   6.912
16451SOL    HW249380   3.047   7.851   6.805
16452SOL     OW49381   1.926   9.012   6.917
16452SOL    HW149382   1.880   9.094   6.883
16452SOL    HW249383   2.024   9.031   6.926
16453SOL     OW49384   2.229   8.548   6.087
16453SOL    HW149385   2.222   8.631   6.031
16453SOL    HW249386   2.233   8.468   6.027
16454SOL     OW49387   2.428   7.985   6.451
16454SOL    HW149388   2.440   8.051   6.377
16454SOL    HW249389   2.474   8.019   6.534
16455SOL     OW49390   3.114   8.796   5.974
16455SOL    HW149391   3.164   8.873   6.014
16455SOL    HW249392   3.019   8.798   6.006
16456SOL     OW49393   3.134   8.893   6.728
16456SOL    HW149394   3.181   8.906   6.815
16456SOL    HW249395   3.068   8.819   6.737
16457SOL     OW49396   3.444   8.087   6.058
16457SOL    HW149397   3.413   8.148   6.131
16457SOL    HW249398   3.494   8.139   5.989
16458SOL     OW49399   2.216   8.958   6.915
16458SOL    HW149400   2.195   8.914   6.828
16458SOL    HW249401   2.313   8.984   6.918
16459SOL     OW49402   2.264   8.199   7.184
16459SOL    HW149403   2.332   8.254   7.137
16459SOL    HW249404   2.304   8.111   7.211
16460SOL     OW49405   3.449   8.227   7.256
16460SOL    HW149406   3.357   8.265   7.251
16460SOL    HW249407   3.509   8.274   7.191
16461SOL     OW49408   2.875   7.553   7.356
16461SOL    HW149409   2.881   7.638   7.304
16461SOL    HW249410   2.907   7.477   7.299
16462SOL     OW49411   2.366   7.498   7.326
16462SOL    HW149412   2.324   7.441   7.256
16462SOL    HW249413   2.300   7.567   7.358
16463SOL     OW49414   2.435   8.318   6.615
16463SOL    HW149415   2.479   8.407   6.606
16463SOL    HW249416   2.372   8.318   6.692
16464SOL     OW49417   3.222   8.310   6.631
16464SOL    HW149418   3.147   8.310   6.565
16464SOL    HW249419   3.259   8.218   6.640
16465SOL     OW49420   3.071   7.973   5.861
16465SOL    HW149421   3.084   7.889   5.915
16465SOL    HW249422   3.042   8.047   5.921
16466SOL     OW49423   2.169   7.661   6.817
16466SOL    HW149424   2.146   7.698   6.907
16466SOL    HW249425   2.139   7.566   6.811
16467SOL     OW49426   1.899   8.758   6.868
16467SOL    HW149427   1.952   8.709   6.936
16467SOL    HW249428   1.921   8.856   6.873
16468SOL     OW49429   2.594   8.082   6.650
16468SOL    HW149430   2.653   8.056   6.574
16468SOL    HW249431   2.566   8.178   6.639
16469SOL     OW49432   3.590   8.383   7.440
16469SOL    HW149433   3.544   8.376   7.351
16469SOL    HW249434   3.528   8.427   7.506
16470SOL     OW49435   2.169   7.511   6.204
16470SOL    HW149436   2.158   7.605   6.237
16470SOL    HW249437   2.164   7.448   6.281
16471SOL     OW49438   3.484   7.815   5.960
16471SOL    HW149439   3.486   7.739   6.024
16471SOL    HW249440   3.436   7.892   6.000
16472SOL     OW49441   2.885   8.214   6.552
16472SOL    HW149442   2.900   8.235   6.648
16472SOL    HW249443   2.855   8.119   6.543
16473SOL     OW49444   2.842   9.021   7.286
16473SOL    HW149445   2.822   9.065   7.198
16473SOL    HW249446   2.881   8.930   7.270
16474SOL     OW49447   3.721   8.966   7.191
16474SOL    HW149448   3.735   8.993   7.096
16474SOL    HW249449   3.804   8.988   7.244
16475SOL     OW49450   2.212   8.346   7.390
16475SOL    HW149451   2.288   8.390   7.438
16475SOL    HW249452   2.247   8.299   7.308
16476SOL     OW49453   3.402   7.722   5.711
16476SOL    HW149454   3.341   7.647   5.734
16476SOL    HW249455   3.424   7.774   5.794
16477SOL     OW49456   3.165   8.286   5.628
16477SOL    HW149457   3.199   8.193   5.643
16477SOL    HW249458   3.183   8.313   5.533
16478SOL     OW49459   2.930   8.781   6.435
16478SOL    HW149460   2.937   8.697   6.380
16478SOL    HW249461   2.992   8.850   6.399
16479SOL     OW49462   2.181   8.258   6.535
16479SOL    HW149463   2.274   8.294   6.540
16479SOL    HW249464   2.175   8.173   6.587
16480SOL     OW49465   2.201   7.957   6.592
16480SOL    HW149466   2.149   7.874   6.575
16480SOL    HW249467   2.278   7.962   6.528
16481SOL     OW49468   3.000   7.828   7.264
16481SOL    HW149469   2.955   7.891   7.328
16481SOL    HW249470   3.093   7.859   7.247
16482SOL     OW49471   3.022   7.655   7.063
16482SOL    HW149472   3.022   7.719   7.140
16482SOL    HW249473   3.050   7.703   6.980
16483SOL     OW49474   1.870   8.774   5.786
16483SOL    HW149475   1.777   8.795   5.755
16483SOL    HW249476   1.880   8.675   5.799
16484SOL     OW49477   1.950   9.249   6.513
16484SOL    HW149478   1.908   9.163   6.486
16484SOL    HW249479   2.044   9.252   6.479
16485SOL     OW49480   2.366   9.016   6.496
16485SOL    HW149481   2.432   9.090   6.505
16485SOL    HW249482   2.410   8.937   6.454
16486SOL     OW49483   2.864   8.244   6.824
16486SOL    HW149484   2.905   8.212   6.910
16486SOL    HW249485   2.768   8.217   6.821
16487SOL     OW49486   1.902   7.992   6.700
16487SOL    HW149487   1.987   7.959   6.659
16487SOL    HW249488   1.915   8.007   6.798
16488SOL     OW49489   2.051   7.968   7.308
16488SOL    HW149490   2.110   7.928   7.238
16488SOL    HW249491   1.993   8.039   7.267
16489SOL     OW49492   3.231   8.398   7.246
16489SOL    HW149493   3.270   8.487   7.266
16489SOL    HW249494   3.241   8.378   7.149
16490SOL     OW49495   2.677   8.020   5.911
16490SOL    HW149496   2.684   7.931   5.865
16490SOL    HW249497   2.583   8.054   5.903
16491SOL     OW49498   3.519   8.052   6.792
16491SOL    HW149499   3.481   7.983   6.854
16491SOL    HW249500   3.601   8.016   6.748
16492SOL     OW49501   2.114   9.012   7.330
16492SOL    HW149502   2.084   9.069   7.406
16492SOL    HW249503   2.107   8.915   7.356
16493SOL     OW49504   2.533   7.912   6.855
16493SOL    HW149505   2.499   7.823   6.825
16493SOL    HW249506   2.559   7.966   6.775
16494SOL     OW49507   2.792   9.126   7.051
16494SOL    HW149508   2.768   9.108   6.956
16494SOL    HW249509   2.822   9.220   7.061
16495SOL     OW49510   2.335   7.948   5.777
16495SOL    HW149511   2.396   8.028   5.781
16495SOL    HW249512   2.240   7.979   5.784
16496SOL     OW49513   2.021   8.585   7.052
16496SOL    HW149514   2.043   8.524   7.128
16496SOL    HW249515   2.031   8.536   6.966
16497SOL     OW49516   3.209   8.507   6.820
16497SOL    HW149517   3.233   8.444   6.746
16497SOL    HW249518   3.119   8.547   6.802
16498SOL     OW49519   3.164   8.303   5.895
16498SOL    HW149520   3.078   8.272   5.937
16498SOL    HW249521   3.160   8.289   5.796
16499SOL     OW49522   3.621   9.195   6.740
16499SOL    HW149523   3.682   9.225   6.667
16499SOL    HW249524   3.583   9.106   6.718
16500SOL     OW49525   3.114   9.179   6.714
16500SOL    HW149526   3.198   9.184   6.660
16500SOL    HW249527   3.091   9.083   6.732
16501SOL     OW49528   1.945   8.706   6.608
16501SOL    HW149529   1.940   8.705   6.708
16501SOL    HW249530   1.862   8.665   6.570
16502SOL     OW49531   2.550   9.110   7.302
16502SOL    HW149532   2.494   9.191   7.311
16502SOL    HW249533   2.602   9.114   7.216
16503SOL     OW49534   3.588   7.583   6.109
16503SOL    HW149535   3.661   7.566   6.042
16503SOL    HW249536   3.557   7.496   6.147
16504SOL     OW49537   3.250   9.021   6.063
16504SOL    HW149538   3.317   9.033   5.989
16504SOL    HW249539   3.210   9.110   6.086
16505SOL     OW49540   1.992   9.242   7.437
16505SOL    HW149541   1.951   9.168   7.490
16505SOL    HW249542   2.056   9.293   7.495
16506SOL     OW49543   3.142   8.375   6.258
16506SOL    HW149544   3.202   8.294   6.260
16506SOL    HW249545   3.182   8.444   6.198
16507SOL     OW49546   2.692   8.721   7.008
16507SOL    HW149547   2.687   8.754   7.103
16507SOL    HW249548   2.606   8.740   6.962
16508SOL     OW49549   2.534   9.064   5.740
16508SOL    HW149550   2.543   9.074   5.641
16508SOL    HW249551   2.494   8.975   5.761
16509SOL     OW49552   3.512   9.168   6.980
16509SOL    HW149553   3.565   9.178   6.896
16509SOL    HW249554   3.485   9.258   7.014
16510SOL     OW49555   3.703   7.623   6.549
16510SOL    HW149556   3.742   7.538   6.513
16510SOL    HW249557   3.605   7.625   6.530
16511SOL     OW49558   2.125   7.774   6.306
16511SOL    HW149559   2.046   7.825   6.272
16511SOL    HW249560   2.116   7.759   6.404
16512SOL     OW49561   3.056   9.060   5.617
16512SOL    HW149562   3.062   8.967   5.654
16512SOL    HW249563   2.997   9.060   5.537
16513SOL     OW49564   2.684   8.450   6.958
16513SOL    HW149565   2.724   8.449   6.866
16513SOL    HW249566   2.694   8.542   6.998
16514SOL     OW49567   2.778   8.358   5.877
16514SOL    HW149568   2.841   8.396   5.809
16514SOL    HW249569   2.818   8.275   5.916
16515SOL     OW49570   3.366   9.055   5.630
16515SOL    HW149571   3.274   9.092   5.637
16515SOL    HW249572   3.404   9.075   5.540
16516SOL     OW49573   2.234   8.736   7.076
16516SOL    HW149574   2.221   8.829   7.042
16516SOL    HW249575   2.150   8.684   7.063
16517SOL     OW49576   3.476   8.740   6.875
16517SOL    HW149577   3.536   8.743   6.955
16517SOL    HW249578   3.401   8.804   6.888
16518SOL     OW49579   2.901   8.546   6.282
16518SOL    HW149580   2.831   8.499   6.336
16518SOL    HW249581   2.960   8.478   6.239
16519SOL     OW49582   2.876   7.684   6.557
16519SOL    HW149583   2.868   7.648   6.464
16519SOL    HW249584   2.874   7.608   6.622
16520SOL     OW49585   2.452   8.935   6.077
16520SOL    HW149586   2.494   8.877   6.007
16520SOL    HW249587   2.408   9.014   6.033
16521SOL     OW49588   3.571   7.833   6.967
16521SOL    HW149589   3.644   7.902   6.971
16521SOL    HW249590   3.599   7.758   6.908
16522SOL     OW49591   2.117   8.796   5.876
16522SOL    HW149592   2.021   8.797   5.849
16522SOL    HW249593   2.129   8.849   5.960
16523SOL     OW49594   1.967   8.461   7.312
16523SOL    HW149595   1.890   8.428   7.366
16523SOL    HW249596   2.052   8.431   7.354
16524SOL     OW49597   2.534   7.651   7.075
16524SOL    HW149598   2.624   7.635   7.035
16524SOL    HW249599   2.542   7.656   7.174
16525SOL     OW49600   1.937   7.793   5.619
16525SOL    HW149601   1.845   7.765   5.590
16525SOL    HW249602   1.968   7.870   5.563
16526SOL     OW49603   3.302   8.304   6.984
16526SOL    HW149604   3.245   8.356   6.921
16526SOL    HW249605   3.398   8.316   6.960
16527SOL     OW49606   1.934   7.614   5.904
16527SOL    HW149607   1.917   7.697   5.850
16527SOL    HW249608   2.024   7.577   5.882
16528SOL     OW49609   3.045   8.783   5.705
16528SOL    HW149610   2.946   8.772   5.707
16528SOL    HW249611   3.079   8.798   5.798
16529SOL     OW49612   2.475   8.290   7.017
16529SOL    HW149613   2.531   8.371   7.000
16529SOL    HW249614   2.534   8.210   7.020
16530SOL     OW49615   3.355   9.215   6.545
16530SOL    HW149616   3.388   9.279   6.476
16530SOL    HW249617   3.421   9.209   6.620
16531SOL     OW49618   2.578   8.013   7.294
16531SOL    HW149619   2.597   8.078   7.368
16531SOL    HW249620   2.638   7.933   7.303
16532SOL     OW49621   3.312   8.668   7.219
16532SOL    HW149622   3.303   8.658   7.318
16532SOL    HW249623   3.408   8.661   7.193
16533SOL     OW49624   2.252   9.189   7.146
16533SOL    HW149625   2.161   9.230   7.144
16533SOL    HW249626   2.245   9.095   7.178
16534SOL     OW49627   3.536   8.331   6.840
16534SOL    HW149628   3.509   8.242   6.803
16534SOL    HW249629   3.537   8.399   6.767
16535SOL     OW49630   3.087   7.773   6.035
16535SOL    HW149631   3.152   7.699   6.024
16535SOL    HW249632   3.107   7.823   6.119
16536SOL     OW49633   2.456   8.193   6.238
16536SOL    HW149634   2.506   8.278   6.219
16536SOL    HW249635   2.368   8.195   6.190
16537SOL     OW49636   3.639   7.790   7.228
16537SOL    HW149637   3.622   7.821   7.134
16537SOL    HW249638   3.555   7.753   7.266
16538SOL     OW49639   3.592   8.382   7.103
16538SOL    HW149640   3.630   8.473   7.118
16538SOL    HW249641   3.584   8.365   7.004
16539SOL     OW49642   2.721   8.822   5.602
16539SOL    HW149643   2.675   8.837   5.690
16539SOL    HW249644   2.765   8.907   5.572
16540SOL     OW49645   2.523   9.238   6.539
16540SOL    HW149646   2.477   9.326   6.526
16540SOL    HW249647   2.622   9.250   6.532
16541SOL     OW49648   2.721   8.404   6.447
16541SOL    HW149649   2.775   8.335   6.495
16541SOL    HW249650   2.689   8.473   6.513
16542SOL     OW49651   2.945   8.432   5.673
16542SOL    HW149652   2.922   8.485   5.591
16542SOL    HW249653   3.026   8.376   5.654
16543SOL     OW49654   3.723   9.017   6.437
16543SOL    HW149655   3.652   9.005   6.367
16543SOL    HW249656   3.724   8.938   6.497
16544SOL     OW49657   2.083   8.762   7.430
16544SOL    HW149658   2.018   8.689   7.409
16544SOL    HW249659   2.087   8.776   7.528
16545SOL     OW49660   1.941   8.688   6.239
16545SOL    HW149661   1.940   8.641   6.327
16545SOL    HW249662   2.023   8.660   6.188
16546SOL     OW49663   2.534   8.839   7.210
16546SOL    HW149664   2.456   8.789   7.248
16546SOL    HW249665   2.531   8.934   7.241
16547SOL     OW49666   3.686   7.640   6.813
16547SOL    HW149667   3.682   7.550   6.857
16547SOL    HW249668   3.689   7.629   6.714
16548SOL     OW49669   2.290   7.872   6.106
16548SOL    HW149670   2.320   7.800   6.044
16548SOL    HW249671   2.251   7.832   6.189
16549SOL     OW49672   3.567   8.935   6.690
16549SOL    HW149673   3.474   8.910   6.663
16549SOL    HW249674   3.593   8.885   6.772
16550SOL     OW49675   2.179   7.995   6.866
16550SOL    HW149676   2.217   7.936   6.938
16550SOL    HW249677   2.219   7.969   6.778
16551SOL     OW49678   2.674   9.034   6.273
16551SOL    HW149679   2.706   9.044   6.179
16551SOL    HW249680   2.595   8.972   6.275
16552SOL     OW49681   3.286   7.662   6.698
16552SOL    HW149682   3.338   7.597   6.753
16552SOL    HW249683   3.237   7.725   6.759
16553SOL     OW49684   2.863   7.482   6.740
16553SOL    HW149685   2.800   7.410   6.709
16553SOL    HW249686   2.956   7.446   6.740
16554SOL     OW49687   2.632   8.778   5.887
16554SOL    HW149688   2.586   8.691   5.904
16554SOL    HW249689   2.723   8.775   5.928
16555SOL     OW49690   2.480   9.015   6.870
16555SOL    HW149691   2.475   9.097   6.927
16555SOL    HW249692   2.569   9.012   6.825
16556SOL     OW49693   3.214   7.500   5.754
16556SOL    HW149694   3.249   7.459   5.670
16556SOL    HW249695   3.124   7.462   5.774
16557SOL     OW49696   3.162   7.901   6.277
16557SOL    HW149697   3.103   7.981   6.281
16557SOL    HW249698   3.177   7.866   6.370
16558SOL     OW49699   3.455   7.669   6.468
16558SOL    HW149700   3.371   7.668   6.522
16558SOL    HW249701   3.457   7.752   6.412
16559SOL     OW49702   1.901   8.525   5.886
16559SOL    HW149703   2.000   8.514   5.877
16559SOL    HW249704   1.861   8.439   5.918
16560SOL     OW49705   2.737   9.094   5.923
16560SOL    HW149706   2.660   9.059   5.869
16560SOL    HW249707   2.705   9.165   5.985
16561SOL     OW49708   2.092   8.076   7.561
16561SOL    HW149709   1.999   8.074   7.598
16561SOL    HW249710   2.093   8.037   7.469
16562SOL     OW49711   2.087   7.723   8.444
16562SOL    HW149712   2.122   7.706   8.536
16562SOL    HW249713   1.999   7.678   8.432
16563SOL     OW49714   1.881   7.816   8.095
16563SOL    HW149715   1.799   7.859   8.134
16563SOL    HW249716   1.853   7.743   8.032
16564SOL     OW49717   2.431   8.723   8.613
16564SOL    HW149718   2.338   8.716   8.576
16564SOL    HW249719   2.442   8.812   8.657
16565SOL     OW49720   3.417   8.959   8.151
16565SOL    HW149721   3.360   8.943   8.232
16565SOL    HW249722   3.358   8.969   8.071
16566SOL     OW49723   2.997   8.151   8.165
16566SOL    HW149724   3.054   8.229   8.140
16566SOL    HW249725   2.937   8.177   8.241
16567SOL     OW49726   3.617   8.055   7.679
16567SOL    HW149727   3.605   8.042   7.580
16567SOL    HW249728   3.587   7.974   7.728
16568SOL     OW49729   2.630   8.592   8.471
16568SOL    HW149730   2.552   8.609   8.531
16568SOL    HW249731   2.664   8.679   8.435
16569SOL     OW49732   2.712   8.246   9.271
16569SOL    HW149733   2.708   8.322   9.336
16569SOL    HW249734   2.734   8.282   9.180
16570SOL     OW49735   2.547   8.460   8.113
16570SOL    HW149736   2.616   8.444   8.183
16570SOL    HW249737   2.474   8.517   8.151
16571SOL     OW49738   2.548   8.609   9.251
16571SOL    HW149739   2.608   8.688   9.265
16571SOL    HW249740   2.462   8.640   9.210
16572SOL     OW49741   2.197   8.883   8.509
16572SOL    HW149742   2.119   8.852   8.456
16572SOL    HW249743   2.255   8.941   8.452
16573SOL     OW49744   3.322   8.953   8.787
16573SOL    HW149745   3.346   9.047   8.813
16573SOL    HW249746   3.306   8.899   8.869
16574SOL     OW49747   2.300   7.840   8.947
16574SOL    HW149748   2.382   7.784   8.956
16574SOL    HW249749   2.219   7.782   8.951
16575SOL     OW49750   3.465   7.895   8.185
16575SOL    HW149751   3.391   7.941   8.135
16575SOL    HW249752   3.516   7.963   8.238
16576SOL     OW49753   2.093   9.161   7.931
16576SOL    HW149754   2.127   9.238   7.985
16576SOL    HW249755   2.137   9.161   7.841
16577SOL     OW49756   2.989   8.789   9.138
16577SOL    HW149757   3.036   8.789   9.226
16577SOL    HW249758   2.941   8.702   9.127
16578SOL     OW49759   2.092   8.882   7.986
16578SOL    HW149760   2.066   8.978   7.986
16578SOL    HW249761   2.021   8.828   8.031
16579SOL     OW49762   2.102   8.539   8.334
16579SOL    HW149763   2.116   8.455   8.386
16579SOL    HW249764   2.047   8.603   8.389
16580SOL     OW49765   2.482   9.234   8.887
16580SOL    HW149766   2.390   9.217   8.922
16580SOL    HW249767   2.510   9.326   8.913
16581SOL     OW49768   2.468   8.412   7.571
16581SOL    HW149769   2.475   8.496   7.517
16581SOL    HW249770   2.514   8.425   7.659
16582SOL     OW49771   3.456   7.562   8.928
16582SOL    HW149772   3.438   7.629   8.856
16582SOL    HW249773   3.453   7.608   9.017
16583SOL     OW49774   1.984   8.091   8.011
16583SOL    HW149775   1.939   8.003   8.028
16583SOL    HW249776   1.983   8.145   8.095
16584SOL     OW49777   3.704   9.215   7.807
16584SOL    HW149778   3.758   9.186   7.887
16584SOL    HW249779   3.734   9.305   7.778
16585SOL     OW49780   1.889   9.044   7.565
16585SOL    HW149781   1.870   8.948   7.586
16585SOL    HW249782   1.856   9.102   7.640
16586SOL     OW49783   3.551   8.370   8.060
16586SOL    HW149784   3.646   8.341   8.068
16586SOL    HW249785   3.543   8.435   7.985
16587SOL     OW49786   3.503   8.556   7.880
16587SOL    HW149787   3.589   8.558   7.828
16587SOL    HW249788   3.517   8.603   7.968
16588SOL     OW49789   1.975   8.185   9.045
16588SOL    HW149790   2.063   8.172   9.090
16588SOL    HW249791   1.962   8.282   9.023
16589SOL     OW49792   2.475   8.813   8.174
16589SOL    HW149793   2.426   8.726   8.183
16589SOL    HW249794   2.452   8.856   8.087
16590SOL     OW49795   3.155   8.676   8.871
16590SOL    HW149796   3.192   8.603   8.813
16590SOL    HW249797   3.207   8.681   8.956
16591SOL     OW49798   2.671   7.452   7.950
16591SOL    HW149799   2.711   7.543   7.941
16591SOL    HW249800   2.571   7.460   7.956
16592SOL     OW49801   2.059   8.424   8.712
16592SOL    HW149802   2.148   8.379   8.698
16592SOL    HW249803   1.986   8.359   8.693
16593SOL     OW49804   3.387   8.447   7.638
16593SOL    HW149805   3.324   8.371   7.651
16593SOL    HW249806   3.435   8.465   7.724
16594SOL     OW49807   3.049   9.240   9.064
16594SOL    HW149808   3.073   9.300   8.988
16594SOL    HW249809   3.056   9.145   9.034
16595SOL     OW49810   2.179   7.699   9.249
16595SOL    HW149811   2.250   7.770   9.255
16595SOL    HW249812   2.091   7.738   9.277
16596SOL     OW49813   3.328   8.865   8.401
16596SOL    HW149814   3.269   8.871   8.481
16596SOL    HW249815   3.313   8.777   8.355
16597SOL     OW49816   3.529   9.162   8.020
16597SOL    HW149817   3.488   9.139   7.932
16597SOL    HW249818   3.511   9.088   8.085
16598SOL     OW49819   2.460   8.177   7.718
16598SOL    HW149820   2.484   8.246   7.650
16598SOL    HW249821   2.382   8.210   7.772
16599SOL     OW49822   3.143   7.793   8.392
16599SOL    HW149823   3.057   7.743   8.379
16599SOL    HW249824   3.205   7.739   8.448
16600SOL     OW49825   3.438   9.110   7.755
16600SOL    HW149826   3.527   9.156   7.758
16600SOL    HW249827   3.417   9.086   7.660
16601SOL     OW49828   2.669   8.053   8.913
16601SOL    HW149829   2.622   8.050   9.002
16601SOL    HW249830   2.618   7.998   8.847
16602SOL     OW49831   3.256   7.917   9.122
16602SOL    HW149832   3.236   7.960   9.210
16602SOL    HW249833   3.334   7.855   9.131
16603SOL     OW49834   2.835   8.338   9.020
16603SOL    HW149835   2.881   8.254   8.991
16603SOL    HW249836   2.779   8.372   8.945
16604SOL     OW49837   2.853   7.858   8.690
16604SOL    HW149838   2.776   7.892   8.744
16604SOL    HW249839   2.819   7.807   8.611
16605SOL     OW49840   2.903   8.149   7.877
16605SOL    HW149841   2.929   8.145   7.973
16605SOL    HW249842   2.818   8.098   7.863
16606SOL     OW49843   1.938   8.259   8.237
16606SOL    HW149844   2.037   8.247   8.246
16606SOL    HW249845   1.914   8.354   8.258
16607SOL     OW49846   1.992   9.269   9.019
16607SOL    HW149847   1.982   9.254   9.118
16607SOL    HW249848   1.906   9.305   8.983
16608SOL     OW49849   2.727   7.796   7.643
16608SOL    HW149850   2.786   7.859   7.594
16608SOL    HW249851   2.746   7.702   7.614
16609SOL     OW49852   3.581   8.033   9.279
16609SOL    HW149853   3.555   8.122   9.243
16609SOL    HW249854   3.579   7.965   9.206
16610SOL     OW49855   3.224   8.592   7.993
16610SOL    HW149856   3.307   8.563   7.945
16610SOL    HW249857   3.175   8.659   7.937
16611SOL     OW49858   2.412   7.644   8.333
16611SOL    HW149859   2.407   7.639   8.433
16611SOL    HW249860   2.414   7.740   8.304
16612SOL     OW49861   2.870   8.904   7.925
16612SOL    HW149862   2.824   8.976   7.873
16612SOL    HW249863   2.866   8.924   8.023
16613SOL     OW49864   2.213   9.249   8.301
16613SOL    HW149865   2.263   9.163   8.307
16613SOL    HW249866   2.278   9.326   8.298
16614SOL     OW49867   3.657   8.514   8.321
16614SOL    HW149868   3.595   8.499   8.245
16614SOL    HW249869   3.605   8.525   8.406
16615SOL     OW49870   3.089   8.998   8.954
16615SOL    HW149871   3.095   8.921   9.018
16615SOL    HW249872   3.037   8.972   8.874
16616SOL     OW49873   2.183   8.391   7.690
16616SOL    HW149874   2.265   8.430   7.648
16616SOL    HW249875   2.156   8.309   7.641
16617SOL     OW49876   3.320   8.183   8.176
16617SOL    HW149877   3.315   8.118   8.251
16617SOL    HW249878   3.400   8.242   8.189
16618SOL     OW49879   2.323   8.714   9.175
16618SOL    HW149880   2.273   8.715   9.089
16618SOL    HW249881   2.260   8.696   9.251
16619SOL     OW49882   2.973   9.224   7.685
16619SOL    HW149883   2.913   9.162   7.735
16619SOL    HW249884   3.004   9.180   7.600
16620SOL     OW49885   2.064   7.733   8.946
16620SOL    HW149886   1.984   7.793   8.933
16620SOL    HW249887   2.054   7.684   9.032
16621SOL     OW49888   3.494   8.825   7.529
16621SOL    HW149889   3.462   8.919   7.519
16621SOL    HW249890   3.418   8.762   7.517
16622SOL     OW49891   2.326   9.191   7.771
16622SOL    HW149892   2.359   9.230   7.857
16622SOL    HW249893   2.402   9.184   7.706
16623SOL     OW49894   3.262   7.555   7.874
16623SOL    HW149895   3.238   7.518   7.784
16623SOL    HW249896   3.361   7.571   7.878
16624SOL     OW49897   2.111   9.233   8.689
16624SOL    HW149898   2.168   9.168   8.739
16624SOL    HW249899   2.095   9.200   8.596
16625SOL     OW49900   2.802   9.146   8.352
16625SOL    HW149901   2.882   9.089   8.373
16625SOL    HW249902   2.753   9.106   8.275
16626SOL     OW49903   2.244   8.148   7.928
16626SOL    HW149904   2.289   8.058   7.925
16626SOL    HW249905   2.150   8.137   7.961
16627SOL     OW49906   3.409   7.670   9.177
16627SOL    HW149907   3.404   7.707   9.269
16627SOL    HW249908   3.337   7.601   9.165
16628SOL     OW49909   2.476   7.570   7.565
16628SOL    HW149910   2.574   7.548   7.572
16628SOL    HW249911   2.445   7.553   7.472
16629SOL     OW49912   2.643   7.712   9.197
16629SOL    HW149913   2.710   7.651   9.240
16629SOL    HW249914   2.570   7.731   9.262
16630SOL     OW49915   2.750   8.962   8.643
16630SOL    HW149916   2.727   8.937   8.549
16630SOL    HW249917   2.811   8.893   8.682
16631SOL     OW49918   3.213   8.038   8.881
16631SOL    HW149919   3.241   7.995   8.966
16631SOL    HW249920   3.238   8.134   8.882
16632SOL     OW49921   2.665   8.850   8.372
16632SOL    HW149922   2.755   8.864   8.330
16632SOL    HW249923   2.594   8.852   8.301
16633SOL     OW49924   2.784   7.951   8.347
16633SOL    HW149925   2.759   7.942   8.251
16633SOL    HW249926   2.832   7.869   8.378
16634SOL     OW49927   2.401   7.512   7.960
16634SOL    HW149928   2.320   7.513   8.018
16634SOL    HW249929   2.404   7.595   7.905
16635SOL     OW49930   3.296   8.636   7.489
16635SOL    HW149931   3.328   8.560   7.546
16635SOL    HW249932   3.204   8.663   7.519
16636SOL     OW49933   2.159   7.483   7.619
16636SOL    HW149934   2.208   7.567   7.598
16636SOL    HW249935   2.221   7.418   7.664
16637SOL     OW49936   2.797   7.684   7.928
16637SOL    HW149937   2.749   7.725   7.850
16637SOL    HW249938   2.896   7.682   7.909
16638SOL     OW49939   2.938   8.131   8.912
16638SOL    HW149940   2.858   8.070   8.915
16638SOL    HW249941   3.019   8.078   8.888
16639SOL     OW49942   3.089   9.018   8.241
16639SOL    HW149943   3.110   9.092   8.176
16639SOL    HW249944   3.157   9.018   8.314
16640SOL     OW49945   2.321   8.600   8.189
16640SOL    HW149946   2.250   8.573   8.254
16640SOL    HW249947   2.295   8.572   8.096
16641SOL     OW49948   3.133   9.245   8.039
16641SOL    HW149949   3.177   9.309   7.975
16641SOL    HW249950   3.083   9.297   8.109
16642SOL     OW49951   2.894   7.997   7.464
16642SOL    HW149952   2.853   8.079   7.425
16642SOL    HW249953   2.958   8.023   7.537
16643SOL     OW49954   1.940   8.004   8.834
16643SOL    HW149955   2.032   8.003   8.793
16643SOL    HW249956   1.934   8.078   8.901
16644SOL     OW49957   2.423   7.670   8.595
16644SOL    HW149958   2.461   7.586   8.632
16644SOL    HW249959   2.335   7.689   8.639
16645SOL     OW49960   2.728   7.902   8.090
16645SOL    HW149961   2.696   7.974   8.028
16645SOL    HW249962   2.752   7.821   8.037
16646SOL     OW49963   2.879   7.487   8.201
16646SOL    HW149964   2.807   7.492   8.132
16646SOL    HW249965   2.855   7.418   8.270
16647SOL     OW49966   3.291   8.621   8.315
16647SOL    HW149967   3.236   8.537   8.308
16647SOL    HW249968   3.317   8.650   8.223
16648SOL     OW49969   3.328   8.038   8.440
16648SOL    HW149970   3.298   7.943   8.447
16648SOL    HW249971   3.401   8.054   8.506
16649SOL     OW49972   3.719   8.281   7.825
16649SOL    HW149973   3.761   8.217   7.889
16649SOL    HW249974   3.681   8.230   7.747
16650SOL     OW49975   2.350   8.833   7.622
16650SOL    HW149976   2.263   8.818   7.669
16650SOL    HW249977   2.333   8.859   7.527
16651SOL     OW49978   3.526   8.728   8.105
16651SOL    HW149979   3.625   8.736   8.119
16651SOL    HW249980   3.481   8.812   8.136
16652SOL     OW49981   3.252   8.023   7.526
16652SOL    HW149982   3.198   8.002   7.607
16652SOL    HW249983   3.343   7.982   7.535
16653SOL     OW49984   2.389   7.704   7.776
16653SOL    HW149985   2.416   7.645   7.701
16653SOL    HW249986   2.389   7.799   7.745
16654SOL     OW49987   3.616   8.671   9.036
16654SOL    HW149988   3.707   8.632   9.023
16654SOL    HW249989   3.624   8.767   9.060
16655SOL     OW49990   2.926   8.795   8.788
16655SOL    HW149991   2.846   8.772   8.843
16655SOL    HW249992   3.009   8.769   8.837
16656SOL     OW49993   3.454   9.077   9.073
16656SOL    HW149994   3.481   9.111   8.983
16656SOL    HW249995   3.533   9.039   9.119
16657SOL     OW49996   2.973   8.643   8.548
16657SOL    HW149997   2.933   8.687   8.629
16657SOL    HW249998   2.932   8.680   8.465
16658SOL     OW49999   3.500   8.547   8.527
16658SOL    HW150000   3.505   8.628   8.586
16658SOL    HW250001   3.414   8.549   8.476
16659SOL     OW50002   2.777   7.537   8.850
16659SOL    HW150003   2.802   7.517   8.755
16659SOL    HW250004   2.849   7.593   8.892
16660SOL     OW50005   2.842   8.564   9.167
16660SOL    HW150006   2.743   8.570   9.177
16660SOL    HW250007   2.865   8.484   9.111
16661SOL     OW50008   2.567   8.498   7.816
16661SOL    HW150009   2.553   8.505   7.915
16661SOL    HW250010   2.651   8.447   7.798
16662SOL     OW50011   2.272   8.261   8.699
16662SOL    HW150012   2.358   8.273   8.749
16662SOL    HW250013   2.230   8.174   8.726
16663SOL     OW50014   3.136   7.834   8.710
16663SOL    HW150015   3.157   7.908   8.774
16663SOL    HW250016   3.047   7.851   8.667
16664SOL     OW50017   1.926   9.012   8.779
16664SOL    HW150018   1.880   9.094   8.745
16664SOL    HW250019   2.024   9.031   8.788
16665SOL     OW50020   2.229   8.548   7.949
16665SOL    HW150021   2.222   8.631   7.893
16665SOL    HW250022   2.233   8.468   7.889
16666SOL     OW50023   2.428   7.985   8.313
16666SOL    HW150024   2.440   8.051   8.239
16666SOL    HW250025   2.474   8.019   8.396
16667SOL     OW50026   3.114   8.796   7.836
16667SOL    HW150027   3.164   8.873   7.876
16667SOL    HW250028   3.019   8.798   7.868
16668SOL     OW50029   3.134   8.893   8.590
16668SOL    HW150030   3.181   8.906   8.677
16668SOL    HW250031   3.068   8.819   8.599
16669SOL     OW50032   3.444   8.087   7.920
16669SOL    HW150033   3.413   8.148   7.993
16669SOL    HW250034   3.494   8.139   7.851
16670SOL     OW50035   2.216   8.958   8.777
16670SOL    HW150036   2.195   8.914   8.690
16670SOL    HW250037   2.313   8.984   8.780
16671SOL     OW50038   2.264   8.199   9.046
16671SOL    HW150039   2.332   8.254   8.999
16671SOL    HW250040   2.304   8.111   9.073
16672SOL     OW50041   3.449   8.227   9.118
16672SOL    HW150042   3.357   8.265   9.113
16672SOL    HW250043   3.509   8.274   9.053
16673SOL     OW50044   2.875   7.553   9.218
16673SOL    HW150045   2.881   7.638   9.166
16673SOL    HW250046   2.907   7.477   9.161
16674SOL     OW50047   2.366   7.498   9.188
16674SOL    HW150048   2.324   7.441   9.118
16674SOL    HW250049   2.300   7.567   9.220
16675SOL     OW50050   2.435   8.318   8.477
16675SOL    HW150051   2.479   8.407   8.468
16675SOL    HW250052   2.372   8.318   8.554
16676SOL     OW50053   3.222   8.310   8.493
16676SOL    HW150054   3.147   8.310   8.427
16676SOL    HW250055   3.259   8.218   8.502
16677SOL     OW50056   3.071   7.973   7.723
16677SOL    HW150057   3.084   7.889   7.777
16677SOL    HW250058   3.042   8.047   7.783
16678SOL     OW50059   2.169   7.661   8.679
16678SOL    HW150060   2.146   7.698   8.769
16678SOL    HW250061   2.139   7.566   8.673
16679SOL     OW50062   1.899   8.758   8.730
16679SOL    HW150063   1.952   8.709   8.798
16679SOL    HW250064   1.921   8.856   8.735
16680SOL     OW50065   2.594   8.082   8.512
16680SOL    HW150066   2.653   8.056   8.436
16680SOL    HW250067   2.566   8.178   8.501
16681SOL     OW50068   3.590   8.383   9.302
16681SOL    HW150069   3.544   8.376   9.213
16681SOL    HW250070   3.528   8.427   9.368
16682SOL     OW50071   2.169   7.511   8.066
16682SOL    HW150072   2.158   7.605   8.099
16682SOL    HW250073   2.164   7.448   8.143
16683SOL     OW50074   3.484   7.815   7.822
16683SOL    HW150075   3.486   7.739   7.886
16683SOL    HW250076   3.436   7.892   7.862
16684SOL     OW50077   2.885   8.214   8.414
16684SOL    HW150078   2.900   8.235   8.510
16684SOL    HW250079   2.855   8.119   8.405
16685SOL     OW50080   2.842   9.021   9.148
16685SOL    HW150081   2.822   9.065   9.060
16685SOL    HW250082   2.881   8.930   9.132
16686SOL     OW50083   3.721   8.966   9.053
16686SOL    HW150084   3.735   8.993   8.958
16686SOL    HW250085   3.804   8.988   9.106
16687SOL     OW50086   2.212   8.346   9.252
16687SOL    HW150087   2.288   8.390   9.300
16687SOL    HW250088   2.247   8.299   9.170
16688SOL     OW50089   3.402   7.722   7.573
16688SOL    HW150090   3.341   7.647   7.596
16688SOL    HW250091   3.424   7.774   7.656
16689SOL     OW50092   3.165   8.286   7.490
16689SOL    HW150093   3.199   8.193   7.505
16689SOL    HW250094   3.183   8.313   7.395
16690SOL     OW50095   2.930   8.781   8.297
16690SOL    HW150096   2.937   8.697   8.242
16690SOL    HW250097   2.992   8.850   8.261
16691SOL     OW50098   2.181   8.258   8.397
16691SOL    HW150099   2.274   8.294   8.402
16691SOL    HW250100   2.175   8.173   8.449
16692SOL     OW50101   2.201   7.957   8.454
16692SOL    HW150102   2.149   7.874   8.437
16692SOL    HW250103   2.278   7.962   8.390
16693SOL     OW50104   3.000   7.828   9.126
16693SOL    HW150105   2.955   7.891   9.190
16693SOL    HW250106   3.093   7.859   9.109
16694SOL     OW50107   3.022   7.655   8.925
16694SOL    HW150108   3.022   7.719   9.002
16694SOL    HW250109   3.050   7.703   8.842
16695SOL     OW50110   1.870   8.774   7.648
16695SOL    HW150111   1.777   8.795   7.617
16695SOL    HW250112   1.880   8.675   7.661
16696SOL     OW50113   1.950   9.249   8.375
16696SOL    HW150114   1.908   9.163   8.348
16696SOL    HW250115   2.044   9.252   8.341
16697SOL     OW50116   2.366   9.016   8.358
16697SOL    HW150117   2.432   9.090   8.367
16697SOL    HW250118   2.410   8.937   8.316
16698SOL     OW50119   2.864   8.244   8.686
16698SOL    HW150120   2.905   8.212   8.772
16698SOL    HW250121   2.768   8.217   8.683
16699SOL     OW50122   1.902   7.992   8.562
16699SOL    HW150123   1.987   7.959   8.521
16699SOL    HW250124   1.915   8.007   8.660
16700SOL     OW50125   2.051   7.968   9.170
16700SOL    HW150126   2.110   7.928   9.100
16700SOL    HW250127   1.993   8.039   9.129
16701SOL     OW50128   3.231   8.398   9.108
16701SOL    HW150129   3.270   8.487   9.128
16701SOL    HW250130   3.241   8.378   9.011
16702SOL     OW50131   2.677   8.020   7.773
16702SOL    HW150132   2.684   7.931   7.727
16702SOL    HW250133   2.583   8.054   7.765
16703SOL     OW50134   3.519   8.052   8.654
16703SOL    HW150135   3.481   7.983   8.716
16703SOL    HW250136   3.601   8.016   8.610
16704SOL     OW50137   2.114   9.012   9.192
16704SOL    HW150138   2.084   9.069   9.268
16704SOL    HW250139   2.107   8.915   9.218
16705SOL     OW50140   2.533   7.912   8.717
16705SOL    HW150141   2.499   7.823   8.687
16705SOL    HW250142   2.559   7.966   8.637
16706SOL     OW50143   2.792   9.126   8.913
16706SOL    HW150144   2.768   9.108   8.818
16706SOL    HW250145   2.822   9.220   8.923
16707SOL     OW50146   2.335   7.948   7.639
16707SOL    HW150147   2.396   8.028   7.643
16707SOL    HW250148   2.240   7.979   7.646
16708SOL     OW50149   2.021   8.585   8.914
16708SOL    HW150150   2.043   8.524   8.990
16708SOL    HW250151   2.031   8.536   8.828
16709SOL     OW50152   3.209   8.507   8.682
16709SOL    HW150153   3.233   8.444   8.608
16709SOL    HW250154   3.119   8.547   8.664
16710SOL     OW50155   3.164   8.303   7.757
16710SOL    HW150156   3.078   8.272   7.799
16710SOL    HW250157   3.160   8.289   7.658
16711SOL     OW50158   3.621   9.195   8.602
16711SOL    HW150159   3.682   9.225   8.529
16711SOL    HW250160   3.583   9.106   8.580
16712SOL     OW50161   3.114   9.179   8.576
16712SOL    HW150162   3.198   9.184   8.522
16712SOL    HW250163   3.091   9.083   8.594
16713SOL     OW50164   1.945   8.706   8.470
16713SOL    HW150165   1.940   8.705   8.570
16713SOL    HW250166   1.862   8.665   8.432
16714SOL     OW50167   2.550   9.110   9.164
16714SOL    HW150168   2.494   9.191   9.173
16714SOL    HW250169   2.602   9.114   9.078
16715SOL     OW50170   3.588   7.583   7.971
16715SOL    HW150171   3.661   7.566   7.904
16715SOL    HW250172   3.557   7.496   8.009
16716SOL     OW50173   3.250   9.021   7.925
16716SOL    HW150174   3.317   9.033   7.851
16716SOL    HW250175   3.210   9.110   7.948
16717SOL     OW50176   1.992   9.242   9.299
16717SOL    HW150177   1.951   9.168   9.352
16717SOL    HW250178   2.056   9.293   9.357
16718SOL     OW50179   3.142   8.375   8.120
16718SOL    HW150180   3.202   8.294   8.122
16718SOL    HW250181   3.182   8.444   8.060
16719SOL     OW50182   2.692   8.721   8.870
16719SOL    HW150183   2.687   8.754   8.965
16719SOL    HW250184   2.606   8.740   8.824
16720SOL     OW50185   2.534   9.064   7.602
16720SOL    HW150186   2.543   9.074   7.503
16720SOL    HW250187   2.494   8.975   7.623
16721SOL     OW50188   3.512   9.168   8.842
16721SOL    HW150189   3.565   9.178   8.758
16721SOL    HW250190   3.485   9.258   8.876
16722SOL     OW50191   3.703   7.623   8.411
16722SOL    HW150192   3.742   7.538   8.375
16722SOL    HW250193   3.605   7.625   8.392
16723SOL     OW50194   2.125   7.774   8.168
16723SOL    HW150195   2.046   7.825   8.134
16723SOL    HW250196   2.116   7.759   8.266
16724SOL     OW50197   3.056   9.060   7.479
16724SOL    HW150198   3.062   8.967   7.516
16724SOL    HW250199   2.997   9.060   7.399
16725SOL     OW50200   2.684   8.450   8.820
16725SOL    HW150201   2.724   8.449   8.728
16725SOL    HW250202   2.694   8.542   8.860
16726SOL     OW50203   2.778   8.358   7.739
16726SOL    HW150204   2.841   8.396   7.671
16726SOL    HW250205   2.818   8.275   7.778
16727SOL     OW50206   3.366   9.055   7.492
16727SOL    HW150207   3.274   9.092   7.499
16727SOL    HW250208   3.404   9.075   7.402
16728SOL     OW50209   2.234   8.736   8.938
16728SOL    HW150210   2.221   8.829   8.904
16728SOL    HW250211   2.150   8.684   8.925
16729SOL     OW50212   3.476   8.740   8.737
16729SOL    HW150213   3.536   8.743   8.817
16729SOL    HW250214   3.401   8.804   8.750
16730SOL     OW50215   2.901   8.546   8.144
16730SOL    HW150216   2.831   8.499   8.198
16730SOL    HW250217   2.960   8.478   8.101
16731SOL     OW50218   2.876   7.684   8.419
16731SOL    HW150219   2.868   7.648   8.326
16731SOL    HW250220   2.874   7.608   8.484
16732SOL     OW50221   2.452   8.935   7.939
16732SOL    HW150222   2.494   8.877   7.869
16732SOL    HW250223   2.408   9.014   7.895
16733SOL     OW50224   3.571   7.833   8.829
16733SOL    HW150225   3.644   7.902   8.833
16733SOL    HW250226   3.599   7.758   8.770
16734SOL     OW50227   2.117   8.796   7.738
16734SOL    HW150228   2.021   8.797   7.711
16734SOL    HW250229   2.129   8.849   7.822
16735SOL     OW50230   1.967   8.461   9.174
16735SOL    HW150231   1.890   8.428   9.228
16735SOL    HW250232   2.052   8.431   9.216
16736SOL     OW50233   2.534   7.651   8.937
16736SOL    HW150234   2.624   7.635   8.897
16736SOL    HW250235   2.542   7.656   9.036
16737SOL     OW50236   1.937   7.793   7.481
16737SOL    HW150237   1.845   7.765   7.452
16737SOL    HW250238   1.968   7.870   7.425
16738SOL     OW50239   3.302   8.304   8.846
16738SOL    HW150240   3.245   8.356   8.783
16738SOL    HW250241   3.398   8.316   8.822
16739SOL     OW50242   1.934   7.614   7.766
16739SOL    HW150243   1.917   7.697   7.712
16739SOL    HW250244   2.024   7.577   7.744
16740SOL     OW50245   3.045   8.783   7.567
16740SOL    HW150246   2.946   8.772   7.569
16740SOL    HW250247   3.079   8.798   7.660
16741SOL     OW50248   2.475   8.290   8.879
16741SOL    HW150249   2.531   8.371   8.862
16741SOL    HW250250   2.534   8.210   8.882
16742SOL     OW50251   3.355   9.215   8.407
16742SOL    HW150252   3.388   9.279   8.338
16742SOL    HW250253   3.421   9.209   8.482
16743SOL     OW50254   2.578   8.013   9.156
16743SOL    HW150255   2.597   8.078   9.230
16743SOL    HW250256   2.638   7.933   9.165
16744SOL     OW50257   3.312   8.668   9.081
16744SOL    HW150258   3.303   8.658   9.180
16744SOL    HW250259   3.408   8.661   9.055
16745SOL     OW50260   2.252   9.189   9.008
16745SOL    HW150261   2.161   9.230   9.006
16745SOL    HW250262   2.245   9.095   9.040
16746SOL     OW50263   3.536   8.331   8.702
16746SOL    HW150264   3.509   8.242   8.665
16746SOL    HW250265   3.537   8.399   8.629
16747SOL     OW50266   3.087   7.773   7.897
16747SOL    HW150267   3.152   7.699   7.886
16747SOL    HW250268   3.107   7.823   7.981
16748SOL     OW50269   2.456   8.193   8.100
16748SOL    HW150270   2.506   8.278   8.081
16748SOL    HW250271   2.368   8.195   8.052
16749SOL     OW50272   3.639   7.790   9.090
16749SOL    HW150273   3.622   7.821   8.996
16749SOL    HW250274   3.555   7.753   9.128
16750SOL     OW50275   3.592   8.382   8.965
16750SOL    HW150276   3.630   8.473   8.980
16750SOL    HW250277   3.584   8.365   8.866
16751SOL     OW50278   2.721   8.822   7.464
16751SOL    HW150279   2.675   8.837   7.552
16751SOL    HW250280   2.765   8.907   7.434
16752SOL     OW50281   2.523   9.238   8.401
16752SOL    HW150282   2.477   9.326   8.388
16752SOL    HW250283   2.622   9.250   8.394
16753SOL     OW50284   2.721   8.404   8.309
16753SOL    HW150285   2.775   8.335   8.357
16753SOL    HW250286   2.689   8.473   8.375
16754SOL     OW50287   2.945   8.432   7.535
16754SOL    HW150288   2.922   8.485   7.453
16754SOL    HW250289   3.026   8.376   7.516
16755SOL     OW50290   3.723   9.017   8.299
16755SOL    HW150291   3.652   9.005   8.229
16755SOL    HW250292   3.724   8.938   8.359
16756SOL     OW50293   2.083   8.762   9.292
16756SOL    HW150294   2.018   8.689   9.271
16756SOL    HW250295   2.087   8.776   9.390
16757SOL     OW50296   1.941   8.688   8.101
16757SOL    HW150297   1.940   8.641   8.189
16757SOL    HW250298   2.023   8.660   8.050
16758SOL     OW50299   2.534   8.839   9.072
16758SOL    HW150300   2.456   8.789   9.110
16758SOL    HW250301   2.531   8.934   9.103
16759SOL     OW50302   3.686   7.640   8.675
16759SOL    HW150303   3.682   7.550   8.719
16759SOL    HW250304   3.689   7.629   8.576
16760SOL     OW50305   2.290   7.872   7.968
16760SOL    HW150306   2.320   7.800   7.906
16760SOL    HW250307   2.251   7.832   8.051
16761SOL     OW50308   3.567   8.935   8.552
16761SOL    HW150309   3.474   8.910   8.525
16761SOL    HW250310   3.593   8.885   8.634
16762SOL     OW50311   2.179   7.995   8.728
16762SOL    HW150312   2.217   7.936   8.800
16762SOL    HW250313   2.219   7.969   8.640
16763SOL     OW50314   2.674   9.034   8.135
16763SOL    HW150315   2.706   9.044   8.041
16763SOL    HW250316   2.595   8.972   8.137
16764SOL     OW50317   3.286   7.662   8.560
16764SOL    HW150318   3.338   7.597   8.615
16764SOL    HW250319   3.237   7.725   8.621
16765SOL     OW50320   2.863   7.482   8.602
16765SOL    HW150321   2.800   7.410   8.571
16765SOL    HW250322   2.956   7.446   8.602
16766SOL     OW50323   2.632   8.778   7.749
16766SOL    HW150324   2.586   8.691   7.766
16766SOL    HW250325   2.723   8.775   7.790
16767SOL     OW50326   2.480   9.015   8.732
16767SOL    HW150327   2.475   9.097   8.789
16767SOL    HW250328   2.569   9.012   8.687
16768SOL     OW50329   3.214   7.500   7.616
16768SOL    HW150330   3.249   7.459   7.532
16768SOL    HW250331   3.124   7.462   7.636
16769SOL     OW50332   3.162   7.901   8.139
16769SOL    HW150333   3.103   7.981   8.143
16769SOL    HW250334   3.177   7.866   8.232
16770SOL     OW50335   3.455   7.669   8.330
16770SOL    HW150336   3.371   7.668   8.384
16770SOL    HW250337   3.457   7.752   8.274
16771SOL     OW50338   1.901   8.525   7.748
16771SOL    HW150339   2.000   8.514   7.739
16771SOL    HW250340   1.861   8.439   7.780
16772SOL     OW50341   2.737   9.094   7.785
16772SOL    HW150342   2.660   9.059   7.731
16772SOL    HW250343   2.705   9.165   7.847
16773SOL     OW50344   2.092   8.076   9.423
16773SOL    HW150345   1.999   8.074   9.460
16773SOL    HW250346   2.093   8.037   9.331
16774SOL     OW50347   2.087   7.723  10.306
16774SOL    HW150348   2.122   7.706  10.398
16774SOL    HW250349   1.999   7.678  10.294
16775SOL     OW50350   1.881   7.816   9.957
16775SOL    HW150351   1.799   7.859   9.996
16775SOL    HW250352   1.853   7.743   9.894
16776SOL     OW50353   2.431   8.723  10.475
16776SOL    HW150354   2.338   8.716  10.438
16776SOL    HW250355   2.442   8.812  10.519
16777SOL     OW50356   3.417   8.959  10.013
16777SOL    HW150357   3.360   8.943  10.094
16777SOL    HW250358   3.358   8.969   9.933
16778SOL     OW50359   2.997   8.151  10.027
16778SOL    HW150360   3.054   8.229  10.002
16778SOL    HW250361   2.937   8.177  10.103
16779SOL     OW50362   3.617   8.055   9.541
16779SOL    HW150363   3.605   8.042   9.442
16779SOL    HW250364   3.587   7.974   9.590
16780SOL     OW50365   2.630   8.592  10.333
16780SOL    HW150366   2.552   8.609  10.393
16780SOL    HW250367   2.664   8.679  10.297
16781SOL     OW50368   2.712   8.246  11.133
16781SOL    HW150369   2.708   8.322  11.198
16781SOL    HW250370   2.734   8.282  11.042
16782SOL     OW50371   2.547   8.460   9.975
16782SOL    HW150372   2.616   8.444  10.045
16782SOL    HW250373   2.474   8.517  10.013
16783SOL     OW50374   2.548   8.609  11.113
16783SOL    HW150375   2.608   8.688  11.127
16783SOL    HW250376   2.462   8.640  11.072
16784SOL     OW50377   2.197   8.883  10.371
16784SOL    HW150378   2.119   8.852  10.318
16784SOL    HW250379   2.255   8.941  10.314
16785SOL     OW50380   3.322   8.953  10.649
16785SOL    HW150381   3.346   9.047  10.675
16785SOL    HW250382   3.306   8.899  10.731
16786SOL     OW50383   2.300   7.840  10.809
16786SOL    HW150384   2.382   7.784  10.818
16786SOL    HW250385   2.219   7.782  10.813
16787SOL     OW50386   3.465   7.895  10.047
16787SOL    HW150387   3.391   7.941   9.997
16787SOL    HW250388   3.516   7.963  10.100
16788SOL     OW50389   2.093   9.161   9.793
16788SOL    HW150390   2.127   9.238   9.847
16788SOL    HW250391   2.137   9.161   9.703
16789SOL     OW50392   2.989   8.789  11.000
16789SOL    HW150393   3.036   8.789  11.088
16789SOL    HW250394   2.941   8.702  10.989
16790SOL     OW50395   2.092   8.882   9.848
16790SOL    HW150396   2.066   8.978   9.848
16790SOL    HW250397   2.021   8.828   9.893
16791SOL     OW50398   2.102   8.539  10.196
16791SOL    HW150399   2.116   8.455  10.248
16791SOL    HW250400   2.047   8.603  10.251
16792SOL     OW50401   2.482   9.234  10.749
16792SOL    HW150402   2.390   9.217  10.784
16792SOL    HW250403   2.510   9.326  10.775
16793SOL     OW50404   2.468   8.412   9.433
16793SOL    HW150405   2.475   8.496   9.379
16793SOL    HW250406   2.514   8.425   9.521
16794SOL     OW50407   3.456   7.562  10.790
16794SOL    HW150408   3.438   7.629  10.718
16794SOL    HW250409   3.453   7.608  10.879
16795SOL     OW50410   1.984   8.091   9.873
16795SOL    HW150411   1.939   8.003   9.890
16795SOL    HW250412   1.983   8.145   9.957
16796SOL     OW50413   3.704   9.215   9.669
16796SOL    HW150414   3.758   9.186   9.749
16796SOL    HW250415   3.734   9.305   9.640
16797SOL     OW50416   1.889   9.044   9.427
16797SOL    HW150417   1.870   8.948   9.448
16797SOL    HW250418   1.856   9.102   9.502
16798SOL     OW50419   3.551   8.370   9.922
16798SOL    HW150420   3.646   8.341   9.930
16798SOL    HW250421   3.543   8.435   9.847
16799SOL     OW50422   3.503   8.556   9.742
16799SOL    HW150423   3.589   8.558   9.690
16799SOL    HW250424   3.517   8.603   9.830
16800SOL     OW50425   1.975   8.185  10.907
16800SOL    HW150426   2.063   8.172  10.952
16800SOL    HW250427   1.962   8.282  10.885
16801SOL     OW50428   2.475   8.813  10.036
16801SOL    HW150429   2.426   8.726  10.045
16801SOL    HW250430   2.452   8.856   9.949
16802SOL     OW50431   3.155   8.676  10.733
16802SOL    HW150432   3.192   8.603  10.675
16802SOL    HW250433   3.207   8.681  10.818
16803SOL     OW50434   2.671   7.452   9.812
16803SOL    HW150435   2.711   7.543   9.803
16803SOL    HW250436   2.571   7.460   9.818
16804SOL     OW50437   2.059   8.424  10.574
16804SOL    HW150438   2.148   8.379  10.560
16804SOL    HW250439   1.986   8.359  10.555
16805SOL     OW50440   3.387   8.447   9.500
16805SOL    HW150441   3.324   8.371   9.513
16805SOL    HW250442   3.435   8.465   9.586
16806SOL     OW50443   3.049   9.240  10.926
16806SOL    HW150444   3.073   9.300  10.850
16806SOL    HW250445   3.056   9.145  10.896
16807SOL     OW50446   2.179   7.699  11.111
16807SOL    HW150447   2.250   7.770  11.117
16807SOL    HW250448   2.091   7.738  11.139
16808SOL     OW50449   3.328   8.865  10.263
16808SOL    HW150450   3.269   8.871  10.343
16808SOL    HW250451   3.313   8.777  10.217
16809SOL     OW50452   3.529   9.162   9.882
16809SOL    HW150453   3.488   9.139   9.794
16809SOL    HW250454   3.511   9.088   9.947
16810SOL     OW50455   2.460   8.177   9.580
16810SOL    HW150456   2.484   8.246   9.512
16810SOL    HW250457   2.382   8.210   9.634
16811SOL     OW50458   3.143   7.793  10.254
16811SOL    HW150459   3.057   7.743  10.241
16811SOL    HW250460   3.205   7.739  10.310
16812SOL     OW50461   3.438   9.110   9.617
16812SOL    HW150462   3.527   9.156   9.620
16812SOL    HW250463   3.417   9.086   9.522
16813SOL     OW50464   2.669   8.053  10.775
16813SOL    HW150465   2.622   8.050  10.864
16813SOL    HW250466   2.618   7.998  10.709
16814SOL     OW50467   3.256   7.917  10.984
16814SOL    HW150468   3.236   7.960  11.072
16814SOL    HW250469   3.334   7.855  10.993
16815SOL     OW50470   2.835   8.338  10.882
16815SOL    HW150471   2.881   8.254  10.853
16815SOL    HW250472   2.779   8.372  10.807
16816SOL     OW50473   2.853   7.858  10.552
16816SOL    HW150474   2.776   7.892  10.606
16816SOL    HW250475   2.819   7.807  10.473
16817SOL     OW50476   2.903   8.149   9.739
16817SOL    HW150477   2.929   8.145   9.835
16817SOL    HW250478   2.818   8.098   9.725
16818SOL     OW50479   1.938   8.259  10.099
16818SOL    HW150480   2.037   8.247  10.108
16818SOL    HW250481   1.914   8.354  10.120
16819SOL     OW50482   1.992   9.269  10.881
16819SOL    HW150483   1.982   9.254  10.980
16819SOL    HW250484   1.906   9.305  10.845
16820SOL     OW50485   2.727   7.796   9.505
16820SOL    HW150486   2.786   7.859   9.456
16820SOL    HW250487   2.746   7.702   9.476
16821SOL     OW50488   3.581   8.033  11.141
16821SOL    HW150489   3.555   8.122  11.105
16821SOL    HW250490   3.579   7.965  11.068
16822SOL     OW50491   3.224   8.592   9.855
16822SOL    HW150492   3.307   8.563   9.807
16822SOL    HW250493   3.175   8.659   9.799
16823SOL     OW50494   2.412   7.644  10.195
16823SOL    HW150495   2.407   7.639  10.295
16823SOL    HW250496   2.414   7.740  10.166
16824SOL     OW50497   2.870   8.904   9.787
16824SOL    HW150498   2.824   8.976   9.735
16824SOL    HW250499   2.866   8.924   9.885
16825SOL     OW50500   2.213   9.249  10.163
16825SOL    HW150501   2.263   9.163  10.169
16825SOL    HW250502   2.278   9.326  10.160
16826SOL     OW50503   3.657   8.514  10.183
16826SOL    HW150504   3.595   8.499  10.107
16826SOL    HW250505   3.605   8.525  10.268
16827SOL     OW50506   3.089   8.998  10.816
16827SOL    HW150507   3.095   8.921  10.880
16827SOL    HW250508   3.037   8.972  10.736
16828SOL     OW50509   2.183   8.391   9.552
16828SOL    HW150510   2.265   8.430   9.510
16828SOL    HW250511   2.156   8.309   9.503
16829SOL     OW50512   3.320   8.183  10.038
16829SOL    HW150513   3.315   8.118  10.113
16829SOL    HW250514   3.400   8.242  10.051
16830SOL     OW50515   2.323   8.714  11.037
16830SOL    HW150516   2.273   8.715  10.951
16830SOL    HW250517   2.260   8.696  11.113
16831SOL     OW50518   2.973   9.224   9.547
16831SOL    HW150519   2.913   9.162   9.597
16831SOL    HW250520   3.004   9.180   9.462
16832SOL     OW50521   2.064   7.733  10.808
16832SOL    HW150522   1.984   7.793  10.795
16832SOL    HW250523   2.054   7.684  10.894
16833SOL     OW50524   3.494   8.825   9.391
16833SOL    HW150525   3.462   8.919   9.381
16833SOL    HW250526   3.418   8.762   9.379
16834SOL     OW50527   2.326   9.191   9.633
16834SOL    HW150528   2.359   9.230   9.719
16834SOL    HW250529   2.402   9.184   9.568
16835SOL     OW50530   3.262   7.555   9.736
16835SOL    HW150531   3.238   7.518   9.646
16835SOL    HW250532   3.361   7.571   9.740
16836SOL     OW50533   2.111   9.233  10.551
16836SOL    HW150534   2.168   9.168  10.601
16836SOL    HW250535   2.095   9.200  10.458
16837SOL     OW50536   2.802   9.146  10.214
16837SOL    HW150537   2.882   9.089  10.235
16837SOL    HW250538   2.753   9.106  10.137
16838SOL     OW50539   2.244   8.148   9.790
16838SOL    HW150540   2.289   8.058   9.787
16838SOL    HW250541   2.150   8.137   9.823
16839SOL     OW50542   3.409   7.670  11.039
16839SOL    HW150543   3.404   7.707  11.131
16839SOL    HW250544   3.337   7.601  11.027
16840SOL     OW50545   2.476   7.570   9.427
16840SOL    HW150546   2.574   7.548   9.434
16840SOL    HW250547   2.445   7.553   9.334
16841SOL     OW50548   2.643   7.712  11.059
16841SOL    HW150549   2.710   7.651  11.102
16841SOL    HW250550   2.570   7.731  11.124
16842SOL     OW50551   2.750   8.962  10.505
16842SOL    HW150552   2.727   8.937  10.411
16842SOL    HW250553   2.811   8.893  10.544
16843SOL     OW50554   3.213   8.038  10.743
16843SOL    HW150555   3.241   7.995  10.828
16843SOL    HW250556   3.238   8.134  10.744
16844SOL     OW50557   2.665   8.850  10.234
16844SOL    HW150558   2.755   8.864  10.192
16844SOL    HW250559   2.594   8.852  10.163
16845SOL     OW50560   2.784   7.951  10.209
16845SOL    HW150561   2.759   7.942  10.113
16845SOL    HW250562   2.832   7.869  10.240
16846SOL     OW50563   2.401   7.512   9.822
16846SOL    HW150564   2.320   7.513   9.880
16846SOL    HW250565   2.404   7.595   9.767
16847SOL     OW50566   3.296   8.636   9.351
16847SOL    HW150567   3.328   8.560   9.408
16847SOL    HW250568   3.204   8.663   9.381
16848SOL     OW50569   2.159   7.483   9.481
16848SOL    HW150570   2.208   7.567   9.460
16848SOL    HW250571   2.221   7.418   9.526
16849SOL     OW50572   2.797   7.684   9.790
16849SOL    HW150573   2.749   7.725   9.712
16849SOL    HW250574   2.896   7.682   9.771
16850SOL     OW50575   2.938   8.131  10.774
16850SOL    HW150576   2.858   8.070  10.777
16850SOL    HW250577   3.019   8.078  10.750
16851SOL     OW50578   3.089   9.018  10.103
16851SOL    HW150579   3.110   9.092  10.038
16851SOL    HW250580   3.157   9.018  10.176
16852SOL     OW50581   2.321   8.600  10.051
16852SOL    HW150582   2.250   8.573  10.116
16852SOL    HW250583   2.295   8.572   9.958
16853SOL     OW50584   3.133   9.245   9.901
16853SOL    HW150585   3.177   9.309   9.837
16853SOL    HW250586   3.083   9.297   9.971
16854SOL     OW50587   2.894   7.997   9.326
16854SOL    HW150588   2.853   8.079   9.287
16854SOL    HW250589   2.958   8.023   9.399
16855SOL     OW50590   1.940   8.004  10.696
16855SOL    HW150591   2.032   8.003  10.655
16855SOL    HW250592   1.934   8.078  10.763
16856SOL     OW50593   2.423   7.670  10.457
16856SOL    HW150594   2.461   7.586  10.494
16856SOL    HW250595   2.335   7.689  10.501
16857SOL     OW50596   2.728   7.902   9.952
16857SOL    HW150597   2.696   7.974   9.890
16857SOL    HW250598   2.752   7.821   9.899
16858SOL     OW50599   2.879   7.487  10.063
16858SOL    HW150600   2.807   7.492   9.994
16858SOL    HW250601   2.855   7.418  10.132
16859SOL     OW50602   3.291   8.621  10.177
16859SOL    HW150603   3.236   8.537  10.170
16859SOL    HW250604   3.317   8.650  10.085
16860SOL     OW50605   3.328   8.038  10.302
16860SOL    HW150606   3.298   7.943  10.309
16860SOL    HW250607   3.401   8.054  10.368
16861SOL     OW50608   3.719   8.281   9.687
16861SOL    HW150609   3.761   8.217   9.751
16861SOL    HW250610   3.681   8.230   9.609
16862SOL     OW50611   2.350   8.833   9.484
16862SOL    HW150612   2.263   8.818   9.531
16862SOL    HW250613   2.333   8.859   9.389
16863SOL     OW50614   3.526   8.728   9.967
16863SOL    HW150615   3.625   8.736   9.981
16863SOL    HW250616   3.481   8.812   9.998
16864SOL     OW50617   3.252   8.023   9.388
16864SOL    HW150618   3.198   8.002   9.469
16864SOL    HW250619   3.343   7.982   9.397
16865SOL     OW50620   2.389   7.704   9.638
16865SOL    HW150621   2.416   7.645   9.563
16865SOL    HW250622   2.389   7.799   9.607
16866SOL     OW50623   3.616   8.671  10.898
16866SOL    HW150624   3.707   8.632  10.885
16866SOL    HW250625   3.624   8.767  10.922
16867SOL     OW50626   2.926   8.795  10.650
16867SOL    HW150627   2.846   8.772  10.705
16867SOL    HW250628   3.009   8.769  10.699
16868SOL     OW50629   3.454   9.077  10.935
16868SOL    HW150630   3.481   9.111  10.845
16868SOL    HW250631   3.533   9.039  10.981
16869SOL     OW50632   2.973   8.643  10.410
16869SOL    HW150633   2.933   8.687  10.491
16869SOL    HW250634   2.932   8.680  10.327
16870SOL     OW50635   3.500   8.547  10.389
16870SOL    HW150636   3.505   8.628  10.448
16870SOL    HW250637   3.414   8.549  10.338
16871SOL     OW50638   2.777   7.537  10.712
16871SOL    HW150639   2.802   7.517  10.617
16871SOL    HW250640   2.849   7.593  10.754
16872SOL     OW50641   2.842   8.564  11.029
16872SOL    HW150642   2.743   8.570  11.039
16872SOL    HW250643   2.865   8.484  10.973
16873SOL     OW50644   2.567   8.498   9.678
16873SOL    HW150645   2.553   8.505   9.777
16873SOL    HW250646   2.651   8.447   9.660
16874SOL     OW50647   2.272   8.261  10.561
16874SOL    HW150648   2.358   8.273  10.611
16874SOL    HW250649   2.230   8.174  10.588
16875SOL     OW50650   3.136   7.834  10.572
16875SOL    HW150651   3.157   7.908  10.636
16875SOL    HW250652   3.047   7.851  10.529
16876SOL     OW50653   1.926   9.012  10.641
16876SOL    HW150654   1.880   9.094  10.607
16876SOL    HW250655   2.024   9.031  10.650
16877SOL     OW50656   2.229   8.548   9.811
16877SOL    HW150657   2.222   8.631   9.755
16877SOL    HW250658   2.233   8.468   9.751
16878SOL     OW50659   2.428   7.985  10.175
16878SOL    HW150660   2.440   8.051  10.101
16878SOL    HW250661   2.474   8.019  10.258
16879SOL     OW50662   3.114   8.796   9.698
16879SOL    HW150663   3.164   8.873   9.738
16879SOL    HW250664   3.019   8.798   9.730
16880SOL     OW50665   3.134   8.893  10.452
16880SOL    HW150666   3.181   8.906  10.539
16880SOL    HW250667   3.068   8.819  10.461
16881SOL     OW50668   3.444   8.087   9.782
16881SOL    HW150669   3.413   8.148   9.855
16881SOL    HW250670   3.494   8.139   9.713
16882SOL     OW50671   2.216   8.958  10.639
16882SOL    HW150672   2.195   8.914  10.552
16882SOL    HW250673   2.313   8.984  10.642
16883SOL     OW50674   2.264   8.199  10.908
16883SOL    HW150675   2.332   8.254  10.861
16883SOL    HW250676   2.304   8.111  10.935
16884SOL     OW50677   3.449   8.227  10.980
16884SOL    HW150678   3.357   8.265  10.975
16884SOL    HW250679   3.509   8.274  10.915
16885SOL     OW50680   2.875   7.553  11.080
16885SOL    HW150681   2.881   7.638  11.028
16885SOL    HW250682   2.907   7.477  11.023
16886SOL     OW50683   2.366   7.498  11.050
16886SOL    HW150684   2.324   7.441  10.980
16886SOL    HW250685   2.300   7.567  11.082
16887SOL     OW50686   2.435   8.318  10.339
16887SOL    HW150687   2.479   8.407  10.330
16887SOL    HW250688   2.372   8.318  10.416
16888SOL     OW50689   3.222   8.310  10.355
16888SOL    HW150690   3.147   8.310  10.289
16888SOL    HW250691   3.259   8.218  10.364
16889SOL     OW50692   3.071   7.973   9.585
16889SOL    HW150693   3.084   7.889   9.639
16889SOL    HW250694   3.042   8.047   9.645
16890SOL     OW50695   2.169   7.661  10.541
16890SOL    HW150696   2.146   7.698  10.631
16890SOL    HW250697   2.139   7.566  10.535
16891SOL     OW50698   1.899   8.758  10.592
16891SOL    HW150699   1.952   8.709  10.660
16891SOL    HW250700   1.921   8.856  10.597
16892SOL     OW50701   2.594   8.082  10.374
16892SOL    HW150702   2.653   8.056  10.298
16892SOL    HW250703   2.566   8.178  10.363
16893SOL     OW50704   3.590   8.383  11.164
16893SOL    HW150705   3.544   8.376  11.075
16893SOL    HW250706   3.528   8.427  11.230
16894SOL     OW50707   2.169   7.511   9.928
16894SOL    HW150708   2.158   7.605   9.961
16894SOL    HW250709   2.164   7.448  10.005
16895SOL     OW50710   3.484   7.815   9.684
16895SOL    HW150711   3.486   7.739   9.748
16895SOL    HW250712   3.436   7.892   9.724
16896SOL     OW50713   2.885   8.214  10.276
16896SOL    HW150714   2.900   8.235  10.372
16896SOL    HW250715   2.855   8.119  10.267
16897SOL     OW50716   2.842   9.021  11.010
16897SOL    HW150717   2.822   9.065  10.922
16897SOL    HW250718   2.881   8.930  10.994
16898SOL     OW50719   3.721   8.966  10.915
16898SOL    HW150720   3.735   8.993  10.820
16898SOL    HW250721   3.804   8.988  10.968
16899SOL     OW50722   2.212   8.346  11.114
16899SOL    HW150723   2.288   8.390  11.162
16899SOL    HW250724   2.247   8.299  11.032
16900SOL     OW50725   3.402   7.722   9.435
16900SOL    HW150726   3.341   7.647   9.458
16900SOL    HW250727   3.424   7.774   9.518
16901SOL     OW50728   3.165   8.286   9.352
16901SOL    HW150729   3.199   8.193   9.367
16901SOL    HW250730   3.183   8.313   9.257
16902SOL     OW50731   2.930   8.781  10.159
16902SOL    HW150732   2.937   8.697  10.104
16902SOL    HW250733   2.992   8.850  10.123
16903SOL     OW50734   2.181   8.258  10.259
16903SOL    HW150735   2.274   8.294  10.264
16903SOL    HW250736   2.175   8.173  10.311
16904SOL     OW50737   2.201   7.957  10.316
16904SOL    HW150738   2.149   7.874  10.299
16904SOL    HW250739   2.278   7.962  10.252
16905SOL     OW50740   3.000   7.828  10.988
16905SOL    HW150741   2.955   7.891  11.052
16905SOL    HW250742   3.093   7.859  10.971
16906SOL     OW50743   3.022   7.655  10.787
16906SOL    HW150744   3.022   7.719  10.864
16906SOL    HW250745   3.050   7.703  10.704
16907SOL     OW50746   1.870   8.774   9.510
16907SOL    HW150747   1.777   8.795   9.479
16907SOL    HW250748   1.880   8.675   9.523
16908SOL     OW50749   1.950   9.249  10.237
16908SOL    HW150750   1.908   9.163  10.210
16908SOL    HW250751   2.044   9.252  10.203
16909SOL     OW50752   2.366   9.016  10.220
16909SOL    HW150753   2.432   9.090  10.229
16909SOL    HW250754   2.410   8.937  10.178
16910SOL     OW50755   2.864   8.244  10.548
16910SOL    HW150756   2.905   8.212  10.634
16910SOL    HW250757   2.768   8.217  10.545
16911SOL     OW50758   1.902   7.992  10.424
16911SOL    HW150759   1.987   7.959  10.383
16911SOL    HW250760   1.915   8.007  10.522
16912SOL     OW50761   2.051   7.968  11.032
16912SOL    HW150762   2.110   7.928  10.962
16912SOL    HW250763   1.993   8.039  10.991
16913SOL     OW50764   3.231   8.398  10.970
16913SOL    HW150765   3.270   8.487  10.990
16913SOL    HW250766   3.241   8.378  10.873
16914SOL     OW50767   2.677   8.020   9.635
16914SOL    HW150768   2.684   7.931   9.589
16914SOL    HW250769   2.583   8.054   9.627
16915SOL     OW50770   3.519   8.052  10.516
16915SOL    HW150771   3.481   7.983  10.578
16915SOL    HW250772   3.601   8.016  10.472
16916SOL     OW50773   2.114   9.012  11.054
16916SOL    HW150774   2.084   9.069  11.130
16916SOL    HW250775   2.107   8.915  11.080
16917SOL     OW50776   2.533   7.912  10.579
16917SOL    HW150777   2.499   7.823  10.549
16917SOL    HW250778   2.559   7.966  10.499
16918SOL     OW50779   2.792   9.126  10.775
16918SOL    HW150780   2.768   9.108  10.680
16918SOL    HW250781   2.822   9.220  10.785
16919SOL     OW50782   2.335   7.948   9.501
16919SOL    HW150783   2.396   8.028   9.505
16919SOL    HW250784   2.240   7.979   9.508
16920SOL     OW50785   2.021   8.585  10.776
16920SOL    HW150786   2.043   8.524  10.852
16920SOL    HW250787   2.031   8.536  10.690
16921SOL     OW50788   3.209   8.507  10.544
16921SOL    HW150789   3.233   8.444  10.470
16921SOL    HW250790   3.119   8.547  10.526
16922SOL     OW50791   3.164   8.303   9.619
16922SOL    HW150792   3.078   8.272   9.661
16922SOL    HW250793   3.160   8.289   9.520
16923SOL     OW50794   3.621   9.195  10.464
16923SOL    HW150795   3.682   9.225  10.391
16923SOL    HW250796   3.583   9.106  10.442
16924SOL     OW50797   3.114   9.179  10.438
16924SOL    HW150798   3.198   9.184  10.384
16924SOL    HW250799   3.091   9.083  10.456
16925SOL     OW50800   1.945   8.706  10.332
16925SOL    HW150801   1.940   8.705  10.432
16925SOL    HW250802   1.862   8.665  10.294
16926SOL     OW50803   2.550   9.110  11.026
16926SOL    HW150804   2.494   9.191  11.035
16926SOL    HW250805   2.602   9.114  10.940
16927SOL     OW50806   3.588   7.583   9.833
16927SOL    HW150807   3.661   7.566   9.766
16927SOL    HW250808   3.557   7.496   9.871
16928SOL     OW50809   3.250   9.021   9.787
16928SOL    HW150810   3.317   9.033   9.713
16928SOL    HW250811   3.210   9.110   9.810
16929SOL     OW50812   1.992   9.242  11.161
16929SOL    HW150813   1.951   9.168  11.214
16929SOL    HW250814   2.056   9.293  11.219
16930SOL     OW50815   3.142   8.375   9.982
16930SOL    HW150816   3.202   8.294   9.984
16930SOL    HW250817   3.182   8.444   9.922
16931SOL     OW50818   2.692   8.721  10.732
16931SOL    HW150819   2.687   8.754  10.827
16931SOL    HW250820   2.606   8.740  10.686
16932SOL     OW50821   2.534   9.064   9.464
16932SOL    HW150822   2.543   9.074   9.365
16932SOL    HW250823   2.494   8.975   9.485
16933SOL     OW50824   3.512   9.168  10.704
16933SOL    HW150825   3.565   9.178  10.620
16933SOL    HW250826   3.485   9.258  10.738
16934SOL     OW50827   3.703   7.623  10.273
16934SOL    HW150828   3.742   7.538  10.237
16934SOL    HW250829   3.605   7.625  10.254
16935SOL     OW50830   2.125   7.774  10.030
16935SOL    HW150831   2.046   7.825   9.996
16935SOL    HW250832   2.116   7.759  10.128
16936SOL     OW50833   3.056   9.060   9.341
16936SOL    HW150834   3.062   8.967   9.378
16936SOL    HW250835   2.997   9.060   9.261
16937SOL     OW50836   2.684   8.450  10.682
16937SOL    HW150837   2.724   8.449  10.590
16937SOL    HW250838   2.694   8.542  10.722
16938SOL     OW50839   2.778   8.358   9.601
16938SOL    HW150840   2.841   8.396   9.533
16938SOL    HW250841   2.818   8.275   9.640
16939SOL     OW50842   3.366   9.055   9.354
16939SOL    HW150843   3.274   9.092   9.361
16939SOL    HW250844   3.404   9.075   9.264
16940SOL     OW50845   2.234   8.736  10.800
16940SOL    HW150846   2.221   8.829  10.766
16940SOL    HW250847   2.150   8.684  10.787
16941SOL     OW50848   3.476   8.740  10.599
16941SOL    HW150849   3.536   8.743  10.679
16941SOL    HW250850   3.401   8.804  10.612
16942SOL     OW50851   2.901   8.546  10.006
16942SOL    HW150852   2.831   8.499  10.060
16942SOL    HW250853   2.960   8.478   9.963
16943SOL     OW50854   2.876   7.684  10.281
16943SOL    HW150855   2.868   7.648  10.188
16943SOL    HW250856   2.874   7.608  10.346
16944SOL     OW50857   2.452   8.935   9.801
16944SOL    HW150858   2.494   8.877   9.731
16944SOL    HW250859   2.408   9.014   9.757
16945SOL     OW50860   3.571   7.833  10.691
16945SOL    HW150861   3.644   7.902  10.695
16945SOL    HW250862   3.599   7.758  10.632
16946SOL     OW50863   2.117   8.796   9.600
16946SOL    HW150864   2.021   8.797   9.573
16946SOL    HW250865   2.129   8.849   9.684
16947SOL     OW50866   1.967   8.461  11.036
16947SOL    HW150867   1.890   8.428  11.090
16947SOL    HW250868   2.052   8.431  11.078
16948SOL     OW50869   2.534   7.651  10.799
16948SOL    HW150870   2.624   7.635  10.759
16948SOL    HW250871   2.542   7.656  10.898
16949SOL     OW50872   1.937   7.793   9.343
16949SOL    HW150873   1.845   7.765   9.314
16949SOL    HW250874   1.968   7.870   9.287
16950SOL     OW50875   3.302   8.304  10.708
16950SOL    HW150876   3.245   8.356  10.645
16950SOL    HW250877   3.398   8.316  10.684
16951SOL     OW50878   1.934   7.614   9.628
16951SOL    HW150879   1.917   7.697   9.574
16951SOL    HW250880   2.024   7.577   9.606
16952SOL     OW50881   3.045   8.783   9.429
16952SOL    HW150882   2.946   8.772   9.431
16952SOL    HW250883   3.079   8.798   9.522
16953SOL     OW50884   2.475   8.290  10.741
16953SOL    HW150885   2.531   8.371  10.724
16953SOL    HW250886   2.534   8.210  10.744
16954SOL     OW50887   3.355   9.215  10.269
16954SOL    HW150888   3.388   9.279  10.200
16954SOL    HW250889   3.421   9.209  10.344
16955SOL     OW50890   2.578   8.013  11.018
16955SOL    HW150891   2.597   8.078  11.092
16955SOL    HW250892   2.638   7.933  11.027
16956SOL     OW50893   3.312   8.668  10.943
16956SOL    HW150894   3.303   8.658  11.042
16956SOL    HW250895   3.408   8.661  10.917
16957SOL     OW50896   2.252   9.189  10.870
16957SOL    HW150897   2.161   9.230  10.868
16957SOL    HW250898   2.245   9.095  10.902
16958SOL     OW50899   3.536   8.331  10.564
16958SOL    HW150900   3.509   8.242  10.527
16958SOL    HW250901   3.537   8.399  10.491
16959SOL     OW50902   3.087   7.773   9.759
16959SOL    HW150903   3.152   7.699   9.748
16959SOL    HW250904   3.107   7.823   9.843
16960SOL     OW50905   2.456   8.193   9.962
16960SOL    HW150906   2.506   8.278   9.943
16960SOL    HW250907   2.368   8.195   9.914
16961SOL     OW50908   3.639   7.790  10.952
16961SOL    HW150909   3.622   7.821  10.858
16961SOL    HW250910   3.555   7.753  10.990
16962SOL     OW50911   3.592   8.382  10.827
16962SOL    HW150912   3.630   8.473  10.842
16962SOL    HW250913   3.584   8.365  10.728
16963SOL     OW50914   2.721   8.822   9.326
16963SOL    HW150915   2.675   8.837   9.414
16963SOL    HW250916   2.765   8.907   9.296
16964SOL     OW50917   2.523   9.238  10.263
16964SOL    HW150918   2.477   9.326  10.250
16964SOL    HW250919   2.622   9.250  10.256
16965SOL     OW50920   2.721   8.404  10.171
16965SOL    HW150921   2.775   8.335  10.219
16965SOL    HW250922   2.689   8.473  10.237
16966SOL     OW50923   2.945   8.432   9.397
16966SOL    HW150924   2.922   8.485   9.315
16966SOL    HW250925   3.026   8.376   9.378
16967SOL     OW50926   3.723   9.017  10.161
16967SOL    HW150927   3.652   9.005  10.091
16967SOL    HW250928   3.724   8.938  10.221
16968SOL     OW50929   2.083   8.762  11.154
16968SOL    HW150930   2.018   8.689  11.133
16968SOL    HW250931   2.087   8.776  11.252
16969SOL     OW50932   1.941   8.688   9.963
16969SOL    HW150933   1.940   8.641  10.051
16969SOL    HW250934   2.023   8.660   9.912
16970SOL     OW50935   2.534   8.839  10.934
16970SOL    HW150936   2.456   8.789  10.972
16970SOL    HW250937   2.531   8.934  10.965
16971SOL     OW50938   3.686   7.640  10.537
16971SOL    HW150939   3.682   7.550  10.581
16971SOL    HW250940   3.689   7.629  10.438
16972SOL     OW50941   2.290   7.872   9.830
16972SOL    HW150942   2.320   7.800   9.768
16972SOL    HW250943   2.251   7.832   9.913
16973SOL     OW50944   3.567   8.935  10.414
16973SOL    HW150945   3.474   8.910  10.387
16973SOL    HW250946   3.593   8.885  10.496
16974SOL     OW50947   2.179   7.995  10.590
16974SOL    HW150948   2.217   7.936  10.662
16974SOL    HW250949   2.219   7.969  10.502
16975SOL     OW50950   2.674   9.034   9.997
16975SOL    HW150951   2.706   9.044   9.903
16975SOL    HW250952   2.595   8.972   9.999
16976SOL     OW50953   3.286   7.662  10.422
16976SOL    HW150954   3.338   7.597  10.477
16976SOL    HW250955   3.237   7.725  10.483
16977SOL     OW50956   2.863   7.482  10.464
16977SOL    HW150957   2.800   7.410  10.433
16977SOL    HW250958   2.956   7.446  10.464
16978SOL     OW50959   2.632   8.778   9.611
16978SOL    HW150960   2.586   8.691   9.628
16978SOL    HW250961   2.723   8.775   9.652
16979SOL     OW50962   2.480   9.015  10.594
16979SOL    HW150963   2.475   9.097  10.651
16979SOL    HW250964   2.569   9.012  10.549
16980SOL     OW50965   3.214   7.500   9.478
16980SOL    HW150966   3.249   7.459   9.394
16980SOL    HW250967   3.124   7.462   9.498
16981SOL     OW50968   3.162   7.901  10.001
16981SOL    HW150969   3.103   7.981  10.005
16981SOL    HW250970   3.177   7.866  10.094
16982SOL     OW50971   3.455   7.669  10.192
16982SOL    HW150972   3.371   7.668  10.246
16982SOL    HW250973   3.457   7.752  10.136
16983SOL     OW50974   1.901   8.525   9.610
16983SOL    HW150975   2.000   8.514   9.601
16983SOL    HW250976   1.861   8.439   9.642
16984SOL     OW50977   2.737   9.094   9.647
16984SOL    HW150978   2.660   9.059   9.593
16984SOL    HW250979   2.705   9.165   9.709
16985SOL     OW50980   2.092   8.076  11.285
16985SOL    HW150981   1.999   8.074  11.322
16985SOL    HW250982   2.093   8.037  11.193
16986SOL     OW50983   2.087   7.723  12.168
16986SOL    HW150984   2.122   7.706  12.260
16986SOL    HW250985   1.999   7.678  12.156
16987SOL     OW50986   1.881   7.816  11.819
16987SOL    HW150987   1.799   7.859  11.858
16987SOL    HW250988   1.853   7.743  11.756
16988SOL     OW50989   2.431   8.723  12.337
16988SOL    HW150990   2.338   8.716  12.300
16988SOL    HW250991   2.442   8.812  12.381
16989SOL     OW50992   3.417   8.959  11.875
16989SOL    HW150993   3.360   8.943  11.956
16989SOL    HW250994   3.358   8.969  11.795
16990SOL     OW50995   2.997   8.151  11.889
16990SOL    HW150996   3.054   8.229  11.864
16990SOL    HW250997   2.937   8.177  11.965
16991SOL     OW50998   3.617   8.055  11.403
16991SOL    HW150999   3.605   8.042  11.304
16991SOL    HW251000   3.587   7.974  11.452
16992SOL     OW51001   2.630   8.592  12.195
16992SOL    HW151002   2.552   8.609  12.255
16992SOL    HW251003   2.664   8.679  12.159
16993SOL     OW51004   2.547   8.460  11.837
16993SOL    HW151005   2.616   8.444  11.907
16993SOL    HW251006   2.474   8.517  11.875
16994SOL     OW51007   2.197   8.883  12.233
16994SOL    HW151008   2.119   8.852  12.180
16994SOL    HW251009   2.255   8.941  12.176
16995SOL     OW51010   3.322   8.953  12.511
16995SOL    HW151011   3.346   9.047  12.537
16995SOL    HW251012   3.306   8.899  12.593
16996SOL     OW51013   2.300   7.840  12.671
16996SOL    HW151014   2.382   7.784  12.680
16996SOL    HW251015   2.219   7.782  12.675
16997SOL     OW51016   3.465   7.895  11.909
16997SOL    HW151017   3.391   7.941  11.859
16997SOL    HW251018   3.516   7.963  11.962
16998SOL     OW51019   2.093   9.161  11.655
16998SOL    HW151020   2.127   9.238  11.709
16998SOL    HW251021   2.137   9.161  11.565
16999SOL     OW51022   2.092   8.882  11.710
16999SOL    HW151023   2.066   8.978  11.710
16999SOL    HW251024   2.021   8.828  11.755
17000SOL     OW51025   2.102   8.539  12.058
17000SOL    HW151026   2.116   8.455  12.110
17000SOL    HW251027   2.047   8.603  12.113
17001SOL     OW51028   2.482   9.234  12.611
17001SOL    HW151029   2.390   9.217  12.646
17001SOL    HW251030   2.510   9.326  12.637
17002SOL     OW51031   2.468   8.412  11.295
17002SOL    HW151032   2.475   8.496  11.241
17002SOL    HW251033   2.514   8.425  11.383
17003SOL     OW51034   3.456   7.562  12.652
17003SOL    HW151035   3.438   7.629  12.580
17003SOL    HW251036   3.453   7.608  12.741
17004SOL     OW51037   1.984   8.091  11.735
17004SOL    HW151038   1.939   8.003  11.752
17004SOL    HW251039   1.983   8.145  11.819
17005SOL     OW51040   3.704   9.215  11.531
17005SOL    HW151041   3.758   9.186  11.611
17005SOL    HW251042   3.734   9.305  11.502
17006SOL     OW51043   1.889   9.044  11.289
17006SOL    HW151044   1.870   8.948  11.310
17006SOL    HW251045   1.856   9.102  11.364
17007SOL     OW51046   3.551   8.370  11.784
17007SOL    HW151047   3.646   8.341  11.792
17007SOL    HW251048   3.543   8.435  11.709
17008SOL     OW51049   3.503   8.556  11.604
17008SOL    HW151050   3.589   8.558  11.552
17008SOL    HW251051   3.517   8.603  11.692
17009SOL     OW51052   2.475   8.813  11.898
17009SOL    HW151053   2.426   8.726  11.907
17009SOL    HW251054   2.452   8.856  11.811
17010SOL     OW51055   2.671   7.452  11.674
17010SOL    HW151056   2.711   7.543  11.665
17010SOL    HW251057   2.571   7.460  11.680
17011SOL     OW51058   2.059   8.424  12.436
17011SOL    HW151059   2.148   8.379  12.422
17011SOL    HW251060   1.986   8.359  12.417
17012SOL     OW51061   3.387   8.447  11.362
17012SOL    HW151062   3.324   8.371  11.375
17012SOL    HW251063   3.435   8.465  11.448
17013SOL     OW51064   2.179   7.699  12.973
17013SOL    HW151065   2.250   7.770  12.979
17013SOL    HW251066   2.091   7.738  13.001
17014SOL     OW51067   3.328   8.865  12.125
17014SOL    HW151068   3.269   8.871  12.205
17014SOL    HW251069   3.313   8.777  12.079
17015SOL     OW51070   3.529   9.162  11.744
17015SOL    HW151071   3.488   9.139  11.656
17015SOL    HW251072   3.511   9.088  11.809
17016SOL     OW51073   2.460   8.177  11.442
17016SOL    HW151074   2.484   8.246  11.374
17016SOL    HW251075   2.382   8.210  11.496
17017SOL     OW51076   3.143   7.793  12.116
17017SOL    HW151077   3.057   7.743  12.103
17017SOL    HW251078   3.205   7.739  12.172
17018SOL     OW51079   3.438   9.110  11.479
17018SOL    HW151080   3.527   9.156  11.482
17018SOL    HW251081   3.417   9.086  11.384
17019SOL     OW51082   2.669   8.053  12.637
17019SOL    HW151083   2.622   8.050  12.726
17019SOL    HW251084   2.618   7.998  12.571
17020SOL     OW51085   2.853   7.858  12.414
17020SOL    HW151086   2.776   7.892  12.468
17020SOL    HW251087   2.819   7.807  12.335
17021SOL     OW51088   2.903   8.149  11.601
17021SOL    HW151089   2.929   8.145  11.697
17021SOL    HW251090   2.818   8.098  11.587
17022SOL     OW51091   1.938   8.259  11.961
17022SOL    HW151092   2.037   8.247  11.970
17022SOL    HW251093   1.914   8.354  11.982
17023SOL     OW51094   1.992   9.269  12.743
17023SOL    HW151095   1.982   9.254  12.842
17023SOL    HW251096   1.906   9.305  12.707
17024SOL     OW51097   2.727   7.796  11.367
17024SOL    HW151098   2.786   7.859  11.318
17024SOL    HW251099   2.746   7.702  11.338
17025SOL     OW51100   3.224   8.592  11.717
17025SOL    HW151101   3.307   8.563  11.669
17025SOL    HW251102   3.175   8.659  11.661
17026SOL     OW51103   2.412   7.644  12.057
17026SOL    HW151104   2.407   7.639  12.157
17026SOL    HW251105   2.414   7.740  12.028
17027SOL     OW51106   2.870   8.904  11.649
17027SOL    HW151107   2.824   8.976  11.597
17027SOL    HW251108   2.866   8.924  11.747
17028SOL     OW51109   2.213   9.249  12.025
17028SOL    HW151110   2.263   9.163  12.031
17028SOL    HW251111   2.278   9.326  12.022
17029SOL     OW51112   3.657   8.514  12.045
17029SOL    HW151113   3.595   8.499  11.969
17029SOL    HW251114   3.605   8.525  12.130
17030SOL     OW51115   2.183   8.391  11.414
17030SOL    HW151116   2.265   8.430  11.372
17030SOL    HW251117   2.156   8.309  11.365
17031SOL     OW51118   3.320   8.183  11.900
17031SOL    HW151119   3.315   8.118  11.975
17031SOL    HW251120   3.400   8.242  11.913
17032SOL     OW51121   2.973   9.224  11.409
17032SOL    HW151122   2.913   9.162  11.459
17032SOL    HW251123   3.004   9.180  11.324
17033SOL     OW51124   2.064   7.733  12.670
17033SOL    HW151125   1.984   7.793  12.657
17033SOL    HW251126   2.054   7.684  12.756
17034SOL     OW51127   3.494   8.825  11.253
17034SOL    HW151128   3.462   8.919  11.243
17034SOL    HW251129   3.418   8.762  11.241
17035SOL     OW51130   2.326   9.191  11.495
17035SOL    HW151131   2.359   9.230  11.581
17035SOL    HW251132   2.402   9.184  11.430
17036SOL     OW51133   3.262   7.555  11.598
17036SOL    HW151134   3.238   7.518  11.508
17036SOL    HW251135   3.361   7.571  11.602
17037SOL     OW51136   2.111   9.233  12.413
17037SOL    HW151137   2.168   9.168  12.463
17037SOL    HW251138   2.095   9.200  12.320
17038SOL     OW51139   2.802   9.146  12.076
17038SOL    HW151140   2.882   9.089  12.097
17038SOL    HW251141   2.753   9.106  11.999
17039SOL     OW51142   2.244   8.148  11.652
17039SOL    HW151143   2.289   8.058  11.649
17039SOL    HW251144   2.150   8.137  11.685
17040SOL     OW51145   2.476   7.570  11.289
17040SOL    HW151146   2.574   7.548  11.296
17040SOL    HW251147   2.445   7.553  11.196
17041SOL     OW51148   2.750   8.962  12.367
17041SOL    HW151149   2.727   8.937  12.273
17041SOL    HW251150   2.811   8.893  12.406
17042SOL     OW51151   2.665   8.850  12.096
17042SOL    HW151152   2.755   8.864  12.054
17042SOL    HW251153   2.594   8.852  12.025
17043SOL     OW51154   2.784   7.951  12.071
17043SOL    HW151155   2.759   7.942  11.975
17043SOL    HW251156   2.832   7.869  12.102
17044SOL     OW51157   2.401   7.512  11.684
17044SOL    HW151158   2.320   7.513  11.742
17044SOL    HW251159   2.404   7.595  11.629
17045SOL     OW51160   3.296   8.636  11.213
17045SOL    HW151161   3.328   8.560  11.270
17045SOL    HW251162   3.204   8.663  11.243
17046SOL     OW51163   2.159   7.483  11.343
17046SOL    HW151164   2.208   7.567  11.322
17046SOL    HW251165   2.221   7.418  11.388
17047SOL     OW51166   2.797   7.684  11.652
17047SOL    HW151167   2.749   7.725  11.574
17047SOL    HW251168   2.896   7.682  11.633
17048SOL     OW51169   3.089   9.018  11.965
17048SOL    HW151170   3.110   9.092  11.900
17048SOL    HW251171   3.157   9.018  12.038
17049SOL     OW51172   2.321   8.600  11.913
17049SOL    HW151173   2.250   8.573  11.978
17049SOL    HW251174   2.295   8.572  11.820
17050SOL     OW51175   3.133   9.245  11.763
17050SOL    HW151176   3.177   9.309  11.699
17050SOL    HW251177   3.083   9.297  11.833
17051SOL     OW51178   2.894   7.997  11.188
17051SOL    HW151179   2.853   8.079  11.149
17051SOL    HW251180   2.958   8.023  11.261
17052SOL     OW51181   1.940   8.004  12.558
17052SOL    HW151182   2.032   8.003  12.517
17052SOL    HW251183   1.934   8.078  12.625
17053SOL     OW51184   2.423   7.670  12.319
17053SOL    HW151185   2.461   7.586  12.356
17053SOL    HW251186   2.335   7.689  12.363
17054SOL     OW51187   2.728   7.902  11.814
17054SOL    HW151188   2.696   7.974  11.752
17054SOL    HW251189   2.752   7.821  11.761
17055SOL     OW51190   2.879   7.487  11.925
17055SOL    HW151191   2.807   7.492  11.856
17055SOL    HW251192   2.855   7.418  11.994
17056SOL     OW51193   3.291   8.621  12.039
17056SOL    HW151194   3.236   8.537  12.032
17056SOL    HW251195   3.317   8.650  11.947
17057SOL     OW51196   3.328   8.038  12.164
17057SOL    HW151197   3.298   7.943  12.171
17057SOL    HW251198   3.401   8.054  12.230
17058SOL     OW51199   3.719   8.281  11.549
17058SOL    HW151200   3.761   8.217  11.613
17058SOL    HW251201   3.681   8.230  11.471
17059SOL     OW51202   2.350   8.833  11.346
17059SOL    HW151203   2.263   8.818  11.393
17059SOL    HW251204   2.333   8.859  11.251
17060SOL     OW51205   3.526   8.728  11.829
17060SOL    HW151206   3.625   8.736  11.843
17060SOL    HW251207   3.481   8.812  11.860
17061SOL     OW51208   3.252   8.023  11.250
17061SOL    HW151209   3.198   8.002  11.331
17061SOL    HW251210   3.343   7.982  11.259
17062SOL     OW51211   2.389   7.704  11.500
17062SOL    HW151212   2.416   7.645  11.425
17062SOL    HW251213   2.389   7.799  11.469
17063SOL     OW51214   2.926   8.795  12.512
17063SOL    HW151215   2.846   8.772  12.567
17063SOL    HW251216   3.009   8.769  12.561
17064SOL     OW51217   2.973   8.643  12.272
17064SOL    HW151218   2.933   8.687  12.353
17064SOL    HW251219   2.932   8.680  12.189
17065SOL     OW51220   3.500   8.547  12.251
17065SOL    HW151221   3.505   8.628  12.310
17065SOL    HW251222   3.414   8.549  12.200
17066SOL     OW51223   2.777   7.537  12.574
17066SOL    HW151224   2.802   7.517  12.479
17066SOL    HW251225   2.849   7.593  12.616
17067SOL     OW51226   2.567   8.498  11.540
17067SOL    HW151227   2.553   8.505  11.639
17067SOL    HW251228   2.651   8.447  11.522
17068SOL     OW51229   2.272   8.261  12.423
17068SOL    HW151230   2.358   8.273  12.473
17068SOL    HW251231   2.230   8.174  12.450
17069SOL     OW51232   3.136   7.834  12.434
17069SOL    HW151233   3.157   7.908  12.498
17069SOL    HW251234   3.047   7.851  12.391
17070SOL     OW51235   1.926   9.012  12.503
17070SOL    HW151236   1.880   9.094  12.469
17070SOL    HW251237   2.024   9.031  12.512
17071SOL     OW51238   2.229   8.548  11.673
17071SOL    HW151239   2.222   8.631  11.617
17071SOL    HW251240   2.233   8.468  11.613
17072SOL     OW51241   2.428   7.985  12.037
17072SOL    HW151242   2.440   8.051  11.963
17072SOL    HW251243   2.474   8.019  12.120
17073SOL     OW51244   3.114   8.796  11.560
17073SOL    HW151245   3.164   8.873  11.600
17073SOL    HW251246   3.019   8.798  11.592
17074SOL     OW51247   3.134   8.893  12.314
17074SOL    HW151248   3.181   8.906  12.401
17074SOL    HW251249   3.068   8.819  12.323
17075SOL     OW51250   3.444   8.087  11.644
17075SOL    HW151251   3.413   8.148  11.717
17075SOL    HW251252   3.494   8.139  11.575
17076SOL     OW51253   2.216   8.958  12.501
17076SOL    HW151254   2.195   8.914  12.414
17076SOL    HW251255   2.313   8.984  12.504
17077SOL     OW51256   2.264   8.199  12.770
17077SOL    HW151257   2.332   8.254  12.723
17077SOL    HW251258   2.304   8.111  12.797
17078SOL     OW51259   3.449   8.227  12.842
17078SOL    HW151260   3.357   8.265  12.837
17078SOL    HW251261   3.509   8.274  12.777
17079SOL     OW51262   2.435   8.318  12.201
17079SOL    HW151263   2.479   8.407  12.192
17079SOL    HW251264   2.372   8.318  12.278
17080SOL     OW51265   3.222   8.310  12.217
17080SOL    HW151266   3.147   8.310  12.151
17080SOL    HW251267   3.259   8.218  12.226
17081SOL     OW51268   3.071   7.973  11.447
17081SOL    HW151269   3.084   7.889  11.501
17081SOL    HW251270   3.042   8.047  11.507
17082SOL     OW51271   2.169   7.661  12.403
17082SOL    HW151272   2.146   7.698  12.493
17082SOL    HW251273   2.139   7.566  12.397
17083SOL     OW51274   1.899   8.758  12.454
17083SOL    HW151275   1.952   8.709  12.522
17083SOL    HW251276   1.921   8.856  12.459
17084SOL     OW51277   2.594   8.082  12.236
17084SOL    HW151278   2.653   8.056  12.160
17084SOL    HW251279   2.566   8.178  12.225
17085SOL     OW51280   2.169   7.511  11.790
17085SOL    HW151281   2.158   7.605  11.823
17085SOL    HW251282   2.164   7.448  11.867
17086SOL     OW51283   3.484   7.815  11.546
17086SOL    HW151284   3.486   7.739  11.610
17086SOL    HW251285   3.436   7.892  11.586
17087SOL     OW51286   2.885   8.214  12.138
17087SOL    HW151287   2.900   8.235  12.234
17087SOL    HW251288   2.855   8.119  12.129
17088SOL     OW51289   2.842   9.021  12.872
17088SOL    HW151290   2.822   9.065  12.784
17088SOL    HW251291   2.881   8.930  12.856
17089SOL     OW51292   3.402   7.722  11.297
17089SOL    HW151293   3.341   7.647  11.320
17089SOL    HW251294   3.424   7.774  11.380
17090SOL     OW51295   3.165   8.286  11.214
17090SOL    HW151296   3.199   8.193  11.229
17090SOL    HW251297   3.183   8.313  11.119
17091SOL     OW51298   2.930   8.781  12.021
17091SOL    HW151299   2.937   8.697  11.966
17091SOL    HW251300   2.992   8.850  11.985
17092SOL     OW51301   2.181   8.258  12.121
17092SOL    HW151302   2.274   8.294  12.126
17092SOL    HW251303   2.175   8.173  12.173
17093SOL     OW51304   2.201   7.957  12.178
17093SOL    HW151305   2.149   7.874  12.161
17093SOL    HW251306   2.278   7.962  12.114
17094SOL     OW51307   3.000   7.828  12.850
17094SOL    HW151308   2.955   7.891  12.914
17094SOL    HW251309   3.093   7.859  12.833
17095SOL     OW51310   3.022   7.655  12.649
17095SOL    HW151311   3.022   7.719  12.726
17095SOL    HW251312   3.050   7.703  12.566
17096SOL     OW51313   1.870   8.774  11.372
17096SOL    HW151314   1.777   8.795  11.341
17096SOL    HW251315   1.880   8.675  11.385
17097SOL     OW51316   1.950   9.249  12.099
17097SOL    HW151317   1.908   9.163  12.072
17097SOL    HW251318   2.044   9.252  12.065
17098SOL     OW51319   2.366   9.016  12.082
17098SOL    HW151320   2.432   9.090  12.091
17098SOL    HW251321   2.410   8.937  12.040
17099SOL     OW51322   2.864   8.244  12.410
17099SOL    HW151323   2.905   8.212  12.496
17099SOL    HW251324   2.768   8.217  12.407
17100SOL     OW51325   1.902   7.992  12.286
17100SOL    HW151326   1.987   7.959  12.245
17100SOL    HW251327   1.915   8.007  12.384
17101SOL     OW51328   2.677   8.020  11.497
17101SOL    HW151329   2.684   7.931  11.451
17101SOL    HW251330   2.583   8.054  11.489
17102SOL     OW51331   3.519   8.052  12.378
17102SOL    HW151332   3.481   7.983  12.440
17102SOL    HW251333   3.601   8.016  12.334
17103SOL     OW51334   2.533   7.912  12.441
17103SOL    HW151335   2.499   7.823  12.411
17103SOL    HW251336   2.559   7.966  12.361
17104SOL     OW51337   2.792   9.126  12.637
17104SOL    HW151338   2.768   9.108  12.542
17104SOL    HW251339   2.822   9.220  12.647
17105SOL     OW51340   2.335   7.948  11.363
17105SOL    HW151341   2.396   8.028  11.367
17105SOL    HW251342   2.240   7.979  11.370
17106SOL     OW51343   2.021   8.585  12.638
17106SOL    HW151344   2.043   8.524  12.714
17106SOL    HW251345   2.031   8.536  12.552
17107SOL     OW51346   3.209   8.507  12.406
17107SOL    HW151347   3.233   8.444  12.332
17107SOL    HW251348   3.119   8.547  12.388
17108SOL     OW51349   3.164   8.303  11.481
17108SOL    HW151350   3.078   8.272  11.523
17108SOL    HW251351   3.160   8.289  11.382
17109SOL     OW51352   3.621   9.195  12.326
17109SOL    HW151353   3.682   9.225  12.253
17109SOL    HW251354   3.583   9.106  12.304
17110SOL     OW51355   3.114   9.179  12.300
17110SOL    HW151356   3.198   9.184  12.246
17110SOL    HW251357   3.091   9.083  12.318
17111SOL     OW51358   1.945   8.706  12.194
17111SOL    HW151359   1.940   8.705  12.294
17111SOL    HW251360   1.862   8.665  12.156
17112SOL     OW51361   3.588   7.583  11.695
17112SOL    HW151362   3.661   7.566  11.628
17112SOL    HW251363   3.557   7.496  11.733
17113SOL     OW51364   3.250   9.021  11.649
17113SOL    HW151365   3.317   9.033  11.575
17113SOL    HW251366   3.210   9.110  11.672
17114SOL     OW51367   3.142   8.375  11.844
17114SOL    HW151368   3.202   8.294  11.846
17114SOL    HW251369   3.182   8.444  11.784
17115SOL     OW51370   2.534   9.064  11.326
17115SOL    HW151371   2.543   9.074  11.227
17115SOL    HW251372   2.494   8.975  11.347
17116SOL     OW51373   3.512   9.168  12.566
17116SOL    HW151374   3.565   9.178  12.482
17116SOL    HW251375   3.485   9.258  12.600
17117SOL     OW51376   3.703   7.623  12.135
17117SOL    HW151377   3.742   7.538  12.099
17117SOL    HW251378   3.605   7.625  12.116
17118SOL     OW51379   2.125   7.774  11.892
17118SOL    HW151380   2.046   7.825  11.858
17118SOL    HW251381   2.116   7.759  11.990
17119SOL     OW51382   3.056   9.060  11.203
17119SOL    HW151383   3.062   8.967  11.240
17119SOL    HW251384   2.997   9.060  11.123
17120SOL     OW51385   2.684   8.450  12.544
17120SOL    HW151386   2.724   8.449  12.452
17120SOL    HW251387   2.694   8.542  12.584
17121SOL     OW51388   2.778   8.358  11.463
17121SOL    HW151389   2.841   8.396  11.395
17121SOL    HW251390   2.818   8.275  11.502
17122SOL     OW51391   3.366   9.055  11.216
17122SOL    HW151392   3.274   9.092  11.223
17122SOL    HW251393   3.404   9.075  11.126
17123SOL     OW51394   2.234   8.736  12.662
17123SOL    HW151395   2.221   8.829  12.628
17123SOL    HW251396   2.150   8.684  12.649
17124SOL     OW51397   3.476   8.740  12.461
17124SOL    HW151398   3.536   8.743  12.541
17124SOL    HW251399   3.401   8.804  12.474
17125SOL     OW51400   2.901   8.546  11.868
17125SOL    HW151401   2.831   8.499  11.922
17125SOL    HW251402   2.960   8.478  11.825
17126SOL     OW51403   2.876   7.684  12.143
17126SOL    HW151404   2.868   7.648  12.050
17126SOL    HW251405   2.874   7.608  12.208
17127SOL     OW51406   2.452   8.935  11.663
17127SOL    HW151407   2.494   8.877  11.593
17127SOL    HW251408   2.408   9.014  11.619
17128SOL     OW51409   3.571   7.833  12.553
17128SOL    HW151410   3.644   7.902  12.557
17128SOL    HW251411   3.599   7.758  12.494
17129SOL     OW51412   2.117   8.796  11.462
17129SOL    HW151413   2.021   8.797  11.435
17129SOL    HW251414   2.129   8.849  11.546
17130SOL     OW51415   1.937   7.793  11.205
17130SOL    HW151416   1.845   7.765  11.176
17130SOL    HW251417   1.968   7.870  11.149
17131SOL     OW51418   3.302   8.304  12.570
17131SOL    HW151419   3.245   8.356  12.507
17131SOL    HW251420   3.398   8.316  12.546
17132SOL     OW51421   1.934   7.614  11.490
17132SOL    HW151422   1.917   7.697  11.436
17132SOL    HW251423   2.024   7.577  11.468
17133SOL     OW51424   3.045   8.783  11.291
17133SOL    HW151425   2.946   8.772  11.293
17133SOL    HW251426   3.079   8.798  11.384
17134SOL     OW51427   2.475   8.290  12.603
17134SOL    HW151428   2.531   8.371  12.586
17134SOL    HW251429   2.534   8.210  12.606
17135SOL     OW51430   3.355   9.215  12.131
17135SOL    HW151431   3.388   9.279  12.062
17135SOL    HW251432   3.421   9.209  12.206
17136SOL     OW51433   2.252   9.189  12.732
17136SOL    HW151434   2.161   9.230  12.730
17136SOL    HW251435   2.245   9.095  12.764
17137SOL     OW51436   3.536   8.331  12.426
17137SOL    HW151437   3.509   8.242  12.389
17137SOL    HW251438   3.537   8.399  12.353
17138SOL     OW51439   3.087   7.773  11.621
17138SOL    HW151440   3.152   7.699  11.610
17138SOL    HW251441   3.107   7.823  11.705
17139SOL     OW51442   2.456   8.193  11.824
17139SOL    HW151443   2.506   8.278  11.805
17139SOL    HW251444   2.368   8.195  11.776
17140SOL     OW51445   3.639   7.790  12.814
17140SOL    HW151446   3.622   7.821  12.720
17140SOL    HW251447   3.555   7.753  12.852
17141SOL     OW51448   3.592   8.382  12.689
17141SOL    HW151449   3.630   8.473  12.704
17141SOL    HW251450   3.584   8.365  12.590
17142SOL     OW51451   2.721   8.822  11.188
17142SOL    HW151452   2.675   8.837  11.276
17142SOL    HW251453   2.765   8.907  11.158
17143SOL     OW51454   2.523   9.238  12.125
17143SOL    HW151455   2.477   9.326  12.112
17143SOL    HW251456   2.622   9.250  12.118
17144SOL     OW51457   2.721   8.404  12.033
17144SOL    HW151458   2.775   8.335  12.081
17144SOL    HW251459   2.689   8.473  12.099
17145SOL     OW51460   2.945   8.432  11.259
17145SOL    HW151461   2.922   8.485  11.177
17145SOL    HW251462   3.026   8.376  11.240
17146SOL     OW51463   3.723   9.017  12.023
17146SOL    HW151464   3.652   9.005  11.953
17146SOL    HW251465   3.724   8.938  12.083
17147SOL     OW51466   1.941   8.688  11.825
17147SOL    HW151467   1.940   8.641  11.913
17147SOL    HW251468   2.023   8.660  11.774
17148SOL     OW51469   3.686   7.640  12.399
17148SOL    HW151470   3.682   7.550  12.443
17148SOL    HW251471   3.689   7.629  12.300
17149SOL     OW51472   2.290   7.872  11.692
17149SOL    HW151473   2.320   7.800  11.630
17149SOL    HW251474   2.251   7.832  11.775
17150SOL     OW51475   3.567   8.935  12.276
17150SOL    HW151476   3.474   8.910  12.249
17150SOL    HW251477   3.593   8.885  12.358
17151SOL     OW51478   2.179   7.995  12.452
17151SOL    HW151479   2.217   7.936  12.524
17151SOL    HW251480   2.219   7.969  12.364
17152SOL     OW51481   2.674   9.034  11.859
17152SOL    HW151482   2.706   9.044  11.765
17152SOL    HW251483   2.595   8.972  11.861
17153SOL     OW51484   3.286   7.662  12.284
17153SOL    HW151485   3.338   7.597  12.339
17153SOL    HW251486   3.237   7.725  12.345
17154SOL     OW51487   2.863   7.482  12.326
17154SOL    HW151488   2.800   7.410  12.295
17154SOL    HW251489   2.956   7.446  12.326
17155SOL     OW51490   2.632   8.778  11.473
17155SOL    HW151491   2.586   8.691  11.490
17155SOL    HW251492   2.723   8.775  11.514
17156SOL     OW51493   2.480   9.015  12.456
17156SOL    HW151494   2.475   9.097  12.513
17156SOL    HW251495   2.569   9.012  12.411
17157SOL     OW51496   3.214   7.500  11.340
17157SOL    HW151497   3.249   7.459  11.256
17157SOL    HW251498   3.124   7.462  11.360
17158SOL     OW51499   3.162   7.901  11.863
17158SOL    HW151500   3.103   7.981  11.867
17158SOL    HW251501   3.177   7.866  11.956
17159SOL     OW51502   3.455   7.669  12.054
17159SOL    HW151503   3.371   7.668  12.108
17159SOL    HW251504   3.457   7.752  11.998
17160SOL     OW51505   1.901   8.525  11.472
17160SOL    HW151506   2.000   8.514  11.463
17160SOL    HW251507   1.861   8.439  11.504
17161SOL     OW51508   2.737   9.094  11.509
17161SOL    HW151509   2.660   9.059  11.455
17161SOL    HW251510   2.705   9.165  11.571
17162SOL     OW51511   2.092   9.938   0.113
17162SOL    HW151512   1.999   9.936   0.150
17162SOL    HW251513   2.093   9.899   0.021
17163SOL     OW51514   2.087   9.585   0.996
17163SOL    HW151515   2.122   9.568   1.088
17163SOL    HW251516   1.999   9.540   0.984
17164SOL     OW51517   1.881   9.678   0.647
17164SOL    HW151518   1.799   9.721   0.686
17164SOL    HW251519   1.853   9.605   0.584
17165SOL     OW51520   2.431  10.585   1.165
17165SOL    HW151521   2.338  10.578   1.128
17165SOL    HW251522   2.442  10.674   1.209
17166SOL     OW51523   3.417  10.821   0.703
17166SOL    HW151524   3.360  10.805   0.784
17166SOL    HW251525   3.358  10.831   0.623
17167SOL     OW51526   2.997  10.013   0.717
17167SOL    HW151527   3.054  10.091   0.692
17167SOL    HW251528   2.937  10.039   0.793
17168SOL     OW51529   3.617   9.917   0.231
17168SOL    HW151530   3.605   9.904   0.132
17168SOL    HW251531   3.587   9.836   0.280
17169SOL     OW51532   2.630  10.454   1.023
17169SOL    HW151533   2.552  10.471   1.083
17169SOL    HW251534   2.664  10.541   0.987
17170SOL     OW51535   2.712  10.108   1.823
17170SOL    HW151536   2.708  10.184   1.888
17170SOL    HW251537   2.734  10.144   1.732
17171SOL     OW51538   2.547  10.322   0.665
17171SOL    HW151539   2.616  10.306   0.735
17171SOL    HW251540   2.474  10.379   0.703
17172SOL     OW51541   2.548  10.471   1.803
17172SOL    HW151542   2.608  10.550   1.817
17172SOL    HW251543   2.462  10.502   1.762
17173SOL     OW51544   2.197  10.745   1.061
17173SOL    HW151545   2.119  10.714   1.008
17173SOL    HW251546   2.255  10.803   1.004
17174SOL     OW51547   3.322  10.815   1.339
17174SOL    HW151548   3.346  10.909   1.365
17174SOL    HW251549   3.306  10.761   1.421
17175SOL     OW51550   2.300   9.702   1.499
17175SOL    HW151551   2.382   9.646   1.508
17175SOL    HW251552   2.219   9.644   1.503
17176SOL     OW51553   3.465   9.757   0.737
17176SOL    HW151554   3.391   9.803   0.687
17176SOL    HW251555   3.516   9.825   0.790
17177SOL     OW51556   2.093  11.023   0.483
17177SOL    HW151557   2.127  11.100   0.537
17177SOL    HW251558   2.137  11.023   0.393
17178SOL     OW51559   2.989  10.651   1.690
17178SOL    HW151560   3.036  10.651   1.778
17178SOL    HW251561   2.941  10.564   1.679
17179SOL     OW51562   2.092  10.744   0.538
17179SOL    HW151563   2.066  10.840   0.538
17179SOL    HW251564   2.021  10.690   0.583
17180SOL     OW51565   2.102  10.401   0.886
17180SOL    HW151566   2.116  10.317   0.938
17180SOL    HW251567   2.047  10.465   0.941
17181SOL     OW51568   2.482  11.096   1.439
17181SOL    HW151569   2.390  11.079   1.474
17181SOL    HW251570   2.510  11.188   1.465
17182SOL     OW51571   2.468  10.274   0.123
17182SOL    HW151572   2.475  10.358   0.069
17182SOL    HW251573   2.514  10.287   0.211
17183SOL     OW51574   3.456   9.424   1.480
17183SOL    HW151575   3.438   9.491   1.408
17183SOL    HW251576   3.453   9.470   1.569
17184SOL     OW51577   1.984   9.953   0.563
17184SOL    HW151578   1.939   9.865   0.580
17184SOL    HW251579   1.983  10.007   0.647
17185SOL     OW51580   3.704  11.077   0.359
17185SOL    HW151581   3.758  11.048   0.439
17185SOL    HW251582   3.734  11.167   0.330
17186SOL     OW51583   1.889  10.906   0.117
17186SOL    HW151584   1.870  10.810   0.138
17186SOL    HW251585   1.856  10.964   0.192
17187SOL     OW51586   3.551  10.232   0.612
17187SOL    HW151587   3.646  10.203   0.620
17187SOL    HW251588   3.543  10.297   0.537
17188SOL     OW51589   3.503  10.418   0.432
17188SOL    HW151590   3.589  10.420   0.380
17188SOL    HW251591   3.517  10.465   0.520
17189SOL     OW51592   1.975  10.047   1.597
17189SOL    HW151593   2.063  10.034   1.642
17189SOL    HW251594   1.962  10.144   1.575
17190SOL     OW51595   2.475  10.675   0.726
17190SOL    HW151596   2.426  10.588   0.735
17190SOL    HW251597   2.452  10.718   0.639
17191SOL     OW51598   3.155  10.538   1.423
17191SOL    HW151599   3.192  10.465   1.365
17191SOL    HW251600   3.207  10.543   1.508
17192SOL     OW51601   2.671   9.314   0.502
17192SOL    HW151602   2.711   9.405   0.493
17192SOL    HW251603   2.571   9.322   0.508
17193SOL     OW51604   2.059  10.286   1.264
17193SOL    HW151605   2.148  10.241   1.250
17193SOL    HW251606   1.986  10.221   1.245
17194SOL     OW51607   3.387  10.309   0.190
17194SOL    HW151608   3.324  10.233   0.203
17194SOL    HW251609   3.435  10.327   0.276
17195SOL     OW51610   3.049  11.102   1.616
17195SOL    HW151611   3.073  11.162   1.540
17195SOL    HW251612   3.056  11.007   1.586
17196SOL     OW51613   2.179   9.561   1.801
17196SOL    HW151614   2.250   9.632   1.807
17196SOL    HW251615   2.091   9.600   1.829
17197SOL     OW51616   3.328  10.727   0.953
17197SOL    HW151617   3.269  10.733   1.033
17197SOL    HW251618   3.313  10.639   0.907
17198SOL     OW51619   3.529  11.024   0.572
17198SOL    HW151620   3.488  11.001   0.484
17198SOL    HW251621   3.511  10.950   0.637
17199SOL     OW51622   2.460  10.039   0.270
17199SOL    HW151623   2.484  10.108   0.202
17199SOL    HW251624   2.382  10.072   0.324
17200SOL     OW51625   3.143   9.655   0.944
17200SOL    HW151626   3.057   9.605   0.931
17200SOL    HW251627   3.205   9.601   1.000
17201SOL     OW51628   3.438  10.972   0.307
17201SOL    HW151629   3.527  11.018   0.310
17201SOL    HW251630   3.417  10.948   0.212
17202SOL     OW51631   2.669   9.915   1.465
17202SOL    HW151632   2.622   9.912   1.554
17202SOL    HW251633   2.618   9.860   1.399
17203SOL     OW51634   3.256   9.779   1.674
17203SOL    HW151635   3.236   9.822   1.762
17203SOL    HW251636   3.334   9.717   1.683
17204SOL     OW51637   2.835  10.200   1.572
17204SOL    HW151638   2.881  10.116   1.543
17204SOL    HW251639   2.779  10.234   1.497
17205SOL     OW51640   2.853   9.720   1.242
17205SOL    HW151641   2.776   9.754   1.296
17205SOL    HW251642   2.819   9.669   1.163
17206SOL     OW51643   2.903  10.011   0.429
17206SOL    HW151644   2.929  10.007   0.525
17206SOL    HW251645   2.818   9.960   0.415
17207SOL     OW51646   1.938  10.121   0.789
17207SOL    HW151647   2.037  10.109   0.798
17207SOL    HW251648   1.914  10.216   0.810
17208SOL     OW51649   1.992  11.131   1.571
17208SOL    HW151650   1.982  11.116   1.670
17208SOL    HW251651   1.906  11.167   1.535
17209SOL     OW51652   2.727   9.658   0.195
17209SOL    HW151653   2.786   9.721   0.146
17209SOL    HW251654   2.746   9.564   0.166
17210SOL     OW51655   3.581   9.895   1.831
17210SOL    HW151656   3.555   9.984   1.795
17210SOL    HW251657   3.579   9.827   1.758
17211SOL     OW51658   3.224  10.454   0.545
17211SOL    HW151659   3.307  10.425   0.497
17211SOL    HW251660   3.175  10.521   0.489
17212SOL     OW51661   2.412   9.506   0.885
17212SOL    HW151662   2.407   9.501   0.985
17212SOL    HW251663   2.414   9.602   0.856
17213SOL     OW51664   2.870  10.766   0.477
17213SOL    HW151665   2.824  10.838   0.425
17213SOL    HW251666   2.866  10.786   0.575
17214SOL     OW51667   2.213  11.111   0.853
17214SOL    HW151668   2.263  11.025   0.859
17214SOL    HW251669   2.278  11.188   0.850
17215SOL     OW51670   3.657  10.376   0.873
17215SOL    HW151671   3.595  10.361   0.797
17215SOL    HW251672   3.605  10.387   0.958
17216SOL     OW51673   3.089  10.860   1.506
17216SOL    HW151674   3.095  10.783   1.570
17216SOL    HW251675   3.037  10.834   1.426
17217SOL     OW51676   2.183  10.253   0.242
17217SOL    HW151677   2.265  10.292   0.200
17217SOL    HW251678   2.156  10.171   0.193
17218SOL     OW51679   3.320  10.045   0.728
17218SOL    HW151680   3.315   9.980   0.803
17218SOL    HW251681   3.400  10.104   0.741
17219SOL     OW51682   2.323  10.576   1.727
17219SOL    HW151683   2.273  10.577   1.641
17219SOL    HW251684   2.260  10.558   1.803
17220SOL     OW51685   2.973  11.086   0.237
17220SOL    HW151686   2.913  11.024   0.287
17220SOL    HW251687   3.004  11.042   0.152
17221SOL     OW51688   2.064   9.595   1.498
17221SOL    HW151689   1.984   9.655   1.485
17221SOL    HW251690   2.054   9.546   1.584
17222SOL     OW51691   3.494  10.687   0.081
17222SOL    HW151692   3.462  10.781   0.071
17222SOL    HW251693   3.418  10.624   0.069
17223SOL     OW51694   2.326  11.053   0.323
17223SOL    HW151695   2.359  11.092   0.409
17223SOL    HW251696   2.402  11.046   0.258
17224SOL     OW51697   3.262   9.417   0.426
17224SOL    HW151698   3.238   9.380   0.336
17224SOL    HW251699   3.361   9.433   0.430
17225SOL     OW51700   2.111  11.095   1.241
17225SOL    HW151701   2.168  11.030   1.291
17225SOL    HW251702   2.095  11.062   1.148
17226SOL     OW51703   2.802  11.008   0.904
17226SOL    HW151704   2.882  10.951   0.925
17226SOL    HW251705   2.753  10.968   0.827
17227SOL     OW51706   2.244  10.010   0.480
17227SOL    HW151707   2.289   9.920   0.477
17227SOL    HW251708   2.150   9.999   0.513
17228SOL     OW51709   3.409   9.532   1.729
17228SOL    HW151710   3.404   9.569   1.821
17228SOL    HW251711   3.337   9.463   1.717
17229SOL     OW51712   2.476   9.432   0.117
17229SOL    HW151713   2.574   9.410   0.124
17229SOL    HW251714   2.445   9.415   0.024
17230SOL     OW51715   2.643   9.574   1.749
17230SOL    HW151716   2.710   9.513   1.792
17230SOL    HW251717   2.570   9.593   1.814
17231SOL     OW51718   2.750  10.824   1.195
17231SOL    HW151719   2.727  10.799   1.101
17231SOL    HW251720   2.811  10.755   1.234
17232SOL     OW51721   3.213   9.900   1.433
17232SOL    HW151722   3.241   9.857   1.518
17232SOL    HW251723   3.238   9.996   1.434
17233SOL     OW51724   2.665  10.712   0.924
17233SOL    HW151725   2.755  10.726   0.882
17233SOL    HW251726   2.594  10.714   0.853
17234SOL     OW51727   2.784   9.813   0.899
17234SOL    HW151728   2.759   9.804   0.803
17234SOL    HW251729   2.832   9.731   0.930
17235SOL     OW51730   2.401   9.374   0.512
17235SOL    HW151731   2.320   9.375   0.570
17235SOL    HW251732   2.404   9.457   0.457
17236SOL     OW51733   3.296  10.498   0.041
17236SOL    HW151734   3.328  10.422   0.098
17236SOL    HW251735   3.204  10.525   0.071
17237SOL     OW51736   2.159   9.345   0.171
17237SOL    HW151737   2.208   9.429   0.150
17237SOL    HW251738   2.221   9.280   0.216
17238SOL     OW51739   2.797   9.546   0.480
17238SOL    HW151740   2.749   9.587   0.402
17238SOL    HW251741   2.896   9.544   0.461
17239SOL     OW51742   2.938   9.993   1.464
17239SOL    HW151743   2.858   9.932   1.467
17239SOL    HW251744   3.019   9.940   1.440
17240SOL     OW51745   3.089  10.880   0.793
17240SOL    HW151746   3.110  10.954   0.728
17240SOL    HW251747   3.157  10.880   0.866
17241SOL     OW51748   2.321  10.462   0.741
17241SOL    HW151749   2.250  10.435   0.806
17241SOL    HW251750   2.295  10.434   0.648
17242SOL     OW51751   3.133  11.107   0.591
17242SOL    HW151752   3.177  11.171   0.527
17242SOL    HW251753   3.083  11.159   0.661
17243SOL     OW51754   2.894   9.859   0.016
17243SOL    HW151755   2.853   9.941  -0.023
17243SOL    HW251756   2.958   9.885   0.089
17244SOL     OW51757   1.940   9.866   1.386
17244SOL    HW151758   2.032   9.865   1.345
17244SOL    HW251759   1.934   9.940   1.453
17245SOL     OW51760   2.423   9.532   1.147
17245SOL    HW151761   2.461   9.448   1.184
17245SOL    HW251762   2.335   9.551   1.191
17246SOL     OW51763   2.728   9.764   0.642
17246SOL    HW151764   2.696   9.836   0.580
17246SOL    HW251765   2.752   9.683   0.589
17247SOL     OW51766   2.879   9.349   0.753
17247SOL    HW151767   2.807   9.354   0.684
17247SOL    HW251768   2.855   9.280   0.822
17248SOL     OW51769   3.291  10.483   0.867
17248SOL    HW151770   3.236  10.399   0.860
17248SOL    HW251771   3.317  10.512   0.775
17249SOL     OW51772   3.328   9.900   0.992
17249SOL    HW151773   3.298   9.805   0.999
17249SOL    HW251774   3.401   9.916   1.058
17250SOL     OW51775   3.719  10.143   0.377
17250SOL    HW151776   3.761  10.079   0.441
17250SOL    HW251777   3.681  10.092   0.299
17251SOL     OW51778   2.350  10.695   0.174
17251SOL    HW151779   2.263  10.680   0.221
17251SOL    HW251780   2.333  10.721   0.079
17252SOL     OW51781   3.526  10.590   0.657
17252SOL    HW151782   3.625  10.598   0.671
17252SOL    HW251783   3.481  10.674   0.688
17253SOL     OW51784   3.252   9.885   0.078
17253SOL    HW151785   3.198   9.864   0.159
17253SOL    HW251786   3.343   9.844   0.087
17254SOL     OW51787   2.389   9.566   0.328
17254SOL    HW151788   2.416   9.507   0.253
17254SOL    HW251789   2.389   9.661   0.297
17255SOL     OW51790   3.616  10.533   1.588
17255SOL    HW151791   3.707  10.494   1.575
17255SOL    HW251792   3.624  10.629   1.612
17256SOL     OW51793   2.926  10.657   1.340
17256SOL    HW151794   2.846  10.634   1.395
17256SOL    HW251795   3.009  10.631   1.389
17257SOL     OW51796   3.454  10.939   1.625
17257SOL    HW151797   3.481  10.973   1.535
17257SOL    HW251798   3.533  10.901   1.671
17258SOL     OW51799   2.973  10.505   1.100
17258SOL    HW151800   2.933  10.549   1.181
17258SOL    HW251801   2.932  10.542   1.017
17259SOL     OW51802   3.500  10.409   1.079
17259SOL    HW151803   3.505  10.490   1.138
17259SOL    HW251804   3.414  10.411   1.028
17260SOL     OW51805   2.777   9.399   1.402
17260SOL    HW151806   2.802   9.379   1.307
17260SOL    HW251807   2.849   9.455   1.444
17261SOL     OW51808   2.842  10.426   1.719
17261SOL    HW151809   2.743  10.432   1.729
17261SOL    HW251810   2.865  10.346   1.663
17262SOL     OW51811   2.567  10.360   0.368
17262SOL    HW151812   2.553  10.367   0.467
17262SOL    HW251813   2.651  10.309   0.350
17263SOL     OW51814   2.272  10.123   1.251
17263SOL    HW151815   2.358  10.135   1.301
17263SOL    HW251816   2.230  10.036   1.278
17264SOL     OW51817   3.136   9.696   1.262
17264SOL    HW151818   3.157   9.770   1.326
17264SOL    HW251819   3.047   9.713   1.219
17265SOL     OW51820   1.926  10.874   1.331
17265SOL    HW151821   1.880  10.956   1.297
17265SOL    HW251822   2.024  10.893   1.340
17266SOL     OW51823   2.229  10.410   0.501
17266SOL    HW151824   2.222  10.493   0.445
17266SOL    HW251825   2.233  10.330   0.441
17267SOL     OW51826   2.428   9.847   0.865
17267SOL    HW151827   2.440   9.913   0.791
17267SOL    HW251828   2.474   9.881   0.948
17268SOL     OW51829   3.114  10.658   0.388
17268SOL    HW151830   3.164  10.735   0.428
17268SOL    HW251831   3.019  10.660   0.420
17269SOL     OW51832   3.134  10.755   1.142
17269SOL    HW151833   3.181  10.768   1.229
17269SOL    HW251834   3.068  10.681   1.151
17270SOL     OW51835   3.444   9.949   0.472
17270SOL    HW151836   3.413  10.010   0.545
17270SOL    HW251837   3.494  10.001   0.403
17271SOL     OW51838   2.216  10.820   1.329
17271SOL    HW151839   2.195  10.776   1.242
17271SOL    HW251840   2.313  10.846   1.332
17272SOL     OW51841   2.264  10.061   1.598
17272SOL    HW151842   2.332  10.116   1.551
17272SOL    HW251843   2.304   9.973   1.625
17273SOL     OW51844   3.449  10.089   1.670
17273SOL    HW151845   3.357  10.127   1.665
17273SOL    HW251846   3.509  10.136   1.605
17274SOL     OW51847   2.875   9.415   1.770
17274SOL    HW151848   2.881   9.500   1.718
17274SOL    HW251849   2.907   9.339   1.713
17275SOL     OW51850   2.366   9.360   1.740
17275SOL    HW151851   2.324   9.303   1.670
17275SOL    HW251852   2.300   9.429   1.772
17276SOL     OW51853   2.435  10.180   1.029
17276SOL    HW151854   2.479  10.269   1.020
17276SOL    HW251855   2.372  10.180   1.106
17277SOL     OW51856   3.222  10.172   1.045
17277SOL    HW151857   3.147  10.172   0.979
17277SOL    HW251858   3.259  10.080   1.054
17278SOL     OW51859   3.071   9.835   0.275
17278SOL    HW151860   3.084   9.751   0.329
17278SOL    HW251861   3.042   9.909   0.335
17279SOL     OW51862   2.169   9.523   1.231
17279SOL    HW151863   2.146   9.560   1.321
17279SOL    HW251864   2.139   9.428   1.225
17280SOL     OW51865   1.899  10.620   1.282
17280SOL    HW151866   1.952  10.571   1.350
17280SOL    HW251867   1.921  10.718   1.287
17281SOL     OW51868   2.594   9.944   1.064
17281SOL    HW151869   2.653   9.918   0.988
17281SOL    HW251870   2.566  10.040   1.053
17282SOL     OW51871   3.590  10.245   1.854
17282SOL    HW151872   3.544  10.238   1.765
17282SOL    HW251873   3.528  10.289   1.920
17283SOL     OW51874   2.169   9.373   0.618
17283SOL    HW151875   2.158   9.467   0.651
17283SOL    HW251876   2.164   9.310   0.695
17284SOL     OW51877   3.484   9.677   0.374
17284SOL    HW151878   3.486   9.601   0.438
17284SOL    HW251879   3.436   9.754   0.414
17285SOL     OW51880   2.885  10.076   0.966
17285SOL    HW151881   2.900  10.097   1.062
17285SOL    HW251882   2.855   9.981   0.957
17286SOL     OW51883   2.842  10.883   1.700
17286SOL    HW151884   2.822  10.927   1.612
17286SOL    HW251885   2.881  10.792   1.684
17287SOL     OW51886   3.721  10.828   1.605
17287SOL    HW151887   3.735  10.855   1.510
17287SOL    HW251888   3.804  10.850   1.658
17288SOL     OW51889   2.212  10.208   1.804
17288SOL    HW151890   2.288  10.252   1.852
17288SOL    HW251891   2.247  10.161   1.722
17289SOL     OW51892   3.402   9.584   0.125
17289SOL    HW151893   3.341   9.509   0.148
17289SOL    HW251894   3.424   9.636   0.208
17290SOL     OW51895   3.165  10.148   0.042
17290SOL    HW151896   3.199  10.055   0.057
17290SOL    HW251897   3.183  10.175  -0.053
17291SOL     OW51898   2.930  10.643   0.849
17291SOL    HW151899   2.937  10.559   0.794
17291SOL    HW251900   2.992  10.712   0.813
17292SOL     OW51901   2.181  10.120   0.949
17292SOL    HW151902   2.274  10.156   0.954
17292SOL    HW251903   2.175  10.035   1.001
17293SOL     OW51904   2.201   9.819   1.006
17293SOL    HW151905   2.149   9.736   0.989
17293SOL    HW251906   2.278   9.824   0.942
17294SOL     OW51907   3.000   9.690   1.678
17294SOL    HW151908   2.955   9.753   1.742
17294SOL    HW251909   3.093   9.721   1.661
17295SOL     OW51910   3.022   9.517   1.477
17295SOL    HW151911   3.022   9.581   1.554
17295SOL    HW251912   3.050   9.565   1.394
17296SOL     OW51913   1.870  10.636   0.200
17296SOL    HW151914   1.777  10.657   0.169
17296SOL    HW251915   1.880  10.537   0.213
17297SOL     OW51916   1.950  11.111   0.927
17297SOL    HW151917   1.908  11.025   0.900
17297SOL    HW251918   2.044  11.114   0.893
17298SOL     OW51919   2.366  10.878   0.910
17298SOL    HW151920   2.432  10.952   0.919
17298SOL    HW251921   2.410  10.799   0.868
17299SOL     OW51922   2.864  10.106   1.238
17299SOL    HW151923   2.905  10.074   1.324
17299SOL    HW251924   2.768  10.079   1.235
17300SOL     OW51925   1.902   9.854   1.114
17300SOL    HW151926   1.987   9.821   1.073
17300SOL    HW251927   1.915   9.869   1.212
17301SOL     OW51928   2.051   9.830   1.722
17301SOL    HW151929   2.110   9.790   1.652
17301SOL    HW251930   1.993   9.901   1.681
17302SOL     OW51931   3.231  10.260   1.660
17302SOL    HW151932   3.270  10.349   1.680
17302SOL    HW251933   3.241  10.240   1.563
17303SOL     OW51934   2.677   9.882   0.325
17303SOL    HW151935   2.684   9.793   0.279
17303SOL    HW251936   2.583   9.916   0.317
17304SOL     OW51937   3.519   9.914   1.206
17304SOL    HW151938   3.481   9.845   1.268
17304SOL    HW251939   3.601   9.878   1.162
17305SOL     OW51940   2.114  10.874   1.744
17305SOL    HW151941   2.084  10.931   1.820
17305SOL    HW251942   2.107  10.777   1.770
17306SOL     OW51943   2.533   9.774   1.269
17306SOL    HW151944   2.499   9.685   1.239
17306SOL    HW251945   2.559   9.828   1.189
17307SOL     OW51946   2.792  10.988   1.465
17307SOL    HW151947   2.768  10.970   1.370
17307SOL    HW251948   2.822  11.082   1.475
17308SOL     OW51949   2.335   9.810   0.191
17308SOL    HW151950   2.396   9.890   0.195
17308SOL    HW251951   2.240   9.841   0.198
17309SOL     OW51952   2.021  10.447   1.466
17309SOL    HW151953   2.043  10.386   1.542
17309SOL    HW251954   2.031  10.398   1.380
17310SOL     OW51955   3.209  10.369   1.234
17310SOL    HW151956   3.233  10.306   1.160
17310SOL    HW251957   3.119  10.409   1.216
17311SOL     OW51958   3.164  10.165   0.309
17311SOL    HW151959   3.078  10.134   0.351
17311SOL    HW251960   3.160  10.151   0.210
17312SOL     OW51961   3.621  11.057   1.154
17312SOL    HW151962   3.682  11.087   1.081
17312SOL    HW251963   3.583  10.968   1.132
17313SOL     OW51964   3.114  11.041   1.128
17313SOL    HW151965   3.198  11.046   1.074
17313SOL    HW251966   3.091  10.945   1.146
17314SOL     OW51967   1.945  10.568   1.022
17314SOL    HW151968   1.940  10.567   1.122
17314SOL    HW251969   1.862  10.527   0.984
17315SOL     OW51970   2.550  10.972   1.716
17315SOL    HW151971   2.494  11.053   1.725
17315SOL    HW251972   2.602  10.976   1.630
17316SOL     OW51973   2.765   9.396   0.133
17316SOL    HW151974   2.816   9.397   0.047
17316SOL    HW251975   2.821   9.354   0.204
17317SOL     OW51976   3.588   9.445   0.523
17317SOL    HW151977   3.661   9.428   0.456
17317SOL    HW251978   3.557   9.358   0.561
17318SOL     OW51979   3.250  10.883   0.477
17318SOL    HW151980   3.317  10.895   0.403
17318SOL    HW251981   3.210  10.972   0.500
17319SOL     OW51982   1.992  11.104   1.851
17319SOL    HW151983   1.951  11.030   1.904
17319SOL    HW251984   2.056  11.155   1.909
17320SOL     OW51985   3.142  10.237   0.672
17320SOL    HW151986   3.202  10.156   0.674
17320SOL    HW251987   3.182  10.306   0.612
17321SOL     OW51988   2.692  10.583   1.422
17321SOL    HW151989   2.687  10.616   1.517
17321SOL    HW251990   2.606  10.602   1.376
17322SOL     OW51991   2.534  10.926   0.154
17322SOL    HW151992   2.543  10.936   0.055
17322SOL    HW251993   2.494  10.837   0.175
17323SOL     OW51994   3.512  11.030   1.394
17323SOL    HW151995   3.565  11.040   1.310
17323SOL    HW251996   3.485  11.120   1.428
17324SOL     OW51997   3.703   9.485   0.963
17324SOL    HW151998   3.742   9.400   0.927
17324SOL    HW251999   3.605   9.487   0.944
17325SOL     OW52000   2.125   9.636   0.720
17325SOL    HW152001   2.046   9.687   0.686
17325SOL    HW252002   2.116   9.621   0.818
17326SOL     OW52003   3.056  10.922   0.031
17326SOL    HW152004   3.062  10.829   0.068
17326SOL    HW252005   2.997  10.922  -0.049
17327SOL     OW52006   2.684  10.312   1.372
17327SOL    HW152007   2.724  10.311   1.280
17327SOL    HW252008   2.694  10.404   1.412
17328SOL     OW52009   2.778  10.220   0.291
17328SOL    HW152010   2.841  10.258   0.223
17328SOL    HW252011   2.818  10.137   0.330
17329SOL     OW52012   3.366  10.917   0.044
17329SOL    HW152013   3.274  10.954   0.051
17329SOL    HW252014   3.404  10.937  -0.046
17330SOL     OW52015   2.234  10.598   1.490
17330SOL    HW152016   2.221  10.691   1.456
17330SOL    HW252017   2.150  10.546   1.477
17331SOL     OW52018   3.476  10.602   1.289
17331SOL    HW152019   3.536  10.605   1.369
17331SOL    HW252020   3.401  10.666   1.302
17332SOL     OW52021   2.901  10.408   0.696
17332SOL    HW152022   2.831  10.361   0.750
17332SOL    HW252023   2.960  10.340   0.653
17333SOL     OW52024   2.876   9.546   0.971
17333SOL    HW152025   2.868   9.510   0.878
17333SOL    HW252026   2.874   9.470   1.036
17334SOL     OW52027   2.452  10.797   0.491
17334SOL    HW152028   2.494  10.739   0.421
17334SOL    HW252029   2.408  10.876   0.447
17335SOL     OW52030   3.571   9.695   1.381
17335SOL    HW152031   3.644   9.764   1.385
17335SOL    HW252032   3.599   9.620   1.322
17336SOL     OW52033   2.117  10.658   0.290
17336SOL    HW152034   2.021  10.659   0.263
17336SOL    HW252035   2.129  10.711   0.374
17337SOL     OW52036   1.967  10.323   1.726
17337SOL    HW152037   1.890  10.290   1.780
17337SOL    HW252038   2.052  10.293   1.768
17338SOL     OW52039   2.534   9.513   1.489
17338SOL    HW152040   2.624   9.497   1.449
17338SOL    HW252041   2.542   9.518   1.588
17339SOL     OW52042   3.302  10.166   1.398
17339SOL    HW152043   3.245  10.218   1.335
17339SOL    HW252044   3.398  10.178   1.374
17340SOL     OW52045   1.934   9.476   0.318
17340SOL    HW152046   1.917   9.559   0.264
17340SOL    HW252047   2.024   9.439   0.296
17341SOL     OW52048   3.045  10.645   0.119
17341SOL    HW152049   2.946  10.634   0.121
17341SOL    HW252050   3.079  10.660   0.212
17342SOL     OW52051   2.475  10.152   1.431
17342SOL    HW152052   2.531  10.233   1.414
17342SOL    HW252053   2.534  10.072   1.434
17343SOL     OW52054   3.355  11.077   0.959
17343SOL    HW152055   3.388  11.141   0.890
17343SOL    HW252056   3.421  11.071   1.034
17344SOL     OW52057   2.578   9.875   1.708
17344SOL    HW152058   2.597   9.940   1.782
17344SOL    HW252059   2.638   9.795   1.717
17345SOL     OW52060   3.312  10.530   1.633
17345SOL    HW152061   3.303  10.520   1.732
17345SOL    HW252062   3.408  10.523   1.607
17346SOL     OW52063   2.252  11.051   1.560
17346SOL    HW152064   2.161  11.092   1.558
17346SOL    HW252065   2.245  10.957   1.592
17347SOL     OW52066   3.536  10.193   1.254
17347SOL    HW152067   3.509  10.104   1.217
17347SOL    HW252068   3.537  10.261   1.181
17348SOL     OW52069   3.087   9.635   0.449
17348SOL    HW152070   3.152   9.561   0.438
17348SOL    HW252071   3.107   9.685   0.533
17349SOL     OW52072   2.456  10.055   0.652
17349SOL    HW152073   2.506  10.140   0.633
17349SOL    HW252074   2.368  10.057   0.604
17350SOL     OW52075   3.639   9.652   1.642
17350SOL    HW152076   3.622   9.683   1.548
17350SOL    HW252077   3.555   9.615   1.680
17351SOL     OW52078   3.592  10.244   1.517
17351SOL    HW152079   3.630  10.335   1.532
17351SOL    HW252080   3.584  10.227   1.418
17352SOL     OW52081   2.721  10.684   0.016
17352SOL    HW152082   2.675  10.699   0.104
17352SOL    HW252083   2.765  10.769  -0.014
17353SOL     OW52084   2.523  11.100   0.953
17353SOL    HW152085   2.477  11.188   0.940
17353SOL    HW252086   2.622  11.112   0.946
17354SOL     OW52087   2.721  10.266   0.861
17354SOL    HW152088   2.775  10.197   0.909
17354SOL    HW252089   2.689  10.335   0.927
17355SOL     OW52090   2.945  10.294   0.087
17355SOL    HW152091   2.922  10.347   0.005
17355SOL    HW252092   3.026  10.238   0.068
17356SOL     OW52093   3.723  10.879   0.851
17356SOL    HW152094   3.652  10.867   0.781
17356SOL    HW252095   3.724  10.800   0.911
17357SOL     OW52096   2.083  10.624   1.844
17357SOL    HW152097   2.018  10.551   1.823
17357SOL    HW252098   2.087  10.638   1.942
17358SOL     OW52099   1.941  10.550   0.653
17358SOL    HW152100   1.940  10.503   0.741
17358SOL    HW252101   2.023  10.522   0.602
17359SOL     OW52102   2.534  10.701   1.624
17359SOL    HW152103   2.456  10.651   1.662
17359SOL    HW252104   2.531  10.796   1.655
17360SOL     OW52105   3.686   9.502   1.227
17360SOL    HW152106   3.682   9.412   1.271
17360SOL    HW252107   3.689   9.491   1.128
17361SOL     OW52108   2.290   9.734   0.520
17361SOL    HW152109   2.320   9.662   0.458
17361SOL    HW252110   2.251   9.694   0.603
17362SOL     OW52111   3.567  10.797   1.104
17362SOL    HW152112   3.474  10.772   1.077
17362SOL    HW252113   3.593  10.747   1.186
17363SOL     OW52114   2.179   9.857   1.280
17363SOL    HW152115   2.217   9.798   1.352
17363SOL    HW252116   2.219   9.831   1.192
17364SOL     OW52117   2.674  10.896   0.687
17364SOL    HW152118   2.706  10.906   0.593
17364SOL    HW252119   2.595  10.834   0.689
17365SOL     OW52120   3.286   9.524   1.112
17365SOL    HW152121   3.338   9.459   1.167
17365SOL    HW252122   3.237   9.587   1.173
17366SOL     OW52123   2.863   9.344   1.154
17366SOL    HW152124   2.800   9.272   1.123
17366SOL    HW252125   2.956   9.308   1.154
17367SOL     OW52126   2.632  10.640   0.301
17367SOL    HW152127   2.586  10.553   0.318
17367SOL    HW252128   2.723  10.637   0.342
17368SOL     OW52129   2.480  10.877   1.284
17368SOL    HW152130   2.475  10.959   1.341
17368SOL    HW252131   2.569  10.874   1.239
17369SOL     OW52132   3.214   9.362   0.168
17369SOL    HW152133   3.249   9.321   0.084
17369SOL    HW252134   3.124   9.324   0.188
17370SOL     OW52135   3.162   9.763   0.691
17370SOL    HW152136   3.103   9.843   0.695
17370SOL    HW252137   3.177   9.728   0.784
17371SOL     OW52138   3.455   9.531   0.882
17371SOL    HW152139   3.371   9.530   0.936
17371SOL    HW252140   3.457   9.614   0.826
17372SOL     OW52141   1.901  10.387   0.300
17372SOL    HW152142   2.000  10.376   0.291
17372SOL    HW252143   1.861  10.301   0.332
17373SOL     OW52144   2.737  10.956   0.337
17373SOL    HW152145   2.660  10.921   0.283
17373SOL    HW252146   2.705  11.027   0.399
17374SOL     OW52147   2.092   9.938   1.975
17374SOL    HW152148   1.999   9.936   2.012
17374SOL    HW252149   2.093   9.899   1.883
17375SOL     OW52150   2.087   9.585   2.858
17375SOL    HW152151   2.122   9.568   2.950
17375SOL    HW252152   1.999   9.540   2.846
17376SOL     OW52153   1.881   9.678   2.509
17376SOL    HW152154   1.799   9.721   2.548
17376SOL    HW252155   1.853   9.605   2.446
17377SOL     OW52156   2.431  10.585   3.027
17377SOL    HW152157   2.338  10.578   2.990
17377SOL    HW252158   2.442  10.674   3.071
17378SOL     OW52159   3.417  10.821   2.565
17378SOL    HW152160   3.360  10.805   2.646
17378SOL    HW252161   3.358  10.831   2.485
17379SOL     OW52162   2.997  10.013   2.579
17379SOL    HW152163   3.054  10.091   2.554
17379SOL    HW252164   2.937  10.039   2.655
17380SOL     OW52165   3.617   9.917   2.093
17380SOL    HW152166   3.605   9.904   1.994
17380SOL    HW252167   3.587   9.836   2.142
17381SOL     OW52168   2.630  10.454   2.885
17381SOL    HW152169   2.552  10.471   2.945
17381SOL    HW252170   2.664  10.541   2.849
17382SOL     OW52171   2.712  10.108   3.685
17382SOL    HW152172   2.708  10.184   3.750
17382SOL    HW252173   2.734  10.144   3.594
17383SOL     OW52174   2.547  10.322   2.527
17383SOL    HW152175   2.616  10.306   2.597
17383SOL    HW252176   2.474  10.379   2.565
17384SOL     OW52177   2.548  10.471   3.665
17384SOL    HW152178   2.608  10.550   3.679
17384SOL    HW252179   2.462  10.502   3.624
17385SOL     OW52180   2.197  10.745   2.923
17385SOL    HW152181   2.119  10.714   2.870
17385SOL    HW252182   2.255  10.803   2.866
17386SOL     OW52183   3.322  10.815   3.201
17386SOL    HW152184   3.346  10.909   3.227
17386SOL    HW252185   3.306  10.761   3.283
17387SOL     OW52186   2.300   9.702   3.361
17387SOL    HW152187   2.382   9.646   3.370
17387SOL    HW252188   2.219   9.644   3.365
17388SOL     OW52189   3.465   9.757   2.599
17388SOL    HW152190   3.391   9.803   2.549
17388SOL    HW252191   3.516   9.825   2.652
17389SOL     OW52192   2.093  11.023   2.345
17389SOL    HW152193   2.127  11.100   2.399
17389SOL    HW252194   2.137  11.023   2.255
17390SOL     OW52195   2.989  10.651   3.552
17390SOL    HW152196   3.036  10.651   3.640
17390SOL    HW252197   2.941  10.564   3.541
17391SOL     OW52198   2.092  10.744   2.400
17391SOL    HW152199   2.066  10.840   2.400
17391SOL    HW252200   2.021  10.690   2.445
17392SOL     OW52201   2.102  10.401   2.748
17392SOL    HW152202   2.116  10.317   2.800
17392SOL    HW252203   2.047  10.465   2.803
17393SOL     OW52204   2.482  11.096   3.301
17393SOL    HW152205   2.390  11.079   3.336
17393SOL    HW252206   2.510  11.188   3.327
17394SOL     OW52207   2.468  10.274   1.985
17394SOL    HW152208   2.475  10.358   1.931
17394SOL    HW252209   2.514  10.287   2.073
17395SOL     OW52210   3.456   9.424   3.342
17395SOL    HW152211   3.438   9.491   3.270
17395SOL    HW252212   3.453   9.470   3.431
17396SOL     OW52213   1.984   9.953   2.425
17396SOL    HW152214   1.939   9.865   2.442
17396SOL    HW252215   1.983  10.007   2.509
17397SOL     OW52216   3.704  11.077   2.221
17397SOL    HW152217   3.758  11.048   2.301
17397SOL    HW252218   3.734  11.167   2.192
17398SOL     OW52219   1.889  10.906   1.979
17398SOL    HW152220   1.870  10.810   2.000
17398SOL    HW252221   1.856  10.964   2.054
17399SOL     OW52222   3.551  10.232   2.474
17399SOL    HW152223   3.646  10.203   2.482
17399SOL    HW252224   3.543  10.297   2.399
17400SOL     OW52225   3.503  10.418   2.294
17400SOL    HW152226   3.589  10.420   2.242
17400SOL    HW252227   3.517  10.465   2.382
17401SOL     OW52228   1.975  10.047   3.459
17401SOL    HW152229   2.063  10.034   3.504
17401SOL    HW252230   1.962  10.144   3.437
17402SOL     OW52231   2.475  10.675   2.588
17402SOL    HW152232   2.426  10.588   2.597
17402SOL    HW252233   2.452  10.718   2.501
17403SOL     OW52234   3.155  10.538   3.285
17403SOL    HW152235   3.192  10.465   3.227
17403SOL    HW252236   3.207  10.543   3.370
17404SOL     OW52237   2.671   9.314   2.364
17404SOL    HW152238   2.711   9.405   2.355
17404SOL    HW252239   2.571   9.322   2.370
17405SOL     OW52240   2.059  10.286   3.126
17405SOL    HW152241   2.148  10.241   3.112
17405SOL    HW252242   1.986  10.221   3.107
17406SOL     OW52243   3.387  10.309   2.052
17406SOL    HW152244   3.324  10.233   2.065
17406SOL    HW252245   3.435  10.327   2.138
17407SOL     OW52246   3.049  11.102   3.478
17407SOL    HW152247   3.073  11.162   3.402
17407SOL    HW252248   3.056  11.007   3.448
17408SOL     OW52249   2.179   9.561   3.663
17408SOL    HW152250   2.250   9.632   3.669
17408SOL    HW252251   2.091   9.600   3.691
17409SOL     OW52252   3.328  10.727   2.815
17409SOL    HW152253   3.269  10.733   2.895
17409SOL    HW252254   3.313  10.639   2.769
17410SOL     OW52255   3.529  11.024   2.434
17410SOL    HW152256   3.488  11.001   2.346
17410SOL    HW252257   3.511  10.950   2.499
17411SOL     OW52258   2.460  10.039   2.132
17411SOL    HW152259   2.484  10.108   2.064
17411SOL    HW252260   2.382  10.072   2.186
17412SOL     OW52261   3.143   9.655   2.806
17412SOL    HW152262   3.057   9.605   2.793
17412SOL    HW252263   3.205   9.601   2.862
17413SOL     OW52264   3.438  10.972   2.169
17413SOL    HW152265   3.527  11.018   2.172
17413SOL    HW252266   3.417  10.948   2.074
17414SOL     OW52267   2.669   9.915   3.327
17414SOL    HW152268   2.622   9.912   3.416
17414SOL    HW252269   2.618   9.860   3.261
17415SOL     OW52270   3.256   9.779   3.536
17415SOL    HW152271   3.236   9.822   3.624
17415SOL    HW252272   3.334   9.717   3.545
17416SOL     OW52273   2.835  10.200   3.434
17416SOL    HW152274   2.881  10.116   3.405
17416SOL    HW252275   2.779  10.234   3.359
17417SOL     OW52276   2.853   9.720   3.104
17417SOL    HW152277   2.776   9.754   3.158
17417SOL    HW252278   2.819   9.669   3.025
17418SOL     OW52279   2.903  10.011   2.291
17418SOL    HW152280   2.929  10.007   2.387
17418SOL    HW252281   2.818   9.960   2.277
17419SOL     OW52282   1.938  10.121   2.651
17419SOL    HW152283   2.037  10.109   2.660
17419SOL    HW252284   1.914  10.216   2.672
17420SOL     OW52285   1.992  11.131   3.433
17420SOL    HW152286   1.982  11.116   3.532
17420SOL    HW252287   1.906  11.167   3.397
17421SOL     OW52288   2.727   9.658   2.057
17421SOL    HW152289   2.786   9.721   2.008
17421SOL    HW252290   2.746   9.564   2.028
17422SOL     OW52291   3.581   9.895   3.693
17422SOL    HW152292   3.555   9.984   3.657
17422SOL    HW252293   3.579   9.827   3.620
17423SOL     OW52294   3.224  10.454   2.407
17423SOL    HW152295   3.307  10.425   2.359
17423SOL    HW252296   3.175  10.521   2.351
17424SOL     OW52297   2.412   9.506   2.747
17424SOL    HW152298   2.407   9.501   2.847
17424SOL    HW252299   2.414   9.602   2.718
17425SOL     OW52300   2.870  10.766   2.339
17425SOL    HW152301   2.824  10.838   2.287
17425SOL    HW252302   2.866  10.786   2.437
17426SOL     OW52303   2.213  11.111   2.715
17426SOL    HW152304   2.263  11.025   2.721
17426SOL    HW252305   2.278  11.188   2.712
17427SOL     OW52306   3.657  10.376   2.735
17427SOL    HW152307   3.595  10.361   2.659
17427SOL    HW252308   3.605  10.387   2.820
17428SOL     OW52309   3.089  10.860   3.368
17428SOL    HW152310   3.095  10.783   3.432
17428SOL    HW252311   3.037  10.834   3.288
17429SOL     OW52312   2.183  10.253   2.104
17429SOL    HW152313   2.265  10.292   2.062
17429SOL    HW252314   2.156  10.171   2.055
17430SOL     OW52315   3.320  10.045   2.590
17430SOL    HW152316   3.315   9.980   2.665
17430SOL    HW252317   3.400  10.104   2.603
17431SOL     OW52318   2.323  10.576   3.589
17431SOL    HW152319   2.273  10.577   3.503
17431SOL    HW252320   2.260  10.558   3.665
17432SOL     OW52321   2.973  11.086   2.099
17432SOL    HW152322   2.913  11.024   2.149
17432SOL    HW252323   3.004  11.042   2.014
17433SOL     OW52324   2.064   9.595   3.360
17433SOL    HW152325   1.984   9.655   3.347
17433SOL    HW252326   2.054   9.546   3.446
17434SOL     OW52327   3.494  10.687   1.943
17434SOL    HW152328   3.462  10.781   1.933
17434SOL    HW252329   3.418  10.624   1.931
17435SOL     OW52330   2.326  11.053   2.185
17435SOL    HW152331   2.359  11.092   2.271
17435SOL    HW252332   2.402  11.046   2.120
17436SOL     OW52333   3.262   9.417   2.288
17436SOL    HW152334   3.238   9.380   2.198
17436SOL    HW252335   3.361   9.433   2.292
17437SOL     OW52336   2.111  11.095   3.103
17437SOL    HW152337   2.168  11.030   3.153
17437SOL    HW252338   2.095  11.062   3.010
17438SOL     OW52339   2.802  11.008   2.766
17438SOL    HW152340   2.882  10.951   2.787
17438SOL    HW252341   2.753  10.968   2.689
17439SOL     OW52342   2.244  10.010   2.342
17439SOL    HW152343   2.289   9.920   2.339
17439SOL    HW252344   2.150   9.999   2.375
17440SOL     OW52345   3.409   9.532   3.591
17440SOL    HW152346   3.404   9.569   3.683
17440SOL    HW252347   3.337   9.463   3.579
17441SOL     OW52348   2.476   9.432   1.979
17441SOL    HW152349   2.574   9.410   1.986
17441SOL    HW252350   2.445   9.415   1.886
17442SOL     OW52351   2.643   9.574   3.611
17442SOL    HW152352   2.710   9.513   3.654
17442SOL    HW252353   2.570   9.593   3.676
17443SOL     OW52354   2.750  10.824   3.057
17443SOL    HW152355   2.727  10.799   2.963
17443SOL    HW252356   2.811  10.755   3.096
17444SOL     OW52357   3.213   9.900   3.295
17444SOL    HW152358   3.241   9.857   3.380
17444SOL    HW252359   3.238   9.996   3.296
17445SOL     OW52360   2.665  10.712   2.786
17445SOL    HW152361   2.755  10.726   2.744
17445SOL    HW252362   2.594  10.714   2.715
17446SOL     OW52363   2.784   9.813   2.761
17446SOL    HW152364   2.759   9.804   2.665
17446SOL    HW252365   2.832   9.731   2.792
17447SOL     OW52366   2.401   9.374   2.374
17447SOL    HW152367   2.320   9.375   2.432
17447SOL    HW252368   2.404   9.457   2.319
17448SOL     OW52369   3.296  10.498   1.903
17448SOL    HW152370   3.328  10.422   1.960
17448SOL    HW252371   3.204  10.525   1.933
17449SOL     OW52372   2.159   9.345   2.033
17449SOL    HW152373   2.208   9.429   2.012
17449SOL    HW252374   2.221   9.280   2.078
17450SOL     OW52375   2.797   9.546   2.342
17450SOL    HW152376   2.749   9.587   2.264
17450SOL    HW252377   2.896   9.544   2.323
17451SOL     OW52378   2.938   9.993   3.326
17451SOL    HW152379   2.858   9.932   3.329
17451SOL    HW252380   3.019   9.940   3.302
17452SOL     OW52381   3.089  10.880   2.655
17452SOL    HW152382   3.110  10.954   2.590
17452SOL    HW252383   3.157  10.880   2.728
17453SOL     OW52384   2.321  10.462   2.603
17453SOL    HW152385   2.250  10.435   2.668
17453SOL    HW252386   2.295  10.434   2.510
17454SOL     OW52387   3.133  11.107   2.453
17454SOL    HW152388   3.177  11.171   2.389
17454SOL    HW252389   3.083  11.159   2.523
17455SOL     OW52390   2.894   9.859   1.878
17455SOL    HW152391   2.853   9.941   1.839
17455SOL    HW252392   2.958   9.885   1.951
17456SOL     OW52393   1.940   9.866   3.248
17456SOL    HW152394   2.032   9.865   3.207
17456SOL    HW252395   1.934   9.940   3.315
17457SOL     OW52396   2.423   9.532   3.009
17457SOL    HW152397   2.461   9.448   3.046
17457SOL    HW252398   2.335   9.551   3.053
17458SOL     OW52399   2.728   9.764   2.504
17458SOL    HW152400   2.696   9.836   2.442
17458SOL    HW252401   2.752   9.683   2.451
17459SOL     OW52402   2.879   9.349   2.615
17459SOL    HW152403   2.807   9.354   2.546
17459SOL    HW252404   2.855   9.280   2.684
17460SOL     OW52405   3.291  10.483   2.729
17460SOL    HW152406   3.236  10.399   2.722
17460SOL    HW252407   3.317  10.512   2.637
17461SOL     OW52408   3.328   9.900   2.854
17461SOL    HW152409   3.298   9.805   2.861
17461SOL    HW252410   3.401   9.916   2.920
17462SOL     OW52411   3.719  10.143   2.239
17462SOL    HW152412   3.761  10.079   2.303
17462SOL    HW252413   3.681  10.092   2.161
17463SOL     OW52414   2.350  10.695   2.036
17463SOL    HW152415   2.263  10.680   2.083
17463SOL    HW252416   2.333  10.721   1.941
17464SOL     OW52417   3.526  10.590   2.519
17464SOL    HW152418   3.625  10.598   2.533
17464SOL    HW252419   3.481  10.674   2.550
17465SOL     OW52420   3.252   9.885   1.940
17465SOL    HW152421   3.198   9.864   2.021
17465SOL    HW252422   3.343   9.844   1.949
17466SOL     OW52423   2.389   9.566   2.190
17466SOL    HW152424   2.416   9.507   2.115
17466SOL    HW252425   2.389   9.661   2.159
17467SOL     OW52426   3.616  10.533   3.450
17467SOL    HW152427   3.707  10.494   3.437
17467SOL    HW252428   3.624  10.629   3.474
17468SOL     OW52429   2.926  10.657   3.202
17468SOL    HW152430   2.846  10.634   3.257
17468SOL    HW252431   3.009  10.631   3.251
17469SOL     OW52432   3.454  10.939   3.487
17469SOL    HW152433   3.481  10.973   3.397
17469SOL    HW252434   3.533  10.901   3.533
17470SOL     OW52435   2.973  10.505   2.962
17470SOL    HW152436   2.933  10.549   3.043
17470SOL    HW252437   2.932  10.542   2.879
17471SOL     OW52438   3.500  10.409   2.941
17471SOL    HW152439   3.505  10.490   3.000
17471SOL    HW252440   3.414  10.411   2.890
17472SOL     OW52441   2.777   9.399   3.264
17472SOL    HW152442   2.802   9.379   3.169
17472SOL    HW252443   2.849   9.455   3.306
17473SOL     OW52444   2.842  10.426   3.581
17473SOL    HW152445   2.743  10.432   3.591
17473SOL    HW252446   2.865  10.346   3.525
17474SOL     OW52447   2.567  10.360   2.230
17474SOL    HW152448   2.553  10.367   2.329
17474SOL    HW252449   2.651  10.309   2.212
17475SOL     OW52450   2.272  10.123   3.113
17475SOL    HW152451   2.358  10.135   3.163
17475SOL    HW252452   2.230  10.036   3.140
17476SOL     OW52453   3.136   9.696   3.124
17476SOL    HW152454   3.157   9.770   3.188
17476SOL    HW252455   3.047   9.713   3.081
17477SOL     OW52456   1.926  10.874   3.193
17477SOL    HW152457   1.880  10.956   3.159
17477SOL    HW252458   2.024  10.893   3.202
17478SOL     OW52459   2.229  10.410   2.363
17478SOL    HW152460   2.222  10.493   2.307
17478SOL    HW252461   2.233  10.330   2.303
17479SOL     OW52462   2.428   9.847   2.727
17479SOL    HW152463   2.440   9.913   2.653
17479SOL    HW252464   2.474   9.881   2.810
17480SOL     OW52465   3.114  10.658   2.250
17480SOL    HW152466   3.164  10.735   2.290
17480SOL    HW252467   3.019  10.660   2.282
17481SOL     OW52468   3.134  10.755   3.004
17481SOL    HW152469   3.181  10.768   3.091
17481SOL    HW252470   3.068  10.681   3.013
17482SOL     OW52471   3.444   9.949   2.334
17482SOL    HW152472   3.413  10.010   2.407
17482SOL    HW252473   3.494  10.001   2.265
17483SOL     OW52474   2.216  10.820   3.191
17483SOL    HW152475   2.195  10.776   3.104
17483SOL    HW252476   2.313  10.846   3.194
17484SOL     OW52477   2.264  10.061   3.460
17484SOL    HW152478   2.332  10.116   3.413
17484SOL    HW252479   2.304   9.973   3.487
17485SOL     OW52480   3.449  10.089   3.532
17485SOL    HW152481   3.357  10.127   3.527
17485SOL    HW252482   3.509  10.136   3.467
17486SOL     OW52483   2.875   9.415   3.632
17486SOL    HW152484   2.881   9.500   3.580
17486SOL    HW252485   2.907   9.339   3.575
17487SOL     OW52486   2.366   9.360   3.602
17487SOL    HW152487   2.324   9.303   3.532
17487SOL    HW252488   2.300   9.429   3.634
17488SOL     OW52489   2.435  10.180   2.891
17488SOL    HW152490   2.479  10.269   2.882
17488SOL    HW252491   2.372  10.180   2.968
17489SOL     OW52492   3.222  10.172   2.907
17489SOL    HW152493   3.147  10.172   2.841
17489SOL    HW252494   3.259  10.080   2.916
17490SOL     OW52495   3.071   9.835   2.137
17490SOL    HW152496   3.084   9.751   2.191
17490SOL    HW252497   3.042   9.909   2.197
17491SOL     OW52498   2.169   9.523   3.093
17491SOL    HW152499   2.146   9.560   3.183
17491SOL    HW252500   2.139   9.428   3.087
17492SOL     OW52501   1.899  10.620   3.144
17492SOL    HW152502   1.952  10.571   3.212
17492SOL    HW252503   1.921  10.718   3.149
17493SOL     OW52504   2.594   9.944   2.926
17493SOL    HW152505   2.653   9.918   2.850
17493SOL    HW252506   2.566  10.040   2.915
17494SOL     OW52507   3.590  10.245   3.716
17494SOL    HW152508   3.544  10.238   3.627
17494SOL    HW252509   3.528  10.289   3.782
17495SOL     OW52510   2.169   9.373   2.480
17495SOL    HW152511   2.158   9.467   2.513
17495SOL    HW252512   2.164   9.310   2.557
17496SOL     OW52513   3.484   9.677   2.236
17496SOL    HW152514   3.486   9.601   2.300
17496SOL    HW252515   3.436   9.754   2.276
17497SOL     OW52516   2.885  10.076   2.828
17497SOL    HW152517   2.900  10.097   2.924
17497SOL    HW252518   2.855   9.981   2.819
17498SOL     OW52519   2.842  10.883   3.562
17498SOL    HW152520   2.822  10.927   3.474
17498SOL    HW252521   2.881  10.792   3.546
17499SOL     OW52522   3.721  10.828   3.467
17499SOL    HW152523   3.735  10.855   3.372
17499SOL    HW252524   3.804  10.850   3.520
17500SOL     OW52525   2.212  10.208   3.666
17500SOL    HW152526   2.288  10.252   3.714
17500SOL    HW252527   2.247  10.161   3.584
17501SOL     OW52528   3.402   9.584   1.987
17501SOL    HW152529   3.341   9.509   2.010
17501SOL    HW252530   3.424   9.636   2.070
17502SOL     OW52531   3.165  10.148   1.904
17502SOL    HW152532   3.199  10.055   1.919
17502SOL    HW252533   3.183  10.175   1.809
17503SOL     OW52534   2.930  10.643   2.711
17503SOL    HW152535   2.937  10.559   2.656
17503SOL    HW252536   2.992  10.712   2.675
17504SOL     OW52537   2.181  10.120   2.811
17504SOL    HW152538   2.274  10.156   2.816
17504SOL    HW252539   2.175  10.035   2.863
17505SOL     OW52540   2.201   9.819   2.868
17505SOL    HW152541   2.149   9.736   2.851
17505SOL    HW252542   2.278   9.824   2.804
17506SOL     OW52543   3.000   9.690   3.540
17506SOL    HW152544   2.955   9.753   3.604
17506SOL    HW252545   3.093   9.721   3.523
17507SOL     OW52546   3.022   9.517   3.339
17507SOL    HW152547   3.022   9.581   3.416
17507SOL    HW252548   3.050   9.565   3.256
17508SOL     OW52549   1.870  10.636   2.062
17508SOL    HW152550   1.777  10.657   2.031
17508SOL    HW252551   1.880  10.537   2.075
17509SOL     OW52552   1.950  11.111   2.789
17509SOL    HW152553   1.908  11.025   2.762
17509SOL    HW252554   2.044  11.114   2.755
17510SOL     OW52555   2.366  10.878   2.772
17510SOL    HW152556   2.432  10.952   2.781
17510SOL    HW252557   2.410  10.799   2.730
17511SOL     OW52558   2.864  10.106   3.100
17511SOL    HW152559   2.905  10.074   3.186
17511SOL    HW252560   2.768  10.079   3.097
17512SOL     OW52561   1.902   9.854   2.976
17512SOL    HW152562   1.987   9.821   2.935
17512SOL    HW252563   1.915   9.869   3.074
17513SOL     OW52564   2.051   9.830   3.584
17513SOL    HW152565   2.110   9.790   3.514
17513SOL    HW252566   1.993   9.901   3.543
17514SOL     OW52567   3.231  10.260   3.522
17514SOL    HW152568   3.270  10.349   3.542
17514SOL    HW252569   3.241  10.240   3.425
17515SOL     OW52570   2.677   9.882   2.187
17515SOL    HW152571   2.684   9.793   2.141
17515SOL    HW252572   2.583   9.916   2.179
17516SOL     OW52573   3.519   9.914   3.068
17516SOL    HW152574   3.481   9.845   3.130
17516SOL    HW252575   3.601   9.878   3.024
17517SOL     OW52576   2.114  10.874   3.606
17517SOL    HW152577   2.084  10.931   3.682
17517SOL    HW252578   2.107  10.777   3.632
17518SOL     OW52579   2.533   9.774   3.131
17518SOL    HW152580   2.499   9.685   3.101
17518SOL    HW252581   2.559   9.828   3.051
17519SOL     OW52582   2.792  10.988   3.327
17519SOL    HW152583   2.768  10.970   3.232
17519SOL    HW252584   2.822  11.082   3.337
17520SOL     OW52585   2.335   9.810   2.053
17520SOL    HW152586   2.396   9.890   2.057
17520SOL    HW252587   2.240   9.841   2.060
17521SOL     OW52588   2.021  10.447   3.328
17521SOL    HW152589   2.043  10.386   3.404
17521SOL    HW252590   2.031  10.398   3.242
17522SOL     OW52591   3.209  10.369   3.096
17522SOL    HW152592   3.233  10.306   3.022
17522SOL    HW252593   3.119  10.409   3.078
17523SOL     OW52594   3.164  10.165   2.171
17523SOL    HW152595   3.078  10.134   2.213
17523SOL    HW252596   3.160  10.151   2.072
17524SOL     OW52597   3.621  11.057   3.016
17524SOL    HW152598   3.682  11.087   2.943
17524SOL    HW252599   3.583  10.968   2.994
17525SOL     OW52600   3.114  11.041   2.990
17525SOL    HW152601   3.198  11.046   2.936
17525SOL    HW252602   3.091  10.945   3.008
17526SOL     OW52603   1.945  10.568   2.884
17526SOL    HW152604   1.940  10.567   2.984
17526SOL    HW252605   1.862  10.527   2.846
17527SOL     OW52606   2.550  10.972   3.578
17527SOL    HW152607   2.494  11.053   3.587
17527SOL    HW252608   2.602  10.976   3.492
17528SOL     OW52609   3.588   9.445   2.385
17528SOL    HW152610   3.661   9.428   2.318
17528SOL    HW252611   3.557   9.358   2.423
17529SOL     OW52612   3.250  10.883   2.339
17529SOL    HW152613   3.317  10.895   2.265
17529SOL    HW252614   3.210  10.972   2.362
17530SOL     OW52615   1.992  11.104   3.713
17530SOL    HW152616   1.951  11.030   3.766
17530SOL    HW252617   2.056  11.155   3.771
17531SOL     OW52618   3.142  10.237   2.534
17531SOL    HW152619   3.202  10.156   2.536
17531SOL    HW252620   3.182  10.306   2.474
17532SOL     OW52621   2.692  10.583   3.284
17532SOL    HW152622   2.687  10.616   3.379
17532SOL    HW252623   2.606  10.602   3.238
17533SOL     OW52624   2.534  10.926   2.016
17533SOL    HW152625   2.543  10.936   1.917
17533SOL    HW252626   2.494  10.837   2.037
17534SOL     OW52627   3.512  11.030   3.256
17534SOL    HW152628   3.565  11.040   3.172
17534SOL    HW252629   3.485  11.120   3.290
17535SOL     OW52630   3.703   9.485   2.825
17535SOL    HW152631   3.742   9.400   2.789
17535SOL    HW252632   3.605   9.487   2.806
17536SOL     OW52633   2.125   9.636   2.582
17536SOL    HW152634   2.046   9.687   2.548
17536SOL    HW252635   2.116   9.621   2.680
17537SOL     OW52636   3.056  10.922   1.893
17537SOL    HW152637   3.062  10.829   1.930
17537SOL    HW252638   2.997  10.922   1.813
17538SOL     OW52639   2.684  10.312   3.234
17538SOL    HW152640   2.724  10.311   3.142
17538SOL    HW252641   2.694  10.404   3.274
17539SOL     OW52642   2.778  10.220   2.153
17539SOL    HW152643   2.841  10.258   2.085
17539SOL    HW252644   2.818  10.137   2.192
17540SOL     OW52645   3.366  10.917   1.906
17540SOL    HW152646   3.274  10.954   1.913
17540SOL    HW252647   3.404  10.937   1.816
17541SOL     OW52648   2.234  10.598   3.352
17541SOL    HW152649   2.221  10.691   3.318
17541SOL    HW252650   2.150  10.546   3.339
17542SOL     OW52651   3.476  10.602   3.151
17542SOL    HW152652   3.536  10.605   3.231
17542SOL    HW252653   3.401  10.666   3.164
17543SOL     OW52654   2.901  10.408   2.558
17543SOL    HW152655   2.831  10.361   2.612
17543SOL    HW252656   2.960  10.340   2.515
17544SOL     OW52657   2.876   9.546   2.833
17544SOL    HW152658   2.868   9.510   2.740
17544SOL    HW252659   2.874   9.470   2.898
17545SOL     OW52660   2.452  10.797   2.353
17545SOL    HW152661   2.494  10.739   2.283
17545SOL    HW252662   2.408  10.876   2.309
17546SOL     OW52663   3.571   9.695   3.243
17546SOL    HW152664   3.644   9.764   3.247
17546SOL    HW252665   3.599   9.620   3.184
17547SOL     OW52666   2.117  10.658   2.152
17547SOL    HW152667   2.021  10.659   2.125
17547SOL    HW252668   2.129  10.711   2.236
17548SOL     OW52669   1.967  10.323   3.588
17548SOL    HW152670   1.890  10.290   3.642
17548SOL    HW252671   2.052  10.293   3.630
17549SOL     OW52672   2.534   9.513   3.351
17549SOL    HW152673   2.624   9.497   3.311
17549SOL    HW252674   2.542   9.518   3.450
17550SOL     OW52675   1.937   9.655   1.895
17550SOL    HW152676   1.845   9.627   1.866
17550SOL    HW252677   1.968   9.732   1.839
17551SOL     OW52678   3.302  10.166   3.260
17551SOL    HW152679   3.245  10.218   3.197
17551SOL    HW252680   3.398  10.178   3.236
17552SOL     OW52681   1.934   9.476   2.180
17552SOL    HW152682   1.917   9.559   2.126
17552SOL    HW252683   2.024   9.439   2.158
17553SOL     OW52684   3.045  10.645   1.981
17553SOL    HW152685   2.946  10.634   1.983
17553SOL    HW252686   3.079  10.660   2.074
17554SOL     OW52687   2.475  10.152   3.293
17554SOL    HW152688   2.531  10.233   3.276
17554SOL    HW252689   2.534  10.072   3.296
17555SOL     OW52690   3.355  11.077   2.821
17555SOL    HW152691   3.388  11.141   2.752
17555SOL    HW252692   3.421  11.071   2.896
17556SOL     OW52693   2.578   9.875   3.570
17556SOL    HW152694   2.597   9.940   3.644
17556SOL    HW252695   2.638   9.795   3.579
17557SOL     OW52696   3.312  10.530   3.495
17557SOL    HW152697   3.303  10.520   3.594
17557SOL    HW252698   3.408  10.523   3.469
17558SOL     OW52699   2.252  11.051   3.422
17558SOL    HW152700   2.161  11.092   3.420
17558SOL    HW252701   2.245  10.957   3.454
17559SOL     OW52702   3.536  10.193   3.116
17559SOL    HW152703   3.509  10.104   3.079
17559SOL    HW252704   3.537  10.261   3.043
17560SOL     OW52705   3.087   9.635   2.311
17560SOL    HW152706   3.152   9.561   2.300
17560SOL    HW252707   3.107   9.685   2.395
17561SOL     OW52708   2.456  10.055   2.514
17561SOL    HW152709   2.506  10.140   2.495
17561SOL    HW252710   2.368  10.057   2.466
17562SOL     OW52711   3.639   9.652   3.504
17562SOL    HW152712   3.622   9.683   3.410
17562SOL    HW252713   3.555   9.615   3.542
17563SOL     OW52714   3.592  10.244   3.379
17563SOL    HW152715   3.630  10.335   3.394
17563SOL    HW252716   3.584  10.227   3.280
17564SOL     OW52717   2.721  10.684   1.878
17564SOL    HW152718   2.675  10.699   1.966
17564SOL    HW252719   2.765  10.769   1.848
17565SOL     OW52720   2.523  11.100   2.815
17565SOL    HW152721   2.477  11.188   2.802
17565SOL    HW252722   2.622  11.112   2.808
17566SOL     OW52723   2.721  10.266   2.723
17566SOL    HW152724   2.775  10.197   2.771
17566SOL    HW252725   2.689  10.335   2.789
17567SOL     OW52726   2.945  10.294   1.949
17567SOL    HW152727   2.922  10.347   1.867
17567SOL    HW252728   3.026  10.238   1.930
17568SOL     OW52729   3.723  10.879   2.713
17568SOL    HW152730   3.652  10.867   2.643
17568SOL    HW252731   3.724  10.800   2.773
17569SOL     OW52732   2.083  10.624   3.706
17569SOL    HW152733   2.018  10.551   3.685
17569SOL    HW252734   2.087  10.638   3.804
17570SOL     OW52735   1.941  10.550   2.515
17570SOL    HW152736   1.940  10.503   2.603
17570SOL    HW252737   2.023  10.522   2.464
17571SOL     OW52738   2.534  10.701   3.486
17571SOL    HW152739   2.456  10.651   3.524
17571SOL    HW252740   2.531  10.796   3.517
17572SOL     OW52741   3.686   9.502   3.089
17572SOL    HW152742   3.682   9.412   3.133
17572SOL    HW252743   3.689   9.491   2.990
17573SOL     OW52744   2.290   9.734   2.382
17573SOL    HW152745   2.320   9.662   2.320
17573SOL    HW252746   2.251   9.694   2.465
17574SOL     OW52747   3.567  10.797   2.966
17574SOL    HW152748   3.474  10.772   2.939
17574SOL    HW252749   3.593  10.747   3.048
17575SOL     OW52750   2.179   9.857   3.142
17575SOL    HW152751   2.217   9.798   3.214
17575SOL    HW252752   2.219   9.831   3.054
17576SOL     OW52753   2.674  10.896   2.549
17576SOL    HW152754   2.706  10.906   2.455
17576SOL    HW252755   2.595  10.834   2.551
17577SOL     OW52756   3.286   9.524   2.974
17577SOL    HW152757   3.338   9.459   3.029
17577SOL    HW252758   3.237   9.587   3.035
17578SOL     OW52759   2.863   9.344   3.016
17578SOL    HW152760   2.800   9.272   2.985
17578SOL    HW252761   2.956   9.308   3.016
17579SOL     OW52762   2.632  10.640   2.163
17579SOL    HW152763   2.586  10.553   2.180
17579SOL    HW252764   2.723  10.637   2.204
17580SOL     OW52765   2.480  10.877   3.146
17580SOL    HW152766   2.475  10.959   3.203
17580SOL    HW252767   2.569  10.874   3.101
17581SOL     OW52768   3.214   9.362   2.030
17581SOL    HW152769   3.249   9.321   1.946
17581SOL    HW252770   3.124   9.324   2.050
17582SOL     OW52771   3.162   9.763   2.553
17582SOL    HW152772   3.103   9.843   2.557
17582SOL    HW252773   3.177   9.728   2.646
17583SOL     OW52774   3.455   9.531   2.744
17583SOL    HW152775   3.371   9.530   2.798
17583SOL    HW252776   3.457   9.614   2.688
17584SOL     OW52777   1.901  10.387   2.162
17584SOL    HW152778   2.000  10.376   2.153
17584SOL    HW252779   1.861  10.301   2.194
17585SOL     OW52780   2.737  10.956   2.199
17585SOL    HW152781   2.660  10.921   2.145
17585SOL    HW252782   2.705  11.027   2.261
17586SOL     OW52783   2.092   9.938   3.837
17586SOL    HW152784   1.999   9.936   3.874
17586SOL    HW252785   2.093   9.899   3.745
17587SOL     OW52786   2.087   9.585   4.720
17587SOL    HW152787   2.122   9.568   4.812
17587SOL    HW252788   1.999   9.540   4.708
17588SOL     OW52789   1.881   9.678   4.371
17588SOL    HW152790   1.799   9.721   4.410
17588SOL    HW252791   1.853   9.605   4.308
17589SOL     OW52792   2.431  10.585   4.889
17589SOL    HW152793   2.338  10.578   4.852
17589SOL    HW252794   2.442  10.674   4.933
17590SOL     OW52795   3.417  10.821   4.427
17590SOL    HW152796   3.360  10.805   4.508
17590SOL    HW252797   3.358  10.831   4.347
17591SOL     OW52798   2.997  10.013   4.441
17591SOL    HW152799   3.054  10.091   4.416
17591SOL    HW252800   2.937  10.039   4.517
17592SOL     OW52801   3.617   9.917   3.955
17592SOL    HW152802   3.605   9.904   3.856
17592SOL    HW252803   3.587   9.836   4.004
17593SOL     OW52804   2.630  10.454   4.747
17593SOL    HW152805   2.552  10.471   4.807
17593SOL    HW252806   2.664  10.541   4.711
17594SOL     OW52807   2.712  10.108   5.547
17594SOL    HW152808   2.708  10.184   5.612
17594SOL    HW252809   2.734  10.144   5.456
17595SOL     OW52810   2.547  10.322   4.389
17595SOL    HW152811   2.616  10.306   4.459
17595SOL    HW252812   2.474  10.379   4.427
17596SOL     OW52813   2.548  10.471   5.527
17596SOL    HW152814   2.608  10.550   5.541
17596SOL    HW252815   2.462  10.502   5.486
17597SOL     OW52816   2.197  10.745   4.785
17597SOL    HW152817   2.119  10.714   4.732
17597SOL    HW252818   2.255  10.803   4.728
17598SOL     OW52819   3.322  10.815   5.063
17598SOL    HW152820   3.346  10.909   5.089
17598SOL    HW252821   3.306  10.761   5.145
17599SOL     OW52822   2.300   9.702   5.223
17599SOL    HW152823   2.382   9.646   5.232
17599SOL    HW252824   2.219   9.644   5.227
17600SOL     OW52825   3.465   9.757   4.461
17600SOL    HW152826   3.391   9.803   4.411
17600SOL    HW252827   3.516   9.825   4.514
17601SOL     OW52828   2.093  11.023   4.207
17601SOL    HW152829   2.127  11.100   4.261
17601SOL    HW252830   2.137  11.023   4.117
17602SOL     OW52831   2.989  10.651   5.414
17602SOL    HW152832   3.036  10.651   5.502
17602SOL    HW252833   2.941  10.564   5.403
17603SOL     OW52834   2.092  10.744   4.262
17603SOL    HW152835   2.066  10.840   4.262
17603SOL    HW252836   2.021  10.690   4.307
17604SOL     OW52837   2.102  10.401   4.610
17604SOL    HW152838   2.116  10.317   4.662
17604SOL    HW252839   2.047  10.465   4.665
17605SOL     OW52840   2.482  11.096   5.163
17605SOL    HW152841   2.390  11.079   5.198
17605SOL    HW252842   2.510  11.188   5.189
17606SOL     OW52843   2.468  10.274   3.847
17606SOL    HW152844   2.475  10.358   3.793
17606SOL    HW252845   2.514  10.287   3.935
17607SOL     OW52846   3.456   9.424   5.204
17607SOL    HW152847   3.438   9.491   5.132
17607SOL    HW252848   3.453   9.470   5.293
17608SOL     OW52849   1.984   9.953   4.287
17608SOL    HW152850   1.939   9.865   4.304
17608SOL    HW252851   1.983  10.007   4.371
17609SOL     OW52852   3.704  11.077   4.083
17609SOL    HW152853   3.758  11.048   4.163
17609SOL    HW252854   3.734  11.167   4.054
17610SOL     OW52855   1.889  10.906   3.841
17610SOL    HW152856   1.870  10.810   3.862
17610SOL    HW252857   1.856  10.964   3.916
17611SOL     OW52858   3.551  10.232   4.336
17611SOL    HW152859   3.646  10.203   4.344
17611SOL    HW252860   3.543  10.297   4.261
17612SOL     OW52861   3.503  10.418   4.156
17612SOL    HW152862   3.589  10.420   4.104
17612SOL    HW252863   3.517  10.465   4.244
17613SOL     OW52864   1.975  10.047   5.321
17613SOL    HW152865   2.063  10.034   5.366
17613SOL    HW252866   1.962  10.144   5.299
17614SOL     OW52867   2.475  10.675   4.450
17614SOL    HW152868   2.426  10.588   4.459
17614SOL    HW252869   2.452  10.718   4.363
17615SOL     OW52870   3.155  10.538   5.147
17615SOL    HW152871   3.192  10.465   5.089
17615SOL    HW252872   3.207  10.543   5.232
17616SOL     OW52873   2.671   9.314   4.226
17616SOL    HW152874   2.711   9.405   4.217
17616SOL    HW252875   2.571   9.322   4.232
17617SOL     OW52876   2.059  10.286   4.988
17617SOL    HW152877   2.148  10.241   4.974
17617SOL    HW252878   1.986  10.221   4.969
17618SOL     OW52879   3.387  10.309   3.914
17618SOL    HW152880   3.324  10.233   3.927
17618SOL    HW252881   3.435  10.327   4.000
17619SOL     OW52882   3.049  11.102   5.340
17619SOL    HW152883   3.073  11.162   5.264
17619SOL    HW252884   3.056  11.007   5.310
17620SOL     OW52885   2.179   9.561   5.525
17620SOL    HW152886   2.250   9.632   5.531
17620SOL    HW252887   2.091   9.600   5.553
17621SOL     OW52888   3.328  10.727   4.677
17621SOL    HW152889   3.269  10.733   4.757
17621SOL    HW252890   3.313  10.639   4.631
17622SOL     OW52891   3.529  11.024   4.296
17622SOL    HW152892   3.488  11.001   4.208
17622SOL    HW252893   3.511  10.950   4.361
17623SOL     OW52894   2.460  10.039   3.994
17623SOL    HW152895   2.484  10.108   3.926
17623SOL    HW252896   2.382  10.072   4.048
17624SOL     OW52897   3.143   9.655   4.668
17624SOL    HW152898   3.057   9.605   4.655
17624SOL    HW252899   3.205   9.601   4.724
17625SOL     OW52900   3.438  10.972   4.031
17625SOL    HW152901   3.527  11.018   4.034
17625SOL    HW252902   3.417  10.948   3.936
17626SOL     OW52903   2.669   9.915   5.189
17626SOL    HW152904   2.622   9.912   5.278
17626SOL    HW252905   2.618   9.860   5.123
17627SOL     OW52906   3.256   9.779   5.398
17627SOL    HW152907   3.236   9.822   5.486
17627SOL    HW252908   3.334   9.717   5.407
17628SOL     OW52909   2.835  10.200   5.296
17628SOL    HW152910   2.881  10.116   5.267
17628SOL    HW252911   2.779  10.234   5.221
17629SOL     OW52912   2.853   9.720   4.966
17629SOL    HW152913   2.776   9.754   5.020
17629SOL    HW252914   2.819   9.669   4.887
17630SOL     OW52915   2.903  10.011   4.153
17630SOL    HW152916   2.929  10.007   4.249
17630SOL    HW252917   2.818   9.960   4.139
17631SOL     OW52918   1.938  10.121   4.513
17631SOL    HW152919   2.037  10.109   4.522
17631SOL    HW252920   1.914  10.216   4.534
17632SOL     OW52921   1.992  11.131   5.295
17632SOL    HW152922   1.982  11.116   5.394
17632SOL    HW252923   1.906  11.167   5.259
17633SOL     OW52924   2.727   9.658   3.919
17633SOL    HW152925   2.786   9.721   3.870
17633SOL    HW252926   2.746   9.564   3.890
17634SOL     OW52927   3.581   9.895   5.555
17634SOL    HW152928   3.555   9.984   5.519
17634SOL    HW252929   3.579   9.827   5.482
17635SOL     OW52930   3.224  10.454   4.269
17635SOL    HW152931   3.307  10.425   4.221
17635SOL    HW252932   3.175  10.521   4.213
17636SOL     OW52933   2.412   9.506   4.609
17636SOL    HW152934   2.407   9.501   4.709
17636SOL    HW252935   2.414   9.602   4.580
17637SOL     OW52936   2.870  10.766   4.201
17637SOL    HW152937   2.824  10.838   4.149
17637SOL    HW252938   2.866  10.786   4.299
17638SOL     OW52939   2.213  11.111   4.577
17638SOL    HW152940   2.263  11.025   4.583
17638SOL    HW252941   2.278  11.188   4.574
17639SOL     OW52942   3.657  10.376   4.597
17639SOL    HW152943   3.595  10.361   4.521
17639SOL    HW252944   3.605  10.387   4.682
17640SOL     OW52945   3.089  10.860   5.230
17640SOL    HW152946   3.095  10.783   5.294
17640SOL    HW252947   3.037  10.834   5.150
17641SOL     OW52948   2.183  10.253   3.966
17641SOL    HW152949   2.265  10.292   3.924
17641SOL    HW252950   2.156  10.171   3.917
17642SOL     OW52951   3.320  10.045   4.452
17642SOL    HW152952   3.315   9.980   4.527
17642SOL    HW252953   3.400  10.104   4.465
17643SOL     OW52954   2.323  10.576   5.451
17643SOL    HW152955   2.273  10.577   5.365
17643SOL    HW252956   2.260  10.558   5.527
17644SOL     OW52957   2.973  11.086   3.961
17644SOL    HW152958   2.913  11.024   4.011
17644SOL    HW252959   3.004  11.042   3.876
17645SOL     OW52960   2.064   9.595   5.222
17645SOL    HW152961   1.984   9.655   5.209
17645SOL    HW252962   2.054   9.546   5.308
17646SOL     OW52963   3.494  10.687   3.805
17646SOL    HW152964   3.462  10.781   3.795
17646SOL    HW252965   3.418  10.624   3.793
17647SOL     OW52966   2.326  11.053   4.047
17647SOL    HW152967   2.359  11.092   4.133
17647SOL    HW252968   2.402  11.046   3.982
17648SOL     OW52969   3.262   9.417   4.150
17648SOL    HW152970   3.238   9.380   4.060
17648SOL    HW252971   3.361   9.433   4.154
17649SOL     OW52972   2.111  11.095   4.965
17649SOL    HW152973   2.168  11.030   5.015
17649SOL    HW252974   2.095  11.062   4.872
17650SOL     OW52975   2.802  11.008   4.628
17650SOL    HW152976   2.882  10.951   4.649
17650SOL    HW252977   2.753  10.968   4.551
17651SOL     OW52978   2.244  10.010   4.204
17651SOL    HW152979   2.289   9.920   4.201
17651SOL    HW252980   2.150   9.999   4.237
17652SOL     OW52981   3.409   9.532   5.453
17652SOL    HW152982   3.404   9.569   5.545
17652SOL    HW252983   3.337   9.463   5.441
17653SOL     OW52984   2.476   9.432   3.841
17653SOL    HW152985   2.574   9.410   3.848
17653SOL    HW252986   2.445   9.415   3.748
17654SOL     OW52987   2.643   9.574   5.473
17654SOL    HW152988   2.710   9.513   5.516
17654SOL    HW252989   2.570   9.593   5.538
17655SOL     OW52990   2.750  10.824   4.919
17655SOL    HW152991   2.727  10.799   4.825
17655SOL    HW252992   2.811  10.755   4.958
17656SOL     OW52993   3.213   9.900   5.157
17656SOL    HW152994   3.241   9.857   5.242
17656SOL    HW252995   3.238   9.996   5.158
17657SOL     OW52996   2.665  10.712   4.648
17657SOL    HW152997   2.755  10.726   4.606
17657SOL    HW252998   2.594  10.714   4.577
17658SOL     OW52999   2.784   9.813   4.623
17658SOL    HW153000   2.759   9.804   4.527
17658SOL    HW253001   2.832   9.731   4.654
17659SOL     OW53002   2.401   9.374   4.236
17659SOL    HW153003   2.320   9.375   4.294
17659SOL    HW253004   2.404   9.457   4.181
17660SOL     OW53005   3.296  10.498   3.765
17660SOL    HW153006   3.328  10.422   3.822
17660SOL    HW253007   3.204  10.525   3.795
17661SOL     OW53008   2.159   9.345   3.895
17661SOL    HW153009   2.208   9.429   3.874
17661SOL    HW253010   2.221   9.280   3.940
17662SOL     OW53011   2.797   9.546   4.204
17662SOL    HW153012   2.749   9.587   4.126
17662SOL    HW253013   2.896   9.544   4.185
17663SOL     OW53014   2.938   9.993   5.188
17663SOL    HW153015   2.858   9.932   5.191
17663SOL    HW253016   3.019   9.940   5.164
17664SOL     OW53017   3.089  10.880   4.517
17664SOL    HW153018   3.110  10.954   4.452
17664SOL    HW253019   3.157  10.880   4.590
17665SOL     OW53020   2.321  10.462   4.465
17665SOL    HW153021   2.250  10.435   4.530
17665SOL    HW253022   2.295  10.434   4.372
17666SOL     OW53023   3.133  11.107   4.315
17666SOL    HW153024   3.177  11.171   4.251
17666SOL    HW253025   3.083  11.159   4.385
17667SOL     OW53026   2.894   9.859   3.740
17667SOL    HW153027   2.853   9.941   3.701
17667SOL    HW253028   2.958   9.885   3.813
17668SOL     OW53029   1.940   9.866   5.110
17668SOL    HW153030   2.032   9.865   5.069
17668SOL    HW253031   1.934   9.940   5.177
17669SOL     OW53032   2.423   9.532   4.871
17669SOL    HW153033   2.461   9.448   4.908
17669SOL    HW253034   2.335   9.551   4.915
17670SOL     OW53035   2.728   9.764   4.366
17670SOL    HW153036   2.696   9.836   4.304
17670SOL    HW253037   2.752   9.683   4.313
17671SOL     OW53038   2.879   9.349   4.477
17671SOL    HW153039   2.807   9.354   4.408
17671SOL    HW253040   2.855   9.280   4.546
17672SOL     OW53041   3.291  10.483   4.591
17672SOL    HW153042   3.236  10.399   4.584
17672SOL    HW253043   3.317  10.512   4.499
17673SOL     OW53044   3.328   9.900   4.716
17673SOL    HW153045   3.298   9.805   4.723
17673SOL    HW253046   3.401   9.916   4.782
17674SOL     OW53047   3.719  10.143   4.101
17674SOL    HW153048   3.761  10.079   4.165
17674SOL    HW253049   3.681  10.092   4.023
17675SOL     OW53050   2.350  10.695   3.898
17675SOL    HW153051   2.263  10.680   3.945
17675SOL    HW253052   2.333  10.721   3.803
17676SOL     OW53053   3.526  10.590   4.381
17676SOL    HW153054   3.625  10.598   4.395
17676SOL    HW253055   3.481  10.674   4.412
17677SOL     OW53056   3.252   9.885   3.802
17677SOL    HW153057   3.198   9.864   3.883
17677SOL    HW253058   3.343   9.844   3.811
17678SOL     OW53059   2.389   9.566   4.052
17678SOL    HW153060   2.416   9.507   3.977
17678SOL    HW253061   2.389   9.661   4.021
17679SOL     OW53062   3.616  10.533   5.312
17679SOL    HW153063   3.707  10.494   5.299
17679SOL    HW253064   3.624  10.629   5.336
17680SOL     OW53065   2.926  10.657   5.064
17680SOL    HW153066   2.846  10.634   5.119
17680SOL    HW253067   3.009  10.631   5.113
17681SOL     OW53068   3.454  10.939   5.349
17681SOL    HW153069   3.481  10.973   5.259
17681SOL    HW253070   3.533  10.901   5.395
17682SOL     OW53071   2.973  10.505   4.824
17682SOL    HW153072   2.933  10.549   4.905
17682SOL    HW253073   2.932  10.542   4.741
17683SOL     OW53074   3.500  10.409   4.803
17683SOL    HW153075   3.505  10.490   4.862
17683SOL    HW253076   3.414  10.411   4.752
17684SOL     OW53077   2.777   9.399   5.126
17684SOL    HW153078   2.802   9.379   5.031
17684SOL    HW253079   2.849   9.455   5.168
17685SOL     OW53080   2.842  10.426   5.443
17685SOL    HW153081   2.743  10.432   5.453
17685SOL    HW253082   2.865  10.346   5.387
17686SOL     OW53083   2.567  10.360   4.092
17686SOL    HW153084   2.553  10.367   4.191
17686SOL    HW253085   2.651  10.309   4.074
17687SOL     OW53086   2.272  10.123   4.975
17687SOL    HW153087   2.358  10.135   5.025
17687SOL    HW253088   2.230  10.036   5.002
17688SOL     OW53089   3.136   9.696   4.986
17688SOL    HW153090   3.157   9.770   5.050
17688SOL    HW253091   3.047   9.713   4.943
17689SOL     OW53092   1.926  10.874   5.055
17689SOL    HW153093   1.880  10.956   5.021
17689SOL    HW253094   2.024  10.893   5.064
17690SOL     OW53095   2.229  10.410   4.225
17690SOL    HW153096   2.222  10.493   4.169
17690SOL    HW253097   2.233  10.330   4.165
17691SOL     OW53098   2.428   9.847   4.589
17691SOL    HW153099   2.440   9.913   4.515
17691SOL    HW253100   2.474   9.881   4.672
17692SOL     OW53101   3.114  10.658   4.112
17692SOL    HW153102   3.164  10.735   4.152
17692SOL    HW253103   3.019  10.660   4.144
17693SOL     OW53104   3.134  10.755   4.866
17693SOL    HW153105   3.181  10.768   4.953
17693SOL    HW253106   3.068  10.681   4.875
17694SOL     OW53107   3.444   9.949   4.196
17694SOL    HW153108   3.413  10.010   4.269
17694SOL    HW253109   3.494  10.001   4.127
17695SOL     OW53110   2.216  10.820   5.053
17695SOL    HW153111   2.195  10.776   4.966
17695SOL    HW253112   2.313  10.846   5.056
17696SOL     OW53113   2.264  10.061   5.322
17696SOL    HW153114   2.332  10.116   5.275
17696SOL    HW253115   2.304   9.973   5.349
17697SOL     OW53116   3.449  10.089   5.394
17697SOL    HW153117   3.357  10.127   5.389
17697SOL    HW253118   3.509  10.136   5.329
17698SOL     OW53119   2.875   9.415   5.494
17698SOL    HW153120   2.881   9.500   5.442
17698SOL    HW253121   2.907   9.339   5.437
17699SOL     OW53122   2.366   9.360   5.464
17699SOL    HW153123   2.324   9.303   5.394
17699SOL    HW253124   2.300   9.429   5.496
17700SOL     OW53125   2.435  10.180   4.753
17700SOL    HW153126   2.479  10.269   4.744
17700SOL    HW253127   2.372  10.180   4.830
17701SOL     OW53128   3.222  10.172   4.769
17701SOL    HW153129   3.147  10.172   4.703
17701SOL    HW253130   3.259  10.080   4.778
17702SOL     OW53131   3.071   9.835   3.999
17702SOL    HW153132   3.084   9.751   4.053
17702SOL    HW253133   3.042   9.909   4.059
17703SOL     OW53134   2.169   9.523   4.955
17703SOL    HW153135   2.146   9.560   5.045
17703SOL    HW253136   2.139   9.428   4.949
17704SOL     OW53137   1.899  10.620   5.006
17704SOL    HW153138   1.952  10.571   5.074
17704SOL    HW253139   1.921  10.718   5.011
17705SOL     OW53140   2.594   9.944   4.788
17705SOL    HW153141   2.653   9.918   4.712
17705SOL    HW253142   2.566  10.040   4.777
17706SOL     OW53143   3.590  10.245   5.578
17706SOL    HW153144   3.544  10.238   5.489
17706SOL    HW253145   3.528  10.289   5.644
17707SOL     OW53146   2.169   9.373   4.342
17707SOL    HW153147   2.158   9.467   4.375
17707SOL    HW253148   2.164   9.310   4.419
17708SOL     OW53149   3.484   9.677   4.098
17708SOL    HW153150   3.486   9.601   4.162
17708SOL    HW253151   3.436   9.754   4.138
17709SOL     OW53152   2.885  10.076   4.690
17709SOL    HW153153   2.900  10.097   4.786
17709SOL    HW253154   2.855   9.981   4.681
17710SOL     OW53155   2.842  10.883   5.424
17710SOL    HW153156   2.822  10.927   5.336
17710SOL    HW253157   2.881  10.792   5.408
17711SOL     OW53158   3.721  10.828   5.329
17711SOL    HW153159   3.735  10.855   5.234
17711SOL    HW253160   3.804  10.850   5.382
17712SOL     OW53161   2.212  10.208   5.528
17712SOL    HW153162   2.288  10.252   5.576
17712SOL    HW253163   2.247  10.161   5.446
17713SOL     OW53164   3.402   9.584   3.849
17713SOL    HW153165   3.341   9.509   3.872
17713SOL    HW253166   3.424   9.636   3.932
17714SOL     OW53167   3.165  10.148   3.766
17714SOL    HW153168   3.199  10.055   3.781
17714SOL    HW253169   3.183  10.175   3.671
17715SOL     OW53170   2.930  10.643   4.573
17715SOL    HW153171   2.937  10.559   4.518
17715SOL    HW253172   2.992  10.712   4.537
17716SOL     OW53173   2.181  10.120   4.673
17716SOL    HW153174   2.274  10.156   4.678
17716SOL    HW253175   2.175  10.035   4.725
17717SOL     OW53176   2.201   9.819   4.730
17717SOL    HW153177   2.149   9.736   4.713
17717SOL    HW253178   2.278   9.824   4.666
17718SOL     OW53179   3.000   9.690   5.402
17718SOL    HW153180   2.955   9.753   5.466
17718SOL    HW253181   3.093   9.721   5.385
17719SOL     OW53182   3.022   9.517   5.201
17719SOL    HW153183   3.022   9.581   5.278
17719SOL    HW253184   3.050   9.565   5.118
17720SOL     OW53185   1.870  10.636   3.924
17720SOL    HW153186   1.777  10.657   3.893
17720SOL    HW253187   1.880  10.537   3.937
17721SOL     OW53188   1.950  11.111   4.651
17721SOL    HW153189   1.908  11.025   4.624
17721SOL    HW253190   2.044  11.114   4.617
17722SOL     OW53191   2.366  10.878   4.634
17722SOL    HW153192   2.432  10.952   4.643
17722SOL    HW253193   2.410  10.799   4.592
17723SOL     OW53194   2.864  10.106   4.962
17723SOL    HW153195   2.905  10.074   5.048
17723SOL    HW253196   2.768  10.079   4.959
17724SOL     OW53197   1.902   9.854   4.838
17724SOL    HW153198   1.987   9.821   4.797
17724SOL    HW253199   1.915   9.869   4.936
17725SOL     OW53200   2.051   9.830   5.446
17725SOL    HW153201   2.110   9.790   5.376
17725SOL    HW253202   1.993   9.901   5.405
17726SOL     OW53203   3.231  10.260   5.384
17726SOL    HW153204   3.270  10.349   5.404
17726SOL    HW253205   3.241  10.240   5.287
17727SOL     OW53206   2.677   9.882   4.049
17727SOL    HW153207   2.684   9.793   4.003
17727SOL    HW253208   2.583   9.916   4.041
17728SOL     OW53209   3.519   9.914   4.930
17728SOL    HW153210   3.481   9.845   4.992
17728SOL    HW253211   3.601   9.878   4.886
17729SOL     OW53212   2.114  10.874   5.468
17729SOL    HW153213   2.084  10.931   5.544
17729SOL    HW253214   2.107  10.777   5.494
17730SOL     OW53215   2.533   9.774   4.993
17730SOL    HW153216   2.499   9.685   4.963
17730SOL    HW253217   2.559   9.828   4.913
17731SOL     OW53218   2.792  10.988   5.189
17731SOL    HW153219   2.768  10.970   5.094
17731SOL    HW253220   2.822  11.082   5.199
17732SOL     OW53221   2.335   9.810   3.915
17732SOL    HW153222   2.396   9.890   3.919
17732SOL    HW253223   2.240   9.841   3.922
17733SOL     OW53224   2.021  10.447   5.190
17733SOL    HW153225   2.043  10.386   5.266
17733SOL    HW253226   2.031  10.398   5.104
17734SOL     OW53227   3.209  10.369   4.958
17734SOL    HW153228   3.233  10.306   4.884
17734SOL    HW253229   3.119  10.409   4.940
17735SOL     OW53230   3.164  10.165   4.033
17735SOL    HW153231   3.078  10.134   4.075
17735SOL    HW253232   3.160  10.151   3.934
17736SOL     OW53233   3.621  11.057   4.878
17736SOL    HW153234   3.682  11.087   4.805
17736SOL    HW253235   3.583  10.968   4.856
17737SOL     OW53236   3.114  11.041   4.852
17737SOL    HW153237   3.198  11.046   4.798
17737SOL    HW253238   3.091  10.945   4.870
17738SOL     OW53239   1.945  10.568   4.746
17738SOL    HW153240   1.940  10.567   4.846
17738SOL    HW253241   1.862  10.527   4.708
17739SOL     OW53242   2.550  10.972   5.440
17739SOL    HW153243   2.494  11.053   5.449
17739SOL    HW253244   2.602  10.976   5.354
17740SOL     OW53245   3.588   9.445   4.247
17740SOL    HW153246   3.661   9.428   4.180
17740SOL    HW253247   3.557   9.358   4.285
17741SOL     OW53248   3.250  10.883   4.201
17741SOL    HW153249   3.317  10.895   4.127
17741SOL    HW253250   3.210  10.972   4.224
17742SOL     OW53251   1.992  11.104   5.575
17742SOL    HW153252   1.951  11.030   5.628
17742SOL    HW253253   2.056  11.155   5.633
17743SOL     OW53254   3.142  10.237   4.396
17743SOL    HW153255   3.202  10.156   4.398
17743SOL    HW253256   3.182  10.306   4.336
17744SOL     OW53257   2.692  10.583   5.146
17744SOL    HW153258   2.687  10.616   5.241
17744SOL    HW253259   2.606  10.602   5.100
17745SOL     OW53260   2.534  10.926   3.878
17745SOL    HW153261   2.543  10.936   3.779
17745SOL    HW253262   2.494  10.837   3.899
17746SOL     OW53263   3.512  11.030   5.118
17746SOL    HW153264   3.565  11.040   5.034
17746SOL    HW253265   3.485  11.120   5.152
17747SOL     OW53266   3.703   9.485   4.687
17747SOL    HW153267   3.742   9.400   4.651
17747SOL    HW253268   3.605   9.487   4.668
17748SOL     OW53269   2.125   9.636   4.444
17748SOL    HW153270   2.046   9.687   4.410
17748SOL    HW253271   2.116   9.621   4.542
17749SOL     OW53272   3.056  10.922   3.755
17749SOL    HW153273   3.062  10.829   3.792
17749SOL    HW253274   2.997  10.922   3.675
17750SOL     OW53275   2.684  10.312   5.096
17750SOL    HW153276   2.724  10.311   5.004
17750SOL    HW253277   2.694  10.404   5.136
17751SOL     OW53278   2.778  10.220   4.015
17751SOL    HW153279   2.841  10.258   3.947
17751SOL    HW253280   2.818  10.137   4.054
17752SOL     OW53281   3.366  10.917   3.768
17752SOL    HW153282   3.274  10.954   3.775
17752SOL    HW253283   3.404  10.937   3.678
17753SOL     OW53284   2.234  10.598   5.214
17753SOL    HW153285   2.221  10.691   5.180
17753SOL    HW253286   2.150  10.546   5.201
17754SOL     OW53287   3.476  10.602   5.013
17754SOL    HW153288   3.536  10.605   5.093
17754SOL    HW253289   3.401  10.666   5.026
17755SOL     OW53290   2.901  10.408   4.420
17755SOL    HW153291   2.831  10.361   4.474
17755SOL    HW253292   2.960  10.340   4.377
17756SOL     OW53293   2.876   9.546   4.695
17756SOL    HW153294   2.868   9.510   4.602
17756SOL    HW253295   2.874   9.470   4.760
17757SOL     OW53296   2.452  10.797   4.215
17757SOL    HW153297   2.494  10.739   4.145
17757SOL    HW253298   2.408  10.876   4.171
17758SOL     OW53299   3.571   9.695   5.105
17758SOL    HW153300   3.644   9.764   5.109
17758SOL    HW253301   3.599   9.620   5.046
17759SOL     OW53302   2.117  10.658   4.014
17759SOL    HW153303   2.021  10.659   3.987
17759SOL    HW253304   2.129  10.711   4.098
17760SOL     OW53305   1.967  10.323   5.450
17760SOL    HW153306   1.890  10.290   5.504
17760SOL    HW253307   2.052  10.293   5.492
17761SOL     OW53308   2.534   9.513   5.213
17761SOL    HW153309   2.624   9.497   5.173
17761SOL    HW253310   2.542   9.518   5.312
17762SOL     OW53311   1.937   9.655   3.757
17762SOL    HW153312   1.845   9.627   3.728
17762SOL    HW253313   1.968   9.732   3.701
17763SOL     OW53314   3.302  10.166   5.122
17763SOL    HW153315   3.245  10.218   5.059
17763SOL    HW253316   3.398  10.178   5.098
17764SOL     OW53317   1.934   9.476   4.042
17764SOL    HW153318   1.917   9.559   3.988
17764SOL    HW253319   2.024   9.439   4.020
17765SOL     OW53320   3.045  10.645   3.843
17765SOL    HW153321   2.946  10.634   3.845
17765SOL    HW253322   3.079  10.660   3.936
17766SOL     OW53323   2.475  10.152   5.155
17766SOL    HW153324   2.531  10.233   5.138
17766SOL    HW253325   2.534  10.072   5.158
17767SOL     OW53326   3.355  11.077   4.683
17767SOL    HW153327   3.388  11.141   4.614
17767SOL    HW253328   3.421  11.071   4.758
17768SOL     OW53329   2.578   9.875   5.432
17768SOL    HW153330   2.597   9.940   5.506
17768SOL    HW253331   2.638   9.795   5.441
17769SOL     OW53332   3.312  10.530   5.357
17769SOL    HW153333   3.303  10.520   5.456
17769SOL    HW253334   3.408  10.523   5.331
17770SOL     OW53335   2.252  11.051   5.284
17770SOL    HW153336   2.161  11.092   5.282
17770SOL    HW253337   2.245  10.957   5.316
17771SOL     OW53338   3.536  10.193   4.978
17771SOL    HW153339   3.509  10.104   4.941
17771SOL    HW253340   3.537  10.261   4.905
17772SOL     OW53341   3.087   9.635   4.173
17772SOL    HW153342   3.152   9.561   4.162
17772SOL    HW253343   3.107   9.685   4.257
17773SOL     OW53344   2.456  10.055   4.376
17773SOL    HW153345   2.506  10.140   4.357
17773SOL    HW253346   2.368  10.057   4.328
17774SOL     OW53347   3.639   9.652   5.366
17774SOL    HW153348   3.622   9.683   5.272
17774SOL    HW253349   3.555   9.615   5.404
17775SOL     OW53350   3.592  10.244   5.241
17775SOL    HW153351   3.630  10.335   5.256
17775SOL    HW253352   3.584  10.227   5.142
17776SOL     OW53353   2.721  10.684   3.740
17776SOL    HW153354   2.675  10.699   3.828
17776SOL    HW253355   2.765  10.769   3.710
17777SOL     OW53356   2.523  11.100   4.677
17777SOL    HW153357   2.477  11.188   4.664
17777SOL    HW253358   2.622  11.112   4.670
17778SOL     OW53359   2.721  10.266   4.585
17778SOL    HW153360   2.775  10.197   4.633
17778SOL    HW253361   2.689  10.335   4.651
17779SOL     OW53362   2.945  10.294   3.811
17779SOL    HW153363   2.922  10.347   3.729
17779SOL    HW253364   3.026  10.238   3.792
17780SOL     OW53365   3.723  10.879   4.575
17780SOL    HW153366   3.652  10.867   4.505
17780SOL    HW253367   3.724  10.800   4.635
17781SOL     OW53368   2.083  10.624   5.568
17781SOL    HW153369   2.018  10.551   5.547
17781SOL    HW253370   2.087  10.638   5.666
17782SOL     OW53371   1.941  10.550   4.377
17782SOL    HW153372   1.940  10.503   4.465
17782SOL    HW253373   2.023  10.522   4.326
17783SOL     OW53374   2.534  10.701   5.348
17783SOL    HW153375   2.456  10.651   5.386
17783SOL    HW253376   2.531  10.796   5.379
17784SOL     OW53377   3.686   9.502   4.951
17784SOL    HW153378   3.682   9.412   4.995
17784SOL    HW253379   3.689   9.491   4.852
17785SOL     OW53380   2.290   9.734   4.244
17785SOL    HW153381   2.320   9.662   4.182
17785SOL    HW253382   2.251   9.694   4.327
17786SOL     OW53383   3.567  10.797   4.828
17786SOL    HW153384   3.474  10.772   4.801
17786SOL    HW253385   3.593  10.747   4.910
17787SOL     OW53386   2.179   9.857   5.004
17787SOL    HW153387   2.217   9.798   5.076
17787SOL    HW253388   2.219   9.831   4.916
17788SOL     OW53389   2.674  10.896   4.411
17788SOL    HW153390   2.706  10.906   4.317
17788SOL    HW253391   2.595  10.834   4.413
17789SOL     OW53392   3.286   9.524   4.836
17789SOL    HW153393   3.338   9.459   4.891
17789SOL    HW253394   3.237   9.587   4.897
17790SOL     OW53395   2.863   9.344   4.878
17790SOL    HW153396   2.800   9.272   4.847
17790SOL    HW253397   2.956   9.308   4.878
17791SOL     OW53398   2.632  10.640   4.025
17791SOL    HW153399   2.586  10.553   4.042
17791SOL    HW253400   2.723  10.637   4.066
17792SOL     OW53401   2.480  10.877   5.008
17792SOL    HW153402   2.475  10.959   5.065
17792SOL    HW253403   2.569  10.874   4.963
17793SOL     OW53404   3.214   9.362   3.892
17793SOL    HW153405   3.249   9.321   3.808
17793SOL    HW253406   3.124   9.324   3.912
17794SOL     OW53407   3.162   9.763   4.415
17794SOL    HW153408   3.103   9.843   4.419
17794SOL    HW253409   3.177   9.728   4.508
17795SOL     OW53410   3.455   9.531   4.606
17795SOL    HW153411   3.371   9.530   4.660
17795SOL    HW253412   3.457   9.614   4.550
17796SOL     OW53413   1.901  10.387   4.024
17796SOL    HW153414   2.000  10.376   4.015
17796SOL    HW253415   1.861  10.301   4.056
17797SOL     OW53416   2.737  10.956   4.061
17797SOL    HW153417   2.660  10.921   4.007
17797SOL    HW253418   2.705  11.027   4.123
17798SOL     OW53419   2.092   9.938   5.699
17798SOL    HW153420   1.999   9.936   5.736
17798SOL    HW253421   2.093   9.899   5.607
17799SOL     OW53422   2.087   9.585   6.582
17799SOL    HW153423   2.122   9.568   6.674
17799SOL    HW253424   1.999   9.540   6.570
17800SOL     OW53425   1.881   9.678   6.233
17800SOL    HW153426   1.799   9.721   6.272
17800SOL    HW253427   1.853   9.605   6.170
17801SOL     OW53428   2.431  10.585   6.751
17801SOL    HW153429   2.338  10.578   6.714
17801SOL    HW253430   2.442  10.674   6.795
17802SOL     OW53431   3.417  10.821   6.289
17802SOL    HW153432   3.360  10.805   6.370
17802SOL    HW253433   3.358  10.831   6.209
17803SOL     OW53434   2.997  10.013   6.303
17803SOL    HW153435   3.054  10.091   6.278
17803SOL    HW253436   2.937  10.039   6.379
17804SOL     OW53437   3.617   9.917   5.817
17804SOL    HW153438   3.605   9.904   5.718
17804SOL    HW253439   3.587   9.836   5.866
17805SOL     OW53440   2.630  10.454   6.609
17805SOL    HW153441   2.552  10.471   6.669
17805SOL    HW253442   2.664  10.541   6.573
17806SOL     OW53443   2.712  10.108   7.409
17806SOL    HW153444   2.708  10.184   7.474
17806SOL    HW253445   2.734  10.144   7.318
17807SOL     OW53446   2.547  10.322   6.251
17807SOL    HW153447   2.616  10.306   6.321
17807SOL    HW253448   2.474  10.379   6.289
17808SOL     OW53449   2.548  10.471   7.389
17808SOL    HW153450   2.608  10.550   7.403
17808SOL    HW253451   2.462  10.502   7.348
17809SOL     OW53452   2.197  10.745   6.647
17809SOL    HW153453   2.119  10.714   6.594
17809SOL    HW253454   2.255  10.803   6.590
17810SOL     OW53455   3.322  10.815   6.925
17810SOL    HW153456   3.346  10.909   6.951
17810SOL    HW253457   3.306  10.761   7.007
17811SOL     OW53458   2.300   9.702   7.085
17811SOL    HW153459   2.382   9.646   7.094
17811SOL    HW253460   2.219   9.644   7.089
17812SOL     OW53461   3.465   9.757   6.323
17812SOL    HW153462   3.391   9.803   6.273
17812SOL    HW253463   3.516   9.825   6.376
17813SOL     OW53464   2.093  11.023   6.069
17813SOL    HW153465   2.127  11.100   6.123
17813SOL    HW253466   2.137  11.023   5.979
17814SOL     OW53467   2.989  10.651   7.276
17814SOL    HW153468   3.036  10.651   7.364
17814SOL    HW253469   2.941  10.564   7.265
17815SOL     OW53470   2.092  10.744   6.124
17815SOL    HW153471   2.066  10.840   6.124
17815SOL    HW253472   2.021  10.690   6.169
17816SOL     OW53473   2.102  10.401   6.472
17816SOL    HW153474   2.116  10.317   6.524
17816SOL    HW253475   2.047  10.465   6.527
17817SOL     OW53476   2.482  11.096   7.025
17817SOL    HW153477   2.390  11.079   7.060
17817SOL    HW253478   2.510  11.188   7.051
17818SOL     OW53479   2.468  10.274   5.709
17818SOL    HW153480   2.475  10.358   5.655
17818SOL    HW253481   2.514  10.287   5.797
17819SOL     OW53482   3.456   9.424   7.066
17819SOL    HW153483   3.438   9.491   6.994
17819SOL    HW253484   3.453   9.470   7.155
17820SOL     OW53485   1.984   9.953   6.149
17820SOL    HW153486   1.939   9.865   6.166
17820SOL    HW253487   1.983  10.007   6.233
17821SOL     OW53488   3.704  11.077   5.945
17821SOL    HW153489   3.758  11.048   6.025
17821SOL    HW253490   3.734  11.167   5.916
17822SOL     OW53491   1.889  10.906   5.703
17822SOL    HW153492   1.870  10.810   5.724
17822SOL    HW253493   1.856  10.964   5.778
17823SOL     OW53494   3.551  10.232   6.198
17823SOL    HW153495   3.646  10.203   6.206
17823SOL    HW253496   3.543  10.297   6.123
17824SOL     OW53497   3.503  10.418   6.018
17824SOL    HW153498   3.589  10.420   5.966
17824SOL    HW253499   3.517  10.465   6.106
17825SOL     OW53500   1.975  10.047   7.183
17825SOL    HW153501   2.063  10.034   7.228
17825SOL    HW253502   1.962  10.144   7.161
17826SOL     OW53503   2.475  10.675   6.312
17826SOL    HW153504   2.426  10.588   6.321
17826SOL    HW253505   2.452  10.718   6.225
17827SOL     OW53506   3.155  10.538   7.009
17827SOL    HW153507   3.192  10.465   6.951
17827SOL    HW253508   3.207  10.543   7.094
17828SOL     OW53509   2.671   9.314   6.088
17828SOL    HW153510   2.711   9.405   6.079
17828SOL    HW253511   2.571   9.322   6.094
17829SOL     OW53512   2.059  10.286   6.850
17829SOL    HW153513   2.148  10.241   6.836
17829SOL    HW253514   1.986  10.221   6.831
17830SOL     OW53515   3.387  10.309   5.776
17830SOL    HW153516   3.324  10.233   5.789
17830SOL    HW253517   3.435  10.327   5.862
17831SOL     OW53518   3.049  11.102   7.202
17831SOL    HW153519   3.073  11.162   7.126
17831SOL    HW253520   3.056  11.007   7.172
17832SOL     OW53521   2.179   9.561   7.387
17832SOL    HW153522   2.250   9.632   7.393
17832SOL    HW253523   2.091   9.600   7.415
17833SOL     OW53524   3.328  10.727   6.539
17833SOL    HW153525   3.269  10.733   6.619
17833SOL    HW253526   3.313  10.639   6.493
17834SOL     OW53527   3.529  11.024   6.158
17834SOL    HW153528   3.488  11.001   6.070
17834SOL    HW253529   3.511  10.950   6.223
17835SOL     OW53530   2.460  10.039   5.856
17835SOL    HW153531   2.484  10.108   5.788
17835SOL    HW253532   2.382  10.072   5.910
17836SOL     OW53533   3.143   9.655   6.530
17836SOL    HW153534   3.057   9.605   6.517
17836SOL    HW253535   3.205   9.601   6.586
17837SOL     OW53536   3.438  10.972   5.893
17837SOL    HW153537   3.527  11.018   5.896
17837SOL    HW253538   3.417  10.948   5.798
17838SOL     OW53539   2.669   9.915   7.051
17838SOL    HW153540   2.622   9.912   7.140
17838SOL    HW253541   2.618   9.860   6.985
17839SOL     OW53542   3.256   9.779   7.260
17839SOL    HW153543   3.236   9.822   7.348
17839SOL    HW253544   3.334   9.717   7.269
17840SOL     OW53545   2.835  10.200   7.158
17840SOL    HW153546   2.881  10.116   7.129
17840SOL    HW253547   2.779  10.234   7.083
17841SOL     OW53548   2.853   9.720   6.828
17841SOL    HW153549   2.776   9.754   6.882
17841SOL    HW253550   2.819   9.669   6.749
17842SOL     OW53551   2.903  10.011   6.015
17842SOL    HW153552   2.929  10.007   6.111
17842SOL    HW253553   2.818   9.960   6.001
17843SOL     OW53554   1.938  10.121   6.375
17843SOL    HW153555   2.037  10.109   6.384
17843SOL    HW253556   1.914  10.216   6.396
17844SOL     OW53557   1.992  11.131   7.157
17844SOL    HW153558   1.982  11.116   7.256
17844SOL    HW253559   1.906  11.167   7.121
17845SOL     OW53560   2.727   9.658   5.781
17845SOL    HW153561   2.786   9.721   5.732
17845SOL    HW253562   2.746   9.564   5.752
17846SOL     OW53563   3.581   9.895   7.417
17846SOL    HW153564   3.555   9.984   7.381
17846SOL    HW253565   3.579   9.827   7.344
17847SOL     OW53566   3.224  10.454   6.131
17847SOL    HW153567   3.307  10.425   6.083
17847SOL    HW253568   3.175  10.521   6.075
17848SOL     OW53569   2.412   9.506   6.471
17848SOL    HW153570   2.407   9.501   6.571
17848SOL    HW253571   2.414   9.602   6.442
17849SOL     OW53572   2.870  10.766   6.063
17849SOL    HW153573   2.824  10.838   6.011
17849SOL    HW253574   2.866  10.786   6.161
17850SOL     OW53575   2.213  11.111   6.439
17850SOL    HW153576   2.263  11.025   6.445
17850SOL    HW253577   2.278  11.188   6.436
17851SOL     OW53578   3.657  10.376   6.459
17851SOL    HW153579   3.595  10.361   6.383
17851SOL    HW253580   3.605  10.387   6.544
17852SOL     OW53581   3.089  10.860   7.092
17852SOL    HW153582   3.095  10.783   7.156
17852SOL    HW253583   3.037  10.834   7.012
17853SOL     OW53584   2.183  10.253   5.828
17853SOL    HW153585   2.265  10.292   5.786
17853SOL    HW253586   2.156  10.171   5.779
17854SOL     OW53587   3.320  10.045   6.314
17854SOL    HW153588   3.315   9.980   6.389
17854SOL    HW253589   3.400  10.104   6.327
17855SOL     OW53590   2.323  10.576   7.313
17855SOL    HW153591   2.273  10.577   7.227
17855SOL    HW253592   2.260  10.558   7.389
17856SOL     OW53593   2.973  11.086   5.823
17856SOL    HW153594   2.913  11.024   5.873
17856SOL    HW253595   3.004  11.042   5.738
17857SOL     OW53596   2.064   9.595   7.084
17857SOL    HW153597   1.984   9.655   7.071
17857SOL    HW253598   2.054   9.546   7.170
17858SOL     OW53599   3.494  10.687   5.667
17858SOL    HW153600   3.462  10.781   5.657
17858SOL    HW253601   3.418  10.624   5.655
17859SOL     OW53602   2.326  11.053   5.909
17859SOL    HW153603   2.359  11.092   5.995
17859SOL    HW253604   2.402  11.046   5.844
17860SOL     OW53605   3.262   9.417   6.012
17860SOL    HW153606   3.238   9.380   5.922
17860SOL    HW253607   3.361   9.433   6.016
17861SOL     OW53608   2.111  11.095   6.827
17861SOL    HW153609   2.168  11.030   6.877
17861SOL    HW253610   2.095  11.062   6.734
17862SOL     OW53611   2.802  11.008   6.490
17862SOL    HW153612   2.882  10.951   6.511
17862SOL    HW253613   2.753  10.968   6.413
17863SOL     OW53614   2.244  10.010   6.066
17863SOL    HW153615   2.289   9.920   6.063
17863SOL    HW253616   2.150   9.999   6.099
17864SOL     OW53617   3.409   9.532   7.315
17864SOL    HW153618   3.404   9.569   7.407
17864SOL    HW253619   3.337   9.463   7.303
17865SOL     OW53620   2.476   9.432   5.703
17865SOL    HW153621   2.574   9.410   5.710
17865SOL    HW253622   2.445   9.415   5.610
17866SOL     OW53623   2.643   9.574   7.335
17866SOL    HW153624   2.710   9.513   7.378
17866SOL    HW253625   2.570   9.593   7.400
17867SOL     OW53626   2.750  10.824   6.781
17867SOL    HW153627   2.727  10.799   6.687
17867SOL    HW253628   2.811  10.755   6.820
17868SOL     OW53629   3.213   9.900   7.019
17868SOL    HW153630   3.241   9.857   7.104
17868SOL    HW253631   3.238   9.996   7.020
17869SOL     OW53632   2.665  10.712   6.510
17869SOL    HW153633   2.755  10.726   6.468
17869SOL    HW253634   2.594  10.714   6.439
17870SOL     OW53635   2.784   9.813   6.485
17870SOL    HW153636   2.759   9.804   6.389
17870SOL    HW253637   2.832   9.731   6.516
17871SOL     OW53638   2.401   9.374   6.098
17871SOL    HW153639   2.320   9.375   6.156
17871SOL    HW253640   2.404   9.457   6.043
17872SOL     OW53641   3.296  10.498   5.627
17872SOL    HW153642   3.328  10.422   5.684
17872SOL    HW253643   3.204  10.525   5.657
17873SOL     OW53644   2.159   9.345   5.757
17873SOL    HW153645   2.208   9.429   5.736
17873SOL    HW253646   2.221   9.280   5.802
17874SOL     OW53647   2.797   9.546   6.066
17874SOL    HW153648   2.749   9.587   5.988
17874SOL    HW253649   2.896   9.544   6.047
17875SOL     OW53650   2.938   9.993   7.050
17875SOL    HW153651   2.858   9.932   7.053
17875SOL    HW253652   3.019   9.940   7.026
17876SOL     OW53653   3.089  10.880   6.379
17876SOL    HW153654   3.110  10.954   6.314
17876SOL    HW253655   3.157  10.880   6.452
17877SOL     OW53656   2.321  10.462   6.327
17877SOL    HW153657   2.250  10.435   6.392
17877SOL    HW253658   2.295  10.434   6.234
17878SOL     OW53659   3.133  11.107   6.177
17878SOL    HW153660   3.177  11.171   6.113
17878SOL    HW253661   3.083  11.159   6.247
17879SOL     OW53662   2.894   9.859   5.602
17879SOL    HW153663   2.853   9.941   5.563
17879SOL    HW253664   2.958   9.885   5.675
17880SOL     OW53665   1.940   9.866   6.972
17880SOL    HW153666   2.032   9.865   6.931
17880SOL    HW253667   1.934   9.940   7.039
17881SOL     OW53668   2.423   9.532   6.733
17881SOL    HW153669   2.461   9.448   6.770
17881SOL    HW253670   2.335   9.551   6.777
17882SOL     OW53671   2.728   9.764   6.228
17882SOL    HW153672   2.696   9.836   6.166
17882SOL    HW253673   2.752   9.683   6.175
17883SOL     OW53674   2.879   9.349   6.339
17883SOL    HW153675   2.807   9.354   6.270
17883SOL    HW253676   2.855   9.280   6.408
17884SOL     OW53677   3.291  10.483   6.453
17884SOL    HW153678   3.236  10.399   6.446
17884SOL    HW253679   3.317  10.512   6.361
17885SOL     OW53680   3.328   9.900   6.578
17885SOL    HW153681   3.298   9.805   6.585
17885SOL    HW253682   3.401   9.916   6.644
17886SOL     OW53683   3.719  10.143   5.963
17886SOL    HW153684   3.761  10.079   6.027
17886SOL    HW253685   3.681  10.092   5.885
17887SOL     OW53686   2.350  10.695   5.760
17887SOL    HW153687   2.263  10.680   5.807
17887SOL    HW253688   2.333  10.721   5.665
17888SOL     OW53689   3.526  10.590   6.243
17888SOL    HW153690   3.625  10.598   6.257
17888SOL    HW253691   3.481  10.674   6.274
17889SOL     OW53692   3.252   9.885   5.664
17889SOL    HW153693   3.198   9.864   5.745
17889SOL    HW253694   3.343   9.844   5.673
17890SOL     OW53695   2.389   9.566   5.914
17890SOL    HW153696   2.416   9.507   5.839
17890SOL    HW253697   2.389   9.661   5.883
17891SOL     OW53698   3.616  10.533   7.174
17891SOL    HW153699   3.707  10.494   7.161
17891SOL    HW253700   3.624  10.629   7.198
17892SOL     OW53701   2.926  10.657   6.926
17892SOL    HW153702   2.846  10.634   6.981
17892SOL    HW253703   3.009  10.631   6.975
17893SOL     OW53704   3.454  10.939   7.211
17893SOL    HW153705   3.481  10.973   7.121
17893SOL    HW253706   3.533  10.901   7.257
17894SOL     OW53707   2.973  10.505   6.686
17894SOL    HW153708   2.933  10.549   6.767
17894SOL    HW253709   2.932  10.542   6.603
17895SOL     OW53710   3.500  10.409   6.665
17895SOL    HW153711   3.505  10.490   6.724
17895SOL    HW253712   3.414  10.411   6.614
17896SOL     OW53713   2.777   9.399   6.988
17896SOL    HW153714   2.802   9.379   6.893
17896SOL    HW253715   2.849   9.455   7.030
17897SOL     OW53716   2.842  10.426   7.305
17897SOL    HW153717   2.743  10.432   7.315
17897SOL    HW253718   2.865  10.346   7.249
17898SOL     OW53719   2.567  10.360   5.954
17898SOL    HW153720   2.553  10.367   6.053
17898SOL    HW253721   2.651  10.309   5.936
17899SOL     OW53722   2.272  10.123   6.837
17899SOL    HW153723   2.358  10.135   6.887
17899SOL    HW253724   2.230  10.036   6.864
17900SOL     OW53725   3.136   9.696   6.848
17900SOL    HW153726   3.157   9.770   6.912
17900SOL    HW253727   3.047   9.713   6.805
17901SOL     OW53728   1.926  10.874   6.917
17901SOL    HW153729   1.880  10.956   6.883
17901SOL    HW253730   2.024  10.893   6.926
17902SOL     OW53731   2.229  10.410   6.087
17902SOL    HW153732   2.222  10.493   6.031
17902SOL    HW253733   2.233  10.330   6.027
17903SOL     OW53734   2.428   9.847   6.451
17903SOL    HW153735   2.440   9.913   6.377
17903SOL    HW253736   2.474   9.881   6.534
17904SOL     OW53737   3.114  10.658   5.974
17904SOL    HW153738   3.164  10.735   6.014
17904SOL    HW253739   3.019  10.660   6.006
17905SOL     OW53740   3.134  10.755   6.728
17905SOL    HW153741   3.181  10.768   6.815
17905SOL    HW253742   3.068  10.681   6.737
17906SOL     OW53743   3.444   9.949   6.058
17906SOL    HW153744   3.413  10.010   6.131
17906SOL    HW253745   3.494  10.001   5.989
17907SOL     OW53746   2.216  10.820   6.915
17907SOL    HW153747   2.195  10.776   6.828
17907SOL    HW253748   2.313  10.846   6.918
17908SOL     OW53749   2.264  10.061   7.184
17908SOL    HW153750   2.332  10.116   7.137
17908SOL    HW253751   2.304   9.973   7.211
17909SOL     OW53752   3.449  10.089   7.256
17909SOL    HW153753   3.357  10.127   7.251
17909SOL    HW253754   3.509  10.136   7.191
17910SOL     OW53755   2.875   9.415   7.356
17910SOL    HW153756   2.881   9.500   7.304
17910SOL    HW253757   2.907   9.339   7.299
17911SOL     OW53758   2.366   9.360   7.326
17911SOL    HW153759   2.324   9.303   7.256
17911SOL    HW253760   2.300   9.429   7.358
17912SOL     OW53761   2.435  10.180   6.615
17912SOL    HW153762   2.479  10.269   6.606
17912SOL    HW253763   2.372  10.180   6.692
17913SOL     OW53764   3.222  10.172   6.631
17913SOL    HW153765   3.147  10.172   6.565
17913SOL    HW253766   3.259  10.080   6.640
17914SOL     OW53767   3.071   9.835   5.861
17914SOL    HW153768   3.084   9.751   5.915
17914SOL    HW253769   3.042   9.909   5.921
17915SOL     OW53770   2.169   9.523   6.817
17915SOL    HW153771   2.146   9.560   6.907
17915SOL    HW253772   2.139   9.428   6.811
17916SOL     OW53773   1.899  10.620   6.868
17916SOL    HW153774   1.952  10.571   6.936
17916SOL    HW253775   1.921  10.718   6.873
17917SOL     OW53776   2.594   9.944   6.650
17917SOL    HW153777   2.653   9.918   6.574
17917SOL    HW253778   2.566  10.040   6.639
17918SOL     OW53779   3.590  10.245   7.440
17918SOL    HW153780   3.544  10.238   7.351
17918SOL    HW253781   3.528  10.289   7.506
17919SOL     OW53782   2.169   9.373   6.204
17919SOL    HW153783   2.158   9.467   6.237
17919SOL    HW253784   2.164   9.310   6.281
17920SOL     OW53785   3.484   9.677   5.960
17920SOL    HW153786   3.486   9.601   6.024
17920SOL    HW253787   3.436   9.754   6.000
17921SOL     OW53788   2.885  10.076   6.552
17921SOL    HW153789   2.900  10.097   6.648
17921SOL    HW253790   2.855   9.981   6.543
17922SOL     OW53791   2.842  10.883   7.286
17922SOL    HW153792   2.822  10.927   7.198
17922SOL    HW253793   2.881  10.792   7.270
17923SOL     OW53794   3.721  10.828   7.191
17923SOL    HW153795   3.735  10.855   7.096
17923SOL    HW253796   3.804  10.850   7.244
17924SOL     OW53797   2.212  10.208   7.390
17924SOL    HW153798   2.288  10.252   7.438
17924SOL    HW253799   2.247  10.161   7.308
17925SOL     OW53800   3.402   9.584   5.711
17925SOL    HW153801   3.341   9.509   5.734
17925SOL    HW253802   3.424   9.636   5.794
17926SOL     OW53803   3.165  10.148   5.628
17926SOL    HW153804   3.199  10.055   5.643
17926SOL    HW253805   3.183  10.175   5.533
17927SOL     OW53806   2.930  10.643   6.435
17927SOL    HW153807   2.937  10.559   6.380
17927SOL    HW253808   2.992  10.712   6.399
17928SOL     OW53809   2.181  10.120   6.535
17928SOL    HW153810   2.274  10.156   6.540
17928SOL    HW253811   2.175  10.035   6.587
17929SOL     OW53812   2.201   9.819   6.592
17929SOL    HW153813   2.149   9.736   6.575
17929SOL    HW253814   2.278   9.824   6.528
17930SOL     OW53815   3.000   9.690   7.264
17930SOL    HW153816   2.955   9.753   7.328
17930SOL    HW253817   3.093   9.721   7.247
17931SOL     OW53818   3.022   9.517   7.063
17931SOL    HW153819   3.022   9.581   7.140
17931SOL    HW253820   3.050   9.565   6.980
17932SOL     OW53821   1.870  10.636   5.786
17932SOL    HW153822   1.777  10.657   5.755
17932SOL    HW253823   1.880  10.537   5.799
17933SOL     OW53824   1.950  11.111   6.513
17933SOL    HW153825   1.908  11.025   6.486
17933SOL    HW253826   2.044  11.114   6.479
17934SOL     OW53827   2.366  10.878   6.496
17934SOL    HW153828   2.432  10.952   6.505
17934SOL    HW253829   2.410  10.799   6.454
17935SOL     OW53830   2.864  10.106   6.824
17935SOL    HW153831   2.905  10.074   6.910
17935SOL    HW253832   2.768  10.079   6.821
17936SOL     OW53833   1.902   9.854   6.700
17936SOL    HW153834   1.987   9.821   6.659
17936SOL    HW253835   1.915   9.869   6.798
17937SOL     OW53836   2.051   9.830   7.308
17937SOL    HW153837   2.110   9.790   7.238
17937SOL    HW253838   1.993   9.901   7.267
17938SOL     OW53839   3.231  10.260   7.246
17938SOL    HW153840   3.270  10.349   7.266
17938SOL    HW253841   3.241  10.240   7.149
17939SOL     OW53842   2.677   9.882   5.911
17939SOL    HW153843   2.684   9.793   5.865
17939SOL    HW253844   2.583   9.916   5.903
17940SOL     OW53845   3.519   9.914   6.792
17940SOL    HW153846   3.481   9.845   6.854
17940SOL    HW253847   3.601   9.878   6.748
17941SOL     OW53848   2.114  10.874   7.330
17941SOL    HW153849   2.084  10.931   7.406
17941SOL    HW253850   2.107  10.777   7.356
17942SOL     OW53851   2.533   9.774   6.855
17942SOL    HW153852   2.499   9.685   6.825
17942SOL    HW253853   2.559   9.828   6.775
17943SOL     OW53854   2.792  10.988   7.051
17943SOL    HW153855   2.768  10.970   6.956
17943SOL    HW253856   2.822  11.082   7.061
17944SOL     OW53857   2.335   9.810   5.777
17944SOL    HW153858   2.396   9.890   5.781
17944SOL    HW253859   2.240   9.841   5.784
17945SOL     OW53860   2.021  10.447   7.052
17945SOL    HW153861   2.043  10.386   7.128
17945SOL    HW253862   2.031  10.398   6.966
17946SOL     OW53863   3.209  10.369   6.820
17946SOL    HW153864   3.233  10.306   6.746
17946SOL    HW253865   3.119  10.409   6.802
17947SOL     OW53866   3.164  10.165   5.895
17947SOL    HW153867   3.078  10.134   5.937
17947SOL    HW253868   3.160  10.151   5.796
17948SOL     OW53869   3.621  11.057   6.740
17948SOL    HW153870   3.682  11.087   6.667
17948SOL    HW253871   3.583  10.968   6.718
17949SOL     OW53872   3.114  11.041   6.714
17949SOL    HW153873   3.198  11.046   6.660
17949SOL    HW253874   3.091  10.945   6.732
17950SOL     OW53875   1.945  10.568   6.608
17950SOL    HW153876   1.940  10.567   6.708
17950SOL    HW253877   1.862  10.527   6.570
17951SOL     OW53878   2.550  10.972   7.302
17951SOL    HW153879   2.494  11.053   7.311
17951SOL    HW253880   2.602  10.976   7.216
17952SOL     OW53881   3.588   9.445   6.109
17952SOL    HW153882   3.661   9.428   6.042
17952SOL    HW253883   3.557   9.358   6.147
17953SOL     OW53884   3.250  10.883   6.063
17953SOL    HW153885   3.317  10.895   5.989
17953SOL    HW253886   3.210  10.972   6.086
17954SOL     OW53887   1.992  11.104   7.437
17954SOL    HW153888   1.951  11.030   7.490
17954SOL    HW253889   2.056  11.155   7.495
17955SOL     OW53890   3.142  10.237   6.258
17955SOL    HW153891   3.202  10.156   6.260
17955SOL    HW253892   3.182  10.306   6.198
17956SOL     OW53893   2.692  10.583   7.008
17956SOL    HW153894   2.687  10.616   7.103
17956SOL    HW253895   2.606  10.602   6.962
17957SOL     OW53896   2.534  10.926   5.740
17957SOL    HW153897   2.543  10.936   5.641
17957SOL    HW253898   2.494  10.837   5.761
17958SOL     OW53899   3.512  11.030   6.980
17958SOL    HW153900   3.565  11.040   6.896
17958SOL    HW253901   3.485  11.120   7.014
17959SOL     OW53902   3.703   9.485   6.549
17959SOL    HW153903   3.742   9.400   6.513
17959SOL    HW253904   3.605   9.487   6.530
17960SOL     OW53905   2.125   9.636   6.306
17960SOL    HW153906   2.046   9.687   6.272
17960SOL    HW253907   2.116   9.621   6.404
17961SOL     OW53908   3.056  10.922   5.617
17961SOL    HW153909   3.062  10.829   5.654
17961SOL    HW253910   2.997  10.922   5.537
17962SOL     OW53911   2.684  10.312   6.958
17962SOL    HW153912   2.724  10.311   6.866
17962SOL    HW253913   2.694  10.404   6.998
17963SOL     OW53914   2.778  10.220   5.877
17963SOL    HW153915   2.841  10.258   5.809
17963SOL    HW253916   2.818  10.137   5.916
17964SOL     OW53917   3.366  10.917   5.630
17964SOL    HW153918   3.274  10.954   5.637
17964SOL    HW253919   3.404  10.937   5.540
17965SOL     OW53920   2.234  10.598   7.076
17965SOL    HW153921   2.221  10.691   7.042
17965SOL    HW253922   2.150  10.546   7.063
17966SOL     OW53923   3.476  10.602   6.875
17966SOL    HW153924   3.536  10.605   6.955
17966SOL    HW253925   3.401  10.666   6.888
17967SOL     OW53926   2.901  10.408   6.282
17967SOL    HW153927   2.831  10.361   6.336
17967SOL    HW253928   2.960  10.340   6.239
17968SOL     OW53929   2.876   9.546   6.557
17968SOL    HW153930   2.868   9.510   6.464
17968SOL    HW253931   2.874   9.470   6.622
17969SOL     OW53932   2.452  10.797   6.077
17969SOL    HW153933   2.494  10.739   6.007
17969SOL    HW253934   2.408  10.876   6.033
17970SOL     OW53935   3.571   9.695   6.967
17970SOL    HW153936   3.644   9.764   6.971
17970SOL    HW253937   3.599   9.620   6.908
17971SOL     OW53938   2.117  10.658   5.876
17971SOL    HW153939   2.021  10.659   5.849
17971SOL    HW253940   2.129  10.711   5.960
17972SOL     OW53941   1.967  10.323   7.312
17972SOL    HW153942   1.890  10.290   7.366
17972SOL    HW253943   2.052  10.293   7.354
17973SOL     OW53944   2.534   9.513   7.075
17973SOL    HW153945   2.624   9.497   7.035
17973SOL    HW253946   2.542   9.518   7.174
17974SOL     OW53947   1.937   9.655   5.619
17974SOL    HW153948   1.845   9.627   5.590
17974SOL    HW253949   1.968   9.732   5.563
17975SOL     OW53950   3.302  10.166   6.984
17975SOL    HW153951   3.245  10.218   6.921
17975SOL    HW253952   3.398  10.178   6.960
17976SOL     OW53953   1.934   9.476   5.904
17976SOL    HW153954   1.917   9.559   5.850
17976SOL    HW253955   2.024   9.439   5.882
17977SOL     OW53956   3.045  10.645   5.705
17977SOL    HW153957   2.946  10.634   5.707
17977SOL    HW253958   3.079  10.660   5.798
17978SOL     OW53959   2.475  10.152   7.017
17978SOL    HW153960   2.531  10.233   7.000
17978SOL    HW253961   2.534  10.072   7.020
17979SOL     OW53962   3.355  11.077   6.545
17979SOL    HW153963   3.388  11.141   6.476
17979SOL    HW253964   3.421  11.071   6.620
17980SOL     OW53965   2.578   9.875   7.294
17980SOL    HW153966   2.597   9.940   7.368
17980SOL    HW253967   2.638   9.795   7.303
17981SOL     OW53968   3.312  10.530   7.219
17981SOL    HW153969   3.303  10.520   7.318
17981SOL    HW253970   3.408  10.523   7.193
17982SOL     OW53971   2.252  11.051   7.146
17982SOL    HW153972   2.161  11.092   7.144
17982SOL    HW253973   2.245  10.957   7.178
17983SOL     OW53974   3.536  10.193   6.840
17983SOL    HW153975   3.509  10.104   6.803
17983SOL    HW253976   3.537  10.261   6.767
17984SOL     OW53977   3.087   9.635   6.035
17984SOL    HW153978   3.152   9.561   6.024
17984SOL    HW253979   3.107   9.685   6.119
17985SOL     OW53980   2.456  10.055   6.238
17985SOL    HW153981   2.506  10.140   6.219
17985SOL    HW253982   2.368  10.057   6.190
17986SOL     OW53983   3.639   9.652   7.228
17986SOL    HW153984   3.622   9.683   7.134
17986SOL    HW253985   3.555   9.615   7.266
17987SOL     OW53986   3.592  10.244   7.103
17987SOL    HW153987   3.630  10.335   7.118
17987SOL    HW253988   3.584  10.227   7.004
17988SOL     OW53989   2.721  10.684   5.602
17988SOL    HW153990   2.675  10.699   5.690
17988SOL    HW253991   2.765  10.769   5.572
17989SOL     OW53992   2.523  11.100   6.539
17989SOL    HW153993   2.477  11.188   6.526
17989SOL    HW253994   2.622  11.112   6.532
17990SOL     OW53995   2.721  10.266   6.447
17990SOL    HW153996   2.775  10.197   6.495
17990SOL    HW253997   2.689  10.335   6.513
17991SOL     OW53998   2.945  10.294   5.673
17991SOL    HW153999   2.922  10.347   5.591
17991SOL    HW254000   3.026  10.238   5.654
17992SOL     OW54001   3.723  10.879   6.437
17992SOL    HW154002   3.652  10.867   6.367
17992SOL    HW254003   3.724  10.800   6.497
17993SOL     OW54004   2.083  10.624   7.430
17993SOL    HW154005   2.018  10.551   7.409
17993SOL    HW254006   2.087  10.638   7.528
17994SOL     OW54007   1.941  10.550   6.239
17994SOL    HW154008   1.940  10.503   6.327
17994SOL    HW254009   2.023  10.522   6.188
17995SOL     OW54010   2.534  10.701   7.210
17995SOL    HW154011   2.456  10.651   7.248
17995SOL    HW254012   2.531  10.796   7.241
17996SOL     OW54013   3.686   9.502   6.813
17996SOL    HW154014   3.682   9.412   6.857
17996SOL    HW254015   3.689   9.491   6.714
17997SOL     OW54016   2.290   9.734   6.106
17997SOL    HW154017   2.320   9.662   6.044
17997SOL    HW254018   2.251   9.694   6.189
17998SOL     OW54019   3.567  10.797   6.690
17998SOL    HW154020   3.474  10.772   6.663
17998SOL    HW254021   3.593  10.747   6.772
17999SOL     OW54022   2.179   9.857   6.866
17999SOL    HW154023   2.217   9.798   6.938
17999SOL    HW254024   2.219   9.831   6.778
18000SOL     OW54025   2.674  10.896   6.273
18000SOL    HW154026   2.706  10.906   6.179
18000SOL    HW254027   2.595  10.834   6.275
18001SOL     OW54028   3.286   9.524   6.698
18001SOL    HW154029   3.338   9.459   6.753
18001SOL    HW254030   3.237   9.587   6.759
18002SOL     OW54031   2.863   9.344   6.740
18002SOL    HW154032   2.800   9.272   6.709
18002SOL    HW254033   2.956   9.308   6.740
18003SOL     OW54034   2.632  10.640   5.887
18003SOL    HW154035   2.586  10.553   5.904
18003SOL    HW254036   2.723  10.637   5.928
18004SOL     OW54037   2.480  10.877   6.870
18004SOL    HW154038   2.475  10.959   6.927
18004SOL    HW254039   2.569  10.874   6.825
18005SOL     OW54040   3.214   9.362   5.754
18005SOL    HW154041   3.249   9.321   5.670
18005SOL    HW254042   3.124   9.324   5.774
18006SOL     OW54043   3.162   9.763   6.277
18006SOL    HW154044   3.103   9.843   6.281
18006SOL    HW254045   3.177   9.728   6.370
18007SOL     OW54046   3.455   9.531   6.468
18007SOL    HW154047   3.371   9.530   6.522
18007SOL    HW254048   3.457   9.614   6.412
18008SOL     OW54049   1.901  10.387   5.886
18008SOL    HW154050   2.000  10.376   5.877
18008SOL    HW254051   1.861  10.301   5.918
18009SOL     OW54052   2.737  10.956   5.923
18009SOL    HW154053   2.660  10.921   5.869
18009SOL    HW254054   2.705  11.027   5.985
18010SOL     OW54055   2.092   9.938   7.561
18010SOL    HW154056   1.999   9.936   7.598
18010SOL    HW254057   2.093   9.899   7.469
18011SOL     OW54058   2.087   9.585   8.444
18011SOL    HW154059   2.122   9.568   8.536
18011SOL    HW254060   1.999   9.540   8.432
18012SOL     OW54061   1.881   9.678   8.095
18012SOL    HW154062   1.799   9.721   8.134
18012SOL    HW254063   1.853   9.605   8.032
18013SOL     OW54064   2.431  10.585   8.613
18013SOL    HW154065   2.338  10.578   8.576
18013SOL    HW254066   2.442  10.674   8.657
18014SOL     OW54067   3.417  10.821   8.151
18014SOL    HW154068   3.360  10.805   8.232
18014SOL    HW254069   3.358  10.831   8.071
18015SOL     OW54070   2.997  10.013   8.165
18015SOL    HW154071   3.054  10.091   8.140
18015SOL    HW254072   2.937  10.039   8.241
18016SOL     OW54073   3.617   9.917   7.679
18016SOL    HW154074   3.605   9.904   7.580
18016SOL    HW254075   3.587   9.836   7.728
18017SOL     OW54076   2.630  10.454   8.471
18017SOL    HW154077   2.552  10.471   8.531
18017SOL    HW254078   2.664  10.541   8.435
18018SOL     OW54079   2.712  10.108   9.271
18018SOL    HW154080   2.708  10.184   9.336
18018SOL    HW254081   2.734  10.144   9.180
18019SOL     OW54082   2.547  10.322   8.113
18019SOL    HW154083   2.616  10.306   8.183
18019SOL    HW254084   2.474  10.379   8.151
18020SOL     OW54085   2.548  10.471   9.251
18020SOL    HW154086   2.608  10.550   9.265
18020SOL    HW254087   2.462  10.502   9.210
18021SOL     OW54088   2.197  10.745   8.509
18021SOL    HW154089   2.119  10.714   8.456
18021SOL    HW254090   2.255  10.803   8.452
18022SOL     OW54091   3.322  10.815   8.787
18022SOL    HW154092   3.346  10.909   8.813
18022SOL    HW254093   3.306  10.761   8.869
18023SOL     OW54094   2.300   9.702   8.947
18023SOL    HW154095   2.382   9.646   8.956
18023SOL    HW254096   2.219   9.644   8.951
18024SOL     OW54097   3.465   9.757   8.185
18024SOL    HW154098   3.391   9.803   8.135
18024SOL    HW254099   3.516   9.825   8.238
18025SOL     OW54100   2.093  11.023   7.931
18025SOL    HW154101   2.127  11.100   7.985
18025SOL    HW254102   2.137  11.023   7.841
18026SOL     OW54103   2.989  10.651   9.138
18026SOL    HW154104   3.036  10.651   9.226
18026SOL    HW254105   2.941  10.564   9.127
18027SOL     OW54106   2.092  10.744   7.986
18027SOL    HW154107   2.066  10.840   7.986
18027SOL    HW254108   2.021  10.690   8.031
18028SOL     OW54109   2.102  10.401   8.334
18028SOL    HW154110   2.116  10.317   8.386
18028SOL    HW254111   2.047  10.465   8.389
18029SOL     OW54112   2.482  11.096   8.887
18029SOL    HW154113   2.390  11.079   8.922
18029SOL    HW254114   2.510  11.188   8.913
18030SOL     OW54115   2.468  10.274   7.571
18030SOL    HW154116   2.475  10.358   7.517
18030SOL    HW254117   2.514  10.287   7.659
18031SOL     OW54118   3.456   9.424   8.928
18031SOL    HW154119   3.438   9.491   8.856
18031SOL    HW254120   3.453   9.470   9.017
18032SOL     OW54121   1.984   9.953   8.011
18032SOL    HW154122   1.939   9.865   8.028
18032SOL    HW254123   1.983  10.007   8.095
18033SOL     OW54124   3.704  11.077   7.807
18033SOL    HW154125   3.758  11.048   7.887
18033SOL    HW254126   3.734  11.167   7.778
18034SOL     OW54127   1.889  10.906   7.565
18034SOL    HW154128   1.870  10.810   7.586
18034SOL    HW254129   1.856  10.964   7.640
18035SOL     OW54130   3.551  10.232   8.060
18035SOL    HW154131   3.646  10.203   8.068
18035SOL    HW254132   3.543  10.297   7.985
18036SOL     OW54133   3.503  10.418   7.880
18036SOL    HW154134   3.589  10.420   7.828
18036SOL    HW254135   3.517  10.465   7.968
18037SOL     OW54136   1.975  10.047   9.045
18037SOL    HW154137   2.063  10.034   9.090
18037SOL    HW254138   1.962  10.144   9.023
18038SOL     OW54139   2.475  10.675   8.174
18038SOL    HW154140   2.426  10.588   8.183
18038SOL    HW254141   2.452  10.718   8.087
18039SOL     OW54142   3.155  10.538   8.871
18039SOL    HW154143   3.192  10.465   8.813
18039SOL    HW254144   3.207  10.543   8.956
18040SOL     OW54145   2.671   9.314   7.950
18040SOL    HW154146   2.711   9.405   7.941
18040SOL    HW254147   2.571   9.322   7.956
18041SOL     OW54148   2.059  10.286   8.712
18041SOL    HW154149   2.148  10.241   8.698
18041SOL    HW254150   1.986  10.221   8.693
18042SOL     OW54151   3.387  10.309   7.638
18042SOL    HW154152   3.324  10.233   7.651
18042SOL    HW254153   3.435  10.327   7.724
18043SOL     OW54154   3.049  11.102   9.064
18043SOL    HW154155   3.073  11.162   8.988
18043SOL    HW254156   3.056  11.007   9.034
18044SOL     OW54157   2.179   9.561   9.249
18044SOL    HW154158   2.250   9.632   9.255
18044SOL    HW254159   2.091   9.600   9.277
18045SOL     OW54160   3.328  10.727   8.401
18045SOL    HW154161   3.269  10.733   8.481
18045SOL    HW254162   3.313  10.639   8.355
18046SOL     OW54163   3.529  11.024   8.020
18046SOL    HW154164   3.488  11.001   7.932
18046SOL    HW254165   3.511  10.950   8.085
18047SOL     OW54166   2.460  10.039   7.718
18047SOL    HW154167   2.484  10.108   7.650
18047SOL    HW254168   2.382  10.072   7.772
18048SOL     OW54169   3.143   9.655   8.392
18048SOL    HW154170   3.057   9.605   8.379
18048SOL    HW254171   3.205   9.601   8.448
18049SOL     OW54172   3.438  10.972   7.755
18049SOL    HW154173   3.527  11.018   7.758
18049SOL    HW254174   3.417  10.948   7.660
18050SOL     OW54175   2.669   9.915   8.913
18050SOL    HW154176   2.622   9.912   9.002
18050SOL    HW254177   2.618   9.860   8.847
18051SOL     OW54178   3.256   9.779   9.122
18051SOL    HW154179   3.236   9.822   9.210
18051SOL    HW254180   3.334   9.717   9.131
18052SOL     OW54181   2.835  10.200   9.020
18052SOL    HW154182   2.881  10.116   8.991
18052SOL    HW254183   2.779  10.234   8.945
18053SOL     OW54184   2.853   9.720   8.690
18053SOL    HW154185   2.776   9.754   8.744
18053SOL    HW254186   2.819   9.669   8.611
18054SOL     OW54187   2.903  10.011   7.877
18054SOL    HW154188   2.929  10.007   7.973
18054SOL    HW254189   2.818   9.960   7.863
18055SOL     OW54190   1.938  10.121   8.237
18055SOL    HW154191   2.037  10.109   8.246
18055SOL    HW254192   1.914  10.216   8.258
18056SOL     OW54193   1.992  11.131   9.019
18056SOL    HW154194   1.982  11.116   9.118
18056SOL    HW254195   1.906  11.167   8.983
18057SOL     OW54196   2.727   9.658   7.643
18057SOL    HW154197   2.786   9.721   7.594
18057SOL    HW254198   2.746   9.564   7.614
18058SOL     OW54199   3.581   9.895   9.279
18058SOL    HW154200   3.555   9.984   9.243
18058SOL    HW254201   3.579   9.827   9.206
18059SOL     OW54202   3.224  10.454   7.993
18059SOL    HW154203   3.307  10.425   7.945
18059SOL    HW254204   3.175  10.521   7.937
18060SOL     OW54205   2.412   9.506   8.333
18060SOL    HW154206   2.407   9.501   8.433
18060SOL    HW254207   2.414   9.602   8.304
18061SOL     OW54208   2.870  10.766   7.925
18061SOL    HW154209   2.824  10.838   7.873
18061SOL    HW254210   2.866  10.786   8.023
18062SOL     OW54211   2.213  11.111   8.301
18062SOL    HW154212   2.263  11.025   8.307
18062SOL    HW254213   2.278  11.188   8.298
18063SOL     OW54214   3.657  10.376   8.321
18063SOL    HW154215   3.595  10.361   8.245
18063SOL    HW254216   3.605  10.387   8.406
18064SOL     OW54217   3.089  10.860   8.954
18064SOL    HW154218   3.095  10.783   9.018
18064SOL    HW254219   3.037  10.834   8.874
18065SOL     OW54220   2.183  10.253   7.690
18065SOL    HW154221   2.265  10.292   7.648
18065SOL    HW254222   2.156  10.171   7.641
18066SOL     OW54223   3.320  10.045   8.176
18066SOL    HW154224   3.315   9.980   8.251
18066SOL    HW254225   3.400  10.104   8.189
18067SOL     OW54226   2.323  10.576   9.175
18067SOL    HW154227   2.273  10.577   9.089
18067SOL    HW254228   2.260  10.558   9.251
18068SOL     OW54229   2.973  11.086   7.685
18068SOL    HW154230   2.913  11.024   7.735
18068SOL    HW254231   3.004  11.042   7.600
18069SOL     OW54232   2.064   9.595   8.946
18069SOL    HW154233   1.984   9.655   8.933
18069SOL    HW254234   2.054   9.546   9.032
18070SOL     OW54235   3.494  10.687   7.529
18070SOL    HW154236   3.462  10.781   7.519
18070SOL    HW254237   3.418  10.624   7.517
18071SOL     OW54238   2.326  11.053   7.771
18071SOL    HW154239   2.359  11.092   7.857
18071SOL    HW254240   2.402  11.046   7.706
18072SOL     OW54241   3.262   9.417   7.874
18072SOL    HW154242   3.238   9.380   7.784
18072SOL    HW254243   3.361   9.433   7.878
18073SOL     OW54244   2.111  11.095   8.689
18073SOL    HW154245   2.168  11.030   8.739
18073SOL    HW254246   2.095  11.062   8.596
18074SOL     OW54247   2.802  11.008   8.352
18074SOL    HW154248   2.882  10.951   8.373
18074SOL    HW254249   2.753  10.968   8.275
18075SOL     OW54250   2.244  10.010   7.928
18075SOL    HW154251   2.289   9.920   7.925
18075SOL    HW254252   2.150   9.999   7.961
18076SOL     OW54253   3.409   9.532   9.177
18076SOL    HW154254   3.404   9.569   9.269
18076SOL    HW254255   3.337   9.463   9.165
18077SOL     OW54256   2.476   9.432   7.565
18077SOL    HW154257   2.574   9.410   7.572
18077SOL    HW254258   2.445   9.415   7.472
18078SOL     OW54259   2.643   9.574   9.197
18078SOL    HW154260   2.710   9.513   9.240
18078SOL    HW254261   2.570   9.593   9.262
18079SOL     OW54262   2.750  10.824   8.643
18079SOL    HW154263   2.727  10.799   8.549
18079SOL    HW254264   2.811  10.755   8.682
18080SOL     OW54265   3.213   9.900   8.881
18080SOL    HW154266   3.241   9.857   8.966
18080SOL    HW254267   3.238   9.996   8.882
18081SOL     OW54268   2.665  10.712   8.372
18081SOL    HW154269   2.755  10.726   8.330
18081SOL    HW254270   2.594  10.714   8.301
18082SOL     OW54271   2.784   9.813   8.347
18082SOL    HW154272   2.759   9.804   8.251
18082SOL    HW254273   2.832   9.731   8.378
18083SOL     OW54274   2.401   9.374   7.960
18083SOL    HW154275   2.320   9.375   8.018
18083SOL    HW254276   2.404   9.457   7.905
18084SOL     OW54277   3.296  10.498   7.489
18084SOL    HW154278   3.328  10.422   7.546
18084SOL    HW254279   3.204  10.525   7.519
18085SOL     OW54280   2.159   9.345   7.619
18085SOL    HW154281   2.208   9.429   7.598
18085SOL    HW254282   2.221   9.280   7.664
18086SOL     OW54283   2.797   9.546   7.928
18086SOL    HW154284   2.749   9.587   7.850
18086SOL    HW254285   2.896   9.544   7.909
18087SOL     OW54286   2.938   9.993   8.912
18087SOL    HW154287   2.858   9.932   8.915
18087SOL    HW254288   3.019   9.940   8.888
18088SOL     OW54289   3.089  10.880   8.241
18088SOL    HW154290   3.110  10.954   8.176
18088SOL    HW254291   3.157  10.880   8.314
18089SOL     OW54292   2.321  10.462   8.189
18089SOL    HW154293   2.250  10.435   8.254
18089SOL    HW254294   2.295  10.434   8.096
18090SOL     OW54295   3.133  11.107   8.039
18090SOL    HW154296   3.177  11.171   7.975
18090SOL    HW254297   3.083  11.159   8.109
18091SOL     OW54298   2.894   9.859   7.464
18091SOL    HW154299   2.853   9.941   7.425
18091SOL    HW254300   2.958   9.885   7.537
18092SOL     OW54301   1.940   9.866   8.834
18092SOL    HW154302   2.032   9.865   8.793
18092SOL    HW254303   1.934   9.940   8.901
18093SOL     OW54304   2.423   9.532   8.595
18093SOL    HW154305   2.461   9.448   8.632
18093SOL    HW254306   2.335   9.551   8.639
18094SOL     OW54307   2.728   9.764   8.090
18094SOL    HW154308   2.696   9.836   8.028
18094SOL    HW254309   2.752   9.683   8.037
18095SOL     OW54310   2.879   9.349   8.201
18095SOL    HW154311   2.807   9.354   8.132
18095SOL    HW254312   2.855   9.280   8.270
18096SOL     OW54313   3.291  10.483   8.315
18096SOL    HW154314   3.236  10.399   8.308
18096SOL    HW254315   3.317  10.512   8.223
18097SOL     OW54316   3.328   9.900   8.440
18097SOL    HW154317   3.298   9.805   8.447
18097SOL    HW254318   3.401   9.916   8.506
18098SOL     OW54319   3.719  10.143   7.825
18098SOL    HW154320   3.761  10.079   7.889
18098SOL    HW254321   3.681  10.092   7.747
18099SOL     OW54322   2.350  10.695   7.622
18099SOL    HW154323   2.263  10.680   7.669
18099SOL    HW254324   2.333  10.721   7.527
18100SOL     OW54325   3.526  10.590   8.105
18100SOL    HW154326   3.625  10.598   8.119
18100SOL    HW254327   3.481  10.674   8.136
18101SOL     OW54328   3.252   9.885   7.526
18101SOL    HW154329   3.198   9.864   7.607
18101SOL    HW254330   3.343   9.844   7.535
18102SOL     OW54331   2.389   9.566   7.776
18102SOL    HW154332   2.416   9.507   7.701
18102SOL    HW254333   2.389   9.661   7.745
18103SOL     OW54334   3.616  10.533   9.036
18103SOL    HW154335   3.707  10.494   9.023
18103SOL    HW254336   3.624  10.629   9.060
18104SOL     OW54337   2.926  10.657   8.788
18104SOL    HW154338   2.846  10.634   8.843
18104SOL    HW254339   3.009  10.631   8.837
18105SOL     OW54340   3.454  10.939   9.073
18105SOL    HW154341   3.481  10.973   8.983
18105SOL    HW254342   3.533  10.901   9.119
18106SOL     OW54343   2.973  10.505   8.548
18106SOL    HW154344   2.933  10.549   8.629
18106SOL    HW254345   2.932  10.542   8.465
18107SOL     OW54346   3.500  10.409   8.527
18107SOL    HW154347   3.505  10.490   8.586
18107SOL    HW254348   3.414  10.411   8.476
18108SOL     OW54349   2.777   9.399   8.850
18108SOL    HW154350   2.802   9.379   8.755
18108SOL    HW254351   2.849   9.455   8.892
18109SOL     OW54352   2.842  10.426   9.167
18109SOL    HW154353   2.743  10.432   9.177
18109SOL    HW254354   2.865  10.346   9.111
18110SOL     OW54355   2.567  10.360   7.816
18110SOL    HW154356   2.553  10.367   7.915
18110SOL    HW254357   2.651  10.309   7.798
18111SOL     OW54358   2.272  10.123   8.699
18111SOL    HW154359   2.358  10.135   8.749
18111SOL    HW254360   2.230  10.036   8.726
18112SOL     OW54361   3.136   9.696   8.710
18112SOL    HW154362   3.157   9.770   8.774
18112SOL    HW254363   3.047   9.713   8.667
18113SOL     OW54364   1.926  10.874   8.779
18113SOL    HW154365   1.880  10.956   8.745
18113SOL    HW254366   2.024  10.893   8.788
18114SOL     OW54367   2.229  10.410   7.949
18114SOL    HW154368   2.222  10.493   7.893
18114SOL    HW254369   2.233  10.330   7.889
18115SOL     OW54370   2.428   9.847   8.313
18115SOL    HW154371   2.440   9.913   8.239
18115SOL    HW254372   2.474   9.881   8.396
18116SOL     OW54373   3.114  10.658   7.836
18116SOL    HW154374   3.164  10.735   7.876
18116SOL    HW254375   3.019  10.660   7.868
18117SOL     OW54376   3.134  10.755   8.590
18117SOL    HW154377   3.181  10.768   8.677
18117SOL    HW254378   3.068  10.681   8.599
18118SOL     OW54379   3.444   9.949   7.920
18118SOL    HW154380   3.413  10.010   7.993
18118SOL    HW254381   3.494  10.001   7.851
18119SOL     OW54382   2.216  10.820   8.777
18119SOL    HW154383   2.195  10.776   8.690
18119SOL    HW254384   2.313  10.846   8.780
18120SOL     OW54385   2.264  10.061   9.046
18120SOL    HW154386   2.332  10.116   8.999
18120SOL    HW254387   2.304   9.973   9.073
18121SOL     OW54388   3.449  10.089   9.118
18121SOL    HW154389   3.357  10.127   9.113
18121SOL    HW254390   3.509  10.136   9.053
18122SOL     OW54391   2.875   9.415   9.218
18122SOL    HW154392   2.881   9.500   9.166
18122SOL    HW254393   2.907   9.339   9.161
18123SOL     OW54394   2.366   9.360   9.188
18123SOL    HW154395   2.324   9.303   9.118
18123SOL    HW254396   2.300   9.429   9.220
18124SOL     OW54397   2.435  10.180   8.477
18124SOL    HW154398   2.479  10.269   8.468
18124SOL    HW254399   2.372  10.180   8.554
18125SOL     OW54400   3.222  10.172   8.493
18125SOL    HW154401   3.147  10.172   8.427
18125SOL    HW254402   3.259  10.080   8.502
18126SOL     OW54403   3.071   9.835   7.723
18126SOL    HW154404   3.084   9.751   7.777
18126SOL    HW254405   3.042   9.909   7.783
18127SOL     OW54406   2.169   9.523   8.679
18127SOL    HW154407   2.146   9.560   8.769
18127SOL    HW254408   2.139   9.428   8.673
18128SOL     OW54409   1.899  10.620   8.730
18128SOL    HW154410   1.952  10.571   8.798
18128SOL    HW254411   1.921  10.718   8.735
18129SOL     OW54412   2.594   9.944   8.512
18129SOL    HW154413   2.653   9.918   8.436
18129SOL    HW254414   2.566  10.040   8.501
18130SOL     OW54415   3.590  10.245   9.302
18130SOL    HW154416   3.544  10.238   9.213
18130SOL    HW254417   3.528  10.289   9.368
18131SOL     OW54418   2.169   9.373   8.066
18131SOL    HW154419   2.158   9.467   8.099
18131SOL    HW254420   2.164   9.310   8.143
18132SOL     OW54421   3.484   9.677   7.822
18132SOL    HW154422   3.486   9.601   7.886
18132SOL    HW254423   3.436   9.754   7.862
18133SOL     OW54424   2.885  10.076   8.414
18133SOL    HW154425   2.900  10.097   8.510
18133SOL    HW254426   2.855   9.981   8.405
18134SOL     OW54427   2.842  10.883   9.148
18134SOL    HW154428   2.822  10.927   9.060
18134SOL    HW254429   2.881  10.792   9.132
18135SOL     OW54430   3.721  10.828   9.053
18135SOL    HW154431   3.735  10.855   8.958
18135SOL    HW254432   3.804  10.850   9.106
18136SOL     OW54433   2.212  10.208   9.252
18136SOL    HW154434   2.288  10.252   9.300
18136SOL    HW254435   2.247  10.161   9.170
18137SOL     OW54436   3.402   9.584   7.573
18137SOL    HW154437   3.341   9.509   7.596
18137SOL    HW254438   3.424   9.636   7.656
18138SOL     OW54439   3.165  10.148   7.490
18138SOL    HW154440   3.199  10.055   7.505
18138SOL    HW254441   3.183  10.175   7.395
18139SOL     OW54442   2.930  10.643   8.297
18139SOL    HW154443   2.937  10.559   8.242
18139SOL    HW254444   2.992  10.712   8.261
18140SOL     OW54445   2.181  10.120   8.397
18140SOL    HW154446   2.274  10.156   8.402
18140SOL    HW254447   2.175  10.035   8.449
18141SOL     OW54448   2.201   9.819   8.454
18141SOL    HW154449   2.149   9.736   8.437
18141SOL    HW254450   2.278   9.824   8.390
18142SOL     OW54451   3.000   9.690   9.126
18142SOL    HW154452   2.955   9.753   9.190
18142SOL    HW254453   3.093   9.721   9.109
18143SOL     OW54454   3.022   9.517   8.925
18143SOL    HW154455   3.022   9.581   9.002
18143SOL    HW254456   3.050   9.565   8.842
18144SOL     OW54457   1.870  10.636   7.648
18144SOL    HW154458   1.777  10.657   7.617
18144SOL    HW254459   1.880  10.537   7.661
18145SOL     OW54460   1.950  11.111   8.375
18145SOL    HW154461   1.908  11.025   8.348
18145SOL    HW254462   2.044  11.114   8.341
18146SOL     OW54463   2.366  10.878   8.358
18146SOL    HW154464   2.432  10.952   8.367
18146SOL    HW254465   2.410  10.799   8.316
18147SOL     OW54466   2.864  10.106   8.686
18147SOL    HW154467   2.905  10.074   8.772
18147SOL    HW254468   2.768  10.079   8.683
18148SOL     OW54469   1.902   9.854   8.562
18148SOL    HW154470   1.987   9.821   8.521
18148SOL    HW254471   1.915   9.869   8.660
18149SOL     OW54472   2.051   9.830   9.170
18149SOL    HW154473   2.110   9.790   9.100
18149SOL    HW254474   1.993   9.901   9.129
18150SOL     OW54475   3.231  10.260   9.108
18150SOL    HW154476   3.270  10.349   9.128
18150SOL    HW254477   3.241  10.240   9.011
18151SOL     OW54478   2.677   9.882   7.773
18151SOL    HW154479   2.684   9.793   7.727
18151SOL    HW254480   2.583   9.916   7.765
18152SOL     OW54481   3.519   9.914   8.654
18152SOL    HW154482   3.481   9.845   8.716
18152SOL    HW254483   3.601   9.878   8.610
18153SOL     OW54484   2.114  10.874   9.192
18153SOL    HW154485   2.084  10.931   9.268
18153SOL    HW254486   2.107  10.777   9.218
18154SOL     OW54487   2.533   9.774   8.717
18154SOL    HW154488   2.499   9.685   8.687
18154SOL    HW254489   2.559   9.828   8.637
18155SOL     OW54490   2.792  10.988   8.913
18155SOL    HW154491   2.768  10.970   8.818
18155SOL    HW254492   2.822  11.082   8.923
18156SOL     OW54493   2.335   9.810   7.639
18156SOL    HW154494   2.396   9.890   7.643
18156SOL    HW254495   2.240   9.841   7.646
18157SOL     OW54496   2.021  10.447   8.914
18157SOL    HW154497   2.043  10.386   8.990
18157SOL    HW254498   2.031  10.398   8.828
18158SOL     OW54499   3.209  10.369   8.682
18158SOL    HW154500   3.233  10.306   8.608
18158SOL    HW254501   3.119  10.409   8.664
18159SOL     OW54502   3.164  10.165   7.757
18159SOL    HW154503   3.078  10.134   7.799
18159SOL    HW254504   3.160  10.151   7.658
18160SOL     OW54505   3.621  11.057   8.602
18160SOL    HW154506   3.682  11.087   8.529
18160SOL    HW254507   3.583  10.968   8.580
18161SOL     OW54508   3.114  11.041   8.576
18161SOL    HW154509   3.198  11.046   8.522
18161SOL    HW254510   3.091  10.945   8.594
18162SOL     OW54511   1.945  10.568   8.470
18162SOL    HW154512   1.940  10.567   8.570
18162SOL    HW254513   1.862  10.527   8.432
18163SOL     OW54514   2.550  10.972   9.164
18163SOL    HW154515   2.494  11.053   9.173
18163SOL    HW254516   2.602  10.976   9.078
18164SOL     OW54517   3.588   9.445   7.971
18164SOL    HW154518   3.661   9.428   7.904
18164SOL    HW254519   3.557   9.358   8.009
18165SOL     OW54520   3.250  10.883   7.925
18165SOL    HW154521   3.317  10.895   7.851
18165SOL    HW254522   3.210  10.972   7.948
18166SOL     OW54523   1.992  11.104   9.299
18166SOL    HW154524   1.951  11.030   9.352
18166SOL    HW254525   2.056  11.155   9.357
18167SOL     OW54526   3.142  10.237   8.120
18167SOL    HW154527   3.202  10.156   8.122
18167SOL    HW254528   3.182  10.306   8.060
18168SOL     OW54529   2.692  10.583   8.870
18168SOL    HW154530   2.687  10.616   8.965
18168SOL    HW254531   2.606  10.602   8.824
18169SOL     OW54532   2.534  10.926   7.602
18169SOL    HW154533   2.543  10.936   7.503
18169SOL    HW254534   2.494  10.837   7.623
18170SOL     OW54535   3.512  11.030   8.842
18170SOL    HW154536   3.565  11.040   8.758
18170SOL    HW254537   3.485  11.120   8.876
18171SOL     OW54538   3.703   9.485   8.411
18171SOL    HW154539   3.742   9.400   8.375
18171SOL    HW254540   3.605   9.487   8.392
18172SOL     OW54541   2.125   9.636   8.168
18172SOL    HW154542   2.046   9.687   8.134
18172SOL    HW254543   2.116   9.621   8.266
18173SOL     OW54544   3.056  10.922   7.479
18173SOL    HW154545   3.062  10.829   7.516
18173SOL    HW254546   2.997  10.922   7.399
18174SOL     OW54547   2.684  10.312   8.820
18174SOL    HW154548   2.724  10.311   8.728
18174SOL    HW254549   2.694  10.404   8.860
18175SOL     OW54550   2.778  10.220   7.739
18175SOL    HW154551   2.841  10.258   7.671
18175SOL    HW254552   2.818  10.137   7.778
18176SOL     OW54553   3.366  10.917   7.492
18176SOL    HW154554   3.274  10.954   7.499
18176SOL    HW254555   3.404  10.937   7.402
18177SOL     OW54556   2.234  10.598   8.938
18177SOL    HW154557   2.221  10.691   8.904
18177SOL    HW254558   2.150  10.546   8.925
18178SOL     OW54559   3.476  10.602   8.737
18178SOL    HW154560   3.536  10.605   8.817
18178SOL    HW254561   3.401  10.666   8.750
18179SOL     OW54562   2.901  10.408   8.144
18179SOL    HW154563   2.831  10.361   8.198
18179SOL    HW254564   2.960  10.340   8.101
18180SOL     OW54565   2.876   9.546   8.419
18180SOL    HW154566   2.868   9.510   8.326
18180SOL    HW254567   2.874   9.470   8.484
18181SOL     OW54568   2.452  10.797   7.939
18181SOL    HW154569   2.494  10.739   7.869
18181SOL    HW254570   2.408  10.876   7.895
18182SOL     OW54571   3.571   9.695   8.829
18182SOL    HW154572   3.644   9.764   8.833
18182SOL    HW254573   3.599   9.620   8.770
18183SOL     OW54574   2.117  10.658   7.738
18183SOL    HW154575   2.021  10.659   7.711
18183SOL    HW254576   2.129  10.711   7.822
18184SOL     OW54577   1.967  10.323   9.174
18184SOL    HW154578   1.890  10.290   9.228
18184SOL    HW254579   2.052  10.293   9.216
18185SOL     OW54580   2.534   9.513   8.937
18185SOL    HW154581   2.624   9.497   8.897
18185SOL    HW254582   2.542   9.518   9.036
18186SOL     OW54583   1.937   9.655   7.481
18186SOL    HW154584   1.845   9.627   7.452
18186SOL    HW254585   1.968   9.732   7.425
18187SOL     OW54586   3.302  10.166   8.846
18187SOL    HW154587   3.245  10.218   8.783
18187SOL    HW254588   3.398  10.178   8.822
18188SOL     OW54589   1.934   9.476   7.766
18188SOL    HW154590   1.917   9.559   7.712
18188SOL    HW254591   2.024   9.439   7.744
18189SOL     OW54592   3.045  10.645   7.567
18189SOL    HW154593   2.946  10.634   7.569
18189SOL    HW254594   3.079  10.660   7.660
18190SOL     OW54595   2.475  10.152   8.879
18190SOL    HW154596   2.531  10.233   8.862
18190SOL    HW254597   2.534  10.072   8.882
18191SOL     OW54598   3.355  11.077   8.407
18191SOL    HW154599   3.388  11.141   8.338
18191SOL    HW254600   3.421  11.071   8.482
18192SOL     OW54601   2.578   9.875   9.156
18192SOL    HW154602   2.597   9.940   9.230
18192SOL    HW254603   2.638   9.795   9.165
18193SOL     OW54604   3.312  10.530   9.081
18193SOL    HW154605   3.303  10.520   9.180
18193SOL    HW254606   3.408  10.523   9.055
18194SOL     OW54607   2.252  11.051   9.008
18194SOL    HW154608   2.161  11.092   9.006
18194SOL    HW254609   2.245  10.957   9.040
18195SOL     OW54610   3.536  10.193   8.702
18195SOL    HW154611   3.509  10.104   8.665
18195SOL    HW254612   3.537  10.261   8.629
18196SOL     OW54613   3.087   9.635   7.897
18196SOL    HW154614   3.152   9.561   7.886
18196SOL    HW254615   3.107   9.685   7.981
18197SOL     OW54616   2.456  10.055   8.100
18197SOL    HW154617   2.506  10.140   8.081
18197SOL    HW254618   2.368  10.057   8.052
18198SOL     OW54619   3.639   9.652   9.090
18198SOL    HW154620   3.622   9.683   8.996
18198SOL    HW254621   3.555   9.615   9.128
18199SOL     OW54622   3.592  10.244   8.965
18199SOL    HW154623   3.630  10.335   8.980
18199SOL    HW254624   3.584  10.227   8.866
18200SOL     OW54625   2.721  10.684   7.464
18200SOL    HW154626   2.675  10.699   7.552
18200SOL    HW254627   2.765  10.769   7.434
18201SOL     OW54628   2.523  11.100   8.401
18201SOL    HW154629   2.477  11.188   8.388
18201SOL    HW254630   2.622  11.112   8.394
18202SOL     OW54631   2.721  10.266   8.309
18202SOL    HW154632   2.775  10.197   8.357
18202SOL    HW254633   2.689  10.335   8.375
18203SOL     OW54634   2.945  10.294   7.535
18203SOL    HW154635   2.922  10.347   7.453
18203SOL    HW254636   3.026  10.238   7.516
18204SOL     OW54637   3.723  10.879   8.299
18204SOL    HW154638   3.652  10.867   8.229
18204SOL    HW254639   3.724  10.800   8.359
18205SOL     OW54640   2.083  10.624   9.292
18205SOL    HW154641   2.018  10.551   9.271
18205SOL    HW254642   2.087  10.638   9.390
18206SOL     OW54643   1.941  10.550   8.101
18206SOL    HW154644   1.940  10.503   8.189
18206SOL    HW254645   2.023  10.522   8.050
18207SOL     OW54646   2.534  10.701   9.072
18207SOL    HW154647   2.456  10.651   9.110
18207SOL    HW254648   2.531  10.796   9.103
18208SOL     OW54649   3.686   9.502   8.675
18208SOL    HW154650   3.682   9.412   8.719
18208SOL    HW254651   3.689   9.491   8.576
18209SOL     OW54652   2.290   9.734   7.968
18209SOL    HW154653   2.320   9.662   7.906
18209SOL    HW254654   2.251   9.694   8.051
18210SOL     OW54655   3.567  10.797   8.552
18210SOL    HW154656   3.474  10.772   8.525
18210SOL    HW254657   3.593  10.747   8.634
18211SOL     OW54658   2.179   9.857   8.728
18211SOL    HW154659   2.217   9.798   8.800
18211SOL    HW254660   2.219   9.831   8.640
18212SOL     OW54661   2.674  10.896   8.135
18212SOL    HW154662   2.706  10.906   8.041
18212SOL    HW254663   2.595  10.834   8.137
18213SOL     OW54664   3.286   9.524   8.560
18213SOL    HW154665   3.338   9.459   8.615
18213SOL    HW254666   3.237   9.587   8.621
18214SOL     OW54667   2.863   9.344   8.602
18214SOL    HW154668   2.800   9.272   8.571
18214SOL    HW254669   2.956   9.308   8.602
18215SOL     OW54670   2.632  10.640   7.749
18215SOL    HW154671   2.586  10.553   7.766
18215SOL    HW254672   2.723  10.637   7.790
18216SOL     OW54673   2.480  10.877   8.732
18216SOL    HW154674   2.475  10.959   8.789
18216SOL    HW254675   2.569  10.874   8.687
18217SOL     OW54676   3.214   9.362   7.616
18217SOL    HW154677   3.249   9.321   7.532
18217SOL    HW254678   3.124   9.324   7.636
18218SOL     OW54679   3.162   9.763   8.139
18218SOL    HW154680   3.103   9.843   8.143
18218SOL    HW254681   3.177   9.728   8.232
18219SOL     OW54682   3.455   9.531   8.330
18219SOL    HW154683   3.371   9.530   8.384
18219SOL    HW254684   3.457   9.614   8.274
18220SOL     OW54685   1.901  10.387   7.748
18220SOL    HW154686   2.000  10.376   7.739
18220SOL    HW254687   1.861  10.301   7.780
18221SOL     OW54688   2.737  10.956   7.785
18221SOL    HW154689   2.660  10.921   7.731
18221SOL    HW254690   2.705  11.027   7.847
18222SOL     OW54691   2.092   9.938   9.423
18222SOL    HW154692   1.999   9.936   9.460
18222SOL    HW254693   2.093   9.899   9.331
18223SOL     OW54694   2.087   9.585  10.306
18223SOL    HW154695   2.122   9.568  10.398
18223SOL    HW254696   1.999   9.540  10.294
18224SOL     OW54697   1.881   9.678   9.957
18224SOL    HW154698   1.799   9.721   9.996
18224SOL    HW254699   1.853   9.605   9.894
18225SOL     OW54700   2.431  10.585  10.475
18225SOL    HW154701   2.338  10.578  10.438
18225SOL    HW254702   2.442  10.674  10.519
18226SOL     OW54703   3.417  10.821  10.013
18226SOL    HW154704   3.360  10.805  10.094
18226SOL    HW254705   3.358  10.831   9.933
18227SOL     OW54706   2.997  10.013  10.027
18227SOL    HW154707   3.054  10.091  10.002
18227SOL    HW254708   2.937  10.039  10.103
18228SOL     OW54709   3.617   9.917   9.541
18228SOL    HW154710   3.605   9.904   9.442
18228SOL    HW254711   3.587   9.836   9.590
18229SOL     OW54712   2.630  10.454  10.333
18229SOL    HW154713   2.552  10.471  10.393
18229SOL    HW254714   2.664  10.541  10.297
18230SOL     OW54715   2.712  10.108  11.133
18230SOL    HW154716   2.708  10.184  11.198
18230SOL    HW254717   2.734  10.144  11.042
18231SOL     OW54718   2.547  10.322   9.975
18231SOL    HW154719   2.616  10.306  10.045
18231SOL    HW254720   2.474  10.379  10.013
18232SOL     OW54721   2.548  10.471  11.113
18232SOL    HW154722   2.608  10.550  11.127
18232SOL    HW254723   2.462  10.502  11.072
18233SOL     OW54724   2.197  10.745  10.371
18233SOL    HW154725   2.119  10.714  10.318
18233SOL    HW254726   2.255  10.803  10.314
18234SOL     OW54727   3.322  10.815  10.649
18234SOL    HW154728   3.346  10.909  10.675
18234SOL    HW254729   3.306  10.761  10.731
18235SOL     OW54730   2.300   9.702  10.809
18235SOL    HW154731   2.382   9.646  10.818
18235SOL    HW254732   2.219   9.644  10.813
18236SOL     OW54733   3.465   9.757  10.047
18236SOL    HW154734   3.391   9.803   9.997
18236SOL    HW254735   3.516   9.825  10.100
18237SOL     OW54736   2.093  11.023   9.793
18237SOL    HW154737   2.127  11.100   9.847
18237SOL    HW254738   2.137  11.023   9.703
18238SOL     OW54739   2.989  10.651  11.000
18238SOL    HW154740   3.036  10.651  11.088
18238SOL    HW254741   2.941  10.564  10.989
18239SOL     OW54742   2.092  10.744   9.848
18239SOL    HW154743   2.066  10.840   9.848
18239SOL    HW254744   2.021  10.690   9.893
18240SOL     OW54745   2.102  10.401  10.196
18240SOL    HW154746   2.116  10.317  10.248
18240SOL    HW254747   2.047  10.465  10.251
18241SOL     OW54748   2.482  11.096  10.749
18241SOL    HW154749   2.390  11.079  10.784
18241SOL    HW254750   2.510  11.188  10.775
18242SOL     OW54751   2.468  10.274   9.433
18242SOL    HW154752   2.475  10.358   9.379
18242SOL    HW254753   2.514  10.287   9.521
18243SOL     OW54754   3.456   9.424  10.790
18243SOL    HW154755   3.438   9.491  10.718
18243SOL    HW254756   3.453   9.470  10.879
18244SOL     OW54757   1.984   9.953   9.873
18244SOL    HW154758   1.939   9.865   9.890
18244SOL    HW254759   1.983  10.007   9.957
18245SOL     OW54760   3.704  11.077   9.669
18245SOL    HW154761   3.758  11.048   9.749
18245SOL    HW254762   3.734  11.167   9.640
18246SOL     OW54763   1.889  10.906   9.427
18246SOL    HW154764   1.870  10.810   9.448
18246SOL    HW254765   1.856  10.964   9.502
18247SOL     OW54766   3.551  10.232   9.922
18247SOL    HW154767   3.646  10.203   9.930
18247SOL    HW254768   3.543  10.297   9.847
18248SOL     OW54769   3.503  10.418   9.742
18248SOL    HW154770   3.589  10.420   9.690
18248SOL    HW254771   3.517  10.465   9.830
18249SOL     OW54772   1.975  10.047  10.907
18249SOL    HW154773   2.063  10.034  10.952
18249SOL    HW254774   1.962  10.144  10.885
18250SOL     OW54775   2.475  10.675  10.036
18250SOL    HW154776   2.426  10.588  10.045
18250SOL    HW254777   2.452  10.718   9.949
18251SOL     OW54778   3.155  10.538  10.733
18251SOL    HW154779   3.192  10.465  10.675
18251SOL    HW254780   3.207  10.543  10.818
18252SOL     OW54781   2.671   9.314   9.812
18252SOL    HW154782   2.711   9.405   9.803
18252SOL    HW254783   2.571   9.322   9.818
18253SOL     OW54784   2.059  10.286  10.574
18253SOL    HW154785   2.148  10.241  10.560
18253SOL    HW254786   1.986  10.221  10.555
18254SOL     OW54787   3.387  10.309   9.500
18254SOL    HW154788   3.324  10.233   9.513
18254SOL    HW254789   3.435  10.327   9.586
18255SOL     OW54790   3.049  11.102  10.926
18255SOL    HW154791   3.073  11.162  10.850
18255SOL    HW254792   3.056  11.007  10.896
18256SOL     OW54793   2.179   9.561  11.111
18256SOL    HW154794   2.250   9.632  11.117
18256SOL    HW254795   2.091   9.600  11.139
18257SOL     OW54796   3.328  10.727  10.263
18257SOL    HW154797   3.269  10.733  10.343
18257SOL    HW254798   3.313  10.639  10.217
18258SOL     OW54799   3.529  11.024   9.882
18258SOL    HW154800   3.488  11.001   9.794
18258SOL    HW254801   3.511  10.950   9.947
18259SOL     OW54802   2.460  10.039   9.580
18259SOL    HW154803   2.484  10.108   9.512
18259SOL    HW254804   2.382  10.072   9.634
18260SOL     OW54805   3.143   9.655  10.254
18260SOL    HW154806   3.057   9.605  10.241
18260SOL    HW254807   3.205   9.601  10.310
18261SOL     OW54808   3.438  10.972   9.617
18261SOL    HW154809   3.527  11.018   9.620
18261SOL    HW254810   3.417  10.948   9.522
18262SOL     OW54811   2.669   9.915  10.775
18262SOL    HW154812   2.622   9.912  10.864
18262SOL    HW254813   2.618   9.860  10.709
18263SOL     OW54814   3.256   9.779  10.984
18263SOL    HW154815   3.236   9.822  11.072
18263SOL    HW254816   3.334   9.717  10.993
18264SOL     OW54817   2.835  10.200  10.882
18264SOL    HW154818   2.881  10.116  10.853
18264SOL    HW254819   2.779  10.234  10.807
18265SOL     OW54820   2.853   9.720  10.552
18265SOL    HW154821   2.776   9.754  10.606
18265SOL    HW254822   2.819   9.669  10.473
18266SOL     OW54823   2.903  10.011   9.739
18266SOL    HW154824   2.929  10.007   9.835
18266SOL    HW254825   2.818   9.960   9.725
18267SOL     OW54826   1.938  10.121  10.099
18267SOL    HW154827   2.037  10.109  10.108
18267SOL    HW254828   1.914  10.216  10.120
18268SOL     OW54829   1.992  11.131  10.881
18268SOL    HW154830   1.982  11.116  10.980
18268SOL    HW254831   1.906  11.167  10.845
18269SOL     OW54832   2.727   9.658   9.505
18269SOL    HW154833   2.786   9.721   9.456
18269SOL    HW254834   2.746   9.564   9.476
18270SOL     OW54835   3.581   9.895  11.141
18270SOL    HW154836   3.555   9.984  11.105
18270SOL    HW254837   3.579   9.827  11.068
18271SOL     OW54838   3.224  10.454   9.855
18271SOL    HW154839   3.307  10.425   9.807
18271SOL    HW254840   3.175  10.521   9.799
18272SOL     OW54841   2.412   9.506  10.195
18272SOL    HW154842   2.407   9.501  10.295
18272SOL    HW254843   2.414   9.602  10.166
18273SOL     OW54844   2.870  10.766   9.787
18273SOL    HW154845   2.824  10.838   9.735
18273SOL    HW254846   2.866  10.786   9.885
18274SOL     OW54847   2.213  11.111  10.163
18274SOL    HW154848   2.263  11.025  10.169
18274SOL    HW254849   2.278  11.188  10.160
18275SOL     OW54850   3.657  10.376  10.183
18275SOL    HW154851   3.595  10.361  10.107
18275SOL    HW254852   3.605  10.387  10.268
18276SOL     OW54853   3.089  10.860  10.816
18276SOL    HW154854   3.095  10.783  10.880
18276SOL    HW254855   3.037  10.834  10.736
18277SOL     OW54856   2.183  10.253   9.552
18277SOL    HW154857   2.265  10.292   9.510
18277SOL    HW254858   2.156  10.171   9.503
18278SOL     OW54859   3.320  10.045  10.038
18278SOL    HW154860   3.315   9.980  10.113
18278SOL    HW254861   3.400  10.104  10.051
18279SOL     OW54862   2.323  10.576  11.037
18279SOL    HW154863   2.273  10.577  10.951
18279SOL    HW254864   2.260  10.558  11.113
18280SOL     OW54865   2.973  11.086   9.547
18280SOL    HW154866   2.913  11.024   9.597
18280SOL    HW254867   3.004  11.042   9.462
18281SOL     OW54868   2.064   9.595  10.808
18281SOL    HW154869   1.984   9.655  10.795
18281SOL    HW254870   2.054   9.546  10.894
18282SOL     OW54871   3.494  10.687   9.391
18282SOL    HW154872   3.462  10.781   9.381
18282SOL    HW254873   3.418  10.624   9.379
18283SOL     OW54874   2.326  11.053   9.633
18283SOL    HW154875   2.359  11.092   9.719
18283SOL    HW254876   2.402  11.046   9.568
18284SOL     OW54877   3.262   9.417   9.736
18284SOL    HW154878   3.238   9.380   9.646
18284SOL    HW254879   3.361   9.433   9.740
18285SOL     OW54880   2.111  11.095  10.551
18285SOL    HW154881   2.168  11.030  10.601
18285SOL    HW254882   2.095  11.062  10.458
18286SOL     OW54883   2.802  11.008  10.214
18286SOL    HW154884   2.882  10.951  10.235
18286SOL    HW254885   2.753  10.968  10.137
18287SOL     OW54886   2.244  10.010   9.790
18287SOL    HW154887   2.289   9.920   9.787
18287SOL    HW254888   2.150   9.999   9.823
18288SOL     OW54889   3.409   9.532  11.039
18288SOL    HW154890   3.404   9.569  11.131
18288SOL    HW254891   3.337   9.463  11.027
18289SOL     OW54892   2.476   9.432   9.427
18289SOL    HW154893   2.574   9.410   9.434
18289SOL    HW254894   2.445   9.415   9.334
18290SOL     OW54895   2.643   9.574  11.059
18290SOL    HW154896   2.710   9.513  11.102
18290SOL    HW254897   2.570   9.593  11.124
18291SOL     OW54898   2.750  10.824  10.505
18291SOL    HW154899   2.727  10.799  10.411
18291SOL    HW254900   2.811  10.755  10.544
18292SOL     OW54901   3.213   9.900  10.743
18292SOL    HW154902   3.241   9.857  10.828
18292SOL    HW254903   3.238   9.996  10.744
18293SOL     OW54904   2.665  10.712  10.234
18293SOL    HW154905   2.755  10.726  10.192
18293SOL    HW254906   2.594  10.714  10.163
18294SOL     OW54907   2.784   9.813  10.209
18294SOL    HW154908   2.759   9.804  10.113
18294SOL    HW254909   2.832   9.731  10.240
18295SOL     OW54910   2.401   9.374   9.822
18295SOL    HW154911   2.320   9.375   9.880
18295SOL    HW254912   2.404   9.457   9.767
18296SOL     OW54913   3.296  10.498   9.351
18296SOL    HW154914   3.328  10.422   9.408
18296SOL    HW254915   3.204  10.525   9.381
18297SOL     OW54916   2.159   9.345   9.481
18297SOL    HW154917   2.208   9.429   9.460
18297SOL    HW254918   2.221   9.280   9.526
18298SOL     OW54919   2.797   9.546   9.790
18298SOL    HW154920   2.749   9.587   9.712
18298SOL    HW254921   2.896   9.544   9.771
18299SOL     OW54922   2.938   9.993  10.774
18299SOL    HW154923   2.858   9.932  10.777
18299SOL    HW254924   3.019   9.940  10.750
18300SOL     OW54925   3.089  10.880  10.103
18300SOL    HW154926   3.110  10.954  10.038
18300SOL    HW254927   3.157  10.880  10.176
18301SOL     OW54928   2.321  10.462  10.051
18301SOL    HW154929   2.250  10.435  10.116
18301SOL    HW254930   2.295  10.434   9.958
18302SOL     OW54931   3.133  11.107   9.901
18302SOL    HW154932   3.177  11.171   9.837
18302SOL    HW254933   3.083  11.159   9.971
18303SOL     OW54934   2.894   9.859   9.326
18303SOL    HW154935   2.853   9.941   9.287
18303SOL    HW254936   2.958   9.885   9.399
18304SOL     OW54937   1.940   9.866  10.696
18304SOL    HW154938   2.032   9.865  10.655
18304SOL    HW254939   1.934   9.940  10.763
18305SOL     OW54940   2.423   9.532  10.457
18305SOL    HW154941   2.461   9.448  10.494
18305SOL    HW254942   2.335   9.551  10.501
18306SOL     OW54943   2.728   9.764   9.952
18306SOL    HW154944   2.696   9.836   9.890
18306SOL    HW254945   2.752   9.683   9.899
18307SOL     OW54946   2.879   9.349  10.063
18307SOL    HW154947   2.807   9.354   9.994
18307SOL    HW254948   2.855   9.280  10.132
18308SOL     OW54949   3.291  10.483  10.177
18308SOL    HW154950   3.236  10.399  10.170
18308SOL    HW254951   3.317  10.512  10.085
18309SOL     OW54952   3.328   9.900  10.302
18309SOL    HW154953   3.298   9.805  10.309
18309SOL    HW254954   3.401   9.916  10.368
18310SOL     OW54955   3.719  10.143   9.687
18310SOL    HW154956   3.761  10.079   9.751
18310SOL    HW254957   3.681  10.092   9.609
18311SOL     OW54958   2.350  10.695   9.484
18311SOL    HW154959   2.263  10.680   9.531
18311SOL    HW254960   2.333  10.721   9.389
18312SOL     OW54961   3.526  10.590   9.967
18312SOL    HW154962   3.625  10.598   9.981
18312SOL    HW254963   3.481  10.674   9.998
18313SOL     OW54964   3.252   9.885   9.388
18313SOL    HW154965   3.198   9.864   9.469
18313SOL    HW254966   3.343   9.844   9.397
18314SOL     OW54967   2.389   9.566   9.638
18314SOL    HW154968   2.416   9.507   9.563
18314SOL    HW254969   2.389   9.661   9.607
18315SOL     OW54970   3.616  10.533  10.898
18315SOL    HW154971   3.707  10.494  10.885
18315SOL    HW254972   3.624  10.629  10.922
18316SOL     OW54973   2.926  10.657  10.650
18316SOL    HW154974   2.846  10.634  10.705
18316SOL    HW254975   3.009  10.631  10.699
18317SOL     OW54976   3.454  10.939  10.935
18317SOL    HW154977   3.481  10.973  10.845
18317SOL    HW254978   3.533  10.901  10.981
18318SOL     OW54979   2.973  10.505  10.410
18318SOL    HW154980   2.933  10.549  10.491
18318SOL    HW254981   2.932  10.542  10.327
18319SOL     OW54982   3.500  10.409  10.389
18319SOL    HW154983   3.505  10.490  10.448
18319SOL    HW254984   3.414  10.411  10.338
18320SOL     OW54985   2.777   9.399  10.712
18320SOL    HW154986   2.802   9.379  10.617
18320SOL    HW254987   2.849   9.455  10.754
18321SOL     OW54988   2.842  10.426  11.029
18321SOL    HW154989   2.743  10.432  11.039
18321SOL    HW254990   2.865  10.346  10.973
18322SOL     OW54991   2.567  10.360   9.678
18322SOL    HW154992   2.553  10.367   9.777
18322SOL    HW254993   2.651  10.309   9.660
18323SOL     OW54994   2.272  10.123  10.561
18323SOL    HW154995   2.358  10.135  10.611
18323SOL    HW254996   2.230  10.036  10.588
18324SOL     OW54997   3.136   9.696  10.572
18324SOL    HW154998   3.157   9.770  10.636
18324SOL    HW254999   3.047   9.713  10.529
18325SOL     OW55000   1.926  10.874  10.641
18325SOL    HW155001   1.880  10.956  10.607
18325SOL    HW255002   2.024  10.893  10.650
18326SOL     OW55003   2.229  10.410   9.811
18326SOL    HW155004   2.222  10.493   9.755
18326SOL    HW255005   2.233  10.330   9.751
18327SOL     OW55006   2.428   9.847  10.175
18327SOL    HW155007   2.440   9.913  10.101
18327SOL    HW255008   2.474   9.881  10.258
18328SOL     OW55009   3.114  10.658   9.698
18328SOL    HW155010   3.164  10.735   9.738
18328SOL    HW255011   3.019  10.660   9.730
18329SOL     OW55012   3.134  10.755  10.452
18329SOL    HW155013   3.181  10.768  10.539
18329SOL    HW255014   3.068  10.681  10.461
18330SOL     OW55015   3.444   9.949   9.782
18330SOL    HW155016   3.413  10.010   9.855
18330SOL    HW255017   3.494  10.001   9.713
18331SOL     OW55018   2.216  10.820  10.639
18331SOL    HW155019   2.195  10.776  10.552
18331SOL    HW255020   2.313  10.846  10.642
18332SOL     OW55021   2.264  10.061  10.908
18332SOL    HW155022   2.332  10.116  10.861
18332SOL    HW255023   2.304   9.973  10.935
18333SOL     OW55024   3.449  10.089  10.980
18333SOL    HW155025   3.357  10.127  10.975
18333SOL    HW255026   3.509  10.136  10.915
18334SOL     OW55027   2.875   9.415  11.080
18334SOL    HW155028   2.881   9.500  11.028
18334SOL    HW255029   2.907   9.339  11.023
18335SOL     OW55030   2.366   9.360  11.050
18335SOL    HW155031   2.324   9.303  10.980
18335SOL    HW255032   2.300   9.429  11.082
18336SOL     OW55033   2.435  10.180  10.339
18336SOL    HW155034   2.479  10.269  10.330
18336SOL    HW255035   2.372  10.180  10.416
18337SOL     OW55036   3.222  10.172  10.355
18337SOL    HW155037   3.147  10.172  10.289
18337SOL    HW255038   3.259  10.080  10.364
18338SOL     OW55039   3.071   9.835   9.585
18338SOL    HW155040   3.084   9.751   9.639
18338SOL    HW255041   3.042   9.909   9.645
18339SOL     OW55042   2.169   9.523  10.541
18339SOL    HW155043   2.146   9.560  10.631
18339SOL    HW255044   2.139   9.428  10.535
18340SOL     OW55045   1.899  10.620  10.592
18340SOL    HW155046   1.952  10.571  10.660
18340SOL    HW255047   1.921  10.718  10.597
18341SOL     OW55048   2.594   9.944  10.374
18341SOL    HW155049   2.653   9.918  10.298
18341SOL    HW255050   2.566  10.040  10.363
18342SOL     OW55051   3.590  10.245  11.164
18342SOL    HW155052   3.544  10.238  11.075
18342SOL    HW255053   3.528  10.289  11.230
18343SOL     OW55054   2.169   9.373   9.928
18343SOL    HW155055   2.158   9.467   9.961
18343SOL    HW255056   2.164   9.310  10.005
18344SOL     OW55057   3.484   9.677   9.684
18344SOL    HW155058   3.486   9.601   9.748
18344SOL    HW255059   3.436   9.754   9.724
18345SOL     OW55060   2.885  10.076  10.276
18345SOL    HW155061   2.900  10.097  10.372
18345SOL    HW255062   2.855   9.981  10.267
18346SOL     OW55063   2.842  10.883  11.010
18346SOL    HW155064   2.822  10.927  10.922
18346SOL    HW255065   2.881  10.792  10.994
18347SOL     OW55066   3.721  10.828  10.915
18347SOL    HW155067   3.735  10.855  10.820
18347SOL    HW255068   3.804  10.850  10.968
18348SOL     OW55069   2.212  10.208  11.114
18348SOL    HW155070   2.288  10.252  11.162
18348SOL    HW255071   2.247  10.161  11.032
18349SOL     OW55072   3.402   9.584   9.435
18349SOL    HW155073   3.341   9.509   9.458
18349SOL    HW255074   3.424   9.636   9.518
18350SOL     OW55075   3.165  10.148   9.352
18350SOL    HW155076   3.199  10.055   9.367
18350SOL    HW255077   3.183  10.175   9.257
18351SOL     OW55078   2.930  10.643  10.159
18351SOL    HW155079   2.937  10.559  10.104
18351SOL    HW255080   2.992  10.712  10.123
18352SOL     OW55081   2.181  10.120  10.259
18352SOL    HW155082   2.274  10.156  10.264
18352SOL    HW255083   2.175  10.035  10.311
18353SOL     OW55084   2.201   9.819  10.316
18353SOL    HW155085   2.149   9.736  10.299
18353SOL    HW255086   2.278   9.824  10.252
18354SOL     OW55087   3.000   9.690  10.988
18354SOL    HW155088   2.955   9.753  11.052
18354SOL    HW255089   3.093   9.721  10.971
18355SOL     OW55090   3.022   9.517  10.787
18355SOL    HW155091   3.022   9.581  10.864
18355SOL    HW255092   3.050   9.565  10.704
18356SOL     OW55093   1.870  10.636   9.510
18356SOL    HW155094   1.777  10.657   9.479
18356SOL    HW255095   1.880  10.537   9.523
18357SOL     OW55096   1.950  11.111  10.237
18357SOL    HW155097   1.908  11.025  10.210
18357SOL    HW255098   2.044  11.114  10.203
18358SOL     OW55099   2.366  10.878  10.220
18358SOL    HW155100   2.432  10.952  10.229
18358SOL    HW255101   2.410  10.799  10.178
18359SOL     OW55102   2.864  10.106  10.548
18359SOL    HW155103   2.905  10.074  10.634
18359SOL    HW255104   2.768  10.079  10.545
18360SOL     OW55105   1.902   9.854  10.424
18360SOL    HW155106   1.987   9.821  10.383
18360SOL    HW255107   1.915   9.869  10.522
18361SOL     OW55108   2.051   9.830  11.032
18361SOL    HW155109   2.110   9.790  10.962
18361SOL    HW255110   1.993   9.901  10.991
18362SOL     OW55111   3.231  10.260  10.970
18362SOL    HW155112   3.270  10.349  10.990
18362SOL    HW255113   3.241  10.240  10.873
18363SOL     OW55114   2.677   9.882   9.635
18363SOL    HW155115   2.684   9.793   9.589
18363SOL    HW255116   2.583   9.916   9.627
18364SOL     OW55117   3.519   9.914  10.516
18364SOL    HW155118   3.481   9.845  10.578
18364SOL    HW255119   3.601   9.878  10.472
18365SOL     OW55120   2.114  10.874  11.054
18365SOL    HW155121   2.084  10.931  11.130
18365SOL    HW255122   2.107  10.777  11.080
18366SOL     OW55123   2.533   9.774  10.579
18366SOL    HW155124   2.499   9.685  10.549
18366SOL    HW255125   2.559   9.828  10.499
18367SOL     OW55126   2.792  10.988  10.775
18367SOL    HW155127   2.768  10.970  10.680
18367SOL    HW255128   2.822  11.082  10.785
18368SOL     OW55129   2.335   9.810   9.501
18368SOL    HW155130   2.396   9.890   9.505
18368SOL    HW255131   2.240   9.841   9.508
18369SOL     OW55132   2.021  10.447  10.776
18369SOL    HW155133   2.043  10.386  10.852
18369SOL    HW255134   2.031  10.398  10.690
18370SOL     OW55135   3.209  10.369  10.544
18370SOL    HW155136   3.233  10.306  10.470
18370SOL    HW255137   3.119  10.409  10.526
18371SOL     OW55138   3.164  10.165   9.619
18371SOL    HW155139   3.078  10.134   9.661
18371SOL    HW255140   3.160  10.151   9.520
18372SOL     OW55141   3.621  11.057  10.464
18372SOL    HW155142   3.682  11.087  10.391
18372SOL    HW255143   3.583  10.968  10.442
18373SOL     OW55144   3.114  11.041  10.438
18373SOL    HW155145   3.198  11.046  10.384
18373SOL    HW255146   3.091  10.945  10.456
18374SOL     OW55147   1.945  10.568  10.332
18374SOL    HW155148   1.940  10.567  10.432
18374SOL    HW255149   1.862  10.527  10.294
18375SOL     OW55150   2.550  10.972  11.026
18375SOL    HW155151   2.494  11.053  11.035
18375SOL    HW255152   2.602  10.976  10.940
18376SOL     OW55153   3.588   9.445   9.833
18376SOL    HW155154   3.661   9.428   9.766
18376SOL    HW255155   3.557   9.358   9.871
18377SOL     OW55156   3.250  10.883   9.787
18377SOL    HW155157   3.317  10.895   9.713
18377SOL    HW255158   3.210  10.972   9.810
18378SOL     OW55159   1.992  11.104  11.161
18378SOL    HW155160   1.951  11.030  11.214
18378SOL    HW255161   2.056  11.155  11.219
18379SOL     OW55162   3.142  10.237   9.982
18379SOL    HW155163   3.202  10.156   9.984
18379SOL    HW255164   3.182  10.306   9.922
18380SOL     OW55165   2.692  10.583  10.732
18380SOL    HW155166   2.687  10.616  10.827
18380SOL    HW255167   2.606  10.602  10.686
18381SOL     OW55168   2.534  10.926   9.464
18381SOL    HW155169   2.543  10.936   9.365
18381SOL    HW255170   2.494  10.837   9.485
18382SOL     OW55171   3.512  11.030  10.704
18382SOL    HW155172   3.565  11.040  10.620
18382SOL    HW255173   3.485  11.120  10.738
18383SOL     OW55174   3.703   9.485  10.273
18383SOL    HW155175   3.742   9.400  10.237
18383SOL    HW255176   3.605   9.487  10.254
18384SOL     OW55177   2.125   9.636  10.030
18384SOL    HW155178   2.046   9.687   9.996
18384SOL    HW255179   2.116   9.621  10.128
18385SOL     OW55180   3.056  10.922   9.341
18385SOL    HW155181   3.062  10.829   9.378
18385SOL    HW255182   2.997  10.922   9.261
18386SOL     OW55183   2.684  10.312  10.682
18386SOL    HW155184   2.724  10.311  10.590
18386SOL    HW255185   2.694  10.404  10.722
18387SOL     OW55186   2.778  10.220   9.601
18387SOL    HW155187   2.841  10.258   9.533
18387SOL    HW255188   2.818  10.137   9.640
18388SOL     OW55189   3.366  10.917   9.354
18388SOL    HW155190   3.274  10.954   9.361
18388SOL    HW255191   3.404  10.937   9.264
18389SOL     OW55192   2.234  10.598  10.800
18389SOL    HW155193   2.221  10.691  10.766
18389SOL    HW255194   2.150  10.546  10.787
18390SOL     OW55195   3.476  10.602  10.599
18390SOL    HW155196   3.536  10.605  10.679
18390SOL    HW255197   3.401  10.666  10.612
18391SOL     OW55198   2.901  10.408  10.006
18391SOL    HW155199   2.831  10.361  10.060
18391SOL    HW255200   2.960  10.340   9.963
18392SOL     OW55201   2.876   9.546  10.281
18392SOL    HW155202   2.868   9.510  10.188
18392SOL    HW255203   2.874   9.470  10.346
18393SOL     OW55204   2.452  10.797   9.801
18393SOL    HW155205   2.494  10.739   9.731
18393SOL    HW255206   2.408  10.876   9.757
18394SOL     OW55207   3.571   9.695  10.691
18394SOL    HW155208   3.644   9.764  10.695
18394SOL    HW255209   3.599   9.620  10.632
18395SOL     OW55210   2.117  10.658   9.600
18395SOL    HW155211   2.021  10.659   9.573
18395SOL    HW255212   2.129  10.711   9.684
18396SOL     OW55213   1.967  10.323  11.036
18396SOL    HW155214   1.890  10.290  11.090
18396SOL    HW255215   2.052  10.293  11.078
18397SOL     OW55216   2.534   9.513  10.799
18397SOL    HW155217   2.624   9.497  10.759
18397SOL    HW255218   2.542   9.518  10.898
18398SOL     OW55219   1.937   9.655   9.343
18398SOL    HW155220   1.845   9.627   9.314
18398SOL    HW255221   1.968   9.732   9.287
18399SOL     OW55222   3.302  10.166  10.708
18399SOL    HW155223   3.245  10.218  10.645
18399SOL    HW255224   3.398  10.178  10.684
18400SOL     OW55225   1.934   9.476   9.628
18400SOL    HW155226   1.917   9.559   9.574
18400SOL    HW255227   2.024   9.439   9.606
18401SOL     OW55228   3.045  10.645   9.429
18401SOL    HW155229   2.946  10.634   9.431
18401SOL    HW255230   3.079  10.660   9.522
18402SOL     OW55231   2.475  10.152  10.741
18402SOL    HW155232   2.531  10.233  10.724
18402SOL    HW255233   2.534  10.072  10.744
18403SOL     OW55234   3.355  11.077  10.269
18403SOL    HW155235   3.388  11.141  10.200
18403SOL    HW255236   3.421  11.071  10.344
18404SOL     OW55237   2.578   9.875  11.018
18404SOL    HW155238   2.597   9.940  11.092
18404SOL    HW255239   2.638   9.795  11.027
18405SOL     OW55240   3.312  10.530  10.943
18405SOL    HW155241   3.303  10.520  11.042
18405SOL    HW255242   3.408  10.523  10.917
18406SOL     OW55243   2.252  11.051  10.870
18406SOL    HW155244   2.161  11.092  10.868
18406SOL    HW255245   2.245  10.957  10.902
18407SOL     OW55246   3.536  10.193  10.564
18407SOL    HW155247   3.509  10.104  10.527
18407SOL    HW255248   3.537  10.261  10.491
18408SOL     OW55249   3.087   9.635   9.759
18408SOL    HW155250   3.152   9.561   9.748
18408SOL    HW255251   3.107   9.685   9.843
18409SOL     OW55252   2.456  10.055   9.962
18409SOL    HW155253   2.506  10.140   9.943
18409SOL    HW255254   2.368  10.057   9.914
18410SOL     OW55255   3.639   9.652  10.952
18410SOL    HW155256   3.622   9.683  10.858
18410SOL    HW255257   3.555   9.615  10.990
18411SOL     OW55258   3.592  10.244  10.827
18411SOL    HW155259   3.630  10.335  10.842
18411SOL    HW255260   3.584  10.227  10.728
18412SOL     OW55261   2.721  10.684   9.326
18412SOL    HW155262   2.675  10.699   9.414
18412SOL    HW255263   2.765  10.769   9.296
18413SOL     OW55264   2.523  11.100  10.263
18413SOL    HW155265   2.477  11.188  10.250
18413SOL    HW255266   2.622  11.112  10.256
18414SOL     OW55267   2.721  10.266  10.171
18414SOL    HW155268   2.775  10.197  10.219
18414SOL    HW255269   2.689  10.335  10.237
18415SOL     OW55270   2.945  10.294   9.397
18415SOL    HW155271   2.922  10.347   9.315
18415SOL    HW255272   3.026  10.238   9.378
18416SOL     OW55273   3.723  10.879  10.161
18416SOL    HW155274   3.652  10.867  10.091
18416SOL    HW255275   3.724  10.800  10.221
18417SOL     OW55276   2.083  10.624  11.154
18417SOL    HW155277   2.018  10.551  11.133
18417SOL    HW255278   2.087  10.638  11.252
18418SOL     OW55279   1.941  10.550   9.963
18418SOL    HW155280   1.940  10.503  10.051
18418SOL    HW255281   2.023  10.522   9.912
18419SOL     OW55282   2.534  10.701  10.934
18419SOL    HW155283   2.456  10.651  10.972
18419SOL    HW255284   2.531  10.796  10.965
18420SOL     OW55285   3.686   9.502  10.537
18420SOL    HW155286   3.682   9.412  10.581
18420SOL    HW255287   3.689   9.491  10.438
18421SOL     OW55288   2.290   9.734   9.830
18421SOL    HW155289   2.320   9.662   9.768
18421SOL    HW255290   2.251   9.694   9.913
18422SOL     OW55291   3.567  10.797  10.414
18422SOL    HW155292   3.474  10.772  10.387
18422SOL    HW255293   3.593  10.747  10.496
18423SOL     OW55294   2.179   9.857  10.590
18423SOL    HW155295   2.217   9.798  10.662
18423SOL    HW255296   2.219   9.831  10.502
18424SOL     OW55297   2.674  10.896   9.997
18424SOL    HW155298   2.706  10.906   9.903
18424SOL    HW255299   2.595  10.834   9.999
18425SOL     OW55300   3.286   9.524  10.422
18425SOL    HW155301   3.338   9.459  10.477
18425SOL    HW255302   3.237   9.587  10.483
18426SOL     OW55303   2.863   9.344  10.464
18426SOL    HW155304   2.800   9.272  10.433
18426SOL    HW255305   2.956   9.308  10.464
18427SOL     OW55306   2.632  10.640   9.611
18427SOL    HW155307   2.586  10.553   9.628
18427SOL    HW255308   2.723  10.637   9.652
18428SOL     OW55309   2.480  10.877  10.594
18428SOL    HW155310   2.475  10.959  10.651
18428SOL    HW255311   2.569  10.874  10.549
18429SOL     OW55312   3.214   9.362   9.478
18429SOL    HW155313   3.249   9.321   9.394
18429SOL    HW255314   3.124   9.324   9.498
18430SOL     OW55315   3.162   9.763  10.001
18430SOL    HW155316   3.103   9.843  10.005
18430SOL    HW255317   3.177   9.728  10.094
18431SOL     OW55318   3.455   9.531  10.192
18431SOL    HW155319   3.371   9.530  10.246
18431SOL    HW255320   3.457   9.614  10.136
18432SOL     OW55321   1.901  10.387   9.610
18432SOL    HW155322   2.000  10.376   9.601
18432SOL    HW255323   1.861  10.301   9.642
18433SOL     OW55324   2.737  10.956   9.647
18433SOL    HW155325   2.660  10.921   9.593
18433SOL    HW255326   2.705  11.027   9.709
18434SOL     OW55327   2.092   9.938  11.285
18434SOL    HW155328   1.999   9.936  11.322
18434SOL    HW255329   2.093   9.899  11.193
18435SOL     OW55330   2.087   9.585  12.168
18435SOL    HW155331   2.122   9.568  12.260
18435SOL    HW255332   1.999   9.540  12.156
18436SOL     OW55333   1.881   9.678  11.819
18436SOL    HW155334   1.799   9.721  11.858
18436SOL    HW255335   1.853   9.605  11.756
18437SOL     OW55336   2.431  10.585  12.337
18437SOL    HW155337   2.338  10.578  12.300
18437SOL    HW255338   2.442  10.674  12.381
18438SOL     OW55339   3.417  10.821  11.875
18438SOL    HW155340   3.360  10.805  11.956
18438SOL    HW255341   3.358  10.831  11.795
18439SOL     OW55342   2.997  10.013  11.889
18439SOL    HW155343   3.054  10.091  11.864
18439SOL    HW255344   2.937  10.039  11.965
18440SOL     OW55345   3.617   9.917  11.403
18440SOL    HW155346   3.605   9.904  11.304
18440SOL    HW255347   3.587   9.836  11.452
18441SOL     OW55348   2.630  10.454  12.195
18441SOL    HW155349   2.552  10.471  12.255
18441SOL    HW255350   2.664  10.541  12.159
18442SOL     OW55351   2.547  10.322  11.837
18442SOL    HW155352   2.616  10.306  11.907
18442SOL    HW255353   2.474  10.379  11.875
18443SOL     OW55354   2.197  10.745  12.233
18443SOL    HW155355   2.119  10.714  12.180
18443SOL    HW255356   2.255  10.803  12.176
18444SOL     OW55357   3.322  10.815  12.511
18444SOL    HW155358   3.346  10.909  12.537
18444SOL    HW255359   3.306  10.761  12.593
18445SOL     OW55360   2.300   9.702  12.671
18445SOL    HW155361   2.382   9.646  12.680
18445SOL    HW255362   2.219   9.644  12.675
18446SOL     OW55363   3.465   9.757  11.909
18446SOL    HW155364   3.391   9.803  11.859
18446SOL    HW255365   3.516   9.825  11.962
18447SOL     OW55366   2.093  11.023  11.655
18447SOL    HW155367   2.127  11.100  11.709
18447SOL    HW255368   2.137  11.023  11.565
18448SOL     OW55369   2.092  10.744  11.710
18448SOL    HW155370   2.066  10.840  11.710
18448SOL    HW255371   2.021  10.690  11.755
18449SOL     OW55372   2.102  10.401  12.058
18449SOL    HW155373   2.116  10.317  12.110
18449SOL    HW255374   2.047  10.465  12.113
18450SOL     OW55375   2.482  11.096  12.611
18450SOL    HW155376   2.390  11.079  12.646
18450SOL    HW255377   2.510  11.188  12.637
18451SOL     OW55378   2.468  10.274  11.295
18451SOL    HW155379   2.475  10.358  11.241
18451SOL    HW255380   2.514  10.287  11.383
18452SOL     OW55381   3.456   9.424  12.652
18452SOL    HW155382   3.438   9.491  12.580
18452SOL    HW255383   3.453   9.470  12.741
18453SOL     OW55384   1.984   9.953  11.735
18453SOL    HW155385   1.939   9.865  11.752
18453SOL    HW255386   1.983  10.007  11.819
18454SOL     OW55387   3.704  11.077  11.531
18454SOL    HW155388   3.758  11.048  11.611
18454SOL    HW255389   3.734  11.167  11.502
18455SOL     OW55390   1.889  10.906  11.289
18455SOL    HW155391   1.870  10.810  11.310
18455SOL    HW255392   1.856  10.964  11.364
18456SOL     OW55393   3.551  10.232  11.784
18456SOL    HW155394   3.646  10.203  11.792
18456SOL    HW255395   3.543  10.297  11.709
18457SOL     OW55396   3.503  10.418  11.604
18457SOL    HW155397   3.589  10.420  11.552
18457SOL    HW255398   3.517  10.465  11.692
18458SOL     OW55399   2.475  10.675  11.898
18458SOL    HW155400   2.426  10.588  11.907
18458SOL    HW255401   2.452  10.718  11.811
18459SOL     OW55402   2.671   9.314  11.674
18459SOL    HW155403   2.711   9.405  11.665
18459SOL    HW255404   2.571   9.322  11.680
18460SOL     OW55405   2.059  10.286  12.436
18460SOL    HW155406   2.148  10.241  12.422
18460SOL    HW255407   1.986  10.221  12.417
18461SOL     OW55408   3.387  10.309  11.362
18461SOL    HW155409   3.324  10.233  11.375
18461SOL    HW255410   3.435  10.327  11.448
18462SOL     OW55411   2.179   9.561  12.973
18462SOL    HW155412   2.250   9.632  12.979
18462SOL    HW255413   2.091   9.600  13.001
18463SOL     OW55414   3.328  10.727  12.125
18463SOL    HW155415   3.269  10.733  12.205
18463SOL    HW255416   3.313  10.639  12.079
18464SOL     OW55417   3.529  11.024  11.744
18464SOL    HW155418   3.488  11.001  11.656
18464SOL    HW255419   3.511  10.950  11.809
18465SOL     OW55420   2.460  10.039  11.442
18465SOL    HW155421   2.484  10.108  11.374
18465SOL    HW255422   2.382  10.072  11.496
18466SOL     OW55423   3.143   9.655  12.116
18466SOL    HW155424   3.057   9.605  12.103
18466SOL    HW255425   3.205   9.601  12.172
18467SOL     OW55426   3.438  10.972  11.479
18467SOL    HW155427   3.527  11.018  11.482
18467SOL    HW255428   3.417  10.948  11.384
18468SOL     OW55429   2.669   9.915  12.637
18468SOL    HW155430   2.622   9.912  12.726
18468SOL    HW255431   2.618   9.860  12.571
18469SOL     OW55432   2.853   9.720  12.414
18469SOL    HW155433   2.776   9.754  12.468
18469SOL    HW255434   2.819   9.669  12.335
18470SOL     OW55435   2.903  10.011  11.601
18470SOL    HW155436   2.929  10.007  11.697
18470SOL    HW255437   2.818   9.960  11.587
18471SOL     OW55438   1.938  10.121  11.961
18471SOL    HW155439   2.037  10.109  11.970
18471SOL    HW255440   1.914  10.216  11.982
18472SOL     OW55441   1.992  11.131  12.743
18472SOL    HW155442   1.982  11.116  12.842
18472SOL    HW255443   1.906  11.167  12.707
18473SOL     OW55444   2.727   9.658  11.367
18473SOL    HW155445   2.786   9.721  11.318
18473SOL    HW255446   2.746   9.564  11.338
18474SOL     OW55447   3.224  10.454  11.717
18474SOL    HW155448   3.307  10.425  11.669
18474SOL    HW255449   3.175  10.521  11.661
18475SOL     OW55450   2.412   9.506  12.057
18475SOL    HW155451   2.407   9.501  12.157
18475SOL    HW255452   2.414   9.602  12.028
18476SOL     OW55453   2.870  10.766  11.649
18476SOL    HW155454   2.824  10.838  11.597
18476SOL    HW255455   2.866  10.786  11.747
18477SOL     OW55456   2.213  11.111  12.025
18477SOL    HW155457   2.263  11.025  12.031
18477SOL    HW255458   2.278  11.188  12.022
18478SOL     OW55459   3.657  10.376  12.045
18478SOL    HW155460   3.595  10.361  11.969
18478SOL    HW255461   3.605  10.387  12.130
18479SOL     OW55462   2.183  10.253  11.414
18479SOL    HW155463   2.265  10.292  11.372
18479SOL    HW255464   2.156  10.171  11.365
18480SOL     OW55465   3.320  10.045  11.900
18480SOL    HW155466   3.315   9.980  11.975
18480SOL    HW255467   3.400  10.104  11.913
18481SOL     OW55468   2.973  11.086  11.409
18481SOL    HW155469   2.913  11.024  11.459
18481SOL    HW255470   3.004  11.042  11.324
18482SOL     OW55471   2.064   9.595  12.670
18482SOL    HW155472   1.984   9.655  12.657
18482SOL    HW255473   2.054   9.546  12.756
18483SOL     OW55474   3.494  10.687  11.253
18483SOL    HW155475   3.462  10.781  11.243
18483SOL    HW255476   3.418  10.624  11.241
18484SOL     OW55477   2.326  11.053  11.495
18484SOL    HW155478   2.359  11.092  11.581
18484SOL    HW255479   2.402  11.046  11.430
18485SOL     OW55480   3.262   9.417  11.598
18485SOL    HW155481   3.238   9.380  11.508
18485SOL    HW255482   3.361   9.433  11.602
18486SOL     OW55483   2.111  11.095  12.413
18486SOL    HW155484   2.168  11.030  12.463
18486SOL    HW255485   2.095  11.062  12.320
18487SOL     OW55486   2.802  11.008  12.076
18487SOL    HW155487   2.882  10.951  12.097
18487SOL    HW255488   2.753  10.968  11.999
18488SOL     OW55489   2.244  10.010  11.652
18488SOL    HW155490   2.289   9.920  11.649
18488SOL    HW255491   2.150   9.999  11.685
18489SOL     OW55492   2.476   9.432  11.289
18489SOL    HW155493   2.574   9.410  11.296
18489SOL    HW255494   2.445   9.415  11.196
18490SOL     OW55495   2.750  10.824  12.367
18490SOL    HW155496   2.727  10.799  12.273
18490SOL    HW255497   2.811  10.755  12.406
18491SOL     OW55498   2.665  10.712  12.096
18491SOL    HW155499   2.755  10.726  12.054
18491SOL    HW255500   2.594  10.714  12.025
18492SOL     OW55501   2.784   9.813  12.071
18492SOL    HW155502   2.759   9.804  11.975
18492SOL    HW255503   2.832   9.731  12.102
18493SOL     OW55504   2.401   9.374  11.684
18493SOL    HW155505   2.320   9.375  11.742
18493SOL    HW255506   2.404   9.457  11.629
18494SOL     OW55507   3.296  10.498  11.213
18494SOL    HW155508   3.328  10.422  11.270
18494SOL    HW255509   3.204  10.525  11.243
18495SOL     OW55510   2.159   9.345  11.343
18495SOL    HW155511   2.208   9.429  11.322
18495SOL    HW255512   2.221   9.280  11.388
18496SOL     OW55513   2.797   9.546  11.652
18496SOL    HW155514   2.749   9.587  11.574
18496SOL    HW255515   2.896   9.544  11.633
18497SOL     OW55516   3.089  10.880  11.965
18497SOL    HW155517   3.110  10.954  11.900
18497SOL    HW255518   3.157  10.880  12.038
18498SOL     OW55519   2.321  10.462  11.913
18498SOL    HW155520   2.250  10.435  11.978
18498SOL    HW255521   2.295  10.434  11.820
18499SOL     OW55522   3.133  11.107  11.763
18499SOL    HW155523   3.177  11.171  11.699
18499SOL    HW255524   3.083  11.159  11.833
18500SOL     OW55525   2.894   9.859  11.188
18500SOL    HW155526   2.853   9.941  11.149
18500SOL    HW255527   2.958   9.885  11.261
18501SOL     OW55528   1.940   9.866  12.558
18501SOL    HW155529   2.032   9.865  12.517
18501SOL    HW255530   1.934   9.940  12.625
18502SOL     OW55531   2.423   9.532  12.319
18502SOL    HW155532   2.461   9.448  12.356
18502SOL    HW255533   2.335   9.551  12.363
18503SOL     OW55534   2.728   9.764  11.814
18503SOL    HW155535   2.696   9.836  11.752
18503SOL    HW255536   2.752   9.683  11.761
18504SOL     OW55537   2.879   9.349  11.925
18504SOL    HW155538   2.807   9.354  11.856
18504SOL    HW255539   2.855   9.280  11.994
18505SOL     OW55540   3.291  10.483  12.039
18505SOL    HW155541   3.236  10.399  12.032
18505SOL    HW255542   3.317  10.512  11.947
18506SOL     OW55543   3.328   9.900  12.164
18506SOL    HW155544   3.298   9.805  12.171
18506SOL    HW255545   3.401   9.916  12.230
18507SOL     OW55546   3.719  10.143  11.549
18507SOL    HW155547   3.761  10.079  11.613
18507SOL    HW255548   3.681  10.092  11.471
18508SOL     OW55549   2.350  10.695  11.346
18508SOL    HW155550   2.263  10.680  11.393
18508SOL    HW255551   2.333  10.721  11.251
18509SOL     OW55552   3.526  10.590  11.829
18509SOL    HW155553   3.625  10.598  11.843
18509SOL    HW255554   3.481  10.674  11.860
18510SOL     OW55555   3.252   9.885  11.250
18510SOL    HW155556   3.198   9.864  11.331
18510SOL    HW255557   3.343   9.844  11.259
18511SOL     OW55558   2.389   9.566  11.500
18511SOL    HW155559   2.416   9.507  11.425
18511SOL    HW255560   2.389   9.661  11.469
18512SOL     OW55561   2.926  10.657  12.512
18512SOL    HW155562   2.846  10.634  12.567
18512SOL    HW255563   3.009  10.631  12.561
18513SOL     OW55564   2.973  10.505  12.272
18513SOL    HW155565   2.933  10.549  12.353
18513SOL    HW255566   2.932  10.542  12.189
18514SOL     OW55567   3.500  10.409  12.251
18514SOL    HW155568   3.505  10.490  12.310
18514SOL    HW255569   3.414  10.411  12.200
18515SOL     OW55570   2.777   9.399  12.574
18515SOL    HW155571   2.802   9.379  12.479
18515SOL    HW255572   2.849   9.455  12.616
18516SOL     OW55573   2.567  10.360  11.540
18516SOL    HW155574   2.553  10.367  11.639
18516SOL    HW255575   2.651  10.309  11.522
18517SOL     OW55576   2.272  10.123  12.423
18517SOL    HW155577   2.358  10.135  12.473
18517SOL    HW255578   2.230  10.036  12.450
18518SOL     OW55579   3.136   9.696  12.434
18518SOL    HW155580   3.157   9.770  12.498
18518SOL    HW255581   3.047   9.713  12.391
18519SOL     OW55582   1.926  10.874  12.503
18519SOL    HW155583   1.880  10.956  12.469
18519SOL    HW255584   2.024  10.893  12.512
18520SOL     OW55585   2.229  10.410  11.673
18520SOL    HW155586   2.222  10.493  11.617
18520SOL    HW255587   2.233  10.330  11.613
18521SOL     OW55588   2.428   9.847  12.037
18521SOL    HW155589   2.440   9.913  11.963
18521SOL    HW255590   2.474   9.881  12.120
18522SOL     OW55591   3.114  10.658  11.560
18522SOL    HW155592   3.164  10.735  11.600
18522SOL    HW255593   3.019  10.660  11.592
18523SOL     OW55594   3.134  10.755  12.314
18523SOL    HW155595   3.181  10.768  12.401
18523SOL    HW255596   3.068  10.681  12.323
18524SOL     OW55597   3.444   9.949  11.644
18524SOL    HW155598   3.413  10.010  11.717
18524SOL    HW255599   3.494  10.001  11.575
18525SOL     OW55600   2.216  10.820  12.501
18525SOL    HW155601   2.195  10.776  12.414
18525SOL    HW255602   2.313  10.846  12.504
18526SOL     OW55603   2.264  10.061  12.770
18526SOL    HW155604   2.332  10.116  12.723
18526SOL    HW255605   2.304   9.973  12.797
18527SOL     OW55606   3.449  10.089  12.842
18527SOL    HW155607   3.357  10.127  12.837
18527SOL    HW255608   3.509  10.136  12.777
18528SOL     OW55609   2.435  10.180  12.201
18528SOL    HW155610   2.479  10.269  12.192
18528SOL    HW255611   2.372  10.180  12.278
18529SOL     OW55612   3.222  10.172  12.217
18529SOL    HW155613   3.147  10.172  12.151
18529SOL    HW255614   3.259  10.080  12.226
18530SOL     OW55615   3.071   9.835  11.447
18530SOL    HW155616   3.084   9.751  11.501
18530SOL    HW255617   3.042   9.909  11.507
18531SOL     OW55618   2.169   9.523  12.403
18531SOL    HW155619   2.146   9.560  12.493
18531SOL    HW255620   2.139   9.428  12.397
18532SOL     OW55621   1.899  10.620  12.454
18532SOL    HW155622   1.952  10.571  12.522
18532SOL    HW255623   1.921  10.718  12.459
18533SOL     OW55624   2.594   9.944  12.236
18533SOL    HW155625   2.653   9.918  12.160
18533SOL    HW255626   2.566  10.040  12.225
18534SOL     OW55627   2.169   9.373  11.790
18534SOL    HW155628   2.158   9.467  11.823
18534SOL    HW255629   2.164   9.310  11.867
18535SOL     OW55630   3.484   9.677  11.546
18535SOL    HW155631   3.486   9.601  11.610
18535SOL    HW255632   3.436   9.754  11.586
18536SOL     OW55633   2.885  10.076  12.138
18536SOL    HW155634   2.900  10.097  12.234
18536SOL    HW255635   2.855   9.981  12.129
18537SOL     OW55636   2.842  10.883  12.872
18537SOL    HW155637   2.822  10.927  12.784
18537SOL    HW255638   2.881  10.792  12.856
18538SOL     OW55639   3.402   9.584  11.297
18538SOL    HW155640   3.341   9.509  11.320
18538SOL    HW255641   3.424   9.636  11.380
18539SOL     OW55642   3.165  10.148  11.214
18539SOL    HW155643   3.199  10.055  11.229
18539SOL    HW255644   3.183  10.175  11.119
18540SOL     OW55645   2.930  10.643  12.021
18540SOL    HW155646   2.937  10.559  11.966
18540SOL    HW255647   2.992  10.712  11.985
18541SOL     OW55648   2.181  10.120  12.121
18541SOL    HW155649   2.274  10.156  12.126
18541SOL    HW255650   2.175  10.035  12.173
18542SOL     OW55651   2.201   9.819  12.178
18542SOL    HW155652   2.149   9.736  12.161
18542SOL    HW255653   2.278   9.824  12.114
18543SOL     OW55654   3.000   9.690  12.850
18543SOL    HW155655   2.955   9.753  12.914
18543SOL    HW255656   3.093   9.721  12.833
18544SOL     OW55657   3.022   9.517  12.649
18544SOL    HW155658   3.022   9.581  12.726
18544SOL    HW255659   3.050   9.565  12.566
18545SOL     OW55660   1.870  10.636  11.372
18545SOL    HW155661   1.777  10.657  11.341
18545SOL    HW255662   1.880  10.537  11.385
18546SOL     OW55663   1.950  11.111  12.099
18546SOL    HW155664   1.908  11.025  12.072
18546SOL    HW255665   2.044  11.114  12.065
18547SOL     OW55666   2.366  10.878  12.082
18547SOL    HW155667   2.432  10.952  12.091
18547SOL    HW255668   2.410  10.799  12.040
18548SOL     OW55669   2.864  10.106  12.410
18548SOL    HW155670   2.905  10.074  12.496
18548SOL    HW255671   2.768  10.079  12.407
18549SOL     OW55672   1.902   9.854  12.286
18549SOL    HW155673   1.987   9.821  12.245
18549SOL    HW255674   1.915   9.869  12.384
18550SOL     OW55675   2.677   9.882  11.497
18550SOL    HW155676   2.684   9.793  11.451
18550SOL    HW255677   2.583   9.916  11.489
18551SOL     OW55678   3.519   9.914  12.378
18551SOL    HW155679   3.481   9.845  12.440
18551SOL    HW255680   3.601   9.878  12.334
18552SOL     OW55681   2.533   9.774  12.441
18552SOL    HW155682   2.499   9.685  12.411
18552SOL    HW255683   2.559   9.828  12.361
18553SOL     OW55684   2.792  10.988  12.637
18553SOL    HW155685   2.768  10.970  12.542
18553SOL    HW255686   2.822  11.082  12.647
18554SOL     OW55687   2.335   9.810  11.363
18554SOL    HW155688   2.396   9.890  11.367
18554SOL    HW255689   2.240   9.841  11.370
18555SOL     OW55690   2.021  10.447  12.638
18555SOL    HW155691   2.043  10.386  12.714
18555SOL    HW255692   2.031  10.398  12.552
18556SOL     OW55693   3.209  10.369  12.406
18556SOL    HW155694   3.233  10.306  12.332
18556SOL    HW255695   3.119  10.409  12.388
18557SOL     OW55696   3.164  10.165  11.481
18557SOL    HW155697   3.078  10.134  11.523
18557SOL    HW255698   3.160  10.151  11.382
18558SOL     OW55699   3.621  11.057  12.326
18558SOL    HW155700   3.682  11.087  12.253
18558SOL    HW255701   3.583  10.968  12.304
18559SOL     OW55702   3.114  11.041  12.300
18559SOL    HW155703   3.198  11.046  12.246
18559SOL    HW255704   3.091  10.945  12.318
18560SOL     OW55705   1.945  10.568  12.194
18560SOL    HW155706   1.940  10.567  12.294
18560SOL    HW255707   1.862  10.527  12.156
18561SOL     OW55708   3.588   9.445  11.695
18561SOL    HW155709   3.661   9.428  11.628
18561SOL    HW255710   3.557   9.358  11.733
18562SOL     OW55711   3.250  10.883  11.649
18562SOL    HW155712   3.317  10.895  11.575
18562SOL    HW255713   3.210  10.972  11.672
18563SOL     OW55714   3.142  10.237  11.844
18563SOL    HW155715   3.202  10.156  11.846
18563SOL    HW255716   3.182  10.306  11.784
18564SOL     OW55717   2.534  10.926  11.326
18564SOL    HW155718   2.543  10.936  11.227
18564SOL    HW255719   2.494  10.837  11.347
18565SOL     OW55720   3.512  11.030  12.566
18565SOL    HW155721   3.565  11.040  12.482
18565SOL    HW255722   3.485  11.120  12.600
18566SOL     OW55723   3.703   9.485  12.135
18566SOL    HW155724   3.742   9.400  12.099
18566SOL    HW255725   3.605   9.487  12.116
18567SOL     OW55726   2.125   9.636  11.892
18567SOL    HW155727   2.046   9.687  11.858
18567SOL    HW255728   2.116   9.621  11.990
18568SOL     OW55729   3.056  10.922  11.203
18568SOL    HW155730   3.062  10.829  11.240
18568SOL    HW255731   2.997  10.922  11.123
18569SOL     OW55732   2.684  10.312  12.544
18569SOL    HW155733   2.724  10.311  12.452
18569SOL    HW255734   2.694  10.404  12.584
18570SOL     OW55735   2.778  10.220  11.463
18570SOL    HW155736   2.841  10.258  11.395
18570SOL    HW255737   2.818  10.137  11.502
18571SOL     OW55738   3.366  10.917  11.216
18571SOL    HW155739   3.274  10.954  11.223
18571SOL    HW255740   3.404  10.937  11.126
18572SOL     OW55741   2.234  10.598  12.662
18572SOL    HW155742   2.221  10.691  12.628
18572SOL    HW255743   2.150  10.546  12.649
18573SOL     OW55744   3.476  10.602  12.461
18573SOL    HW155745   3.536  10.605  12.541
18573SOL    HW255746   3.401  10.666  12.474
18574SOL     OW55747   2.901  10.408  11.868
18574SOL    HW155748   2.831  10.361  11.922
18574SOL    HW255749   2.960  10.340  11.825
18575SOL     OW55750   2.876   9.546  12.143
18575SOL    HW155751   2.868   9.510  12.050
18575SOL    HW255752   2.874   9.470  12.208
18576SOL     OW55753   2.452  10.797  11.663
18576SOL    HW155754   2.494  10.739  11.593
18576SOL    HW255755   2.408  10.876  11.619
18577SOL     OW55756   3.571   9.695  12.553
18577SOL    HW155757   3.644   9.764  12.557
18577SOL    HW255758   3.599   9.620  12.494
18578SOL     OW55759   2.117  10.658  11.462
18578SOL    HW155760   2.021  10.659  11.435
18578SOL    HW255761   2.129  10.711  11.546
18579SOL     OW55762   1.937   9.655  11.205
18579SOL    HW155763   1.845   9.627  11.176
18579SOL    HW255764   1.968   9.732  11.149
18580SOL     OW55765   3.302  10.166  12.570
18580SOL    HW155766   3.245  10.218  12.507
18580SOL    HW255767   3.398  10.178  12.546
18581SOL     OW55768   1.934   9.476  11.490
18581SOL    HW155769   1.917   9.559  11.436
18581SOL    HW255770   2.024   9.439  11.468
18582SOL     OW55771   3.045  10.645  11.291
18582SOL    HW155772   2.946  10.634  11.293
18582SOL    HW255773   3.079  10.660  11.384
18583SOL     OW55774   2.475  10.152  12.603
18583SOL    HW155775   2.531  10.233  12.586
18583SOL    HW255776   2.534  10.072  12.606
18584SOL     OW55777   3.355  11.077  12.131
18584SOL    HW155778   3.388  11.141  12.062
18584SOL    HW255779   3.421  11.071  12.206
18585SOL     OW55780   2.252  11.051  12.732
18585SOL    HW155781   2.161  11.092  12.730
18585SOL    HW255782   2.245  10.957  12.764
18586SOL     OW55783   3.536  10.193  12.426
18586SOL    HW155784   3.509  10.104  12.389
18586SOL    HW255785   3.537  10.261  12.353
18587SOL     OW55786   3.087   9.635  11.621
18587SOL    HW155787   3.152   9.561  11.610
18587SOL    HW255788   3.107   9.685  11.705
18588SOL     OW55789   2.456  10.055  11.824
18588SOL    HW155790   2.506  10.140  11.805
18588SOL    HW255791   2.368  10.057  11.776
18589SOL     OW55792   3.639   9.652  12.814
18589SOL    HW155793   3.622   9.683  12.720
18589SOL    HW255794   3.555   9.615  12.852
18590SOL     OW55795   3.592  10.244  12.689
18590SOL    HW155796   3.630  10.335  12.704
18590SOL    HW255797   3.584  10.227  12.590
18591SOL     OW55798   2.721  10.684  11.188
18591SOL    HW155799   2.675  10.699  11.276
18591SOL    HW255800   2.765  10.769  11.158
18592SOL     OW55801   2.523  11.100  12.125
18592SOL    HW155802   2.477  11.188  12.112
18592SOL    HW255803   2.622  11.112  12.118
18593SOL     OW55804   2.721  10.266  12.033
18593SOL    HW155805   2.775  10.197  12.081
18593SOL    HW255806   2.689  10.335  12.099
18594SOL     OW55807   2.945  10.294  11.259
18594SOL    HW155808   2.922  10.347  11.177
18594SOL    HW255809   3.026  10.238  11.240
18595SOL     OW55810   3.723  10.879  12.023
18595SOL    HW155811   3.652  10.867  11.953
18595SOL    HW255812   3.724  10.800  12.083
18596SOL     OW55813   1.941  10.550  11.825
18596SOL    HW155814   1.940  10.503  11.913
18596SOL    HW255815   2.023  10.522  11.774
18597SOL     OW55816   3.686   9.502  12.399
18597SOL    HW155817   3.682   9.412  12.443
18597SOL    HW255818   3.689   9.491  12.300
18598SOL     OW55819   2.290   9.734  11.692
18598SOL    HW155820   2.320   9.662  11.630
18598SOL    HW255821   2.251   9.694  11.775
18599SOL     OW55822   3.567  10.797  12.276
18599SOL    HW155823   3.474  10.772  12.249
18599SOL    HW255824   3.593  10.747  12.358
18600SOL     OW55825   2.179   9.857  12.452
18600SOL    HW155826   2.217   9.798  12.524
18600SOL    HW255827   2.219   9.831  12.364
18601SOL     OW55828   2.674  10.896  11.859
18601SOL    HW155829   2.706  10.906  11.765
18601SOL    HW255830   2.595  10.834  11.861
18602SOL     OW55831   3.286   9.524  12.284
18602SOL    HW155832   3.338   9.459  12.339
18602SOL    HW255833   3.237   9.587  12.345
18603SOL     OW55834   2.863   9.344  12.326
18603SOL    HW155835   2.800   9.272  12.295
18603SOL    HW255836   2.956   9.308  12.326
18604SOL     OW55837   2.632  10.640  11.473
18604SOL    HW155838   2.586  10.553  11.490
18604SOL    HW255839   2.723  10.637  11.514
18605SOL     OW55840   2.480  10.877  12.456
18605SOL    HW155841   2.475  10.959  12.513
18605SOL    HW255842   2.569  10.874  12.411
18606SOL     OW55843   3.214   9.362  11.340
18606SOL    HW155844   3.249   9.321  11.256
18606SOL    HW255845   3.124   9.324  11.360
18607SOL     OW55846   3.162   9.763  11.863
18607SOL    HW155847   3.103   9.843  11.867
18607SOL    HW255848   3.177   9.728  11.956
18608SOL     OW55849   3.455   9.531  12.054
18608SOL    HW155850   3.371   9.530  12.108
18608SOL    HW255851   3.457   9.614  11.998
18609SOL     OW55852   1.901  10.387  11.472
18609SOL    HW155853   2.000  10.376  11.463
18609SOL    HW255854   1.861  10.301  11.504
18610SOL     OW55855   2.737  10.956  11.509
18610SOL    HW155856   2.660  10.921  11.455
18610SOL    HW255857   2.705  11.027  11.571
18611SOL     OW55858   2.092  11.800   0.113
18611SOL    HW155859   1.999  11.798   0.150
18611SOL    HW255860   2.093  11.761   0.021
18612SOL     OW55861   2.087  11.447   0.996
18612SOL    HW155862   2.122  11.430   1.088
18612SOL    HW255863   1.999  11.402   0.984
18613SOL     OW55864   1.881  11.540   0.647
18613SOL    HW155865   1.799  11.583   0.686
18613SOL    HW255866   1.853  11.467   0.584
18614SOL     OW55867   2.431  12.447   1.165
18614SOL    HW155868   2.338  12.440   1.128
18614SOL    HW255869   2.442  12.536   1.209
18615SOL     OW55870   3.417  12.683   0.703
18615SOL    HW155871   3.360  12.667   0.784
18615SOL    HW255872   3.358  12.693   0.623
18616SOL     OW55873   2.997  11.875   0.717
18616SOL    HW155874   3.054  11.953   0.692
18616SOL    HW255875   2.937  11.901   0.793
18617SOL     OW55876   3.617  11.779   0.231
18617SOL    HW155877   3.605  11.766   0.132
18617SOL    HW255878   3.587  11.698   0.280
18618SOL     OW55879   2.630  12.316   1.023
18618SOL    HW155880   2.552  12.333   1.083
18618SOL    HW255881   2.664  12.403   0.987
18619SOL     OW55882   2.712  11.970   1.823
18619SOL    HW155883   2.708  12.046   1.888
18619SOL    HW255884   2.734  12.006   1.732
18620SOL     OW55885   2.547  12.184   0.665
18620SOL    HW155886   2.616  12.168   0.735
18620SOL    HW255887   2.474  12.241   0.703
18621SOL     OW55888   2.548  12.333   1.803
18621SOL    HW155889   2.608  12.412   1.817
18621SOL    HW255890   2.462  12.364   1.762
18622SOL     OW55891   2.197  12.607   1.061
18622SOL    HW155892   2.119  12.576   1.008
18622SOL    HW255893   2.255  12.665   1.004
18623SOL     OW55894   3.322  12.677   1.339
18623SOL    HW155895   3.346  12.771   1.365
18623SOL    HW255896   3.306  12.623   1.421
18624SOL     OW55897   2.300  11.564   1.499
18624SOL    HW155898   2.382  11.508   1.508
18624SOL    HW255899   2.219  11.506   1.503
18625SOL     OW55900   3.465  11.619   0.737
18625SOL    HW155901   3.391  11.665   0.687
18625SOL    HW255902   3.516  11.687   0.790
18626SOL     OW55903   2.093  12.885   0.483
18626SOL    HW155904   2.127  12.962   0.537
18626SOL    HW255905   2.137  12.885   0.393
18627SOL     OW55906   2.989  12.513   1.690
18627SOL    HW155907   3.036  12.513   1.778
18627SOL    HW255908   2.941  12.426   1.679
18628SOL     OW55909   2.092  12.606   0.538
18628SOL    HW155910   2.066  12.702   0.538
18628SOL    HW255911   2.021  12.552   0.583
18629SOL     OW55912   2.102  12.263   0.886
18629SOL    HW155913   2.116  12.179   0.938
18629SOL    HW255914   2.047  12.327   0.941
18630SOL     OW55915   2.468  12.136   0.123
18630SOL    HW155916   2.475  12.220   0.069
18630SOL    HW255917   2.514  12.149   0.211
18631SOL     OW55918   3.456  11.286   1.480
18631SOL    HW155919   3.438  11.353   1.408
18631SOL    HW255920   3.453  11.332   1.569
18632SOL     OW55921   1.984  11.815   0.563
18632SOL    HW155922   1.939  11.727   0.580
18632SOL    HW255923   1.983  11.869   0.647
18633SOL     OW55924   1.889  12.768   0.117
18633SOL    HW155925   1.870  12.672   0.138
18633SOL    HW255926   1.856  12.826   0.192
18634SOL     OW55927   3.551  12.094   0.612
18634SOL    HW155928   3.646  12.065   0.620
18634SOL    HW255929   3.543  12.159   0.537
18635SOL     OW55930   3.503  12.280   0.432
18635SOL    HW155931   3.589  12.282   0.380
18635SOL    HW255932   3.517  12.327   0.520
18636SOL     OW55933   1.975  11.909   1.597
18636SOL    HW155934   2.063  11.896   1.642
18636SOL    HW255935   1.962  12.006   1.575
18637SOL     OW55936   2.475  12.537   0.726
18637SOL    HW155937   2.426  12.450   0.735
18637SOL    HW255938   2.452  12.580   0.639
18638SOL     OW55939   3.155  12.400   1.423
18638SOL    HW155940   3.192  12.327   1.365
18638SOL    HW255941   3.207  12.405   1.508
18639SOL     OW55942   2.671  11.176   0.502
18639SOL    HW155943   2.711  11.267   0.493
18639SOL    HW255944   2.571  11.184   0.508
18640SOL     OW55945   2.059  12.148   1.264
18640SOL    HW155946   2.148  12.103   1.250
18640SOL    HW255947   1.986  12.083   1.245
18641SOL     OW55948   3.387  12.171   0.190
18641SOL    HW155949   3.324  12.095   0.203
18641SOL    HW255950   3.435  12.189   0.276
18642SOL     OW55951   2.179  11.423   1.801
18642SOL    HW155952   2.250  11.494   1.807
18642SOL    HW255953   2.091  11.462   1.829
18643SOL     OW55954   3.328  12.589   0.953
18643SOL    HW155955   3.269  12.595   1.033
18643SOL    HW255956   3.313  12.501   0.907
18644SOL     OW55957   2.460  11.901   0.270
18644SOL    HW155958   2.484  11.970   0.202
18644SOL    HW255959   2.382  11.934   0.324
18645SOL     OW55960   3.143  11.517   0.944
18645SOL    HW155961   3.057  11.467   0.931
18645SOL    HW255962   3.205  11.463   1.000
18646SOL     OW55963   2.669  11.777   1.465
18646SOL    HW155964   2.622  11.774   1.554
18646SOL    HW255965   2.618  11.722   1.399
18647SOL     OW55966   3.256  11.641   1.674
18647SOL    HW155967   3.236  11.684   1.762
18647SOL    HW255968   3.334  11.579   1.683
18648SOL     OW55969   2.835  12.062   1.572
18648SOL    HW155970   2.881  11.978   1.543
18648SOL    HW255971   2.779  12.096   1.497
18649SOL     OW55972   2.853  11.582   1.242
18649SOL    HW155973   2.776  11.616   1.296
18649SOL    HW255974   2.819  11.531   1.163
18650SOL     OW55975   2.903  11.873   0.429
18650SOL    HW155976   2.929  11.869   0.525
18650SOL    HW255977   2.818  11.822   0.415
18651SOL     OW55978   1.938  11.983   0.789
18651SOL    HW155979   2.037  11.971   0.798
18651SOL    HW255980   1.914  12.078   0.810
18652SOL     OW55981   2.727  11.520   0.195
18652SOL    HW155982   2.786  11.583   0.146
18652SOL    HW255983   2.746  11.426   0.166
18653SOL     OW55984   3.581  11.757   1.831
18653SOL    HW155985   3.555  11.846   1.795
18653SOL    HW255986   3.579  11.689   1.758
18654SOL     OW55987   3.224  12.316   0.545
18654SOL    HW155988   3.307  12.287   0.497
18654SOL    HW255989   3.175  12.383   0.489
18655SOL     OW55990   2.412  11.368   0.885
18655SOL    HW155991   2.407  11.363   0.985
18655SOL    HW255992   2.414  11.464   0.856
18656SOL     OW55993   2.870  12.628   0.477
18656SOL    HW155994   2.824  12.700   0.425
18656SOL    HW255995   2.866  12.648   0.575
18657SOL     OW55996   3.657  12.238   0.873
18657SOL    HW155997   3.595  12.223   0.797
18657SOL    HW255998   3.605  12.249   0.958
18658SOL     OW55999   3.089  12.722   1.506
18658SOL    HW156000   3.095  12.645   1.570
18658SOL    HW256001   3.037  12.696   1.426
18659SOL     OW56002   2.183  12.115   0.242
18659SOL    HW156003   2.265  12.154   0.200
18659SOL    HW256004   2.156  12.033   0.193
18660SOL     OW56005   3.320  11.907   0.728
18660SOL    HW156006   3.315  11.842   0.803
18660SOL    HW256007   3.400  11.966   0.741
18661SOL     OW56008   2.323  12.438   1.727
18661SOL    HW156009   2.273  12.439   1.641
18661SOL    HW256010   2.260  12.420   1.803
18662SOL     OW56011   2.973  12.948   0.237
18662SOL    HW156012   2.913  12.886   0.287
18662SOL    HW256013   3.004  12.904   0.152
18663SOL     OW56014   2.064  11.457   1.498
18663SOL    HW156015   1.984  11.517   1.485
18663SOL    HW256016   2.054  11.408   1.584
18664SOL     OW56017   3.494  12.549   0.081
18664SOL    HW156018   3.462  12.643   0.071
18664SOL    HW256019   3.418  12.486   0.069
18665SOL     OW56020   3.262  11.279   0.426
18665SOL    HW156021   3.238  11.242   0.336
18665SOL    HW256022   3.361  11.295   0.430
18666SOL     OW56023   2.244  11.872   0.480
18666SOL    HW156024   2.289  11.782   0.477
18666SOL    HW256025   2.150  11.861   0.513
18667SOL     OW56026   3.409  11.394   1.729
18667SOL    HW156027   3.404  11.431   1.821
18667SOL    HW256028   3.337  11.325   1.717
18668SOL     OW56029   2.476  11.294   0.117
18668SOL    HW156030   2.574  11.272   0.124
18668SOL    HW256031   2.445  11.277   0.024
18669SOL     OW56032   2.643  11.436   1.749
18669SOL    HW156033   2.710  11.375   1.792
18669SOL    HW256034   2.570  11.455   1.814
18670SOL     OW56035   3.213  11.762   1.433
18670SOL    HW156036   3.241  11.719   1.518
18670SOL    HW256037   3.238  11.858   1.434
18671SOL     OW56038   2.665  12.574   0.924
18671SOL    HW156039   2.755  12.588   0.882
18671SOL    HW256040   2.594  12.576   0.853
18672SOL     OW56041   2.784  11.675   0.899
18672SOL    HW156042   2.759  11.666   0.803
18672SOL    HW256043   2.832  11.593   0.930
18673SOL     OW56044   2.401  11.236   0.512
18673SOL    HW156045   2.320  11.237   0.570
18673SOL    HW256046   2.404  11.319   0.457
18674SOL     OW56047   3.296  12.360   0.041
18674SOL    HW156048   3.328  12.284   0.098
18674SOL    HW256049   3.204  12.387   0.071
18675SOL     OW56050   2.159  11.207   0.171
18675SOL    HW156051   2.208  11.291   0.150
18675SOL    HW256052   2.221  11.142   0.216
18676SOL     OW56053   2.797  11.408   0.480
18676SOL    HW156054   2.749  11.449   0.402
18676SOL    HW256055   2.896  11.406   0.461
18677SOL     OW56056   2.938  11.855   1.464
18677SOL    HW156057   2.858  11.794   1.467
18677SOL    HW256058   3.019  11.802   1.440
18678SOL     OW56059   3.089  12.742   0.793
18678SOL    HW156060   3.110  12.816   0.728
18678SOL    HW256061   3.157  12.742   0.866
18679SOL     OW56062   2.321  12.324   0.741
18679SOL    HW156063   2.250  12.297   0.806
18679SOL    HW256064   2.295  12.296   0.648
18680SOL     OW56065   2.894  11.721   0.016
18680SOL    HW156066   2.853  11.803  -0.023
18680SOL    HW256067   2.958  11.747   0.089
18681SOL     OW56068   1.940  11.728   1.386
18681SOL    HW156069   2.032  11.727   1.345
18681SOL    HW256070   1.934  11.802   1.453
18682SOL     OW56071   2.423  11.394   1.147
18682SOL    HW156072   2.461  11.310   1.184
18682SOL    HW256073   2.335  11.413   1.191
18683SOL     OW56074   2.728  11.626   0.642
18683SOL    HW156075   2.696  11.698   0.580
18683SOL    HW256076   2.752  11.545   0.589
18684SOL     OW56077   2.879  11.211   0.753
18684SOL    HW156078   2.807  11.216   0.684
18684SOL    HW256079   2.855  11.142   0.822
18685SOL     OW56080   3.291  12.345   0.867
18685SOL    HW156081   3.236  12.261   0.860
18685SOL    HW256082   3.317  12.374   0.775
18686SOL     OW56083   3.328  11.762   0.992
18686SOL    HW156084   3.298  11.667   0.999
18686SOL    HW256085   3.401  11.778   1.058
18687SOL     OW56086   3.719  12.005   0.377
18687SOL    HW156087   3.761  11.941   0.441
18687SOL    HW256088   3.681  11.954   0.299
18688SOL     OW56089   2.350  12.557   0.174
18688SOL    HW156090   2.263  12.542   0.221
18688SOL    HW256091   2.333  12.583   0.079
18689SOL     OW56092   3.526  12.452   0.657
18689SOL    HW156093   3.625  12.460   0.671
18689SOL    HW256094   3.481  12.536   0.688
18690SOL     OW56095   3.252  11.747   0.078
18690SOL    HW156096   3.198  11.726   0.159
18690SOL    HW256097   3.343  11.706   0.087
18691SOL     OW56098   2.389  11.428   0.328
18691SOL    HW156099   2.416  11.369   0.253
18691SOL    HW256100   2.389  11.523   0.297
18692SOL     OW56101   3.616  12.395   1.588
18692SOL    HW156102   3.707  12.356   1.575
18692SOL    HW256103   3.624  12.491   1.612
18693SOL     OW56104   2.926  12.519   1.340
18693SOL    HW156105   2.846  12.496   1.395
18693SOL    HW256106   3.009  12.493   1.389
18694SOL     OW56107   2.973  12.367   1.100
18694SOL    HW156108   2.933  12.411   1.181
18694SOL    HW256109   2.932  12.404   1.017
18695SOL     OW56110   3.500  12.271   1.079
18695SOL    HW156111   3.505  12.352   1.138
18695SOL    HW256112   3.414  12.273   1.028
18696SOL     OW56113   2.777  11.261   1.402
18696SOL    HW156114   2.802  11.241   1.307
18696SOL    HW256115   2.849  11.317   1.444
18697SOL     OW56116   2.842  12.288   1.719
18697SOL    HW156117   2.743  12.294   1.729
18697SOL    HW256118   2.865  12.208   1.663
18698SOL     OW56119   2.567  12.222   0.368
18698SOL    HW156120   2.553  12.229   0.467
18698SOL    HW256121   2.651  12.171   0.350
18699SOL     OW56122   2.272  11.985   1.251
18699SOL    HW156123   2.358  11.997   1.301
18699SOL    HW256124   2.230  11.898   1.278
18700SOL     OW56125   3.136  11.558   1.262
18700SOL    HW156126   3.157  11.632   1.326
18700SOL    HW256127   3.047  11.575   1.219
18701SOL     OW56128   2.229  12.272   0.501
18701SOL    HW156129   2.222  12.355   0.445
18701SOL    HW256130   2.233  12.192   0.441
18702SOL     OW56131   2.428  11.709   0.865
18702SOL    HW156132   2.440  11.775   0.791
18702SOL    HW256133   2.474  11.743   0.948
18703SOL     OW56134   3.114  12.520   0.388
18703SOL    HW156135   3.164  12.597   0.428
18703SOL    HW256136   3.019  12.522   0.420
18704SOL     OW56137   3.134  12.617   1.142
18704SOL    HW156138   3.181  12.630   1.229
18704SOL    HW256139   3.068  12.543   1.151
18705SOL     OW56140   3.444  11.811   0.472
18705SOL    HW156141   3.413  11.872   0.545
18705SOL    HW256142   3.494  11.863   0.403
18706SOL     OW56143   2.216  12.682   1.329
18706SOL    HW156144   2.195  12.638   1.242
18706SOL    HW256145   2.313  12.708   1.332
18707SOL     OW56146   2.264  11.923   1.598
18707SOL    HW156147   2.332  11.978   1.551
18707SOL    HW256148   2.304  11.835   1.625
18708SOL     OW56149   3.449  11.951   1.670
18708SOL    HW156150   3.357  11.989   1.665
18708SOL    HW256151   3.509  11.998   1.605
18709SOL     OW56152   2.875  11.277   1.770
18709SOL    HW156153   2.881  11.362   1.718
18709SOL    HW256154   2.907  11.201   1.713
18710SOL     OW56155   2.366  11.222   1.740
18710SOL    HW156156   2.324  11.165   1.670
18710SOL    HW256157   2.300  11.291   1.772
18711SOL     OW56158   2.435  12.042   1.029
18711SOL    HW156159   2.479  12.131   1.020
18711SOL    HW256160   2.372  12.042   1.106
18712SOL     OW56161   3.222  12.034   1.045
18712SOL    HW156162   3.147  12.034   0.979
18712SOL    HW256163   3.259  11.942   1.054
18713SOL     OW56164   3.071  11.697   0.275
18713SOL    HW156165   3.084  11.613   0.329
18713SOL    HW256166   3.042  11.771   0.335
18714SOL     OW56167   2.169  11.385   1.231
18714SOL    HW156168   2.146  11.422   1.321
18714SOL    HW256169   2.139  11.290   1.225
18715SOL     OW56170   1.899  12.482   1.282
18715SOL    HW156171   1.952  12.433   1.350
18715SOL    HW256172   1.921  12.580   1.287
18716SOL     OW56173   2.594  11.806   1.064
18716SOL    HW156174   2.653  11.780   0.988
18716SOL    HW256175   2.566  11.902   1.053
18717SOL     OW56176   3.590  12.107   1.854
18717SOL    HW156177   3.544  12.100   1.765
18717SOL    HW256178   3.528  12.151   1.920
18718SOL     OW56179   2.169  11.235   0.618
18718SOL    HW156180   2.158  11.329   0.651
18718SOL    HW256181   2.164  11.172   0.695
18719SOL     OW56182   3.484  11.539   0.374
18719SOL    HW156183   3.486  11.463   0.438
18719SOL    HW256184   3.436  11.616   0.414
18720SOL     OW56185   2.885  11.938   0.966
18720SOL    HW156186   2.900  11.959   1.062
18720SOL    HW256187   2.855  11.843   0.957
18721SOL     OW56188   3.721  12.690   1.605
18721SOL    HW156189   3.735  12.717   1.510
18721SOL    HW256190   3.804  12.712   1.658
18722SOL     OW56191   2.212  12.070   1.804
18722SOL    HW156192   2.288  12.114   1.852
18722SOL    HW256193   2.247  12.023   1.722
18723SOL     OW56194   3.402  11.446   0.125
18723SOL    HW156195   3.341  11.371   0.148
18723SOL    HW256196   3.424  11.498   0.208
18724SOL     OW56197   3.165  12.010   0.042
18724SOL    HW156198   3.199  11.917   0.057
18724SOL    HW256199   3.183  12.037  -0.053
18725SOL     OW56200   2.930  12.505   0.849
18725SOL    HW156201   2.937  12.421   0.794
18725SOL    HW256202   2.992  12.574   0.813
18726SOL     OW56203   2.181  11.982   0.949
18726SOL    HW156204   2.274  12.018   0.954
18726SOL    HW256205   2.175  11.897   1.001
18727SOL     OW56206   2.201  11.681   1.006
18727SOL    HW156207   2.149  11.598   0.989
18727SOL    HW256208   2.278  11.686   0.942
18728SOL     OW56209   3.000  11.552   1.678
18728SOL    HW156210   2.955  11.615   1.742
18728SOL    HW256211   3.093  11.583   1.661
18729SOL     OW56212   3.022  11.379   1.477
18729SOL    HW156213   3.022  11.443   1.554
18729SOL    HW256214   3.050  11.427   1.394
18730SOL     OW56215   1.870  12.498   0.200
18730SOL    HW156216   1.777  12.519   0.169
18730SOL    HW256217   1.880  12.399   0.213
18731SOL     OW56218   2.864  11.968   1.238
18731SOL    HW156219   2.905  11.936   1.324
18731SOL    HW256220   2.768  11.941   1.235
18732SOL     OW56221   1.902  11.716   1.114
18732SOL    HW156222   1.987  11.683   1.073
18732SOL    HW256223   1.915  11.731   1.212
18733SOL     OW56224   2.051  11.692   1.722
18733SOL    HW156225   2.110  11.652   1.652
18733SOL    HW256226   1.993  11.763   1.681
18734SOL     OW56227   3.231  12.122   1.660
18734SOL    HW156228   3.270  12.211   1.680
18734SOL    HW256229   3.241  12.102   1.563
18735SOL     OW56230   2.677  11.744   0.325
18735SOL    HW156231   2.684  11.655   0.279
18735SOL    HW256232   2.583  11.778   0.317
18736SOL     OW56233   3.519  11.776   1.206
18736SOL    HW156234   3.481  11.707   1.268
18736SOL    HW256235   3.601  11.740   1.162
18737SOL     OW56236   2.114  12.736   1.744
18737SOL    HW156237   2.084  12.793   1.820
18737SOL    HW256238   2.107  12.639   1.770
18738SOL     OW56239   2.533  11.636   1.269
18738SOL    HW156240   2.499  11.547   1.239
18738SOL    HW256241   2.559  11.690   1.189
18739SOL     OW56242   2.335  11.672   0.191
18739SOL    HW156243   2.396  11.752   0.195
18739SOL    HW256244   2.240  11.703   0.198
18740SOL     OW56245   2.021  12.309   1.466
18740SOL    HW156246   2.043  12.248   1.542
18740SOL    HW256247   2.031  12.260   1.380
18741SOL     OW56248   3.209  12.231   1.234
18741SOL    HW156249   3.233  12.168   1.160
18741SOL    HW256250   3.119  12.271   1.216
18742SOL     OW56251   3.164  12.027   0.309
18742SOL    HW156252   3.078  11.996   0.351
18742SOL    HW256253   3.160  12.013   0.210
18743SOL     OW56254   1.945  12.430   1.022
18743SOL    HW156255   1.940  12.429   1.122
18743SOL    HW256256   1.862  12.389   0.984
18744SOL     OW56257   2.765  11.258   0.133
18744SOL    HW156258   2.816  11.259   0.047
18744SOL    HW256259   2.821  11.216   0.204
18745SOL     OW56260   3.588  11.307   0.523
18745SOL    HW156261   3.661  11.290   0.456
18745SOL    HW256262   3.557  11.220   0.561
18746SOL     OW56263   3.142  12.099   0.672
18746SOL    HW156264   3.202  12.018   0.674
18746SOL    HW256265   3.182  12.168   0.612
18747SOL     OW56266   2.692  12.445   1.422
18747SOL    HW156267   2.687  12.478   1.517
18747SOL    HW256268   2.606  12.464   1.376
18748SOL     OW56269   3.703  11.347   0.963
18748SOL    HW156270   3.742  11.262   0.927
18748SOL    HW256271   3.605  11.349   0.944
18749SOL     OW56272   2.125  11.498   0.720
18749SOL    HW156273   2.046  11.549   0.686
18749SOL    HW256274   2.116  11.483   0.818
18750SOL     OW56275   3.056  12.784   0.031
18750SOL    HW156276   3.062  12.691   0.068
18750SOL    HW256277   2.997  12.784  -0.049
18751SOL     OW56278   2.684  12.174   1.372
18751SOL    HW156279   2.724  12.173   1.280
18751SOL    HW256280   2.694  12.266   1.412
18752SOL     OW56281   2.778  12.082   0.291
18752SOL    HW156282   2.841  12.120   0.223
18752SOL    HW256283   2.818  11.999   0.330
18753SOL     OW56284   2.234  12.460   1.490
18753SOL    HW156285   2.221  12.553   1.456
18753SOL    HW256286   2.150  12.408   1.477
18754SOL     OW56287   3.476  12.464   1.289
18754SOL    HW156288   3.536  12.467   1.369
18754SOL    HW256289   3.401  12.528   1.302
18755SOL     OW56290   2.901  12.270   0.696
18755SOL    HW156291   2.831  12.223   0.750
18755SOL    HW256292   2.960  12.202   0.653
18756SOL     OW56293   2.876  11.408   0.971
18756SOL    HW156294   2.868  11.372   0.878
18756SOL    HW256295   2.874  11.332   1.036
18757SOL     OW56296   3.571  11.557   1.381
18757SOL    HW156297   3.644  11.626   1.385
18757SOL    HW256298   3.599  11.482   1.322
18758SOL     OW56299   2.117  12.520   0.290
18758SOL    HW156300   2.021  12.521   0.263
18758SOL    HW256301   2.129  12.573   0.374
18759SOL     OW56302   1.967  12.185   1.726
18759SOL    HW156303   1.890  12.152   1.780
18759SOL    HW256304   2.052  12.155   1.768
18760SOL     OW56305   2.534  11.375   1.489
18760SOL    HW156306   2.624  11.359   1.449
18760SOL    HW256307   2.542  11.380   1.588
18761SOL     OW56308   3.302  12.028   1.398
18761SOL    HW156309   3.245  12.080   1.335
18761SOL    HW256310   3.398  12.040   1.374
18762SOL     OW56311   1.934  11.338   0.318
18762SOL    HW156312   1.917  11.421   0.264
18762SOL    HW256313   2.024  11.301   0.296
18763SOL     OW56314   3.045  12.507   0.119
18763SOL    HW156315   2.946  12.496   0.121
18763SOL    HW256316   3.079  12.522   0.212
18764SOL     OW56317   2.475  12.014   1.431
18764SOL    HW156318   2.531  12.095   1.414
18764SOL    HW256319   2.534  11.934   1.434
18765SOL     OW56320   2.578  11.737   1.708
18765SOL    HW156321   2.597  11.802   1.782
18765SOL    HW256322   2.638  11.657   1.717
18766SOL     OW56323   3.312  12.392   1.633
18766SOL    HW156324   3.303  12.382   1.732
18766SOL    HW256325   3.408  12.385   1.607
18767SOL     OW56326   3.536  12.055   1.254
18767SOL    HW156327   3.509  11.966   1.217
18767SOL    HW256328   3.537  12.123   1.181
18768SOL     OW56329   3.087  11.497   0.449
18768SOL    HW156330   3.152  11.423   0.438
18768SOL    HW256331   3.107  11.547   0.533
18769SOL     OW56332   2.456  11.917   0.652
18769SOL    HW156333   2.506  12.002   0.633
18769SOL    HW256334   2.368  11.919   0.604
18770SOL     OW56335   3.639  11.514   1.642
18770SOL    HW156336   3.622  11.545   1.548
18770SOL    HW256337   3.555  11.477   1.680
18771SOL     OW56338   3.592  12.106   1.517
18771SOL    HW156339   3.630  12.197   1.532
18771SOL    HW256340   3.584  12.089   1.418
18772SOL     OW56341   2.721  12.546   0.016
18772SOL    HW156342   2.675  12.561   0.104
18772SOL    HW256343   2.765  12.631  -0.014
18773SOL     OW56344   2.721  12.128   0.861
18773SOL    HW156345   2.775  12.059   0.909
18773SOL    HW256346   2.689  12.197   0.927
18774SOL     OW56347   2.945  12.156   0.087
18774SOL    HW156348   2.922  12.209   0.005
18774SOL    HW256349   3.026  12.100   0.068
18775SOL     OW56350   2.083  12.486   1.844
18775SOL    HW156351   2.018  12.413   1.823
18775SOL    HW256352   2.087  12.500   1.942
18776SOL     OW56353   1.941  12.412   0.653
18776SOL    HW156354   1.940  12.365   0.741
18776SOL    HW256355   2.023  12.384   0.602
18777SOL     OW56356   2.534  12.563   1.624
18777SOL    HW156357   2.456  12.513   1.662
18777SOL    HW256358   2.531  12.658   1.655
18778SOL     OW56359   3.686  11.364   1.227
18778SOL    HW156360   3.682  11.274   1.271
18778SOL    HW256361   3.689  11.353   1.128
18779SOL     OW56362   2.290  11.596   0.520
18779SOL    HW156363   2.320  11.524   0.458
18779SOL    HW256364   2.251  11.556   0.603
18780SOL     OW56365   3.567  12.659   1.104
18780SOL    HW156366   3.474  12.634   1.077
18780SOL    HW256367   3.593  12.609   1.186
18781SOL     OW56368   2.179  11.719   1.280
18781SOL    HW156369   2.217  11.660   1.352
18781SOL    HW256370   2.219  11.693   1.192
18782SOL     OW56371   3.286  11.386   1.112
18782SOL    HW156372   3.338  11.321   1.167
18782SOL    HW256373   3.237  11.449   1.173
18783SOL     OW56374   2.863  11.206   1.154
18783SOL    HW156375   2.800  11.134   1.123
18783SOL    HW256376   2.956  11.170   1.154
18784SOL     OW56377   2.632  12.502   0.301
18784SOL    HW156378   2.586  12.415   0.318
18784SOL    HW256379   2.723  12.499   0.342
18785SOL     OW56380   2.480  12.739   1.284
18785SOL    HW156381   2.475  12.821   1.341
18785SOL    HW256382   2.569  12.736   1.239
18786SOL     OW56383   3.214  11.224   0.168
18786SOL    HW156384   3.249  11.183   0.084
18786SOL    HW256385   3.124  11.186   0.188
18787SOL     OW56386   3.162  11.625   0.691
18787SOL    HW156387   3.103  11.705   0.695
18787SOL    HW256388   3.177  11.590   0.784
18788SOL     OW56389   3.455  11.393   0.882
18788SOL    HW156390   3.371  11.392   0.936
18788SOL    HW256391   3.457  11.476   0.826
18789SOL     OW56392   1.901  12.249   0.300
18789SOL    HW156393   2.000  12.238   0.291
18789SOL    HW256394   1.861  12.163   0.332
18790SOL     OW56395   2.092  11.800   1.975
18790SOL    HW156396   1.999  11.798   2.012
18790SOL    HW256397   2.093  11.761   1.883
18791SOL     OW56398   2.087  11.447   2.858
18791SOL    HW156399   2.122  11.430   2.950
18791SOL    HW256400   1.999  11.402   2.846
18792SOL     OW56401   1.881  11.540   2.509
18792SOL    HW156402   1.799  11.583   2.548
18792SOL    HW256403   1.853  11.467   2.446
18793SOL     OW56404   2.431  12.447   3.027
18793SOL    HW156405   2.338  12.440   2.990
18793SOL    HW256406   2.442  12.536   3.071
18794SOL     OW56407   3.417  12.683   2.565
18794SOL    HW156408   3.360  12.667   2.646
18794SOL    HW256409   3.358  12.693   2.485
18795SOL     OW56410   2.997  11.875   2.579
18795SOL    HW156411   3.054  11.953   2.554
18795SOL    HW256412   2.937  11.901   2.655
18796SOL     OW56413   3.617  11.779   2.093
18796SOL    HW156414   3.605  11.766   1.994
18796SOL    HW256415   3.587  11.698   2.142
18797SOL     OW56416   2.630  12.316   2.885
18797SOL    HW156417   2.552  12.333   2.945
18797SOL    HW256418   2.664  12.403   2.849
18798SOL     OW56419   2.712  11.970   3.685
18798SOL    HW156420   2.708  12.046   3.750
18798SOL    HW256421   2.734  12.006   3.594
18799SOL     OW56422   2.547  12.184   2.527
18799SOL    HW156423   2.616  12.168   2.597
18799SOL    HW256424   2.474  12.241   2.565
18800SOL     OW56425   2.548  12.333   3.665
18800SOL    HW156426   2.608  12.412   3.679
18800SOL    HW256427   2.462  12.364   3.624
18801SOL     OW56428   2.197  12.607   2.923
18801SOL    HW156429   2.119  12.576   2.870
18801SOL    HW256430   2.255  12.665   2.866
18802SOL     OW56431   3.322  12.677   3.201
18802SOL    HW156432   3.346  12.771   3.227
18802SOL    HW256433   3.306  12.623   3.283
18803SOL     OW56434   2.300  11.564   3.361
18803SOL    HW156435   2.382  11.508   3.370
18803SOL    HW256436   2.219  11.506   3.365
18804SOL     OW56437   3.465  11.619   2.599
18804SOL    HW156438   3.391  11.665   2.549
18804SOL    HW256439   3.516  11.687   2.652
18805SOL     OW56440   2.093  12.885   2.345
18805SOL    HW156441   2.127  12.962   2.399
18805SOL    HW256442   2.137  12.885   2.255
18806SOL     OW56443   2.989  12.513   3.552
18806SOL    HW156444   3.036  12.513   3.640
18806SOL    HW256445   2.941  12.426   3.541
18807SOL     OW56446   2.092  12.606   2.400
18807SOL    HW156447   2.066  12.702   2.400
18807SOL    HW256448   2.021  12.552   2.445
18808SOL     OW56449   2.102  12.263   2.748
18808SOL    HW156450   2.116  12.179   2.800
18808SOL    HW256451   2.047  12.327   2.803
18809SOL     OW56452   2.468  12.136   1.985
18809SOL    HW156453   2.475  12.220   1.931
18809SOL    HW256454   2.514  12.149   2.073
18810SOL     OW56455   3.456  11.286   3.342
18810SOL    HW156456   3.438  11.353   3.270
18810SOL    HW256457   3.453  11.332   3.431
18811SOL     OW56458   1.984  11.815   2.425
18811SOL    HW156459   1.939  11.727   2.442
18811SOL    HW256460   1.983  11.869   2.509
18812SOL     OW56461   1.889  12.768   1.979
18812SOL    HW156462   1.870  12.672   2.000
18812SOL    HW256463   1.856  12.826   2.054
18813SOL     OW56464   3.551  12.094   2.474
18813SOL    HW156465   3.646  12.065   2.482
18813SOL    HW256466   3.543  12.159   2.399
18814SOL     OW56467   3.503  12.280   2.294
18814SOL    HW156468   3.589  12.282   2.242
18814SOL    HW256469   3.517  12.327   2.382
18815SOL     OW56470   1.975  11.909   3.459
18815SOL    HW156471   2.063  11.896   3.504
18815SOL    HW256472   1.962  12.006   3.437
18816SOL     OW56473   2.475  12.537   2.588
18816SOL    HW156474   2.426  12.450   2.597
18816SOL    HW256475   2.452  12.580   2.501
18817SOL     OW56476   3.155  12.400   3.285
18817SOL    HW156477   3.192  12.327   3.227
18817SOL    HW256478   3.207  12.405   3.370
18818SOL     OW56479   2.671  11.176   2.364
18818SOL    HW156480   2.711  11.267   2.355
18818SOL    HW256481   2.571  11.184   2.370
18819SOL     OW56482   2.059  12.148   3.126
18819SOL    HW156483   2.148  12.103   3.112
18819SOL    HW256484   1.986  12.083   3.107
18820SOL     OW56485   3.387  12.171   2.052
18820SOL    HW156486   3.324  12.095   2.065
18820SOL    HW256487   3.435  12.189   2.138
18821SOL     OW56488   2.179  11.423   3.663
18821SOL    HW156489   2.250  11.494   3.669
18821SOL    HW256490   2.091  11.462   3.691
18822SOL     OW56491   3.328  12.589   2.815
18822SOL    HW156492   3.269  12.595   2.895
18822SOL    HW256493   3.313  12.501   2.769
18823SOL     OW56494   2.460  11.901   2.132
18823SOL    HW156495   2.484  11.970   2.064
18823SOL    HW256496   2.382  11.934   2.186
18824SOL     OW56497   3.143  11.517   2.806
18824SOL    HW156498   3.057  11.467   2.793
18824SOL    HW256499   3.205  11.463   2.862
18825SOL     OW56500   2.669  11.777   3.327
18825SOL    HW156501   2.622  11.774   3.416
18825SOL    HW256502   2.618  11.722   3.261
18826SOL     OW56503   3.256  11.641   3.536
18826SOL    HW156504   3.236  11.684   3.624
18826SOL    HW256505   3.334  11.579   3.545
18827SOL     OW56506   2.835  12.062   3.434
18827SOL    HW156507   2.881  11.978   3.405
18827SOL    HW256508   2.779  12.096   3.359
18828SOL     OW56509   2.853  11.582   3.104
18828SOL    HW156510   2.776  11.616   3.158
18828SOL    HW256511   2.819  11.531   3.025
18829SOL     OW56512   2.903  11.873   2.291
18829SOL    HW156513   2.929  11.869   2.387
18829SOL    HW256514   2.818  11.822   2.277
18830SOL     OW56515   1.938  11.983   2.651
18830SOL    HW156516   2.037  11.971   2.660
18830SOL    HW256517   1.914  12.078   2.672
18831SOL     OW56518   2.727  11.520   2.057
18831SOL    HW156519   2.786  11.583   2.008
18831SOL    HW256520   2.746  11.426   2.028
18832SOL     OW56521   3.581  11.757   3.693
18832SOL    HW156522   3.555  11.846   3.657
18832SOL    HW256523   3.579  11.689   3.620
18833SOL     OW56524   3.224  12.316   2.407
18833SOL    HW156525   3.307  12.287   2.359
18833SOL    HW256526   3.175  12.383   2.351
18834SOL     OW56527   2.412  11.368   2.747
18834SOL    HW156528   2.407  11.363   2.847
18834SOL    HW256529   2.414  11.464   2.718
18835SOL     OW56530   2.870  12.628   2.339
18835SOL    HW156531   2.824  12.700   2.287
18835SOL    HW256532   2.866  12.648   2.437
18836SOL     OW56533   3.657  12.238   2.735
18836SOL    HW156534   3.595  12.223   2.659
18836SOL    HW256535   3.605  12.249   2.820
18837SOL     OW56536   3.089  12.722   3.368
18837SOL    HW156537   3.095  12.645   3.432
18837SOL    HW256538   3.037  12.696   3.288
18838SOL     OW56539   2.183  12.115   2.104
18838SOL    HW156540   2.265  12.154   2.062
18838SOL    HW256541   2.156  12.033   2.055
18839SOL     OW56542   3.320  11.907   2.590
18839SOL    HW156543   3.315  11.842   2.665
18839SOL    HW256544   3.400  11.966   2.603
18840SOL     OW56545   2.323  12.438   3.589
18840SOL    HW156546   2.273  12.439   3.503
18840SOL    HW256547   2.260  12.420   3.665
18841SOL     OW56548   2.973  12.948   2.099
18841SOL    HW156549   2.913  12.886   2.149
18841SOL    HW256550   3.004  12.904   2.014
18842SOL     OW56551   2.064  11.457   3.360
18842SOL    HW156552   1.984  11.517   3.347
18842SOL    HW256553   2.054  11.408   3.446
18843SOL     OW56554   3.494  12.549   1.943
18843SOL    HW156555   3.462  12.643   1.933
18843SOL    HW256556   3.418  12.486   1.931
18844SOL     OW56557   3.262  11.279   2.288
18844SOL    HW156558   3.238  11.242   2.198
18844SOL    HW256559   3.361  11.295   2.292
18845SOL     OW56560   2.244  11.872   2.342
18845SOL    HW156561   2.289  11.782   2.339
18845SOL    HW256562   2.150  11.861   2.375
18846SOL     OW56563   3.409  11.394   3.591
18846SOL    HW156564   3.404  11.431   3.683
18846SOL    HW256565   3.337  11.325   3.579
18847SOL     OW56566   2.476  11.294   1.979
18847SOL    HW156567   2.574  11.272   1.986
18847SOL    HW256568   2.445  11.277   1.886
18848SOL     OW56569   2.643  11.436   3.611
18848SOL    HW156570   2.710  11.375   3.654
18848SOL    HW256571   2.570  11.455   3.676
18849SOL     OW56572   3.213  11.762   3.295
18849SOL    HW156573   3.241  11.719   3.380
18849SOL    HW256574   3.238  11.858   3.296
18850SOL     OW56575   2.665  12.574   2.786
18850SOL    HW156576   2.755  12.588   2.744
18850SOL    HW256577   2.594  12.576   2.715
18851SOL     OW56578   2.784  11.675   2.761
18851SOL    HW156579   2.759  11.666   2.665
18851SOL    HW256580   2.832  11.593   2.792
18852SOL     OW56581   2.401  11.236   2.374
18852SOL    HW156582   2.320  11.237   2.432
18852SOL    HW256583   2.404  11.319   2.319
18853SOL     OW56584   3.296  12.360   1.903
18853SOL    HW156585   3.328  12.284   1.960
18853SOL    HW256586   3.204  12.387   1.933
18854SOL     OW56587   2.159  11.207   2.033
18854SOL    HW156588   2.208  11.291   2.012
18854SOL    HW256589   2.221  11.142   2.078
18855SOL     OW56590   2.797  11.408   2.342
18855SOL    HW156591   2.749  11.449   2.264
18855SOL    HW256592   2.896  11.406   2.323
18856SOL     OW56593   2.938  11.855   3.326
18856SOL    HW156594   2.858  11.794   3.329
18856SOL    HW256595   3.019  11.802   3.302
18857SOL     OW56596   3.089  12.742   2.655
18857SOL    HW156597   3.110  12.816   2.590
18857SOL    HW256598   3.157  12.742   2.728
18858SOL     OW56599   2.321  12.324   2.603
18858SOL    HW156600   2.250  12.297   2.668
18858SOL    HW256601   2.295  12.296   2.510
18859SOL     OW56602   2.894  11.721   1.878
18859SOL    HW156603   2.853  11.803   1.839
18859SOL    HW256604   2.958  11.747   1.951
18860SOL     OW56605   1.940  11.728   3.248
18860SOL    HW156606   2.032  11.727   3.207
18860SOL    HW256607   1.934  11.802   3.315
18861SOL     OW56608   2.423  11.394   3.009
18861SOL    HW156609   2.461  11.310   3.046
18861SOL    HW256610   2.335  11.413   3.053
18862SOL     OW56611   2.728  11.626   2.504
18862SOL    HW156612   2.696  11.698   2.442
18862SOL    HW256613   2.752  11.545   2.451
18863SOL     OW56614   2.879  11.211   2.615
18863SOL    HW156615   2.807  11.216   2.546
18863SOL    HW256616   2.855  11.142   2.684
18864SOL     OW56617   3.291  12.345   2.729
18864SOL    HW156618   3.236  12.261   2.722
18864SOL    HW256619   3.317  12.374   2.637
18865SOL     OW56620   3.328  11.762   2.854
18865SOL    HW156621   3.298  11.667   2.861
18865SOL    HW256622   3.401  11.778   2.920
18866SOL     OW56623   3.719  12.005   2.239
18866SOL    HW156624   3.761  11.941   2.303
18866SOL    HW256625   3.681  11.954   2.161
18867SOL     OW56626   2.350  12.557   2.036
18867SOL    HW156627   2.263  12.542   2.083
18867SOL    HW256628   2.333  12.583   1.941
18868SOL     OW56629   3.526  12.452   2.519
18868SOL    HW156630   3.625  12.460   2.533
18868SOL    HW256631   3.481  12.536   2.550
18869SOL     OW56632   3.252  11.747   1.940
18869SOL    HW156633   3.198  11.726   2.021
18869SOL    HW256634   3.343  11.706   1.949
18870SOL     OW56635   2.389  11.428   2.190
18870SOL    HW156636   2.416  11.369   2.115
18870SOL    HW256637   2.389  11.523   2.159
18871SOL     OW56638   3.616  12.395   3.450
18871SOL    HW156639   3.707  12.356   3.437
18871SOL    HW256640   3.624  12.491   3.474
18872SOL     OW56641   2.926  12.519   3.202
18872SOL    HW156642   2.846  12.496   3.257
18872SOL    HW256643   3.009  12.493   3.251
18873SOL     OW56644   2.973  12.367   2.962
18873SOL    HW156645   2.933  12.411   3.043
18873SOL    HW256646   2.932  12.404   2.879
18874SOL     OW56647   3.500  12.271   2.941
18874SOL    HW156648   3.505  12.352   3.000
18874SOL    HW256649   3.414  12.273   2.890
18875SOL     OW56650   2.777  11.261   3.264
18875SOL    HW156651   2.802  11.241   3.169
18875SOL    HW256652   2.849  11.317   3.306
18876SOL     OW56653   2.842  12.288   3.581
18876SOL    HW156654   2.743  12.294   3.591
18876SOL    HW256655   2.865  12.208   3.525
18877SOL     OW56656   2.567  12.222   2.230
18877SOL    HW156657   2.553  12.229   2.329
18877SOL    HW256658   2.651  12.171   2.212
18878SOL     OW56659   2.272  11.985   3.113
18878SOL    HW156660   2.358  11.997   3.163
18878SOL    HW256661   2.230  11.898   3.140
18879SOL     OW56662   3.136  11.558   3.124
18879SOL    HW156663   3.157  11.632   3.188
18879SOL    HW256664   3.047  11.575   3.081
18880SOL     OW56665   2.229  12.272   2.363
18880SOL    HW156666   2.222  12.355   2.307
18880SOL    HW256667   2.233  12.192   2.303
18881SOL     OW56668   2.428  11.709   2.727
18881SOL    HW156669   2.440  11.775   2.653
18881SOL    HW256670   2.474  11.743   2.810
18882SOL     OW56671   3.114  12.520   2.250
18882SOL    HW156672   3.164  12.597   2.290
18882SOL    HW256673   3.019  12.522   2.282
18883SOL     OW56674   3.134  12.617   3.004
18883SOL    HW156675   3.181  12.630   3.091
18883SOL    HW256676   3.068  12.543   3.013
18884SOL     OW56677   3.444  11.811   2.334
18884SOL    HW156678   3.413  11.872   2.407
18884SOL    HW256679   3.494  11.863   2.265
18885SOL     OW56680   2.216  12.682   3.191
18885SOL    HW156681   2.195  12.638   3.104
18885SOL    HW256682   2.313  12.708   3.194
18886SOL     OW56683   2.264  11.923   3.460
18886SOL    HW156684   2.332  11.978   3.413
18886SOL    HW256685   2.304  11.835   3.487
18887SOL     OW56686   3.449  11.951   3.532
18887SOL    HW156687   3.357  11.989   3.527
18887SOL    HW256688   3.509  11.998   3.467
18888SOL     OW56689   2.875  11.277   3.632
18888SOL    HW156690   2.881  11.362   3.580
18888SOL    HW256691   2.907  11.201   3.575
18889SOL     OW56692   2.366  11.222   3.602
18889SOL    HW156693   2.324  11.165   3.532
18889SOL    HW256694   2.300  11.291   3.634
18890SOL     OW56695   2.435  12.042   2.891
18890SOL    HW156696   2.479  12.131   2.882
18890SOL    HW256697   2.372  12.042   2.968
18891SOL     OW56698   3.222  12.034   2.907
18891SOL    HW156699   3.147  12.034   2.841
18891SOL    HW256700   3.259  11.942   2.916
18892SOL     OW56701   3.071  11.697   2.137
18892SOL    HW156702   3.084  11.613   2.191
18892SOL    HW256703   3.042  11.771   2.197
18893SOL     OW56704   2.169  11.385   3.093
18893SOL    HW156705   2.146  11.422   3.183
18893SOL    HW256706   2.139  11.290   3.087
18894SOL     OW56707   1.899  12.482   3.144
18894SOL    HW156708   1.952  12.433   3.212
18894SOL    HW256709   1.921  12.580   3.149
18895SOL     OW56710   2.594  11.806   2.926
18895SOL    HW156711   2.653  11.780   2.850
18895SOL    HW256712   2.566  11.902   2.915
18896SOL     OW56713   3.590  12.107   3.716
18896SOL    HW156714   3.544  12.100   3.627
18896SOL    HW256715   3.528  12.151   3.782
18897SOL     OW56716   2.169  11.235   2.480
18897SOL    HW156717   2.158  11.329   2.513
18897SOL    HW256718   2.164  11.172   2.557
18898SOL     OW56719   3.484  11.539   2.236
18898SOL    HW156720   3.486  11.463   2.300
18898SOL    HW256721   3.436  11.616   2.276
18899SOL     OW56722   2.885  11.938   2.828
18899SOL    HW156723   2.900  11.959   2.924
18899SOL    HW256724   2.855  11.843   2.819
18900SOL     OW56725   3.721  12.690   3.467
18900SOL    HW156726   3.735  12.717   3.372
18900SOL    HW256727   3.804  12.712   3.520
18901SOL     OW56728   2.212  12.070   3.666
18901SOL    HW156729   2.288  12.114   3.714
18901SOL    HW256730   2.247  12.023   3.584
18902SOL     OW56731   3.402  11.446   1.987
18902SOL    HW156732   3.341  11.371   2.010
18902SOL    HW256733   3.424  11.498   2.070
18903SOL     OW56734   3.165  12.010   1.904
18903SOL    HW156735   3.199  11.917   1.919
18903SOL    HW256736   3.183  12.037   1.809
18904SOL     OW56737   2.930  12.505   2.711
18904SOL    HW156738   2.937  12.421   2.656
18904SOL    HW256739   2.992  12.574   2.675
18905SOL     OW56740   2.181  11.982   2.811
18905SOL    HW156741   2.274  12.018   2.816
18905SOL    HW256742   2.175  11.897   2.863
18906SOL     OW56743   2.201  11.681   2.868
18906SOL    HW156744   2.149  11.598   2.851
18906SOL    HW256745   2.278  11.686   2.804
18907SOL     OW56746   3.000  11.552   3.540
18907SOL    HW156747   2.955  11.615   3.604
18907SOL    HW256748   3.093  11.583   3.523
18908SOL     OW56749   3.022  11.379   3.339
18908SOL    HW156750   3.022  11.443   3.416
18908SOL    HW256751   3.050  11.427   3.256
18909SOL     OW56752   1.870  12.498   2.062
18909SOL    HW156753   1.777  12.519   2.031
18909SOL    HW256754   1.880  12.399   2.075
18910SOL     OW56755   2.864  11.968   3.100
18910SOL    HW156756   2.905  11.936   3.186
18910SOL    HW256757   2.768  11.941   3.097
18911SOL     OW56758   1.902  11.716   2.976
18911SOL    HW156759   1.987  11.683   2.935
18911SOL    HW256760   1.915  11.731   3.074
18912SOL     OW56761   2.051  11.692   3.584
18912SOL    HW156762   2.110  11.652   3.514
18912SOL    HW256763   1.993  11.763   3.543
18913SOL     OW56764   3.231  12.122   3.522
18913SOL    HW156765   3.270  12.211   3.542
18913SOL    HW256766   3.241  12.102   3.425
18914SOL     OW56767   2.677  11.744   2.187
18914SOL    HW156768   2.684  11.655   2.141
18914SOL    HW256769   2.583  11.778   2.179
18915SOL     OW56770   3.519  11.776   3.068
18915SOL    HW156771   3.481  11.707   3.130
18915SOL    HW256772   3.601  11.740   3.024
18916SOL     OW56773   2.114  12.736   3.606
18916SOL    HW156774   2.084  12.793   3.682
18916SOL    HW256775   2.107  12.639   3.632
18917SOL     OW56776   2.533  11.636   3.131
18917SOL    HW156777   2.499  11.547   3.101
18917SOL    HW256778   2.559  11.690   3.051
18918SOL     OW56779   2.335  11.672   2.053
18918SOL    HW156780   2.396  11.752   2.057
18918SOL    HW256781   2.240  11.703   2.060
18919SOL     OW56782   2.021  12.309   3.328
18919SOL    HW156783   2.043  12.248   3.404
18919SOL    HW256784   2.031  12.260   3.242
18920SOL     OW56785   3.209  12.231   3.096
18920SOL    HW156786   3.233  12.168   3.022
18920SOL    HW256787   3.119  12.271   3.078
18921SOL     OW56788   3.164  12.027   2.171
18921SOL    HW156789   3.078  11.996   2.213
18921SOL    HW256790   3.160  12.013   2.072
18922SOL     OW56791   1.945  12.430   2.884
18922SOL    HW156792   1.940  12.429   2.984
18922SOL    HW256793   1.862  12.389   2.846
18923SOL     OW56794   3.588  11.307   2.385
18923SOL    HW156795   3.661  11.290   2.318
18923SOL    HW256796   3.557  11.220   2.423
18924SOL     OW56797   3.142  12.099   2.534
18924SOL    HW156798   3.202  12.018   2.536
18924SOL    HW256799   3.182  12.168   2.474
18925SOL     OW56800   2.692  12.445   3.284
18925SOL    HW156801   2.687  12.478   3.379
18925SOL    HW256802   2.606  12.464   3.238
18926SOL     OW56803   3.703  11.347   2.825
18926SOL    HW156804   3.742  11.262   2.789
18926SOL    HW256805   3.605  11.349   2.806
18927SOL     OW56806   2.125  11.498   2.582
18927SOL    HW156807   2.046  11.549   2.548
18927SOL    HW256808   2.116  11.483   2.680
18928SOL     OW56809   2.684  12.174   3.234
18928SOL    HW156810   2.724  12.173   3.142
18928SOL    HW256811   2.694  12.266   3.274
18929SOL     OW56812   2.778  12.082   2.153
18929SOL    HW156813   2.841  12.120   2.085
18929SOL    HW256814   2.818  11.999   2.192
18930SOL     OW56815   2.234  12.460   3.352
18930SOL    HW156816   2.221  12.553   3.318
18930SOL    HW256817   2.150  12.408   3.339
18931SOL     OW56818   3.476  12.464   3.151
18931SOL    HW156819   3.536  12.467   3.231
18931SOL    HW256820   3.401  12.528   3.164
18932SOL     OW56821   2.901  12.270   2.558
18932SOL    HW156822   2.831  12.223   2.612
18932SOL    HW256823   2.960  12.202   2.515
18933SOL     OW56824   2.876  11.408   2.833
18933SOL    HW156825   2.868  11.372   2.740
18933SOL    HW256826   2.874  11.332   2.898
18934SOL     OW56827   3.571  11.557   3.243
18934SOL    HW156828   3.644  11.626   3.247
18934SOL    HW256829   3.599  11.482   3.184
18935SOL     OW56830   2.117  12.520   2.152
18935SOL    HW156831   2.021  12.521   2.125
18935SOL    HW256832   2.129  12.573   2.236
18936SOL     OW56833   1.967  12.185   3.588
18936SOL    HW156834   1.890  12.152   3.642
18936SOL    HW256835   2.052  12.155   3.630
18937SOL     OW56836   2.534  11.375   3.351
18937SOL    HW156837   2.624  11.359   3.311
18937SOL    HW256838   2.542  11.380   3.450
18938SOL     OW56839   1.937  11.517   1.895
18938SOL    HW156840   1.845  11.489   1.866
18938SOL    HW256841   1.968  11.594   1.839
18939SOL     OW56842   3.302  12.028   3.260
18939SOL    HW156843   3.245  12.080   3.197
18939SOL    HW256844   3.398  12.040   3.236
18940SOL     OW56845   1.934  11.338   2.180
18940SOL    HW156846   1.917  11.421   2.126
18940SOL    HW256847   2.024  11.301   2.158
18941SOL     OW56848   3.045  12.507   1.981
18941SOL    HW156849   2.946  12.496   1.983
18941SOL    HW256850   3.079  12.522   2.074
18942SOL     OW56851   2.475  12.014   3.293
18942SOL    HW156852   2.531  12.095   3.276
18942SOL    HW256853   2.534  11.934   3.296
18943SOL     OW56854   2.578  11.737   3.570
18943SOL    HW156855   2.597  11.802   3.644
18943SOL    HW256856   2.638  11.657   3.579
18944SOL     OW56857   3.312  12.392   3.495
18944SOL    HW156858   3.303  12.382   3.594
18944SOL    HW256859   3.408  12.385   3.469
18945SOL     OW56860   3.536  12.055   3.116
18945SOL    HW156861   3.509  11.966   3.079
18945SOL    HW256862   3.537  12.123   3.043
18946SOL     OW56863   3.087  11.497   2.311
18946SOL    HW156864   3.152  11.423   2.300
18946SOL    HW256865   3.107  11.547   2.395
18947SOL     OW56866   2.456  11.917   2.514
18947SOL    HW156867   2.506  12.002   2.495
18947SOL    HW256868   2.368  11.919   2.466
18948SOL     OW56869   3.639  11.514   3.504
18948SOL    HW156870   3.622  11.545   3.410
18948SOL    HW256871   3.555  11.477   3.542
18949SOL     OW56872   3.592  12.106   3.379
18949SOL    HW156873   3.630  12.197   3.394
18949SOL    HW256874   3.584  12.089   3.280
18950SOL     OW56875   2.721  12.546   1.878
18950SOL    HW156876   2.675  12.561   1.966
18950SOL    HW256877   2.765  12.631   1.848
18951SOL     OW56878   2.721  12.128   2.723
18951SOL    HW156879   2.775  12.059   2.771
18951SOL    HW256880   2.689  12.197   2.789
18952SOL     OW56881   2.945  12.156   1.949
18952SOL    HW156882   2.922  12.209   1.867
18952SOL    HW256883   3.026  12.100   1.930
18953SOL     OW56884   2.083  12.486   3.706
18953SOL    HW156885   2.018  12.413   3.685
18953SOL    HW256886   2.087  12.500   3.804
18954SOL     OW56887   1.941  12.412   2.515
18954SOL    HW156888   1.940  12.365   2.603
18954SOL    HW256889   2.023  12.384   2.464
18955SOL     OW56890   2.534  12.563   3.486
18955SOL    HW156891   2.456  12.513   3.524
18955SOL    HW256892   2.531  12.658   3.517
18956SOL     OW56893   3.686  11.364   3.089
18956SOL    HW156894   3.682  11.274   3.133
18956SOL    HW256895   3.689  11.353   2.990
18957SOL     OW56896   2.290  11.596   2.382
18957SOL    HW156897   2.320  11.524   2.320
18957SOL    HW256898   2.251  11.556   2.465
18958SOL     OW56899   3.567  12.659   2.966
18958SOL    HW156900   3.474  12.634   2.939
18958SOL    HW256901   3.593  12.609   3.048
18959SOL     OW56902   2.179  11.719   3.142
18959SOL    HW156903   2.217  11.660   3.214
18959SOL    HW256904   2.219  11.693   3.054
18960SOL     OW56905   3.286  11.386   2.974
18960SOL    HW156906   3.338  11.321   3.029
18960SOL    HW256907   3.237  11.449   3.035
18961SOL     OW56908   2.863  11.206   3.016
18961SOL    HW156909   2.800  11.134   2.985
18961SOL    HW256910   2.956  11.170   3.016
18962SOL     OW56911   2.632  12.502   2.163
18962SOL    HW156912   2.586  12.415   2.180
18962SOL    HW256913   2.723  12.499   2.204
18963SOL     OW56914   2.480  12.739   3.146
18963SOL    HW156915   2.475  12.821   3.203
18963SOL    HW256916   2.569  12.736   3.101
18964SOL     OW56917   3.214  11.224   2.030
18964SOL    HW156918   3.249  11.183   1.946
18964SOL    HW256919   3.124  11.186   2.050
18965SOL     OW56920   3.162  11.625   2.553
18965SOL    HW156921   3.103  11.705   2.557
18965SOL    HW256922   3.177  11.590   2.646
18966SOL     OW56923   3.455  11.393   2.744
18966SOL    HW156924   3.371  11.392   2.798
18966SOL    HW256925   3.457  11.476   2.688
18967SOL     OW56926   1.901  12.249   2.162
18967SOL    HW156927   2.000  12.238   2.153
18967SOL    HW256928   1.861  12.163   2.194
18968SOL     OW56929   2.092  11.800   3.837
18968SOL    HW156930   1.999  11.798   3.874
18968SOL    HW256931   2.093  11.761   3.745
18969SOL     OW56932   2.087  11.447   4.720
18969SOL    HW156933   2.122  11.430   4.812
18969SOL    HW256934   1.999  11.402   4.708
18970SOL     OW56935   1.881  11.540   4.371
18970SOL    HW156936   1.799  11.583   4.410
18970SOL    HW256937   1.853  11.467   4.308
18971SOL     OW56938   2.431  12.447   4.889
18971SOL    HW156939   2.338  12.440   4.852
18971SOL    HW256940   2.442  12.536   4.933
18972SOL     OW56941   3.417  12.683   4.427
18972SOL    HW156942   3.360  12.667   4.508
18972SOL    HW256943   3.358  12.693   4.347
18973SOL     OW56944   2.997  11.875   4.441
18973SOL    HW156945   3.054  11.953   4.416
18973SOL    HW256946   2.937  11.901   4.517
18974SOL     OW56947   3.617  11.779   3.955
18974SOL    HW156948   3.605  11.766   3.856
18974SOL    HW256949   3.587  11.698   4.004
18975SOL     OW56950   2.630  12.316   4.747
18975SOL    HW156951   2.552  12.333   4.807
18975SOL    HW256952   2.664  12.403   4.711
18976SOL     OW56953   2.712  11.970   5.547
18976SOL    HW156954   2.708  12.046   5.612
18976SOL    HW256955   2.734  12.006   5.456
18977SOL     OW56956   2.547  12.184   4.389
18977SOL    HW156957   2.616  12.168   4.459
18977SOL    HW256958   2.474  12.241   4.427
18978SOL     OW56959   2.548  12.333   5.527
18978SOL    HW156960   2.608  12.412   5.541
18978SOL    HW256961   2.462  12.364   5.486
18979SOL     OW56962   2.197  12.607   4.785
18979SOL    HW156963   2.119  12.576   4.732
18979SOL    HW256964   2.255  12.665   4.728
18980SOL     OW56965   3.322  12.677   5.063
18980SOL    HW156966   3.346  12.771   5.089
18980SOL    HW256967   3.306  12.623   5.145
18981SOL     OW56968   2.300  11.564   5.223
18981SOL    HW156969   2.382  11.508   5.232
18981SOL    HW256970   2.219  11.506   5.227
18982SOL     OW56971   3.465  11.619   4.461
18982SOL    HW156972   3.391  11.665   4.411
18982SOL    HW256973   3.516  11.687   4.514
18983SOL     OW56974   2.093  12.885   4.207
18983SOL    HW156975   2.127  12.962   4.261
18983SOL    HW256976   2.137  12.885   4.117
18984SOL     OW56977   2.989  12.513   5.414
18984SOL    HW156978   3.036  12.513   5.502
18984SOL    HW256979   2.941  12.426   5.403
18985SOL     OW56980   2.092  12.606   4.262
18985SOL    HW156981   2.066  12.702   4.262
18985SOL    HW256982   2.021  12.552   4.307
18986SOL     OW56983   2.102  12.263   4.610
18986SOL    HW156984   2.116  12.179   4.662
18986SOL    HW256985   2.047  12.327   4.665
18987SOL     OW56986   2.468  12.136   3.847
18987SOL    HW156987   2.475  12.220   3.793
18987SOL    HW256988   2.514  12.149   3.935
18988SOL     OW56989   3.456  11.286   5.204
18988SOL    HW156990   3.438  11.353   5.132
18988SOL    HW256991   3.453  11.332   5.293
18989SOL     OW56992   1.984  11.815   4.287
18989SOL    HW156993   1.939  11.727   4.304
18989SOL    HW256994   1.983  11.869   4.371
18990SOL     OW56995   1.889  12.768   3.841
18990SOL    HW156996   1.870  12.672   3.862
18990SOL    HW256997   1.856  12.826   3.916
18991SOL     OW56998   3.551  12.094   4.336
18991SOL    HW156999   3.646  12.065   4.344
18991SOL    HW257000   3.543  12.159   4.261
18992SOL     OW57001   3.503  12.280   4.156
18992SOL    HW157002   3.589  12.282   4.104
18992SOL    HW257003   3.517  12.327   4.244
18993SOL     OW57004   1.975  11.909   5.321
18993SOL    HW157005   2.063  11.896   5.366
18993SOL    HW257006   1.962  12.006   5.299
18994SOL     OW57007   2.475  12.537   4.450
18994SOL    HW157008   2.426  12.450   4.459
18994SOL    HW257009   2.452  12.580   4.363
18995SOL     OW57010   3.155  12.400   5.147
18995SOL    HW157011   3.192  12.327   5.089
18995SOL    HW257012   3.207  12.405   5.232
18996SOL     OW57013   2.671  11.176   4.226
18996SOL    HW157014   2.711  11.267   4.217
18996SOL    HW257015   2.571  11.184   4.232
18997SOL     OW57016   2.059  12.148   4.988
18997SOL    HW157017   2.148  12.103   4.974
18997SOL    HW257018   1.986  12.083   4.969
18998SOL     OW57019   3.387  12.171   3.914
18998SOL    HW157020   3.324  12.095   3.927
18998SOL    HW257021   3.435  12.189   4.000
18999SOL     OW57022   2.179  11.423   5.525
18999SOL    HW157023   2.250  11.494   5.531
18999SOL    HW257024   2.091  11.462   5.553
19000SOL     OW57025   3.328  12.589   4.677
19000SOL    HW157026   3.269  12.595   4.757
19000SOL    HW257027   3.313  12.501   4.631
19001SOL     OW57028   2.460  11.901   3.994
19001SOL    HW157029   2.484  11.970   3.926
19001SOL    HW257030   2.382  11.934   4.048
19002SOL     OW57031   3.143  11.517   4.668
19002SOL    HW157032   3.057  11.467   4.655
19002SOL    HW257033   3.205  11.463   4.724
19003SOL     OW57034   2.669  11.777   5.189
19003SOL    HW157035   2.622  11.774   5.278
19003SOL    HW257036   2.618  11.722   5.123
19004SOL     OW57037   3.256  11.641   5.398
19004SOL    HW157038   3.236  11.684   5.486
19004SOL    HW257039   3.334  11.579   5.407
19005SOL     OW57040   2.835  12.062   5.296
19005SOL    HW157041   2.881  11.978   5.267
19005SOL    HW257042   2.779  12.096   5.221
19006SOL     OW57043   2.853  11.582   4.966
19006SOL    HW157044   2.776  11.616   5.020
19006SOL    HW257045   2.819  11.531   4.887
19007SOL     OW57046   2.903  11.873   4.153
19007SOL    HW157047   2.929  11.869   4.249
19007SOL    HW257048   2.818  11.822   4.139
19008SOL     OW57049   1.938  11.983   4.513
19008SOL    HW157050   2.037  11.971   4.522
19008SOL    HW257051   1.914  12.078   4.534
19009SOL     OW57052   2.727  11.520   3.919
19009SOL    HW157053   2.786  11.583   3.870
19009SOL    HW257054   2.746  11.426   3.890
19010SOL     OW57055   3.581  11.757   5.555
19010SOL    HW157056   3.555  11.846   5.519
19010SOL    HW257057   3.579  11.689   5.482
19011SOL     OW57058   3.224  12.316   4.269
19011SOL    HW157059   3.307  12.287   4.221
19011SOL    HW257060   3.175  12.383   4.213
19012SOL     OW57061   2.412  11.368   4.609
19012SOL    HW157062   2.407  11.363   4.709
19012SOL    HW257063   2.414  11.464   4.580
19013SOL     OW57064   2.870  12.628   4.201
19013SOL    HW157065   2.824  12.700   4.149
19013SOL    HW257066   2.866  12.648   4.299
19014SOL     OW57067   3.657  12.238   4.597
19014SOL    HW157068   3.595  12.223   4.521
19014SOL    HW257069   3.605  12.249   4.682
19015SOL     OW57070   3.089  12.722   5.230
19015SOL    HW157071   3.095  12.645   5.294
19015SOL    HW257072   3.037  12.696   5.150
19016SOL     OW57073   2.183  12.115   3.966
19016SOL    HW157074   2.265  12.154   3.924
19016SOL    HW257075   2.156  12.033   3.917
19017SOL     OW57076   3.320  11.907   4.452
19017SOL    HW157077   3.315  11.842   4.527
19017SOL    HW257078   3.400  11.966   4.465
19018SOL     OW57079   2.323  12.438   5.451
19018SOL    HW157080   2.273  12.439   5.365
19018SOL    HW257081   2.260  12.420   5.527
19019SOL     OW57082   2.973  12.948   3.961
19019SOL    HW157083   2.913  12.886   4.011
19019SOL    HW257084   3.004  12.904   3.876
19020SOL     OW57085   2.064  11.457   5.222
19020SOL    HW157086   1.984  11.517   5.209
19020SOL    HW257087   2.054  11.408   5.308
19021SOL     OW57088   3.494  12.549   3.805
19021SOL    HW157089   3.462  12.643   3.795
19021SOL    HW257090   3.418  12.486   3.793
19022SOL     OW57091   3.262  11.279   4.150
19022SOL    HW157092   3.238  11.242   4.060
19022SOL    HW257093   3.361  11.295   4.154
19023SOL     OW57094   2.244  11.872   4.204
19023SOL    HW157095   2.289  11.782   4.201
19023SOL    HW257096   2.150  11.861   4.237
19024SOL     OW57097   3.409  11.394   5.453
19024SOL    HW157098   3.404  11.431   5.545
19024SOL    HW257099   3.337  11.325   5.441
19025SOL     OW57100   2.476  11.294   3.841
19025SOL    HW157101   2.574  11.272   3.848
19025SOL    HW257102   2.445  11.277   3.748
19026SOL     OW57103   2.643  11.436   5.473
19026SOL    HW157104   2.710  11.375   5.516
19026SOL    HW257105   2.570  11.455   5.538
19027SOL     OW57106   3.213  11.762   5.157
19027SOL    HW157107   3.241  11.719   5.242
19027SOL    HW257108   3.238  11.858   5.158
19028SOL     OW57109   2.665  12.574   4.648
19028SOL    HW157110   2.755  12.588   4.606
19028SOL    HW257111   2.594  12.576   4.577
19029SOL     OW57112   2.784  11.675   4.623
19029SOL    HW157113   2.759  11.666   4.527
19029SOL    HW257114   2.832  11.593   4.654
19030SOL     OW57115   2.401  11.236   4.236
19030SOL    HW157116   2.320  11.237   4.294
19030SOL    HW257117   2.404  11.319   4.181
19031SOL     OW57118   3.296  12.360   3.765
19031SOL    HW157119   3.328  12.284   3.822
19031SOL    HW257120   3.204  12.387   3.795
19032SOL     OW57121   2.159  11.207   3.895
19032SOL    HW157122   2.208  11.291   3.874
19032SOL    HW257123   2.221  11.142   3.940
19033SOL     OW57124   2.797  11.408   4.204
19033SOL    HW157125   2.749  11.449   4.126
19033SOL    HW257126   2.896  11.406   4.185
19034SOL     OW57127   2.938  11.855   5.188
19034SOL    HW157128   2.858  11.794   5.191
19034SOL    HW257129   3.019  11.802   5.164
19035SOL     OW57130   3.089  12.742   4.517
19035SOL    HW157131   3.110  12.816   4.452
19035SOL    HW257132   3.157  12.742   4.590
19036SOL     OW57133   2.321  12.324   4.465
19036SOL    HW157134   2.250  12.297   4.530
19036SOL    HW257135   2.295  12.296   4.372
19037SOL     OW57136   2.894  11.721   3.740
19037SOL    HW157137   2.853  11.803   3.701
19037SOL    HW257138   2.958  11.747   3.813
19038SOL     OW57139   1.940  11.728   5.110
19038SOL    HW157140   2.032  11.727   5.069
19038SOL    HW257141   1.934  11.802   5.177
19039SOL     OW57142   2.423  11.394   4.871
19039SOL    HW157143   2.461  11.310   4.908
19039SOL    HW257144   2.335  11.413   4.915
19040SOL     OW57145   2.728  11.626   4.366
19040SOL    HW157146   2.696  11.698   4.304
19040SOL    HW257147   2.752  11.545   4.313
19041SOL     OW57148   2.879  11.211   4.477
19041SOL    HW157149   2.807  11.216   4.408
19041SOL    HW257150   2.855  11.142   4.546
19042SOL     OW57151   3.291  12.345   4.591
19042SOL    HW157152   3.236  12.261   4.584
19042SOL    HW257153   3.317  12.374   4.499
19043SOL     OW57154   3.328  11.762   4.716
19043SOL    HW157155   3.298  11.667   4.723
19043SOL    HW257156   3.401  11.778   4.782
19044SOL     OW57157   3.719  12.005   4.101
19044SOL    HW157158   3.761  11.941   4.165
19044SOL    HW257159   3.681  11.954   4.023
19045SOL     OW57160   2.350  12.557   3.898
19045SOL    HW157161   2.263  12.542   3.945
19045SOL    HW257162   2.333  12.583   3.803
19046SOL     OW57163   3.526  12.452   4.381
19046SOL    HW157164   3.625  12.460   4.395
19046SOL    HW257165   3.481  12.536   4.412
19047SOL     OW57166   3.252  11.747   3.802
19047SOL    HW157167   3.198  11.726   3.883
19047SOL    HW257168   3.343  11.706   3.811
19048SOL     OW57169   2.389  11.428   4.052
19048SOL    HW157170   2.416  11.369   3.977
19048SOL    HW257171   2.389  11.523   4.021
19049SOL     OW57172   3.616  12.395   5.312
19049SOL    HW157173   3.707  12.356   5.299
19049SOL    HW257174   3.624  12.491   5.336
19050SOL     OW57175   2.926  12.519   5.064
19050SOL    HW157176   2.846  12.496   5.119
19050SOL    HW257177   3.009  12.493   5.113
19051SOL     OW57178   2.973  12.367   4.824
19051SOL    HW157179   2.933  12.411   4.905
19051SOL    HW257180   2.932  12.404   4.741
19052SOL     OW57181   3.500  12.271   4.803
19052SOL    HW157182   3.505  12.352   4.862
19052SOL    HW257183   3.414  12.273   4.752
19053SOL     OW57184   2.777  11.261   5.126
19053SOL    HW157185   2.802  11.241   5.031
19053SOL    HW257186   2.849  11.317   5.168
19054SOL     OW57187   2.842  12.288   5.443
19054SOL    HW157188   2.743  12.294   5.453
19054SOL    HW257189   2.865  12.208   5.387
19055SOL     OW57190   2.567  12.222   4.092
19055SOL    HW157191   2.553  12.229   4.191
19055SOL    HW257192   2.651  12.171   4.074
19056SOL     OW57193   2.272  11.985   4.975
19056SOL    HW157194   2.358  11.997   5.025
19056SOL    HW257195   2.230  11.898   5.002
19057SOL     OW57196   3.136  11.558   4.986
19057SOL    HW157197   3.157  11.632   5.050
19057SOL    HW257198   3.047  11.575   4.943
19058SOL     OW57199   2.229  12.272   4.225
19058SOL    HW157200   2.222  12.355   4.169
19058SOL    HW257201   2.233  12.192   4.165
19059SOL     OW57202   2.428  11.709   4.589
19059SOL    HW157203   2.440  11.775   4.515
19059SOL    HW257204   2.474  11.743   4.672
19060SOL     OW57205   3.114  12.520   4.112
19060SOL    HW157206   3.164  12.597   4.152
19060SOL    HW257207   3.019  12.522   4.144
19061SOL     OW57208   3.134  12.617   4.866
19061SOL    HW157209   3.181  12.630   4.953
19061SOL    HW257210   3.068  12.543   4.875
19062SOL     OW57211   3.444  11.811   4.196
19062SOL    HW157212   3.413  11.872   4.269
19062SOL    HW257213   3.494  11.863   4.127
19063SOL     OW57214   2.216  12.682   5.053
19063SOL    HW157215   2.195  12.638   4.966
19063SOL    HW257216   2.313  12.708   5.056
19064SOL     OW57217   2.264  11.923   5.322
19064SOL    HW157218   2.332  11.978   5.275
19064SOL    HW257219   2.304  11.835   5.349
19065SOL     OW57220   3.449  11.951   5.394
19065SOL    HW157221   3.357  11.989   5.389
19065SOL    HW257222   3.509  11.998   5.329
19066SOL     OW57223   2.875  11.277   5.494
19066SOL    HW157224   2.881  11.362   5.442
19066SOL    HW257225   2.907  11.201   5.437
19067SOL     OW57226   2.366  11.222   5.464
19067SOL    HW157227   2.324  11.165   5.394
19067SOL    HW257228   2.300  11.291   5.496
19068SOL     OW57229   2.435  12.042   4.753
19068SOL    HW157230   2.479  12.131   4.744
19068SOL    HW257231   2.372  12.042   4.830
19069SOL     OW57232   3.222  12.034   4.769
19069SOL    HW157233   3.147  12.034   4.703
19069SOL    HW257234   3.259  11.942   4.778
19070SOL     OW57235   3.071  11.697   3.999
19070SOL    HW157236   3.084  11.613   4.053
19070SOL    HW257237   3.042  11.771   4.059
19071SOL     OW57238   2.169  11.385   4.955
19071SOL    HW157239   2.146  11.422   5.045
19071SOL    HW257240   2.139  11.290   4.949
19072SOL     OW57241   1.899  12.482   5.006
19072SOL    HW157242   1.952  12.433   5.074
19072SOL    HW257243   1.921  12.580   5.011
19073SOL     OW57244   2.594  11.806   4.788
19073SOL    HW157245   2.653  11.780   4.712
19073SOL    HW257246   2.566  11.902   4.777
19074SOL     OW57247   3.590  12.107   5.578
19074SOL    HW157248   3.544  12.100   5.489
19074SOL    HW257249   3.528  12.151   5.644
19075SOL     OW57250   2.169  11.235   4.342
19075SOL    HW157251   2.158  11.329   4.375
19075SOL    HW257252   2.164  11.172   4.419
19076SOL     OW57253   3.484  11.539   4.098
19076SOL    HW157254   3.486  11.463   4.162
19076SOL    HW257255   3.436  11.616   4.138
19077SOL     OW57256   2.885  11.938   4.690
19077SOL    HW157257   2.900  11.959   4.786
19077SOL    HW257258   2.855  11.843   4.681
19078SOL     OW57259   3.721  12.690   5.329
19078SOL    HW157260   3.735  12.717   5.234
19078SOL    HW257261   3.804  12.712   5.382
19079SOL     OW57262   2.212  12.070   5.528
19079SOL    HW157263   2.288  12.114   5.576
19079SOL    HW257264   2.247  12.023   5.446
19080SOL     OW57265   3.402  11.446   3.849
19080SOL    HW157266   3.341  11.371   3.872
19080SOL    HW257267   3.424  11.498   3.932
19081SOL     OW57268   3.165  12.010   3.766
19081SOL    HW157269   3.199  11.917   3.781
19081SOL    HW257270   3.183  12.037   3.671
19082SOL     OW57271   2.930  12.505   4.573
19082SOL    HW157272   2.937  12.421   4.518
19082SOL    HW257273   2.992  12.574   4.537
19083SOL     OW57274   2.181  11.982   4.673
19083SOL    HW157275   2.274  12.018   4.678
19083SOL    HW257276   2.175  11.897   4.725
19084SOL     OW57277   2.201  11.681   4.730
19084SOL    HW157278   2.149  11.598   4.713
19084SOL    HW257279   2.278  11.686   4.666
19085SOL     OW57280   3.000  11.552   5.402
19085SOL    HW157281   2.955  11.615   5.466
19085SOL    HW257282   3.093  11.583   5.385
19086SOL     OW57283   3.022  11.379   5.201
19086SOL    HW157284   3.022  11.443   5.278
19086SOL    HW257285   3.050  11.427   5.118
19087SOL     OW57286   1.870  12.498   3.924
19087SOL    HW157287   1.777  12.519   3.893
19087SOL    HW257288   1.880  12.399   3.937
19088SOL     OW57289   2.864  11.968   4.962
19088SOL    HW157290   2.905  11.936   5.048
19088SOL    HW257291   2.768  11.941   4.959
19089SOL     OW57292   1.902  11.716   4.838
19089SOL    HW157293   1.987  11.683   4.797
19089SOL    HW257294   1.915  11.731   4.936
19090SOL     OW57295   2.051  11.692   5.446
19090SOL    HW157296   2.110  11.652   5.376
19090SOL    HW257297   1.993  11.763   5.405
19091SOL     OW57298   3.231  12.122   5.384
19091SOL    HW157299   3.270  12.211   5.404
19091SOL    HW257300   3.241  12.102   5.287
19092SOL     OW57301   2.677  11.744   4.049
19092SOL    HW157302   2.684  11.655   4.003
19092SOL    HW257303   2.583  11.778   4.041
19093SOL     OW57304   3.519  11.776   4.930
19093SOL    HW157305   3.481  11.707   4.992
19093SOL    HW257306   3.601  11.740   4.886
19094SOL     OW57307   2.114  12.736   5.468
19094SOL    HW157308   2.084  12.793   5.544
19094SOL    HW257309   2.107  12.639   5.494
19095SOL     OW57310   2.533  11.636   4.993
19095SOL    HW157311   2.499  11.547   4.963
19095SOL    HW257312   2.559  11.690   4.913
19096SOL     OW57313   2.335  11.672   3.915
19096SOL    HW157314   2.396  11.752   3.919
19096SOL    HW257315   2.240  11.703   3.922
19097SOL     OW57316   2.021  12.309   5.190
19097SOL    HW157317   2.043  12.248   5.266
19097SOL    HW257318   2.031  12.260   5.104
19098SOL     OW57319   3.209  12.231   4.958
19098SOL    HW157320   3.233  12.168   4.884
19098SOL    HW257321   3.119  12.271   4.940
19099SOL     OW57322   3.164  12.027   4.033
19099SOL    HW157323   3.078  11.996   4.075
19099SOL    HW257324   3.160  12.013   3.934
19100SOL     OW57325   1.945  12.430   4.746
19100SOL    HW157326   1.940  12.429   4.846
19100SOL    HW257327   1.862  12.389   4.708
19101SOL     OW57328   3.588  11.307   4.247
19101SOL    HW157329   3.661  11.290   4.180
19101SOL    HW257330   3.557  11.220   4.285
19102SOL     OW57331   3.142  12.099   4.396
19102SOL    HW157332   3.202  12.018   4.398
19102SOL    HW257333   3.182  12.168   4.336
19103SOL     OW57334   2.692  12.445   5.146
19103SOL    HW157335   2.687  12.478   5.241
19103SOL    HW257336   2.606  12.464   5.100
19104SOL     OW57337   3.703  11.347   4.687
19104SOL    HW157338   3.742  11.262   4.651
19104SOL    HW257339   3.605  11.349   4.668
19105SOL     OW57340   2.125  11.498   4.444
19105SOL    HW157341   2.046  11.549   4.410
19105SOL    HW257342   2.116  11.483   4.542
19106SOL     OW57343   2.684  12.174   5.096
19106SOL    HW157344   2.724  12.173   5.004
19106SOL    HW257345   2.694  12.266   5.136
19107SOL     OW57346   2.778  12.082   4.015
19107SOL    HW157347   2.841  12.120   3.947
19107SOL    HW257348   2.818  11.999   4.054
19108SOL     OW57349   2.234  12.460   5.214
19108SOL    HW157350   2.221  12.553   5.180
19108SOL    HW257351   2.150  12.408   5.201
19109SOL     OW57352   3.476  12.464   5.013
19109SOL    HW157353   3.536  12.467   5.093
19109SOL    HW257354   3.401  12.528   5.026
19110SOL     OW57355   2.901  12.270   4.420
19110SOL    HW157356   2.831  12.223   4.474
19110SOL    HW257357   2.960  12.202   4.377
19111SOL     OW57358   2.876  11.408   4.695
19111SOL    HW157359   2.868  11.372   4.602
19111SOL    HW257360   2.874  11.332   4.760
19112SOL     OW57361   3.571  11.557   5.105
19112SOL    HW157362   3.644  11.626   5.109
19112SOL    HW257363   3.599  11.482   5.046
19113SOL     OW57364   2.117  12.520   4.014
19113SOL    HW157365   2.021  12.521   3.987
19113SOL    HW257366   2.129  12.573   4.098
19114SOL     OW57367   1.967  12.185   5.450
19114SOL    HW157368   1.890  12.152   5.504
19114SOL    HW257369   2.052  12.155   5.492
19115SOL     OW57370   2.534  11.375   5.213
19115SOL    HW157371   2.624  11.359   5.173
19115SOL    HW257372   2.542  11.380   5.312
19116SOL     OW57373   1.937  11.517   3.757
19116SOL    HW157374   1.845  11.489   3.728
19116SOL    HW257375   1.968  11.594   3.701
19117SOL     OW57376   3.302  12.028   5.122
19117SOL    HW157377   3.245  12.080   5.059
19117SOL    HW257378   3.398  12.040   5.098
19118SOL     OW57379   1.934  11.338   4.042
19118SOL    HW157380   1.917  11.421   3.988
19118SOL    HW257381   2.024  11.301   4.020
19119SOL     OW57382   3.045  12.507   3.843
19119SOL    HW157383   2.946  12.496   3.845
19119SOL    HW257384   3.079  12.522   3.936
19120SOL     OW57385   2.475  12.014   5.155
19120SOL    HW157386   2.531  12.095   5.138
19120SOL    HW257387   2.534  11.934   5.158
19121SOL     OW57388   2.578  11.737   5.432
19121SOL    HW157389   2.597  11.802   5.506
19121SOL    HW257390   2.638  11.657   5.441
19122SOL     OW57391   3.312  12.392   5.357
19122SOL    HW157392   3.303  12.382   5.456
19122SOL    HW257393   3.408  12.385   5.331
19123SOL     OW57394   3.536  12.055   4.978
19123SOL    HW157395   3.509  11.966   4.941
19123SOL    HW257396   3.537  12.123   4.905
19124SOL     OW57397   3.087  11.497   4.173
19124SOL    HW157398   3.152  11.423   4.162
19124SOL    HW257399   3.107  11.547   4.257
19125SOL     OW57400   2.456  11.917   4.376
19125SOL    HW157401   2.506  12.002   4.357
19125SOL    HW257402   2.368  11.919   4.328
19126SOL     OW57403   3.639  11.514   5.366
19126SOL    HW157404   3.622  11.545   5.272
19126SOL    HW257405   3.555  11.477   5.404
19127SOL     OW57406   3.592  12.106   5.241
19127SOL    HW157407   3.630  12.197   5.256
19127SOL    HW257408   3.584  12.089   5.142
19128SOL     OW57409   2.721  12.546   3.740
19128SOL    HW157410   2.675  12.561   3.828
19128SOL    HW257411   2.765  12.631   3.710
19129SOL     OW57412   2.721  12.128   4.585
19129SOL    HW157413   2.775  12.059   4.633
19129SOL    HW257414   2.689  12.197   4.651
19130SOL     OW57415   2.945  12.156   3.811
19130SOL    HW157416   2.922  12.209   3.729
19130SOL    HW257417   3.026  12.100   3.792
19131SOL     OW57418   2.083  12.486   5.568
19131SOL    HW157419   2.018  12.413   5.547
19131SOL    HW257420   2.087  12.500   5.666
19132SOL     OW57421   1.941  12.412   4.377
19132SOL    HW157422   1.940  12.365   4.465
19132SOL    HW257423   2.023  12.384   4.326
19133SOL     OW57424   2.534  12.563   5.348
19133SOL    HW157425   2.456  12.513   5.386
19133SOL    HW257426   2.531  12.658   5.379
19134SOL     OW57427   3.686  11.364   4.951
19134SOL    HW157428   3.682  11.274   4.995
19134SOL    HW257429   3.689  11.353   4.852
19135SOL     OW57430   2.290  11.596   4.244
19135SOL    HW157431   2.320  11.524   4.182
19135SOL    HW257432   2.251  11.556   4.327
19136SOL     OW57433   3.567  12.659   4.828
19136SOL    HW157434   3.474  12.634   4.801
19136SOL    HW257435   3.593  12.609   4.910
19137SOL     OW57436   2.179  11.719   5.004
19137SOL    HW157437   2.217  11.660   5.076
19137SOL    HW257438   2.219  11.693   4.916
19138SOL     OW57439   3.286  11.386   4.836
19138SOL    HW157440   3.338  11.321   4.891
19138SOL    HW257441   3.237  11.449   4.897
19139SOL     OW57442   2.863  11.206   4.878
19139SOL    HW157443   2.800  11.134   4.847
19139SOL    HW257444   2.956  11.170   4.878
19140SOL     OW57445   2.632  12.502   4.025
19140SOL    HW157446   2.586  12.415   4.042
19140SOL    HW257447   2.723  12.499   4.066
19141SOL     OW57448   2.480  12.739   5.008
19141SOL    HW157449   2.475  12.821   5.065
19141SOL    HW257450   2.569  12.736   4.963
19142SOL     OW57451   3.214  11.224   3.892
19142SOL    HW157452   3.249  11.183   3.808
19142SOL    HW257453   3.124  11.186   3.912
19143SOL     OW57454   3.162  11.625   4.415
19143SOL    HW157455   3.103  11.705   4.419
19143SOL    HW257456   3.177  11.590   4.508
19144SOL     OW57457   3.455  11.393   4.606
19144SOL    HW157458   3.371  11.392   4.660
19144SOL    HW257459   3.457  11.476   4.550
19145SOL     OW57460   1.901  12.249   4.024
19145SOL    HW157461   2.000  12.238   4.015
19145SOL    HW257462   1.861  12.163   4.056
19146SOL     OW57463   2.092  11.800   5.699
19146SOL    HW157464   1.999  11.798   5.736
19146SOL    HW257465   2.093  11.761   5.607
19147SOL     OW57466   2.087  11.447   6.582
19147SOL    HW157467   2.122  11.430   6.674
19147SOL    HW257468   1.999  11.402   6.570
19148SOL     OW57469   1.881  11.540   6.233
19148SOL    HW157470   1.799  11.583   6.272
19148SOL    HW257471   1.853  11.467   6.170
19149SOL     OW57472   2.431  12.447   6.751
19149SOL    HW157473   2.338  12.440   6.714
19149SOL    HW257474   2.442  12.536   6.795
19150SOL     OW57475   3.417  12.683   6.289
19150SOL    HW157476   3.360  12.667   6.370
19150SOL    HW257477   3.358  12.693   6.209
19151SOL     OW57478   2.997  11.875   6.303
19151SOL    HW157479   3.054  11.953   6.278
19151SOL    HW257480   2.937  11.901   6.379
19152SOL     OW57481   3.617  11.779   5.817
19152SOL    HW157482   3.605  11.766   5.718
19152SOL    HW257483   3.587  11.698   5.866
19153SOL     OW57484   2.630  12.316   6.609
19153SOL    HW157485   2.552  12.333   6.669
19153SOL    HW257486   2.664  12.403   6.573
19154SOL     OW57487   2.712  11.970   7.409
19154SOL    HW157488   2.708  12.046   7.474
19154SOL    HW257489   2.734  12.006   7.318
19155SOL     OW57490   2.547  12.184   6.251
19155SOL    HW157491   2.616  12.168   6.321
19155SOL    HW257492   2.474  12.241   6.289
19156SOL     OW57493   2.548  12.333   7.389
19156SOL    HW157494   2.608  12.412   7.403
19156SOL    HW257495   2.462  12.364   7.348
19157SOL     OW57496   2.197  12.607   6.647
19157SOL    HW157497   2.119  12.576   6.594
19157SOL    HW257498   2.255  12.665   6.590
19158SOL     OW57499   3.322  12.677   6.925
19158SOL    HW157500   3.346  12.771   6.951
19158SOL    HW257501   3.306  12.623   7.007
19159SOL     OW57502   2.300  11.564   7.085
19159SOL    HW157503   2.382  11.508   7.094
19159SOL    HW257504   2.219  11.506   7.089
19160SOL     OW57505   3.465  11.619   6.323
19160SOL    HW157506   3.391  11.665   6.273
19160SOL    HW257507   3.516  11.687   6.376
19161SOL     OW57508   2.093  12.885   6.069
19161SOL    HW157509   2.127  12.962   6.123
19161SOL    HW257510   2.137  12.885   5.979
19162SOL     OW57511   2.989  12.513   7.276
19162SOL    HW157512   3.036  12.513   7.364
19162SOL    HW257513   2.941  12.426   7.265
19163SOL     OW57514   2.092  12.606   6.124
19163SOL    HW157515   2.066  12.702   6.124
19163SOL    HW257516   2.021  12.552   6.169
19164SOL     OW57517   2.102  12.263   6.472
19164SOL    HW157518   2.116  12.179   6.524
19164SOL    HW257519   2.047  12.327   6.527
19165SOL     OW57520   2.468  12.136   5.709
19165SOL    HW157521   2.475  12.220   5.655
19165SOL    HW257522   2.514  12.149   5.797
19166SOL     OW57523   3.456  11.286   7.066
19166SOL    HW157524   3.438  11.353   6.994
19166SOL    HW257525   3.453  11.332   7.155
19167SOL     OW57526   1.984  11.815   6.149
19167SOL    HW157527   1.939  11.727   6.166
19167SOL    HW257528   1.983  11.869   6.233
19168SOL     OW57529   1.889  12.768   5.703
19168SOL    HW157530   1.870  12.672   5.724
19168SOL    HW257531   1.856  12.826   5.778
19169SOL     OW57532   3.551  12.094   6.198
19169SOL    HW157533   3.646  12.065   6.206
19169SOL    HW257534   3.543  12.159   6.123
19170SOL     OW57535   3.503  12.280   6.018
19170SOL    HW157536   3.589  12.282   5.966
19170SOL    HW257537   3.517  12.327   6.106
19171SOL     OW57538   1.975  11.909   7.183
19171SOL    HW157539   2.063  11.896   7.228
19171SOL    HW257540   1.962  12.006   7.161
19172SOL     OW57541   2.475  12.537   6.312
19172SOL    HW157542   2.426  12.450   6.321
19172SOL    HW257543   2.452  12.580   6.225
19173SOL     OW57544   3.155  12.400   7.009
19173SOL    HW157545   3.192  12.327   6.951
19173SOL    HW257546   3.207  12.405   7.094
19174SOL     OW57547   2.671  11.176   6.088
19174SOL    HW157548   2.711  11.267   6.079
19174SOL    HW257549   2.571  11.184   6.094
19175SOL     OW57550   2.059  12.148   6.850
19175SOL    HW157551   2.148  12.103   6.836
19175SOL    HW257552   1.986  12.083   6.831
19176SOL     OW57553   3.387  12.171   5.776
19176SOL    HW157554   3.324  12.095   5.789
19176SOL    HW257555   3.435  12.189   5.862
19177SOL     OW57556   2.179  11.423   7.387
19177SOL    HW157557   2.250  11.494   7.393
19177SOL    HW257558   2.091  11.462   7.415
19178SOL     OW57559   3.328  12.589   6.539
19178SOL    HW157560   3.269  12.595   6.619
19178SOL    HW257561   3.313  12.501   6.493
19179SOL     OW57562   2.460  11.901   5.856
19179SOL    HW157563   2.484  11.970   5.788
19179SOL    HW257564   2.382  11.934   5.910
19180SOL     OW57565   3.143  11.517   6.530
19180SOL    HW157566   3.057  11.467   6.517
19180SOL    HW257567   3.205  11.463   6.586
19181SOL     OW57568   2.669  11.777   7.051
19181SOL    HW157569   2.622  11.774   7.140
19181SOL    HW257570   2.618  11.722   6.985
19182SOL     OW57571   3.256  11.641   7.260
19182SOL    HW157572   3.236  11.684   7.348
19182SOL    HW257573   3.334  11.579   7.269
19183SOL     OW57574   2.835  12.062   7.158
19183SOL    HW157575   2.881  11.978   7.129
19183SOL    HW257576   2.779  12.096   7.083
19184SOL     OW57577   2.853  11.582   6.828
19184SOL    HW157578   2.776  11.616   6.882
19184SOL    HW257579   2.819  11.531   6.749
19185SOL     OW57580   2.903  11.873   6.015
19185SOL    HW157581   2.929  11.869   6.111
19185SOL    HW257582   2.818  11.822   6.001
19186SOL     OW57583   1.938  11.983   6.375
19186SOL    HW157584   2.037  11.971   6.384
19186SOL    HW257585   1.914  12.078   6.396
19187SOL     OW57586   2.727  11.520   5.781
19187SOL    HW157587   2.786  11.583   5.732
19187SOL    HW257588   2.746  11.426   5.752
19188SOL     OW57589   3.581  11.757   7.417
19188SOL    HW157590   3.555  11.846   7.381
19188SOL    HW257591   3.579  11.689   7.344
19189SOL     OW57592   3.224  12.316   6.131
19189SOL    HW157593   3.307  12.287   6.083
19189SOL    HW257594   3.175  12.383   6.075
19190SOL     OW57595   2.412  11.368   6.471
19190SOL    HW157596   2.407  11.363   6.571
19190SOL    HW257597   2.414  11.464   6.442
19191SOL     OW57598   2.870  12.628   6.063
19191SOL    HW157599   2.824  12.700   6.011
19191SOL    HW257600   2.866  12.648   6.161
19192SOL     OW57601   3.657  12.238   6.459
19192SOL    HW157602   3.595  12.223   6.383
19192SOL    HW257603   3.605  12.249   6.544
19193SOL     OW57604   3.089  12.722   7.092
19193SOL    HW157605   3.095  12.645   7.156
19193SOL    HW257606   3.037  12.696   7.012
19194SOL     OW57607   2.183  12.115   5.828
19194SOL    HW157608   2.265  12.154   5.786
19194SOL    HW257609   2.156  12.033   5.779
19195SOL     OW57610   3.320  11.907   6.314
19195SOL    HW157611   3.315  11.842   6.389
19195SOL    HW257612   3.400  11.966   6.327
19196SOL     OW57613   2.323  12.438   7.313
19196SOL    HW157614   2.273  12.439   7.227
19196SOL    HW257615   2.260  12.420   7.389
19197SOL     OW57616   2.973  12.948   5.823
19197SOL    HW157617   2.913  12.886   5.873
19197SOL    HW257618   3.004  12.904   5.738
19198SOL     OW57619   2.064  11.457   7.084
19198SOL    HW157620   1.984  11.517   7.071
19198SOL    HW257621   2.054  11.408   7.170
19199SOL     OW57622   3.494  12.549   5.667
19199SOL    HW157623   3.462  12.643   5.657
19199SOL    HW257624   3.418  12.486   5.655
19200SOL     OW57625   3.262  11.279   6.012
19200SOL    HW157626   3.238  11.242   5.922
19200SOL    HW257627   3.361  11.295   6.016
19201SOL     OW57628   2.244  11.872   6.066
19201SOL    HW157629   2.289  11.782   6.063
19201SOL    HW257630   2.150  11.861   6.099
19202SOL     OW57631   3.409  11.394   7.315
19202SOL    HW157632   3.404  11.431   7.407
19202SOL    HW257633   3.337  11.325   7.303
19203SOL     OW57634   2.476  11.294   5.703
19203SOL    HW157635   2.574  11.272   5.710
19203SOL    HW257636   2.445  11.277   5.610
19204SOL     OW57637   2.643  11.436   7.335
19204SOL    HW157638   2.710  11.375   7.378
19204SOL    HW257639   2.570  11.455   7.400
19205SOL     OW57640   3.213  11.762   7.019
19205SOL    HW157641   3.241  11.719   7.104
19205SOL    HW257642   3.238  11.858   7.020
19206SOL     OW57643   2.665  12.574   6.510
19206SOL    HW157644   2.755  12.588   6.468
19206SOL    HW257645   2.594  12.576   6.439
19207SOL     OW57646   2.784  11.675   6.485
19207SOL    HW157647   2.759  11.666   6.389
19207SOL    HW257648   2.832  11.593   6.516
19208SOL     OW57649   2.401  11.236   6.098
19208SOL    HW157650   2.320  11.237   6.156
19208SOL    HW257651   2.404  11.319   6.043
19209SOL     OW57652   3.296  12.360   5.627
19209SOL    HW157653   3.328  12.284   5.684
19209SOL    HW257654   3.204  12.387   5.657
19210SOL     OW57655   2.159  11.207   5.757
19210SOL    HW157656   2.208  11.291   5.736
19210SOL    HW257657   2.221  11.142   5.802
19211SOL     OW57658   2.797  11.408   6.066
19211SOL    HW157659   2.749  11.449   5.988
19211SOL    HW257660   2.896  11.406   6.047
19212SOL     OW57661   2.938  11.855   7.050
19212SOL    HW157662   2.858  11.794   7.053
19212SOL    HW257663   3.019  11.802   7.026
19213SOL     OW57664   3.089  12.742   6.379
19213SOL    HW157665   3.110  12.816   6.314
19213SOL    HW257666   3.157  12.742   6.452
19214SOL     OW57667   2.321  12.324   6.327
19214SOL    HW157668   2.250  12.297   6.392
19214SOL    HW257669   2.295  12.296   6.234
19215SOL     OW57670   2.894  11.721   5.602
19215SOL    HW157671   2.853  11.803   5.563
19215SOL    HW257672   2.958  11.747   5.675
19216SOL     OW57673   1.940  11.728   6.972
19216SOL    HW157674   2.032  11.727   6.931
19216SOL    HW257675   1.934  11.802   7.039
19217SOL     OW57676   2.423  11.394   6.733
19217SOL    HW157677   2.461  11.310   6.770
19217SOL    HW257678   2.335  11.413   6.777
19218SOL     OW57679   2.728  11.626   6.228
19218SOL    HW157680   2.696  11.698   6.166
19218SOL    HW257681   2.752  11.545   6.175
19219SOL     OW57682   2.879  11.211   6.339
19219SOL    HW157683   2.807  11.216   6.270
19219SOL    HW257684   2.855  11.142   6.408
19220SOL     OW57685   3.291  12.345   6.453
19220SOL    HW157686   3.236  12.261   6.446
19220SOL    HW257687   3.317  12.374   6.361
19221SOL     OW57688   3.328  11.762   6.578
19221SOL    HW157689   3.298  11.667   6.585
19221SOL    HW257690   3.401  11.778   6.644
19222SOL     OW57691   3.719  12.005   5.963
19222SOL    HW157692   3.761  11.941   6.027
19222SOL    HW257693   3.681  11.954   5.885
19223SOL     OW57694   2.350  12.557   5.760
19223SOL    HW157695   2.263  12.542   5.807
19223SOL    HW257696   2.333  12.583   5.665
19224SOL     OW57697   3.526  12.452   6.243
19224SOL    HW157698   3.625  12.460   6.257
19224SOL    HW257699   3.481  12.536   6.274
19225SOL     OW57700   3.252  11.747   5.664
19225SOL    HW157701   3.198  11.726   5.745
19225SOL    HW257702   3.343  11.706   5.673
19226SOL     OW57703   2.389  11.428   5.914
19226SOL    HW157704   2.416  11.369   5.839
19226SOL    HW257705   2.389  11.523   5.883
19227SOL     OW57706   3.616  12.395   7.174
19227SOL    HW157707   3.707  12.356   7.161
19227SOL    HW257708   3.624  12.491   7.198
19228SOL     OW57709   2.926  12.519   6.926
19228SOL    HW157710   2.846  12.496   6.981
19228SOL    HW257711   3.009  12.493   6.975
19229SOL     OW57712   2.973  12.367   6.686
19229SOL    HW157713   2.933  12.411   6.767
19229SOL    HW257714   2.932  12.404   6.603
19230SOL     OW57715   3.500  12.271   6.665
19230SOL    HW157716   3.505  12.352   6.724
19230SOL    HW257717   3.414  12.273   6.614
19231SOL     OW57718   2.777  11.261   6.988
19231SOL    HW157719   2.802  11.241   6.893
19231SOL    HW257720   2.849  11.317   7.030
19232SOL     OW57721   2.842  12.288   7.305
19232SOL    HW157722   2.743  12.294   7.315
19232SOL    HW257723   2.865  12.208   7.249
19233SOL     OW57724   2.567  12.222   5.954
19233SOL    HW157725   2.553  12.229   6.053
19233SOL    HW257726   2.651  12.171   5.936
19234SOL     OW57727   2.272  11.985   6.837
19234SOL    HW157728   2.358  11.997   6.887
19234SOL    HW257729   2.230  11.898   6.864
19235SOL     OW57730   3.136  11.558   6.848
19235SOL    HW157731   3.157  11.632   6.912
19235SOL    HW257732   3.047  11.575   6.805
19236SOL     OW57733   2.229  12.272   6.087
19236SOL    HW157734   2.222  12.355   6.031
19236SOL    HW257735   2.233  12.192   6.027
19237SOL     OW57736   2.428  11.709   6.451
19237SOL    HW157737   2.440  11.775   6.377
19237SOL    HW257738   2.474  11.743   6.534
19238SOL     OW57739   3.114  12.520   5.974
19238SOL    HW157740   3.164  12.597   6.014
19238SOL    HW257741   3.019  12.522   6.006
19239SOL     OW57742   3.134  12.617   6.728
19239SOL    HW157743   3.181  12.630   6.815
19239SOL    HW257744   3.068  12.543   6.737
19240SOL     OW57745   3.444  11.811   6.058
19240SOL    HW157746   3.413  11.872   6.131
19240SOL    HW257747   3.494  11.863   5.989
19241SOL     OW57748   2.216  12.682   6.915
19241SOL    HW157749   2.195  12.638   6.828
19241SOL    HW257750   2.313  12.708   6.918
19242SOL     OW57751   2.264  11.923   7.184
19242SOL    HW157752   2.332  11.978   7.137
19242SOL    HW257753   2.304  11.835   7.211
19243SOL     OW57754   3.449  11.951   7.256
19243SOL    HW157755   3.357  11.989   7.251
19243SOL    HW257756   3.509  11.998   7.191
19244SOL     OW57757   2.875  11.277   7.356
19244SOL    HW157758   2.881  11.362   7.304
19244SOL    HW257759   2.907  11.201   7.299
19245SOL     OW57760   2.366  11.222   7.326
19245SOL    HW157761   2.324  11.165   7.256
19245SOL    HW257762   2.300  11.291   7.358
19246SOL     OW57763   2.435  12.042   6.615
19246SOL    HW157764   2.479  12.131   6.606
19246SOL    HW257765   2.372  12.042   6.692
19247SOL     OW57766   3.222  12.034   6.631
19247SOL    HW157767   3.147  12.034   6.565
19247SOL    HW257768   3.259  11.942   6.640
19248SOL     OW57769   3.071  11.697   5.861
19248SOL    HW157770   3.084  11.613   5.915
19248SOL    HW257771   3.042  11.771   5.921
19249SOL     OW57772   2.169  11.385   6.817
19249SOL    HW157773   2.146  11.422   6.907
19249SOL    HW257774   2.139  11.290   6.811
19250SOL     OW57775   1.899  12.482   6.868
19250SOL    HW157776   1.952  12.433   6.936
19250SOL    HW257777   1.921  12.580   6.873
19251SOL     OW57778   2.594  11.806   6.650
19251SOL    HW157779   2.653  11.780   6.574
19251SOL    HW257780   2.566  11.902   6.639
19252SOL     OW57781   3.590  12.107   7.440
19252SOL    HW157782   3.544  12.100   7.351
19252SOL    HW257783   3.528  12.151   7.506
19253SOL     OW57784   2.169  11.235   6.204
19253SOL    HW157785   2.158  11.329   6.237
19253SOL    HW257786   2.164  11.172   6.281
19254SOL     OW57787   3.484  11.539   5.960
19254SOL    HW157788   3.486  11.463   6.024
19254SOL    HW257789   3.436  11.616   6.000
19255SOL     OW57790   2.885  11.938   6.552
19255SOL    HW157791   2.900  11.959   6.648
19255SOL    HW257792   2.855  11.843   6.543
19256SOL     OW57793   3.721  12.690   7.191
19256SOL    HW157794   3.735  12.717   7.096
19256SOL    HW257795   3.804  12.712   7.244
19257SOL     OW57796   2.212  12.070   7.390
19257SOL    HW157797   2.288  12.114   7.438
19257SOL    HW257798   2.247  12.023   7.308
19258SOL     OW57799   3.402  11.446   5.711
19258SOL    HW157800   3.341  11.371   5.734
19258SOL    HW257801   3.424  11.498   5.794
19259SOL     OW57802   3.165  12.010   5.628
19259SOL    HW157803   3.199  11.917   5.643
19259SOL    HW257804   3.183  12.037   5.533
19260SOL     OW57805   2.930  12.505   6.435
19260SOL    HW157806   2.937  12.421   6.380
19260SOL    HW257807   2.992  12.574   6.399
19261SOL     OW57808   2.181  11.982   6.535
19261SOL    HW157809   2.274  12.018   6.540
19261SOL    HW257810   2.175  11.897   6.587
19262SOL     OW57811   2.201  11.681   6.592
19262SOL    HW157812   2.149  11.598   6.575
19262SOL    HW257813   2.278  11.686   6.528
19263SOL     OW57814   3.000  11.552   7.264
19263SOL    HW157815   2.955  11.615   7.328
19263SOL    HW257816   3.093  11.583   7.247
19264SOL     OW57817   3.022  11.379   7.063
19264SOL    HW157818   3.022  11.443   7.140
19264SOL    HW257819   3.050  11.427   6.980
19265SOL     OW57820   1.870  12.498   5.786
19265SOL    HW157821   1.777  12.519   5.755
19265SOL    HW257822   1.880  12.399   5.799
19266SOL     OW57823   2.864  11.968   6.824
19266SOL    HW157824   2.905  11.936   6.910
19266SOL    HW257825   2.768  11.941   6.821
19267SOL     OW57826   1.902  11.716   6.700
19267SOL    HW157827   1.987  11.683   6.659
19267SOL    HW257828   1.915  11.731   6.798
19268SOL     OW57829   2.051  11.692   7.308
19268SOL    HW157830   2.110  11.652   7.238
19268SOL    HW257831   1.993  11.763   7.267
19269SOL     OW57832   3.231  12.122   7.246
19269SOL    HW157833   3.270  12.211   7.266
19269SOL    HW257834   3.241  12.102   7.149
19270SOL     OW57835   2.677  11.744   5.911
19270SOL    HW157836   2.684  11.655   5.865
19270SOL    HW257837   2.583  11.778   5.903
19271SOL     OW57838   3.519  11.776   6.792
19271SOL    HW157839   3.481  11.707   6.854
19271SOL    HW257840   3.601  11.740   6.748
19272SOL     OW57841   2.114  12.736   7.330
19272SOL    HW157842   2.084  12.793   7.406
19272SOL    HW257843   2.107  12.639   7.356
19273SOL     OW57844   2.533  11.636   6.855
19273SOL    HW157845   2.499  11.547   6.825
19273SOL    HW257846   2.559  11.690   6.775
19274SOL     OW57847   2.335  11.672   5.777
19274SOL    HW157848   2.396  11.752   5.781
19274SOL    HW257849   2.240  11.703   5.784
19275SOL     OW57850   2.021  12.309   7.052
19275SOL    HW157851   2.043  12.248   7.128
19275SOL    HW257852   2.031  12.260   6.966
19276SOL     OW57853   3.209  12.231   6.820
19276SOL    HW157854   3.233  12.168   6.746
19276SOL    HW257855   3.119  12.271   6.802
19277SOL     OW57856   3.164  12.027   5.895
19277SOL    HW157857   3.078  11.996   5.937
19277SOL    HW257858   3.160  12.013   5.796
19278SOL     OW57859   1.945  12.430   6.608
19278SOL    HW157860   1.940  12.429   6.708
19278SOL    HW257861   1.862  12.389   6.570
19279SOL     OW57862   3.588  11.307   6.109
19279SOL    HW157863   3.661  11.290   6.042
19279SOL    HW257864   3.557  11.220   6.147
19280SOL     OW57865   3.142  12.099   6.258
19280SOL    HW157866   3.202  12.018   6.260
19280SOL    HW257867   3.182  12.168   6.198
19281SOL     OW57868   2.692  12.445   7.008
19281SOL    HW157869   2.687  12.478   7.103
19281SOL    HW257870   2.606  12.464   6.962
19282SOL     OW57871   3.703  11.347   6.549
19282SOL    HW157872   3.742  11.262   6.513
19282SOL    HW257873   3.605  11.349   6.530
19283SOL     OW57874   2.125  11.498   6.306
19283SOL    HW157875   2.046  11.549   6.272
19283SOL    HW257876   2.116  11.483   6.404
19284SOL     OW57877   2.684  12.174   6.958
19284SOL    HW157878   2.724  12.173   6.866
19284SOL    HW257879   2.694  12.266   6.998
19285SOL     OW57880   2.778  12.082   5.877
19285SOL    HW157881   2.841  12.120   5.809
19285SOL    HW257882   2.818  11.999   5.916
19286SOL     OW57883   2.234  12.460   7.076
19286SOL    HW157884   2.221  12.553   7.042
19286SOL    HW257885   2.150  12.408   7.063
19287SOL     OW57886   3.476  12.464   6.875
19287SOL    HW157887   3.536  12.467   6.955
19287SOL    HW257888   3.401  12.528   6.888
19288SOL     OW57889   2.901  12.270   6.282
19288SOL    HW157890   2.831  12.223   6.336
19288SOL    HW257891   2.960  12.202   6.239
19289SOL     OW57892   2.876  11.408   6.557
19289SOL    HW157893   2.868  11.372   6.464
19289SOL    HW257894   2.874  11.332   6.622
19290SOL     OW57895   3.571  11.557   6.967
19290SOL    HW157896   3.644  11.626   6.971
19290SOL    HW257897   3.599  11.482   6.908
19291SOL     OW57898   2.117  12.520   5.876
19291SOL    HW157899   2.021  12.521   5.849
19291SOL    HW257900   2.129  12.573   5.960
19292SOL     OW57901   1.967  12.185   7.312
19292SOL    HW157902   1.890  12.152   7.366
19292SOL    HW257903   2.052  12.155   7.354
19293SOL     OW57904   2.534  11.375   7.075
19293SOL    HW157905   2.624  11.359   7.035
19293SOL    HW257906   2.542  11.380   7.174
19294SOL     OW57907   1.937  11.517   5.619
19294SOL    HW157908   1.845  11.489   5.590
19294SOL    HW257909   1.968  11.594   5.563
19295SOL     OW57910   3.302  12.028   6.984
19295SOL    HW157911   3.245  12.080   6.921
19295SOL    HW257912   3.398  12.040   6.960
19296SOL     OW57913   1.934  11.338   5.904
19296SOL    HW157914   1.917  11.421   5.850
19296SOL    HW257915   2.024  11.301   5.882
19297SOL     OW57916   3.045  12.507   5.705
19297SOL    HW157917   2.946  12.496   5.707
19297SOL    HW257918   3.079  12.522   5.798
19298SOL     OW57919   2.475  12.014   7.017
19298SOL    HW157920   2.531  12.095   7.000
19298SOL    HW257921   2.534  11.934   7.020
19299SOL     OW57922   2.578  11.737   7.294
19299SOL    HW157923   2.597  11.802   7.368
19299SOL    HW257924   2.638  11.657   7.303
19300SOL     OW57925   3.312  12.392   7.219
19300SOL    HW157926   3.303  12.382   7.318
19300SOL    HW257927   3.408  12.385   7.193
19301SOL     OW57928   3.536  12.055   6.840
19301SOL    HW157929   3.509  11.966   6.803
19301SOL    HW257930   3.537  12.123   6.767
19302SOL     OW57931   3.087  11.497   6.035
19302SOL    HW157932   3.152  11.423   6.024
19302SOL    HW257933   3.107  11.547   6.119
19303SOL     OW57934   2.456  11.917   6.238
19303SOL    HW157935   2.506  12.002   6.219
19303SOL    HW257936   2.368  11.919   6.190
19304SOL     OW57937   3.639  11.514   7.228
19304SOL    HW157938   3.622  11.545   7.134
19304SOL    HW257939   3.555  11.477   7.266
19305SOL     OW57940   3.592  12.106   7.103
19305SOL    HW157941   3.630  12.197   7.118
19305SOL    HW257942   3.584  12.089   7.004
19306SOL     OW57943   2.721  12.546   5.602
19306SOL    HW157944   2.675  12.561   5.690
19306SOL    HW257945   2.765  12.631   5.572
19307SOL     OW57946   2.721  12.128   6.447
19307SOL    HW157947   2.775  12.059   6.495
19307SOL    HW257948   2.689  12.197   6.513
19308SOL     OW57949   2.945  12.156   5.673
19308SOL    HW157950   2.922  12.209   5.591
19308SOL    HW257951   3.026  12.100   5.654
19309SOL     OW57952   2.083  12.486   7.430
19309SOL    HW157953   2.018  12.413   7.409
19309SOL    HW257954   2.087  12.500   7.528
19310SOL     OW57955   1.941  12.412   6.239
19310SOL    HW157956   1.940  12.365   6.327
19310SOL    HW257957   2.023  12.384   6.188
19311SOL     OW57958   2.534  12.563   7.210
19311SOL    HW157959   2.456  12.513   7.248
19311SOL    HW257960   2.531  12.658   7.241
19312SOL     OW57961   3.686  11.364   6.813
19312SOL    HW157962   3.682  11.274   6.857
19312SOL    HW257963   3.689  11.353   6.714
19313SOL     OW57964   2.290  11.596   6.106
19313SOL    HW157965   2.320  11.524   6.044
19313SOL    HW257966   2.251  11.556   6.189
19314SOL     OW57967   3.567  12.659   6.690
19314SOL    HW157968   3.474  12.634   6.663
19314SOL    HW257969   3.593  12.609   6.772
19315SOL     OW57970   2.179  11.719   6.866
19315SOL    HW157971   2.217  11.660   6.938
19315SOL    HW257972   2.219  11.693   6.778
19316SOL     OW57973   3.286  11.386   6.698
19316SOL    HW157974   3.338  11.321   6.753
19316SOL    HW257975   3.237  11.449   6.759
19317SOL     OW57976   2.863  11.206   6.740
19317SOL    HW157977   2.800  11.134   6.709
19317SOL    HW257978   2.956  11.170   6.740
19318SOL     OW57979   2.632  12.502   5.887
19318SOL    HW157980   2.586  12.415   5.904
19318SOL    HW257981   2.723  12.499   5.928
19319SOL     OW57982   2.480  12.739   6.870
19319SOL    HW157983   2.475  12.821   6.927
19319SOL    HW257984   2.569  12.736   6.825
19320SOL     OW57985   3.214  11.224   5.754
19320SOL    HW157986   3.249  11.183   5.670
19320SOL    HW257987   3.124  11.186   5.774
19321SOL     OW57988   3.162  11.625   6.277
19321SOL    HW157989   3.103  11.705   6.281
19321SOL    HW257990   3.177  11.590   6.370
19322SOL     OW57991   3.455  11.393   6.468
19322SOL    HW157992   3.371  11.392   6.522
19322SOL    HW257993   3.457  11.476   6.412
19323SOL     OW57994   1.901  12.249   5.886
19323SOL    HW157995   2.000  12.238   5.877
19323SOL    HW257996   1.861  12.163   5.918
19324SOL     OW57997   2.092  11.800   7.561
19324SOL    HW157998   1.999  11.798   7.598
19324SOL    HW257999   2.093  11.761   7.469
19325SOL     OW58000   2.087  11.447   8.444
19325SOL    HW158001   2.122  11.430   8.536
19325SOL    HW258002   1.999  11.402   8.432
19326SOL     OW58003   1.881  11.540   8.095
19326SOL    HW158004   1.799  11.583   8.134
19326SOL    HW258005   1.853  11.467   8.032
19327SOL     OW58006   2.431  12.447   8.613
19327SOL    HW158007   2.338  12.440   8.576
19327SOL    HW258008   2.442  12.536   8.657
19328SOL     OW58009   3.417  12.683   8.151
19328SOL    HW158010   3.360  12.667   8.232
19328SOL    HW258011   3.358  12.693   8.071
19329SOL     OW58012   2.997  11.875   8.165
19329SOL    HW158013   3.054  11.953   8.140
19329SOL    HW258014   2.937  11.901   8.241
19330SOL     OW58015   3.617  11.779   7.679
19330SOL    HW158016   3.605  11.766   7.580
19330SOL    HW258017   3.587  11.698   7.728
19331SOL     OW58018   2.630  12.316   8.471
19331SOL    HW158019   2.552  12.333   8.531
19331SOL    HW258020   2.664  12.403   8.435
19332SOL     OW58021   2.712  11.970   9.271
19332SOL    HW158022   2.708  12.046   9.336
19332SOL    HW258023   2.734  12.006   9.180
19333SOL     OW58024   2.547  12.184   8.113
19333SOL    HW158025   2.616  12.168   8.183
19333SOL    HW258026   2.474  12.241   8.151
19334SOL     OW58027   2.548  12.333   9.251
19334SOL    HW158028   2.608  12.412   9.265
19334SOL    HW258029   2.462  12.364   9.210
19335SOL     OW58030   2.197  12.607   8.509
19335SOL    HW158031   2.119  12.576   8.456
19335SOL    HW258032   2.255  12.665   8.452
19336SOL     OW58033   3.322  12.677   8.787
19336SOL    HW158034   3.346  12.771   8.813
19336SOL    HW258035   3.306  12.623   8.869
19337SOL     OW58036   2.300  11.564   8.947
19337SOL    HW158037   2.382  11.508   8.956
19337SOL    HW258038   2.219  11.506   8.951
19338SOL     OW58039   3.465  11.619   8.185
19338SOL    HW158040   3.391  11.665   8.135
19338SOL    HW258041   3.516  11.687   8.238
19339SOL     OW58042   2.093  12.885   7.931
19339SOL    HW158043   2.127  12.962   7.985
19339SOL    HW258044   2.137  12.885   7.841
19340SOL     OW58045   2.989  12.513   9.138
19340SOL    HW158046   3.036  12.513   9.226
19340SOL    HW258047   2.941  12.426   9.127
19341SOL     OW58048   2.092  12.606   7.986
19341SOL    HW158049   2.066  12.702   7.986
19341SOL    HW258050   2.021  12.552   8.031
19342SOL     OW58051   2.102  12.263   8.334
19342SOL    HW158052   2.116  12.179   8.386
19342SOL    HW258053   2.047  12.327   8.389
19343SOL     OW58054   2.468  12.136   7.571
19343SOL    HW158055   2.475  12.220   7.517
19343SOL    HW258056   2.514  12.149   7.659
19344SOL     OW58057   3.456  11.286   8.928
19344SOL    HW158058   3.438  11.353   8.856
19344SOL    HW258059   3.453  11.332   9.017
19345SOL     OW58060   1.984  11.815   8.011
19345SOL    HW158061   1.939  11.727   8.028
19345SOL    HW258062   1.983  11.869   8.095
19346SOL     OW58063   1.889  12.768   7.565
19346SOL    HW158064   1.870  12.672   7.586
19346SOL    HW258065   1.856  12.826   7.640
19347SOL     OW58066   3.551  12.094   8.060
19347SOL    HW158067   3.646  12.065   8.068
19347SOL    HW258068   3.543  12.159   7.985
19348SOL     OW58069   3.503  12.280   7.880
19348SOL    HW158070   3.589  12.282   7.828
19348SOL    HW258071   3.517  12.327   7.968
19349SOL     OW58072   1.975  11.909   9.045
19349SOL    HW158073   2.063  11.896   9.090
19349SOL    HW258074   1.962  12.006   9.023
19350SOL     OW58075   2.475  12.537   8.174
19350SOL    HW158076   2.426  12.450   8.183
19350SOL    HW258077   2.452  12.580   8.087
19351SOL     OW58078   3.155  12.400   8.871
19351SOL    HW158079   3.192  12.327   8.813
19351SOL    HW258080   3.207  12.405   8.956
19352SOL     OW58081   2.671  11.176   7.950
19352SOL    HW158082   2.711  11.267   7.941
19352SOL    HW258083   2.571  11.184   7.956
19353SOL     OW58084   2.059  12.148   8.712
19353SOL    HW158085   2.148  12.103   8.698
19353SOL    HW258086   1.986  12.083   8.693
19354SOL     OW58087   3.387  12.171   7.638
19354SOL    HW158088   3.324  12.095   7.651
19354SOL    HW258089   3.435  12.189   7.724
19355SOL     OW58090   2.179  11.423   9.249
19355SOL    HW158091   2.250  11.494   9.255
19355SOL    HW258092   2.091  11.462   9.277
19356SOL     OW58093   3.328  12.589   8.401
19356SOL    HW158094   3.269  12.595   8.481
19356SOL    HW258095   3.313  12.501   8.355
19357SOL     OW58096   2.460  11.901   7.718
19357SOL    HW158097   2.484  11.970   7.650
19357SOL    HW258098   2.382  11.934   7.772
19358SOL     OW58099   3.143  11.517   8.392
19358SOL    HW158100   3.057  11.467   8.379
19358SOL    HW258101   3.205  11.463   8.448
19359SOL     OW58102   2.669  11.777   8.913
19359SOL    HW158103   2.622  11.774   9.002
19359SOL    HW258104   2.618  11.722   8.847
19360SOL     OW58105   3.256  11.641   9.122
19360SOL    HW158106   3.236  11.684   9.210
19360SOL    HW258107   3.334  11.579   9.131
19361SOL     OW58108   2.835  12.062   9.020
19361SOL    HW158109   2.881  11.978   8.991
19361SOL    HW258110   2.779  12.096   8.945
19362SOL     OW58111   2.853  11.582   8.690
19362SOL    HW158112   2.776  11.616   8.744
19362SOL    HW258113   2.819  11.531   8.611
19363SOL     OW58114   2.903  11.873   7.877
19363SOL    HW158115   2.929  11.869   7.973
19363SOL    HW258116   2.818  11.822   7.863
19364SOL     OW58117   1.938  11.983   8.237
19364SOL    HW158118   2.037  11.971   8.246
19364SOL    HW258119   1.914  12.078   8.258
19365SOL     OW58120   2.727  11.520   7.643
19365SOL    HW158121   2.786  11.583   7.594
19365SOL    HW258122   2.746  11.426   7.614
19366SOL     OW58123   3.581  11.757   9.279
19366SOL    HW158124   3.555  11.846   9.243
19366SOL    HW258125   3.579  11.689   9.206
19367SOL     OW58126   3.224  12.316   7.993
19367SOL    HW158127   3.307  12.287   7.945
19367SOL    HW258128   3.175  12.383   7.937
19368SOL     OW58129   2.412  11.368   8.333
19368SOL    HW158130   2.407  11.363   8.433
19368SOL    HW258131   2.414  11.464   8.304
19369SOL     OW58132   2.870  12.628   7.925
19369SOL    HW158133   2.824  12.700   7.873
19369SOL    HW258134   2.866  12.648   8.023
19370SOL     OW58135   3.657  12.238   8.321
19370SOL    HW158136   3.595  12.223   8.245
19370SOL    HW258137   3.605  12.249   8.406
19371SOL     OW58138   3.089  12.722   8.954
19371SOL    HW158139   3.095  12.645   9.018
19371SOL    HW258140   3.037  12.696   8.874
19372SOL     OW58141   2.183  12.115   7.690
19372SOL    HW158142   2.265  12.154   7.648
19372SOL    HW258143   2.156  12.033   7.641
19373SOL     OW58144   3.320  11.907   8.176
19373SOL    HW158145   3.315  11.842   8.251
19373SOL    HW258146   3.400  11.966   8.189
19374SOL     OW58147   2.323  12.438   9.175
19374SOL    HW158148   2.273  12.439   9.089
19374SOL    HW258149   2.260  12.420   9.251
19375SOL     OW58150   2.973  12.948   7.685
19375SOL    HW158151   2.913  12.886   7.735
19375SOL    HW258152   3.004  12.904   7.600
19376SOL     OW58153   2.064  11.457   8.946
19376SOL    HW158154   1.984  11.517   8.933
19376SOL    HW258155   2.054  11.408   9.032
19377SOL     OW58156   3.494  12.549   7.529
19377SOL    HW158157   3.462  12.643   7.519
19377SOL    HW258158   3.418  12.486   7.517
19378SOL     OW58159   3.262  11.279   7.874
19378SOL    HW158160   3.238  11.242   7.784
19378SOL    HW258161   3.361  11.295   7.878
19379SOL     OW58162   2.244  11.872   7.928
19379SOL    HW158163   2.289  11.782   7.925
19379SOL    HW258164   2.150  11.861   7.961
19380SOL     OW58165   3.409  11.394   9.177
19380SOL    HW158166   3.404  11.431   9.269
19380SOL    HW258167   3.337  11.325   9.165
19381SOL     OW58168   2.476  11.294   7.565
19381SOL    HW158169   2.574  11.272   7.572
19381SOL    HW258170   2.445  11.277   7.472
19382SOL     OW58171   2.643  11.436   9.197
19382SOL    HW158172   2.710  11.375   9.240
19382SOL    HW258173   2.570  11.455   9.262
19383SOL     OW58174   3.213  11.762   8.881
19383SOL    HW158175   3.241  11.719   8.966
19383SOL    HW258176   3.238  11.858   8.882
19384SOL     OW58177   2.665  12.574   8.372
19384SOL    HW158178   2.755  12.588   8.330
19384SOL    HW258179   2.594  12.576   8.301
19385SOL     OW58180   2.784  11.675   8.347
19385SOL    HW158181   2.759  11.666   8.251
19385SOL    HW258182   2.832  11.593   8.378
19386SOL     OW58183   2.401  11.236   7.960
19386SOL    HW158184   2.320  11.237   8.018
19386SOL    HW258185   2.404  11.319   7.905
19387SOL     OW58186   3.296  12.360   7.489
19387SOL    HW158187   3.328  12.284   7.546
19387SOL    HW258188   3.204  12.387   7.519
19388SOL     OW58189   2.159  11.207   7.619
19388SOL    HW158190   2.208  11.291   7.598
19388SOL    HW258191   2.221  11.142   7.664
19389SOL     OW58192   2.797  11.408   7.928
19389SOL    HW158193   2.749  11.449   7.850
19389SOL    HW258194   2.896  11.406   7.909
19390SOL     OW58195   2.938  11.855   8.912
19390SOL    HW158196   2.858  11.794   8.915
19390SOL    HW258197   3.019  11.802   8.888
19391SOL     OW58198   3.089  12.742   8.241
19391SOL    HW158199   3.110  12.816   8.176
19391SOL    HW258200   3.157  12.742   8.314
19392SOL     OW58201   2.321  12.324   8.189
19392SOL    HW158202   2.250  12.297   8.254
19392SOL    HW258203   2.295  12.296   8.096
19393SOL     OW58204   2.894  11.721   7.464
19393SOL    HW158205   2.853  11.803   7.425
19393SOL    HW258206   2.958  11.747   7.537
19394SOL     OW58207   1.940  11.728   8.834
19394SOL    HW158208   2.032  11.727   8.793
19394SOL    HW258209   1.934  11.802   8.901
19395SOL     OW58210   2.423  11.394   8.595
19395SOL    HW158211   2.461  11.310   8.632
19395SOL    HW258212   2.335  11.413   8.639
19396SOL     OW58213   2.728  11.626   8.090
19396SOL    HW158214   2.696  11.698   8.028
19396SOL    HW258215   2.752  11.545   8.037
19397SOL     OW58216   2.879  11.211   8.201
19397SOL    HW158217   2.807  11.216   8.132
19397SOL    HW258218   2.855  11.142   8.270
19398SOL     OW58219   3.291  12.345   8.315
19398SOL    HW158220   3.236  12.261   8.308
19398SOL    HW258221   3.317  12.374   8.223
19399SOL     OW58222   3.328  11.762   8.440
19399SOL    HW158223   3.298  11.667   8.447
19399SOL    HW258224   3.401  11.778   8.506
19400SOL     OW58225   3.719  12.005   7.825
19400SOL    HW158226   3.761  11.941   7.889
19400SOL    HW258227   3.681  11.954   7.747
19401SOL     OW58228   2.350  12.557   7.622
19401SOL    HW158229   2.263  12.542   7.669
19401SOL    HW258230   2.333  12.583   7.527
19402SOL     OW58231   3.526  12.452   8.105
19402SOL    HW158232   3.625  12.460   8.119
19402SOL    HW258233   3.481  12.536   8.136
19403SOL     OW58234   3.252  11.747   7.526
19403SOL    HW158235   3.198  11.726   7.607
19403SOL    HW258236   3.343  11.706   7.535
19404SOL     OW58237   2.389  11.428   7.776
19404SOL    HW158238   2.416  11.369   7.701
19404SOL    HW258239   2.389  11.523   7.745
19405SOL     OW58240   3.616  12.395   9.036
19405SOL    HW158241   3.707  12.356   9.023
19405SOL    HW258242   3.624  12.491   9.060
19406SOL     OW58243   2.926  12.519   8.788
19406SOL    HW158244   2.846  12.496   8.843
19406SOL    HW258245   3.009  12.493   8.837
19407SOL     OW58246   2.973  12.367   8.548
19407SOL    HW158247   2.933  12.411   8.629
19407SOL    HW258248   2.932  12.404   8.465
19408SOL     OW58249   3.500  12.271   8.527
19408SOL    HW158250   3.505  12.352   8.586
19408SOL    HW258251   3.414  12.273   8.476
19409SOL     OW58252   2.777  11.261   8.850
19409SOL    HW158253   2.802  11.241   8.755
19409SOL    HW258254   2.849  11.317   8.892
19410SOL     OW58255   2.842  12.288   9.167
19410SOL    HW158256   2.743  12.294   9.177
19410SOL    HW258257   2.865  12.208   9.111
19411SOL     OW58258   2.567  12.222   7.816
19411SOL    HW158259   2.553  12.229   7.915
19411SOL    HW258260   2.651  12.171   7.798
19412SOL     OW58261   2.272  11.985   8.699
19412SOL    HW158262   2.358  11.997   8.749
19412SOL    HW258263   2.230  11.898   8.726
19413SOL     OW58264   3.136  11.558   8.710
19413SOL    HW158265   3.157  11.632   8.774
19413SOL    HW258266   3.047  11.575   8.667
19414SOL     OW58267   2.229  12.272   7.949
19414SOL    HW158268   2.222  12.355   7.893
19414SOL    HW258269   2.233  12.192   7.889
19415SOL     OW58270   2.428  11.709   8.313
19415SOL    HW158271   2.440  11.775   8.239
19415SOL    HW258272   2.474  11.743   8.396
19416SOL     OW58273   3.114  12.520   7.836
19416SOL    HW158274   3.164  12.597   7.876
19416SOL    HW258275   3.019  12.522   7.868
19417SOL     OW58276   3.134  12.617   8.590
19417SOL    HW158277   3.181  12.630   8.677
19417SOL    HW258278   3.068  12.543   8.599
19418SOL     OW58279   3.444  11.811   7.920
19418SOL    HW158280   3.413  11.872   7.993
19418SOL    HW258281   3.494  11.863   7.851
19419SOL     OW58282   2.216  12.682   8.777
19419SOL    HW158283   2.195  12.638   8.690
19419SOL    HW258284   2.313  12.708   8.780
19420SOL     OW58285   2.264  11.923   9.046
19420SOL    HW158286   2.332  11.978   8.999
19420SOL    HW258287   2.304  11.835   9.073
19421SOL     OW58288   3.449  11.951   9.118
19421SOL    HW158289   3.357  11.989   9.113
19421SOL    HW258290   3.509  11.998   9.053
19422SOL     OW58291   2.875  11.277   9.218
19422SOL    HW158292   2.881  11.362   9.166
19422SOL    HW258293   2.907  11.201   9.161
19423SOL     OW58294   2.366  11.222   9.188
19423SOL    HW158295   2.324  11.165   9.118
19423SOL    HW258296   2.300  11.291   9.220
19424SOL     OW58297   2.435  12.042   8.477
19424SOL    HW158298   2.479  12.131   8.468
19424SOL    HW258299   2.372  12.042   8.554
19425SOL     OW58300   3.222  12.034   8.493
19425SOL    HW158301   3.147  12.034   8.427
19425SOL    HW258302   3.259  11.942   8.502
19426SOL     OW58303   3.071  11.697   7.723
19426SOL    HW158304   3.084  11.613   7.777
19426SOL    HW258305   3.042  11.771   7.783
19427SOL     OW58306   2.169  11.385   8.679
19427SOL    HW158307   2.146  11.422   8.769
19427SOL    HW258308   2.139  11.290   8.673
19428SOL     OW58309   1.899  12.482   8.730
19428SOL    HW158310   1.952  12.433   8.798
19428SOL    HW258311   1.921  12.580   8.735
19429SOL     OW58312   2.594  11.806   8.512
19429SOL    HW158313   2.653  11.780   8.436
19429SOL    HW258314   2.566  11.902   8.501
19430SOL     OW58315   3.590  12.107   9.302
19430SOL    HW158316   3.544  12.100   9.213
19430SOL    HW258317   3.528  12.151   9.368
19431SOL     OW58318   2.169  11.235   8.066
19431SOL    HW158319   2.158  11.329   8.099
19431SOL    HW258320   2.164  11.172   8.143
19432SOL     OW58321   3.484  11.539   7.822
19432SOL    HW158322   3.486  11.463   7.886
19432SOL    HW258323   3.436  11.616   7.862
19433SOL     OW58324   2.885  11.938   8.414
19433SOL    HW158325   2.900  11.959   8.510
19433SOL    HW258326   2.855  11.843   8.405
19434SOL     OW58327   3.721  12.690   9.053
19434SOL    HW158328   3.735  12.717   8.958
19434SOL    HW258329   3.804  12.712   9.106
19435SOL     OW58330   2.212  12.070   9.252
19435SOL    HW158331   2.288  12.114   9.300
19435SOL    HW258332   2.247  12.023   9.170
19436SOL     OW58333   3.402  11.446   7.573
19436SOL    HW158334   3.341  11.371   7.596
19436SOL    HW258335   3.424  11.498   7.656
19437SOL     OW58336   3.165  12.010   7.490
19437SOL    HW158337   3.199  11.917   7.505
19437SOL    HW258338   3.183  12.037   7.395
19438SOL     OW58339   2.930  12.505   8.297
19438SOL    HW158340   2.937  12.421   8.242
19438SOL    HW258341   2.992  12.574   8.261
19439SOL     OW58342   2.181  11.982   8.397
19439SOL    HW158343   2.274  12.018   8.402
19439SOL    HW258344   2.175  11.897   8.449
19440SOL     OW58345   2.201  11.681   8.454
19440SOL    HW158346   2.149  11.598   8.437
19440SOL    HW258347   2.278  11.686   8.390
19441SOL     OW58348   3.000  11.552   9.126
19441SOL    HW158349   2.955  11.615   9.190
19441SOL    HW258350   3.093  11.583   9.109
19442SOL     OW58351   3.022  11.379   8.925
19442SOL    HW158352   3.022  11.443   9.002
19442SOL    HW258353   3.050  11.427   8.842
19443SOL     OW58354   1.870  12.498   7.648
19443SOL    HW158355   1.777  12.519   7.617
19443SOL    HW258356   1.880  12.399   7.661
19444SOL     OW58357   2.864  11.968   8.686
19444SOL    HW158358   2.905  11.936   8.772
19444SOL    HW258359   2.768  11.941   8.683
19445SOL     OW58360   1.902  11.716   8.562
19445SOL    HW158361   1.987  11.683   8.521
19445SOL    HW258362   1.915  11.731   8.660
19446SOL     OW58363   2.051  11.692   9.170
19446SOL    HW158364   2.110  11.652   9.100
19446SOL    HW258365   1.993  11.763   9.129
19447SOL     OW58366   3.231  12.122   9.108
19447SOL    HW158367   3.270  12.211   9.128
19447SOL    HW258368   3.241  12.102   9.011
19448SOL     OW58369   2.677  11.744   7.773
19448SOL    HW158370   2.684  11.655   7.727
19448SOL    HW258371   2.583  11.778   7.765
19449SOL     OW58372   3.519  11.776   8.654
19449SOL    HW158373   3.481  11.707   8.716
19449SOL    HW258374   3.601  11.740   8.610
19450SOL     OW58375   2.114  12.736   9.192
19450SOL    HW158376   2.084  12.793   9.268
19450SOL    HW258377   2.107  12.639   9.218
19451SOL     OW58378   2.533  11.636   8.717
19451SOL    HW158379   2.499  11.547   8.687
19451SOL    HW258380   2.559  11.690   8.637
19452SOL     OW58381   2.335  11.672   7.639
19452SOL    HW158382   2.396  11.752   7.643
19452SOL    HW258383   2.240  11.703   7.646
19453SOL     OW58384   2.021  12.309   8.914
19453SOL    HW158385   2.043  12.248   8.990
19453SOL    HW258386   2.031  12.260   8.828
19454SOL     OW58387   3.209  12.231   8.682
19454SOL    HW158388   3.233  12.168   8.608
19454SOL    HW258389   3.119  12.271   8.664
19455SOL     OW58390   3.164  12.027   7.757
19455SOL    HW158391   3.078  11.996   7.799
19455SOL    HW258392   3.160  12.013   7.658
19456SOL     OW58393   1.945  12.430   8.470
19456SOL    HW158394   1.940  12.429   8.570
19456SOL    HW258395   1.862  12.389   8.432
19457SOL     OW58396   3.588  11.307   7.971
19457SOL    HW158397   3.661  11.290   7.904
19457SOL    HW258398   3.557  11.220   8.009
19458SOL     OW58399   3.142  12.099   8.120
19458SOL    HW158400   3.202  12.018   8.122
19458SOL    HW258401   3.182  12.168   8.060
19459SOL     OW58402   2.692  12.445   8.870
19459SOL    HW158403   2.687  12.478   8.965
19459SOL    HW258404   2.606  12.464   8.824
19460SOL     OW58405   3.703  11.347   8.411
19460SOL    HW158406   3.742  11.262   8.375
19460SOL    HW258407   3.605  11.349   8.392
19461SOL     OW58408   2.125  11.498   8.168
19461SOL    HW158409   2.046  11.549   8.134
19461SOL    HW258410   2.116  11.483   8.266
19462SOL     OW58411   2.684  12.174   8.820
19462SOL    HW158412   2.724  12.173   8.728
19462SOL    HW258413   2.694  12.266   8.860
19463SOL     OW58414   2.778  12.082   7.739
19463SOL    HW158415   2.841  12.120   7.671
19463SOL    HW258416   2.818  11.999   7.778
19464SOL     OW58417   2.234  12.460   8.938
19464SOL    HW158418   2.221  12.553   8.904
19464SOL    HW258419   2.150  12.408   8.925
19465SOL     OW58420   3.476  12.464   8.737
19465SOL    HW158421   3.536  12.467   8.817
19465SOL    HW258422   3.401  12.528   8.750
19466SOL     OW58423   2.901  12.270   8.144
19466SOL    HW158424   2.831  12.223   8.198
19466SOL    HW258425   2.960  12.202   8.101
19467SOL     OW58426   2.876  11.408   8.419
19467SOL    HW158427   2.868  11.372   8.326
19467SOL    HW258428   2.874  11.332   8.484
19468SOL     OW58429   3.571  11.557   8.829
19468SOL    HW158430   3.644  11.626   8.833
19468SOL    HW258431   3.599  11.482   8.770
19469SOL     OW58432   2.117  12.520   7.738
19469SOL    HW158433   2.021  12.521   7.711
19469SOL    HW258434   2.129  12.573   7.822
19470SOL     OW58435   1.967  12.185   9.174
19470SOL    HW158436   1.890  12.152   9.228
19470SOL    HW258437   2.052  12.155   9.216
19471SOL     OW58438   2.534  11.375   8.937
19471SOL    HW158439   2.624  11.359   8.897
19471SOL    HW258440   2.542  11.380   9.036
19472SOL     OW58441   1.937  11.517   7.481
19472SOL    HW158442   1.845  11.489   7.452
19472SOL    HW258443   1.968  11.594   7.425
19473SOL     OW58444   3.302  12.028   8.846
19473SOL    HW158445   3.245  12.080   8.783
19473SOL    HW258446   3.398  12.040   8.822
19474SOL     OW58447   1.934  11.338   7.766
19474SOL    HW158448   1.917  11.421   7.712
19474SOL    HW258449   2.024  11.301   7.744
19475SOL     OW58450   3.045  12.507   7.567
19475SOL    HW158451   2.946  12.496   7.569
19475SOL    HW258452   3.079  12.522   7.660
19476SOL     OW58453   2.475  12.014   8.879
19476SOL    HW158454   2.531  12.095   8.862
19476SOL    HW258455   2.534  11.934   8.882
19477SOL     OW58456   2.578  11.737   9.156
19477SOL    HW158457   2.597  11.802   9.230
19477SOL    HW258458   2.638  11.657   9.165
19478SOL     OW58459   3.312  12.392   9.081
19478SOL    HW158460   3.303  12.382   9.180
19478SOL    HW258461   3.408  12.385   9.055
19479SOL     OW58462   3.536  12.055   8.702
19479SOL    HW158463   3.509  11.966   8.665
19479SOL    HW258464   3.537  12.123   8.629
19480SOL     OW58465   3.087  11.497   7.897
19480SOL    HW158466   3.152  11.423   7.886
19480SOL    HW258467   3.107  11.547   7.981
19481SOL     OW58468   2.456  11.917   8.100
19481SOL    HW158469   2.506  12.002   8.081
19481SOL    HW258470   2.368  11.919   8.052
19482SOL     OW58471   3.639  11.514   9.090
19482SOL    HW158472   3.622  11.545   8.996
19482SOL    HW258473   3.555  11.477   9.128
19483SOL     OW58474   3.592  12.106   8.965
19483SOL    HW158475   3.630  12.197   8.980
19483SOL    HW258476   3.584  12.089   8.866
19484SOL     OW58477   2.721  12.546   7.464
19484SOL    HW158478   2.675  12.561   7.552
19484SOL    HW258479   2.765  12.631   7.434
19485SOL     OW58480   2.721  12.128   8.309
19485SOL    HW158481   2.775  12.059   8.357
19485SOL    HW258482   2.689  12.197   8.375
19486SOL     OW58483   2.945  12.156   7.535
19486SOL    HW158484   2.922  12.209   7.453
19486SOL    HW258485   3.026  12.100   7.516
19487SOL     OW58486   2.083  12.486   9.292
19487SOL    HW158487   2.018  12.413   9.271
19487SOL    HW258488   2.087  12.500   9.390
19488SOL     OW58489   1.941  12.412   8.101
19488SOL    HW158490   1.940  12.365   8.189
19488SOL    HW258491   2.023  12.384   8.050
19489SOL     OW58492   2.534  12.563   9.072
19489SOL    HW158493   2.456  12.513   9.110
19489SOL    HW258494   2.531  12.658   9.103
19490SOL     OW58495   3.686  11.364   8.675
19490SOL    HW158496   3.682  11.274   8.719
19490SOL    HW258497   3.689  11.353   8.576
19491SOL     OW58498   2.290  11.596   7.968
19491SOL    HW158499   2.320  11.524   7.906
19491SOL    HW258500   2.251  11.556   8.051
19492SOL     OW58501   3.567  12.659   8.552
19492SOL    HW158502   3.474  12.634   8.525
19492SOL    HW258503   3.593  12.609   8.634
19493SOL     OW58504   2.179  11.719   8.728
19493SOL    HW158505   2.217  11.660   8.800
19493SOL    HW258506   2.219  11.693   8.640
19494SOL     OW58507   3.286  11.386   8.560
19494SOL    HW158508   3.338  11.321   8.615
19494SOL    HW258509   3.237  11.449   8.621
19495SOL     OW58510   2.863  11.206   8.602
19495SOL    HW158511   2.800  11.134   8.571
19495SOL    HW258512   2.956  11.170   8.602
19496SOL     OW58513   2.632  12.502   7.749
19496SOL    HW158514   2.586  12.415   7.766
19496SOL    HW258515   2.723  12.499   7.790
19497SOL     OW58516   2.480  12.739   8.732
19497SOL    HW158517   2.475  12.821   8.789
19497SOL    HW258518   2.569  12.736   8.687
19498SOL     OW58519   3.214  11.224   7.616
19498SOL    HW158520   3.249  11.183   7.532
19498SOL    HW258521   3.124  11.186   7.636
19499SOL     OW58522   3.162  11.625   8.139
19499SOL    HW158523   3.103  11.705   8.143
19499SOL    HW258524   3.177  11.590   8.232
19500SOL     OW58525   3.455  11.393   8.330
19500SOL    HW158526   3.371  11.392   8.384
19500SOL    HW258527   3.457  11.476   8.274
19501SOL     OW58528   1.901  12.249   7.748
19501SOL    HW158529   2.000  12.238   7.739
19501SOL    HW258530   1.861  12.163   7.780
19502SOL     OW58531   2.092  11.800   9.423
19502SOL    HW158532   1.999  11.798   9.460
19502SOL    HW258533   2.093  11.761   9.331
19503SOL     OW58534   2.087  11.447  10.306
19503SOL    HW158535   2.122  11.430  10.398
19503SOL    HW258536   1.999  11.402  10.294
19504SOL     OW58537   1.881  11.540   9.957
19504SOL    HW158538   1.799  11.583   9.996
19504SOL    HW258539   1.853  11.467   9.894
19505SOL     OW58540   2.431  12.447  10.475
19505SOL    HW158541   2.338  12.440  10.438
19505SOL    HW258542   2.442  12.536  10.519
19506SOL     OW58543   3.417  12.683  10.013
19506SOL    HW158544   3.360  12.667  10.094
19506SOL    HW258545   3.358  12.693   9.933
19507SOL     OW58546   2.997  11.875  10.027
19507SOL    HW158547   3.054  11.953  10.002
19507SOL    HW258548   2.937  11.901  10.103
19508SOL     OW58549   3.617  11.779   9.541
19508SOL    HW158550   3.605  11.766   9.442
19508SOL    HW258551   3.587  11.698   9.590
19509SOL     OW58552   2.630  12.316  10.333
19509SOL    HW158553   2.552  12.333  10.393
19509SOL    HW258554   2.664  12.403  10.297
19510SOL     OW58555   2.712  11.970  11.133
19510SOL    HW158556   2.708  12.046  11.198
19510SOL    HW258557   2.734  12.006  11.042
19511SOL     OW58558   2.547  12.184   9.975
19511SOL    HW158559   2.616  12.168  10.045
19511SOL    HW258560   2.474  12.241  10.013
19512SOL     OW58561   2.548  12.333  11.113
19512SOL    HW158562   2.608  12.412  11.127
19512SOL    HW258563   2.462  12.364  11.072
19513SOL     OW58564   2.197  12.607  10.371
19513SOL    HW158565   2.119  12.576  10.318
19513SOL    HW258566   2.255  12.665  10.314
19514SOL     OW58567   3.322  12.677  10.649
19514SOL    HW158568   3.346  12.771  10.675
19514SOL    HW258569   3.306  12.623  10.731
19515SOL     OW58570   2.300  11.564  10.809
19515SOL    HW158571   2.382  11.508  10.818
19515SOL    HW258572   2.219  11.506  10.813
19516SOL     OW58573   3.465  11.619  10.047
19516SOL    HW158574   3.391  11.665   9.997
19516SOL    HW258575   3.516  11.687  10.100
19517SOL     OW58576   2.093  12.885   9.793
19517SOL    HW158577   2.127  12.962   9.847
19517SOL    HW258578   2.137  12.885   9.703
19518SOL     OW58579   2.989  12.513  11.000
19518SOL    HW158580   3.036  12.513  11.088
19518SOL    HW258581   2.941  12.426  10.989
19519SOL     OW58582   2.092  12.606   9.848
19519SOL    HW158583   2.066  12.702   9.848
19519SOL    HW258584   2.021  12.552   9.893
19520SOL     OW58585   2.102  12.263  10.196
19520SOL    HW158586   2.116  12.179  10.248
19520SOL    HW258587   2.047  12.327  10.251
19521SOL     OW58588   2.468  12.136   9.433
19521SOL    HW158589   2.475  12.220   9.379
19521SOL    HW258590   2.514  12.149   9.521
19522SOL     OW58591   3.456  11.286  10.790
19522SOL    HW158592   3.438  11.353  10.718
19522SOL    HW258593   3.453  11.332  10.879
19523SOL     OW58594   1.984  11.815   9.873
19523SOL    HW158595   1.939  11.727   9.890
19523SOL    HW258596   1.983  11.869   9.957
19524SOL     OW58597   1.889  12.768   9.427
19524SOL    HW158598   1.870  12.672   9.448
19524SOL    HW258599   1.856  12.826   9.502
19525SOL     OW58600   3.551  12.094   9.922
19525SOL    HW158601   3.646  12.065   9.930
19525SOL    HW258602   3.543  12.159   9.847
19526SOL     OW58603   3.503  12.280   9.742
19526SOL    HW158604   3.589  12.282   9.690
19526SOL    HW258605   3.517  12.327   9.830
19527SOL     OW58606   1.975  11.909  10.907
19527SOL    HW158607   2.063  11.896  10.952
19527SOL    HW258608   1.962  12.006  10.885
19528SOL     OW58609   2.475  12.537  10.036
19528SOL    HW158610   2.426  12.450  10.045
19528SOL    HW258611   2.452  12.580   9.949
19529SOL     OW58612   3.155  12.400  10.733
19529SOL    HW158613   3.192  12.327  10.675
19529SOL    HW258614   3.207  12.405  10.818
19530SOL     OW58615   2.671  11.176   9.812
19530SOL    HW158616   2.711  11.267   9.803
19530SOL    HW258617   2.571  11.184   9.818
19531SOL     OW58618   2.059  12.148  10.574
19531SOL    HW158619   2.148  12.103  10.560
19531SOL    HW258620   1.986  12.083  10.555
19532SOL     OW58621   3.387  12.171   9.500
19532SOL    HW158622   3.324  12.095   9.513
19532SOL    HW258623   3.435  12.189   9.586
19533SOL     OW58624   2.179  11.423  11.111
19533SOL    HW158625   2.250  11.494  11.117
19533SOL    HW258626   2.091  11.462  11.139
19534SOL     OW58627   3.328  12.589  10.263
19534SOL    HW158628   3.269  12.595  10.343
19534SOL    HW258629   3.313  12.501  10.217
19535SOL     OW58630   2.460  11.901   9.580
19535SOL    HW158631   2.484  11.970   9.512
19535SOL    HW258632   2.382  11.934   9.634
19536SOL     OW58633   3.143  11.517  10.254
19536SOL    HW158634   3.057  11.467  10.241
19536SOL    HW258635   3.205  11.463  10.310
19537SOL     OW58636   2.669  11.777  10.775
19537SOL    HW158637   2.622  11.774  10.864
19537SOL    HW258638   2.618  11.722  10.709
19538SOL     OW58639   3.256  11.641  10.984
19538SOL    HW158640   3.236  11.684  11.072
19538SOL    HW258641   3.334  11.579  10.993
19539SOL     OW58642   2.835  12.062  10.882
19539SOL    HW158643   2.881  11.978  10.853
19539SOL    HW258644   2.779  12.096  10.807
19540SOL     OW58645   2.853  11.582  10.552
19540SOL    HW158646   2.776  11.616  10.606
19540SOL    HW258647   2.819  11.531  10.473
19541SOL     OW58648   2.903  11.873   9.739
19541SOL    HW158649   2.929  11.869   9.835
19541SOL    HW258650   2.818  11.822   9.725
19542SOL     OW58651   1.938  11.983  10.099
19542SOL    HW158652   2.037  11.971  10.108
19542SOL    HW258653   1.914  12.078  10.120
19543SOL     OW58654   2.727  11.520   9.505
19543SOL    HW158655   2.786  11.583   9.456
19543SOL    HW258656   2.746  11.426   9.476
19544SOL     OW58657   3.581  11.757  11.141
19544SOL    HW158658   3.555  11.846  11.105
19544SOL    HW258659   3.579  11.689  11.068
19545SOL     OW58660   3.224  12.316   9.855
19545SOL    HW158661   3.307  12.287   9.807
19545SOL    HW258662   3.175  12.383   9.799
19546SOL     OW58663   2.412  11.368  10.195
19546SOL    HW158664   2.407  11.363  10.295
19546SOL    HW258665   2.414  11.464  10.166
19547SOL     OW58666   2.870  12.628   9.787
19547SOL    HW158667   2.824  12.700   9.735
19547SOL    HW258668   2.866  12.648   9.885
19548SOL     OW58669   3.657  12.238  10.183
19548SOL    HW158670   3.595  12.223  10.107
19548SOL    HW258671   3.605  12.249  10.268
19549SOL     OW58672   3.089  12.722  10.816
19549SOL    HW158673   3.095  12.645  10.880
19549SOL    HW258674   3.037  12.696  10.736
19550SOL     OW58675   2.183  12.115   9.552
19550SOL    HW158676   2.265  12.154   9.510
19550SOL    HW258677   2.156  12.033   9.503
19551SOL     OW58678   3.320  11.907  10.038
19551SOL    HW158679   3.315  11.842  10.113
19551SOL    HW258680   3.400  11.966  10.051
19552SOL     OW58681   2.323  12.438  11.037
19552SOL    HW158682   2.273  12.439  10.951
19552SOL    HW258683   2.260  12.420  11.113
19553SOL     OW58684   2.973  12.948   9.547
19553SOL    HW158685   2.913  12.886   9.597
19553SOL    HW258686   3.004  12.904   9.462
19554SOL     OW58687   2.064  11.457  10.808
19554SOL    HW158688   1.984  11.517  10.795
19554SOL    HW258689   2.054  11.408  10.894
19555SOL     OW58690   3.494  12.549   9.391
19555SOL    HW158691   3.462  12.643   9.381
19555SOL    HW258692   3.418  12.486   9.379
19556SOL     OW58693   3.262  11.279   9.736
19556SOL    HW158694   3.238  11.242   9.646
19556SOL    HW258695   3.361  11.295   9.740
19557SOL     OW58696   2.244  11.872   9.790
19557SOL    HW158697   2.289  11.782   9.787
19557SOL    HW258698   2.150  11.861   9.823
19558SOL     OW58699   3.409  11.394  11.039
19558SOL    HW158700   3.404  11.431  11.131
19558SOL    HW258701   3.337  11.325  11.027
19559SOL     OW58702   2.476  11.294   9.427
19559SOL    HW158703   2.574  11.272   9.434
19559SOL    HW258704   2.445  11.277   9.334
19560SOL     OW58705   2.643  11.436  11.059
19560SOL    HW158706   2.710  11.375  11.102
19560SOL    HW258707   2.570  11.455  11.124
19561SOL     OW58708   3.213  11.762  10.743
19561SOL    HW158709   3.241  11.719  10.828
19561SOL    HW258710   3.238  11.858  10.744
19562SOL     OW58711   2.665  12.574  10.234
19562SOL    HW158712   2.755  12.588  10.192
19562SOL    HW258713   2.594  12.576  10.163
19563SOL     OW58714   2.784  11.675  10.209
19563SOL    HW158715   2.759  11.666  10.113
19563SOL    HW258716   2.832  11.593  10.240
19564SOL     OW58717   2.401  11.236   9.822
19564SOL    HW158718   2.320  11.237   9.880
19564SOL    HW258719   2.404  11.319   9.767
19565SOL     OW58720   3.296  12.360   9.351
19565SOL    HW158721   3.328  12.284   9.408
19565SOL    HW258722   3.204  12.387   9.381
19566SOL     OW58723   2.159  11.207   9.481
19566SOL    HW158724   2.208  11.291   9.460
19566SOL    HW258725   2.221  11.142   9.526
19567SOL     OW58726   2.797  11.408   9.790
19567SOL    HW158727   2.749  11.449   9.712
19567SOL    HW258728   2.896  11.406   9.771
19568SOL     OW58729   2.938  11.855  10.774
19568SOL    HW158730   2.858  11.794  10.777
19568SOL    HW258731   3.019  11.802  10.750
19569SOL     OW58732   3.089  12.742  10.103
19569SOL    HW158733   3.110  12.816  10.038
19569SOL    HW258734   3.157  12.742  10.176
19570SOL     OW58735   2.321  12.324  10.051
19570SOL    HW158736   2.250  12.297  10.116
19570SOL    HW258737   2.295  12.296   9.958
19571SOL     OW58738   2.894  11.721   9.326
19571SOL    HW158739   2.853  11.803   9.287
19571SOL    HW258740   2.958  11.747   9.399
19572SOL     OW58741   1.940  11.728  10.696
19572SOL    HW158742   2.032  11.727  10.655
19572SOL    HW258743   1.934  11.802  10.763
19573SOL     OW58744   2.423  11.394  10.457
19573SOL    HW158745   2.461  11.310  10.494
19573SOL    HW258746   2.335  11.413  10.501
19574SOL     OW58747   2.728  11.626   9.952
19574SOL    HW158748   2.696  11.698   9.890
19574SOL    HW258749   2.752  11.545   9.899
19575SOL     OW58750   2.879  11.211  10.063
19575SOL    HW158751   2.807  11.216   9.994
19575SOL    HW258752   2.855  11.142  10.132
19576SOL     OW58753   3.291  12.345  10.177
19576SOL    HW158754   3.236  12.261  10.170
19576SOL    HW258755   3.317  12.374  10.085
19577SOL     OW58756   3.328  11.762  10.302
19577SOL    HW158757   3.298  11.667  10.309
19577SOL    HW258758   3.401  11.778  10.368
19578SOL     OW58759   3.719  12.005   9.687
19578SOL    HW158760   3.761  11.941   9.751
19578SOL    HW258761   3.681  11.954   9.609
19579SOL     OW58762   2.350  12.557   9.484
19579SOL    HW158763   2.263  12.542   9.531
19579SOL    HW258764   2.333  12.583   9.389
19580SOL     OW58765   3.526  12.452   9.967
19580SOL    HW158766   3.625  12.460   9.981
19580SOL    HW258767   3.481  12.536   9.998
19581SOL     OW58768   3.252  11.747   9.388
19581SOL    HW158769   3.198  11.726   9.469
19581SOL    HW258770   3.343  11.706   9.397
19582SOL     OW58771   2.389  11.428   9.638
19582SOL    HW158772   2.416  11.369   9.563
19582SOL    HW258773   2.389  11.523   9.607
19583SOL     OW58774   3.616  12.395  10.898
19583SOL    HW158775   3.707  12.356  10.885
19583SOL    HW258776   3.624  12.491  10.922
19584SOL     OW58777   2.926  12.519  10.650
19584SOL    HW158778   2.846  12.496  10.705
19584SOL    HW258779   3.009  12.493  10.699
19585SOL     OW58780   2.973  12.367  10.410
19585SOL    HW158781   2.933  12.411  10.491
19585SOL    HW258782   2.932  12.404  10.327
19586SOL     OW58783   3.500  12.271  10.389
19586SOL    HW158784   3.505  12.352  10.448
19586SOL    HW258785   3.414  12.273  10.338
19587SOL     OW58786   2.777  11.261  10.712
19587SOL    HW158787   2.802  11.241  10.617
19587SOL    HW258788   2.849  11.317  10.754
19588SOL     OW58789   2.842  12.288  11.029
19588SOL    HW158790   2.743  12.294  11.039
19588SOL    HW258791   2.865  12.208  10.973
19589SOL     OW58792   2.567  12.222   9.678
19589SOL    HW158793   2.553  12.229   9.777
19589SOL    HW258794   2.651  12.171   9.660
19590SOL     OW58795   2.272  11.985  10.561
19590SOL    HW158796   2.358  11.997  10.611
19590SOL    HW258797   2.230  11.898  10.588
19591SOL     OW58798   3.136  11.558  10.572
19591SOL    HW158799   3.157  11.632  10.636
19591SOL    HW258800   3.047  11.575  10.529
19592SOL     OW58801   2.229  12.272   9.811
19592SOL    HW158802   2.222  12.355   9.755
19592SOL    HW258803   2.233  12.192   9.751
19593SOL     OW58804   2.428  11.709  10.175
19593SOL    HW158805   2.440  11.775  10.101
19593SOL    HW258806   2.474  11.743  10.258
19594SOL     OW58807   3.114  12.520   9.698
19594SOL    HW158808   3.164  12.597   9.738
19594SOL    HW258809   3.019  12.522   9.730
19595SOL     OW58810   3.134  12.617  10.452
19595SOL    HW158811   3.181  12.630  10.539
19595SOL    HW258812   3.068  12.543  10.461
19596SOL     OW58813   3.444  11.811   9.782
19596SOL    HW158814   3.413  11.872   9.855
19596SOL    HW258815   3.494  11.863   9.713
19597SOL     OW58816   2.216  12.682  10.639
19597SOL    HW158817   2.195  12.638  10.552
19597SOL    HW258818   2.313  12.708  10.642
19598SOL     OW58819   2.264  11.923  10.908
19598SOL    HW158820   2.332  11.978  10.861
19598SOL    HW258821   2.304  11.835  10.935
19599SOL     OW58822   3.449  11.951  10.980
19599SOL    HW158823   3.357  11.989  10.975
19599SOL    HW258824   3.509  11.998  10.915
19600SOL     OW58825   2.875  11.277  11.080
19600SOL    HW158826   2.881  11.362  11.028
19600SOL    HW258827   2.907  11.201  11.023
19601SOL     OW58828   2.366  11.222  11.050
19601SOL    HW158829   2.324  11.165  10.980
19601SOL    HW258830   2.300  11.291  11.082
19602SOL     OW58831   2.435  12.042  10.339
19602SOL    HW158832   2.479  12.131  10.330
19602SOL    HW258833   2.372  12.042  10.416
19603SOL     OW58834   3.222  12.034  10.355
19603SOL    HW158835   3.147  12.034  10.289
19603SOL    HW258836   3.259  11.942  10.364
19604SOL     OW58837   3.071  11.697   9.585
19604SOL    HW158838   3.084  11.613   9.639
19604SOL    HW258839   3.042  11.771   9.645
19605SOL     OW58840   2.169  11.385  10.541
19605SOL    HW158841   2.146  11.422  10.631
19605SOL    HW258842   2.139  11.290  10.535
19606SOL     OW58843   1.899  12.482  10.592
19606SOL    HW158844   1.952  12.433  10.660
19606SOL    HW258845   1.921  12.580  10.597
19607SOL     OW58846   2.594  11.806  10.374
19607SOL    HW158847   2.653  11.780  10.298
19607SOL    HW258848   2.566  11.902  10.363
19608SOL     OW58849   3.590  12.107  11.164
19608SOL    HW158850   3.544  12.100  11.075
19608SOL    HW258851   3.528  12.151  11.230
19609SOL     OW58852   2.169  11.235   9.928
19609SOL    HW158853   2.158  11.329   9.961
19609SOL    HW258854   2.164  11.172  10.005
19610SOL     OW58855   3.484  11.539   9.684
19610SOL    HW158856   3.486  11.463   9.748
19610SOL    HW258857   3.436  11.616   9.724
19611SOL     OW58858   2.885  11.938  10.276
19611SOL    HW158859   2.900  11.959  10.372
19611SOL    HW258860   2.855  11.843  10.267
19612SOL     OW58861   3.721  12.690  10.915
19612SOL    HW158862   3.735  12.717  10.820
19612SOL    HW258863   3.804  12.712  10.968
19613SOL     OW58864   2.212  12.070  11.114
19613SOL    HW158865   2.288  12.114  11.162
19613SOL    HW258866   2.247  12.023  11.032
19614SOL     OW58867   3.402  11.446   9.435
19614SOL    HW158868   3.341  11.371   9.458
19614SOL    HW258869   3.424  11.498   9.518
19615SOL     OW58870   3.165  12.010   9.352
19615SOL    HW158871   3.199  11.917   9.367
19615SOL    HW258872   3.183  12.037   9.257
19616SOL     OW58873   2.930  12.505  10.159
19616SOL    HW158874   2.937  12.421  10.104
19616SOL    HW258875   2.992  12.574  10.123
19617SOL     OW58876   2.181  11.982  10.259
19617SOL    HW158877   2.274  12.018  10.264
19617SOL    HW258878   2.175  11.897  10.311
19618SOL     OW58879   2.201  11.681  10.316
19618SOL    HW158880   2.149  11.598  10.299
19618SOL    HW258881   2.278  11.686  10.252
19619SOL     OW58882   3.000  11.552  10.988
19619SOL    HW158883   2.955  11.615  11.052
19619SOL    HW258884   3.093  11.583  10.971
19620SOL     OW58885   3.022  11.379  10.787
19620SOL    HW158886   3.022  11.443  10.864
19620SOL    HW258887   3.050  11.427  10.704
19621SOL     OW58888   1.870  12.498   9.510
19621SOL    HW158889   1.777  12.519   9.479
19621SOL    HW258890   1.880  12.399   9.523
19622SOL     OW58891   2.864  11.968  10.548
19622SOL    HW158892   2.905  11.936  10.634
19622SOL    HW258893   2.768  11.941  10.545
19623SOL     OW58894   1.902  11.716  10.424
19623SOL    HW158895   1.987  11.683  10.383
19623SOL    HW258896   1.915  11.731  10.522
19624SOL     OW58897   2.051  11.692  11.032
19624SOL    HW158898   2.110  11.652  10.962
19624SOL    HW258899   1.993  11.763  10.991
19625SOL     OW58900   3.231  12.122  10.970
19625SOL    HW158901   3.270  12.211  10.990
19625SOL    HW258902   3.241  12.102  10.873
19626SOL     OW58903   2.677  11.744   9.635
19626SOL    HW158904   2.684  11.655   9.589
19626SOL    HW258905   2.583  11.778   9.627
19627SOL     OW58906   3.519  11.776  10.516
19627SOL    HW158907   3.481  11.707  10.578
19627SOL    HW258908   3.601  11.740  10.472
19628SOL     OW58909   2.114  12.736  11.054
19628SOL    HW158910   2.084  12.793  11.130
19628SOL    HW258911   2.107  12.639  11.080
19629SOL     OW58912   2.533  11.636  10.579
19629SOL    HW158913   2.499  11.547  10.549
19629SOL    HW258914   2.559  11.690  10.499
19630SOL     OW58915   2.335  11.672   9.501
19630SOL    HW158916   2.396  11.752   9.505
19630SOL    HW258917   2.240  11.703   9.508
19631SOL     OW58918   2.021  12.309  10.776
19631SOL    HW158919   2.043  12.248  10.852
19631SOL    HW258920   2.031  12.260  10.690
19632SOL     OW58921   3.209  12.231  10.544
19632SOL    HW158922   3.233  12.168  10.470
19632SOL    HW258923   3.119  12.271  10.526
19633SOL     OW58924   3.164  12.027   9.619
19633SOL    HW158925   3.078  11.996   9.661
19633SOL    HW258926   3.160  12.013   9.520
19634SOL     OW58927   1.945  12.430  10.332
19634SOL    HW158928   1.940  12.429  10.432
19634SOL    HW258929   1.862  12.389  10.294
19635SOL     OW58930   3.588  11.307   9.833
19635SOL    HW158931   3.661  11.290   9.766
19635SOL    HW258932   3.557  11.220   9.871
19636SOL     OW58933   3.142  12.099   9.982
19636SOL    HW158934   3.202  12.018   9.984
19636SOL    HW258935   3.182  12.168   9.922
19637SOL     OW58936   2.692  12.445  10.732
19637SOL    HW158937   2.687  12.478  10.827
19637SOL    HW258938   2.606  12.464  10.686
19638SOL     OW58939   3.703  11.347  10.273
19638SOL    HW158940   3.742  11.262  10.237
19638SOL    HW258941   3.605  11.349  10.254
19639SOL     OW58942   2.125  11.498  10.030
19639SOL    HW158943   2.046  11.549   9.996
19639SOL    HW258944   2.116  11.483  10.128
19640SOL     OW58945   2.684  12.174  10.682
19640SOL    HW158946   2.724  12.173  10.590
19640SOL    HW258947   2.694  12.266  10.722
19641SOL     OW58948   2.778  12.082   9.601
19641SOL    HW158949   2.841  12.120   9.533
19641SOL    HW258950   2.818  11.999   9.640
19642SOL     OW58951   2.234  12.460  10.800
19642SOL    HW158952   2.221  12.553  10.766
19642SOL    HW258953   2.150  12.408  10.787
19643SOL     OW58954   3.476  12.464  10.599
19643SOL    HW158955   3.536  12.467  10.679
19643SOL    HW258956   3.401  12.528  10.612
19644SOL     OW58957   2.901  12.270  10.006
19644SOL    HW158958   2.831  12.223  10.060
19644SOL    HW258959   2.960  12.202   9.963
19645SOL     OW58960   2.876  11.408  10.281
19645SOL    HW158961   2.868  11.372  10.188
19645SOL    HW258962   2.874  11.332  10.346
19646SOL     OW58963   3.571  11.557  10.691
19646SOL    HW158964   3.644  11.626  10.695
19646SOL    HW258965   3.599  11.482  10.632
19647SOL     OW58966   2.117  12.520   9.600
19647SOL    HW158967   2.021  12.521   9.573
19647SOL    HW258968   2.129  12.573   9.684
19648SOL     OW58969   1.967  12.185  11.036
19648SOL    HW158970   1.890  12.152  11.090
19648SOL    HW258971   2.052  12.155  11.078
19649SOL     OW58972   2.534  11.375  10.799
19649SOL    HW158973   2.624  11.359  10.759
19649SOL    HW258974   2.542  11.380  10.898
19650SOL     OW58975   1.937  11.517   9.343
19650SOL    HW158976   1.845  11.489   9.314
19650SOL    HW258977   1.968  11.594   9.287
19651SOL     OW58978   3.302  12.028  10.708
19651SOL    HW158979   3.245  12.080  10.645
19651SOL    HW258980   3.398  12.040  10.684
19652SOL     OW58981   1.934  11.338   9.628
19652SOL    HW158982   1.917  11.421   9.574
19652SOL    HW258983   2.024  11.301   9.606
19653SOL     OW58984   3.045  12.507   9.429
19653SOL    HW158985   2.946  12.496   9.431
19653SOL    HW258986   3.079  12.522   9.522
19654SOL     OW58987   2.475  12.014  10.741
19654SOL    HW158988   2.531  12.095  10.724
19654SOL    HW258989   2.534  11.934  10.744
19655SOL     OW58990   2.578  11.737  11.018
19655SOL    HW158991   2.597  11.802  11.092
19655SOL    HW258992   2.638  11.657  11.027
19656SOL     OW58993   3.312  12.392  10.943
19656SOL    HW158994   3.303  12.382  11.042
19656SOL    HW258995   3.408  12.385  10.917
19657SOL     OW58996   3.536  12.055  10.564
19657SOL    HW158997   3.509  11.966  10.527
19657SOL    HW258998   3.537  12.123  10.491
19658SOL     OW58999   3.087  11.497   9.759
19658SOL    HW159000   3.152  11.423   9.748
19658SOL    HW259001   3.107  11.547   9.843
19659SOL     OW59002   2.456  11.917   9.962
19659SOL    HW159003   2.506  12.002   9.943
19659SOL    HW259004   2.368  11.919   9.914
19660SOL     OW59005   3.639  11.514  10.952
19660SOL    HW159006   3.622  11.545  10.858
19660SOL    HW259007   3.555  11.477  10.990
19661SOL     OW59008   3.592  12.106  10.827
19661SOL    HW159009   3.630  12.197  10.842
19661SOL    HW259010   3.584  12.089  10.728
19662SOL     OW59011   2.721  12.546   9.326
19662SOL    HW159012   2.675  12.561   9.414
19662SOL    HW259013   2.765  12.631   9.296
19663SOL     OW59014   2.721  12.128  10.171
19663SOL    HW159015   2.775  12.059  10.219
19663SOL    HW259016   2.689  12.197  10.237
19664SOL     OW59017   2.945  12.156   9.397
19664SOL    HW159018   2.922  12.209   9.315
19664SOL    HW259019   3.026  12.100   9.378
19665SOL     OW59020   2.083  12.486  11.154
19665SOL    HW159021   2.018  12.413  11.133
19665SOL    HW259022   2.087  12.500  11.252
19666SOL     OW59023   1.941  12.412   9.963
19666SOL    HW159024   1.940  12.365  10.051
19666SOL    HW259025   2.023  12.384   9.912
19667SOL     OW59026   2.534  12.563  10.934
19667SOL    HW159027   2.456  12.513  10.972
19667SOL    HW259028   2.531  12.658  10.965
19668SOL     OW59029   3.686  11.364  10.537
19668SOL    HW159030   3.682  11.274  10.581
19668SOL    HW259031   3.689  11.353  10.438
19669SOL     OW59032   2.290  11.596   9.830
19669SOL    HW159033   2.320  11.524   9.768
19669SOL    HW259034   2.251  11.556   9.913
19670SOL     OW59035   3.567  12.659  10.414
19670SOL    HW159036   3.474  12.634  10.387
19670SOL    HW259037   3.593  12.609  10.496
19671SOL     OW59038   2.179  11.719  10.590
19671SOL    HW159039   2.217  11.660  10.662
19671SOL    HW259040   2.219  11.693  10.502
19672SOL     OW59041   3.286  11.386  10.422
19672SOL    HW159042   3.338  11.321  10.477
19672SOL    HW259043   3.237  11.449  10.483
19673SOL     OW59044   2.863  11.206  10.464
19673SOL    HW159045   2.800  11.134  10.433
19673SOL    HW259046   2.956  11.170  10.464
19674SOL     OW59047   2.632  12.502   9.611
19674SOL    HW159048   2.586  12.415   9.628
19674SOL    HW259049   2.723  12.499   9.652
19675SOL     OW59050   2.480  12.739  10.594
19675SOL    HW159051   2.475  12.821  10.651
19675SOL    HW259052   2.569  12.736  10.549
19676SOL     OW59053   3.214  11.224   9.478
19676SOL    HW159054   3.249  11.183   9.394
19676SOL    HW259055   3.124  11.186   9.498
19677SOL     OW59056   3.162  11.625  10.001
19677SOL    HW159057   3.103  11.705  10.005
19677SOL    HW259058   3.177  11.590  10.094
19678SOL     OW59059   3.455  11.393  10.192
19678SOL    HW159060   3.371  11.392  10.246
19678SOL    HW259061   3.457  11.476  10.136
19679SOL     OW59062   1.901  12.249   9.610
19679SOL    HW159063   2.000  12.238   9.601
19679SOL    HW259064   1.861  12.163   9.642
19680SOL     OW59065   2.092  11.800  11.285
19680SOL    HW159066   1.999  11.798  11.322
19680SOL    HW259067   2.093  11.761  11.193
19681SOL     OW59068   2.087  11.447  12.168
19681SOL    HW159069   2.122  11.430  12.260
19681SOL    HW259070   1.999  11.402  12.156
19682SOL     OW59071   1.881  11.540  11.819
19682SOL    HW159072   1.799  11.583  11.858
19682SOL    HW259073   1.853  11.467  11.756
19683SOL     OW59074   2.431  12.447  12.337
19683SOL    HW159075   2.338  12.440  12.300
19683SOL    HW259076   2.442  12.536  12.381
19684SOL     OW59077   3.417  12.683  11.875
19684SOL    HW159078   3.360  12.667  11.956
19684SOL    HW259079   3.358  12.693  11.795
19685SOL     OW59080   2.997  11.875  11.889
19685SOL    HW159081   3.054  11.953  11.864
19685SOL    HW259082   2.937  11.901  11.965
19686SOL     OW59083   3.617  11.779  11.403
19686SOL    HW159084   3.605  11.766  11.304
19686SOL    HW259085   3.587  11.698  11.452
19687SOL     OW59086   2.630  12.316  12.195
19687SOL    HW159087   2.552  12.333  12.255
19687SOL    HW259088   2.664  12.403  12.159
19688SOL     OW59089   2.547  12.184  11.837
19688SOL    HW159090   2.616  12.168  11.907
19688SOL    HW259091   2.474  12.241  11.875
19689SOL     OW59092   2.197  12.607  12.233
19689SOL    HW159093   2.119  12.576  12.180
19689SOL    HW259094   2.255  12.665  12.176
19690SOL     OW59095   3.322  12.677  12.511
19690SOL    HW159096   3.346  12.771  12.537
19690SOL    HW259097   3.306  12.623  12.593
19691SOL     OW59098   2.300  11.564  12.671
19691SOL    HW159099   2.382  11.508  12.680
19691SOL    HW259100   2.219  11.506  12.675
19692SOL     OW59101   3.465  11.619  11.909
19692SOL    HW159102   3.391  11.665  11.859
19692SOL    HW259103   3.516  11.687  11.962
19693SOL     OW59104   2.093  12.885  11.655
19693SOL    HW159105   2.127  12.962  11.709
19693SOL    HW259106   2.137  12.885  11.565
19694SOL     OW59107   2.092  12.606  11.710
19694SOL    HW159108   2.066  12.702  11.710
19694SOL    HW259109   2.021  12.552  11.755
19695SOL     OW59110   2.102  12.263  12.058
19695SOL    HW159111   2.116  12.179  12.110
19695SOL    HW259112   2.047  12.327  12.113
19696SOL     OW59113   2.468  12.136  11.295
19696SOL    HW159114   2.475  12.220  11.241
19696SOL    HW259115   2.514  12.149  11.383
19697SOL     OW59116   3.456  11.286  12.652
19697SOL    HW159117   3.438  11.353  12.580
19697SOL    HW259118   3.453  11.332  12.741
19698SOL     OW59119   1.984  11.815  11.735
19698SOL    HW159120   1.939  11.727  11.752
19698SOL    HW259121   1.983  11.869  11.819
19699SOL     OW59122   1.889  12.768  11.289
19699SOL    HW159123   1.870  12.672  11.310
19699SOL    HW259124   1.856  12.826  11.364
19700SOL     OW59125   3.551  12.094  11.784
19700SOL    HW159126   3.646  12.065  11.792
19700SOL    HW259127   3.543  12.159  11.709
19701SOL     OW59128   3.503  12.280  11.604
19701SOL    HW159129   3.589  12.282  11.552
19701SOL    HW259130   3.517  12.327  11.692
19702SOL     OW59131   2.475  12.537  11.898
19702SOL    HW159132   2.426  12.450  11.907
19702SOL    HW259133   2.452  12.580  11.811
19703SOL     OW59134   2.671  11.176  11.674
19703SOL    HW159135   2.711  11.267  11.665
19703SOL    HW259136   2.571  11.184  11.680
19704SOL     OW59137   2.059  12.148  12.436
19704SOL    HW159138   2.148  12.103  12.422
19704SOL    HW259139   1.986  12.083  12.417
19705SOL     OW59140   3.387  12.171  11.362
19705SOL    HW159141   3.324  12.095  11.375
19705SOL    HW259142   3.435  12.189  11.448
19706SOL     OW59143   2.179  11.423  12.973
19706SOL    HW159144   2.250  11.494  12.979
19706SOL    HW259145   2.091  11.462  13.001
19707SOL     OW59146   3.328  12.589  12.125
19707SOL    HW159147   3.269  12.595  12.205
19707SOL    HW259148   3.313  12.501  12.079
19708SOL     OW59149   2.460  11.901  11.442
19708SOL    HW159150   2.484  11.970  11.374
19708SOL    HW259151   2.382  11.934  11.496
19709SOL     OW59152   3.143  11.517  12.116
19709SOL    HW159153   3.057  11.467  12.103
19709SOL    HW259154   3.205  11.463  12.172
19710SOL     OW59155   2.669  11.777  12.637
19710SOL    HW159156   2.622  11.774  12.726
19710SOL    HW259157   2.618  11.722  12.571
19711SOL     OW59158   2.853  11.582  12.414
19711SOL    HW159159   2.776  11.616  12.468
19711SOL    HW259160   2.819  11.531  12.335
19712SOL     OW59161   2.903  11.873  11.601
19712SOL    HW159162   2.929  11.869  11.697
19712SOL    HW259163   2.818  11.822  11.587
19713SOL     OW59164   1.938  11.983  11.961
19713SOL    HW159165   2.037  11.971  11.970
19713SOL    HW259166   1.914  12.078  11.982
19714SOL     OW59167   2.727  11.520  11.367
19714SOL    HW159168   2.786  11.583  11.318
19714SOL    HW259169   2.746  11.426  11.338
19715SOL     OW59170   3.224  12.316  11.717
19715SOL    HW159171   3.307  12.287  11.669
19715SOL    HW259172   3.175  12.383  11.661
19716SOL     OW59173   2.412  11.368  12.057
19716SOL    HW159174   2.407  11.363  12.157
19716SOL    HW259175   2.414  11.464  12.028
19717SOL     OW59176   2.870  12.628  11.649
19717SOL    HW159177   2.824  12.700  11.597
19717SOL    HW259178   2.866  12.648  11.747
19718SOL     OW59179   3.657  12.238  12.045
19718SOL    HW159180   3.595  12.223  11.969
19718SOL    HW259181   3.605  12.249  12.130
19719SOL     OW59182   2.183  12.115  11.414
19719SOL    HW159183   2.265  12.154  11.372
19719SOL    HW259184   2.156  12.033  11.365
19720SOL     OW59185   3.320  11.907  11.900
19720SOL    HW159186   3.315  11.842  11.975
19720SOL    HW259187   3.400  11.966  11.913
19721SOL     OW59188   2.973  12.948  11.409
19721SOL    HW159189   2.913  12.886  11.459
19721SOL    HW259190   3.004  12.904  11.324
19722SOL     OW59191   2.064  11.457  12.670
19722SOL    HW159192   1.984  11.517  12.657
19722SOL    HW259193   2.054  11.408  12.756
19723SOL     OW59194   3.494  12.549  11.253
19723SOL    HW159195   3.462  12.643  11.243
19723SOL    HW259196   3.418  12.486  11.241
19724SOL     OW59197   3.262  11.279  11.598
19724SOL    HW159198   3.238  11.242  11.508
19724SOL    HW259199   3.361  11.295  11.602
19725SOL     OW59200   2.244  11.872  11.652
19725SOL    HW159201   2.289  11.782  11.649
19725SOL    HW259202   2.150  11.861  11.685
19726SOL     OW59203   2.476  11.294  11.289
19726SOL    HW159204   2.574  11.272  11.296
19726SOL    HW259205   2.445  11.277  11.196
19727SOL     OW59206   2.665  12.574  12.096
19727SOL    HW159207   2.755  12.588  12.054
19727SOL    HW259208   2.594  12.576  12.025
19728SOL     OW59209   2.784  11.675  12.071
19728SOL    HW159210   2.759  11.666  11.975
19728SOL    HW259211   2.832  11.593  12.102
19729SOL     OW59212   2.401  11.236  11.684
19729SOL    HW159213   2.320  11.237  11.742
19729SOL    HW259214   2.404  11.319  11.629
19730SOL     OW59215   3.296  12.360  11.213
19730SOL    HW159216   3.328  12.284  11.270
19730SOL    HW259217   3.204  12.387  11.243
19731SOL     OW59218   2.159  11.207  11.343
19731SOL    HW159219   2.208  11.291  11.322
19731SOL    HW259220   2.221  11.142  11.388
19732SOL     OW59221   2.797  11.408  11.652
19732SOL    HW159222   2.749  11.449  11.574
19732SOL    HW259223   2.896  11.406  11.633
19733SOL     OW59224   3.089  12.742  11.965
19733SOL    HW159225   3.110  12.816  11.900
19733SOL    HW259226   3.157  12.742  12.038
19734SOL     OW59227   2.321  12.324  11.913
19734SOL    HW159228   2.250  12.297  11.978
19734SOL    HW259229   2.295  12.296  11.820
19735SOL     OW59230   2.894  11.721  11.188
19735SOL    HW159231   2.853  11.803  11.149
19735SOL    HW259232   2.958  11.747  11.261
19736SOL     OW59233   1.940  11.728  12.558
19736SOL    HW159234   2.032  11.727  12.517
19736SOL    HW259235   1.934  11.802  12.625
19737SOL     OW59236   2.423  11.394  12.319
19737SOL    HW159237   2.461  11.310  12.356
19737SOL    HW259238   2.335  11.413  12.363
19738SOL     OW59239   2.728  11.626  11.814
19738SOL    HW159240   2.696  11.698  11.752
19738SOL    HW259241   2.752  11.545  11.761
19739SOL     OW59242   2.879  11.211  11.925
19739SOL    HW159243   2.807  11.216  11.856
19739SOL    HW259244   2.855  11.142  11.994
19740SOL     OW59245   3.291  12.345  12.039
19740SOL    HW159246   3.236  12.261  12.032
19740SOL    HW259247   3.317  12.374  11.947
19741SOL     OW59248   3.328  11.762  12.164
19741SOL    HW159249   3.298  11.667  12.171
19741SOL    HW259250   3.401  11.778  12.230
19742SOL     OW59251   3.719  12.005  11.549
19742SOL    HW159252   3.761  11.941  11.613
19742SOL    HW259253   3.681  11.954  11.471
19743SOL     OW59254   2.350  12.557  11.346
19743SOL    HW159255   2.263  12.542  11.393
19743SOL    HW259256   2.333  12.583  11.251
19744SOL     OW59257   3.526  12.452  11.829
19744SOL    HW159258   3.625  12.460  11.843
19744SOL    HW259259   3.481  12.536  11.860
19745SOL     OW59260   3.252  11.747  11.250
19745SOL    HW159261   3.198  11.726  11.331
19745SOL    HW259262   3.343  11.706  11.259
19746SOL     OW59263   2.389  11.428  11.500
19746SOL    HW159264   2.416  11.369  11.425
19746SOL    HW259265   2.389  11.523  11.469
19747SOL     OW59266   2.926  12.519  12.512
19747SOL    HW159267   2.846  12.496  12.567
19747SOL    HW259268   3.009  12.493  12.561
19748SOL     OW59269   2.973  12.367  12.272
19748SOL    HW159270   2.933  12.411  12.353
19748SOL    HW259271   2.932  12.404  12.189
19749SOL     OW59272   3.500  12.271  12.251
19749SOL    HW159273   3.505  12.352  12.310
19749SOL    HW259274   3.414  12.273  12.200
19750SOL     OW59275   2.777  11.261  12.574
19750SOL    HW159276   2.802  11.241  12.479
19750SOL    HW259277   2.849  11.317  12.616
19751SOL     OW59278   2.567  12.222  11.540
19751SOL    HW159279   2.553  12.229  11.639
19751SOL    HW259280   2.651  12.171  11.522
19752SOL     OW59281   2.272  11.985  12.423
19752SOL    HW159282   2.358  11.997  12.473
19752SOL    HW259283   2.230  11.898  12.450
19753SOL     OW59284   3.136  11.558  12.434
19753SOL    HW159285   3.157  11.632  12.498
19753SOL    HW259286   3.047  11.575  12.391
19754SOL     OW59287   2.229  12.272  11.673
19754SOL    HW159288   2.222  12.355  11.617
19754SOL    HW259289   2.233  12.192  11.613
19755SOL     OW59290   2.428  11.709  12.037
19755SOL    HW159291   2.440  11.775  11.963
19755SOL    HW259292   2.474  11.743  12.120
19756SOL     OW59293   3.114  12.520  11.560
19756SOL    HW159294   3.164  12.597  11.600
19756SOL    HW259295   3.019  12.522  11.592
19757SOL     OW59296   3.134  12.617  12.314
19757SOL    HW159297   3.181  12.630  12.401
19757SOL    HW259298   3.068  12.543  12.323
19758SOL     OW59299   3.444  11.811  11.644
19758SOL    HW159300   3.413  11.872  11.717
19758SOL    HW259301   3.494  11.863  11.575
19759SOL     OW59302   2.216  12.682  12.501
19759SOL    HW159303   2.195  12.638  12.414
19759SOL    HW259304   2.313  12.708  12.504
19760SOL     OW59305   2.264  11.923  12.770
19760SOL    HW159306   2.332  11.978  12.723
19760SOL    HW259307   2.304  11.835  12.797
19761SOL     OW59308   3.449  11.951  12.842
19761SOL    HW159309   3.357  11.989  12.837
19761SOL    HW259310   3.509  11.998  12.777
19762SOL     OW59311   2.435  12.042  12.201
19762SOL    HW159312   2.479  12.131  12.192
19762SOL    HW259313   2.372  12.042  12.278
19763SOL     OW59314   3.222  12.034  12.217
19763SOL    HW159315   3.147  12.034  12.151
19763SOL    HW259316   3.259  11.942  12.226
19764SOL     OW59317   3.071  11.697  11.447
19764SOL    HW159318   3.084  11.613  11.501
19764SOL    HW259319   3.042  11.771  11.507
19765SOL     OW59320   2.169  11.385  12.403
19765SOL    HW159321   2.146  11.422  12.493
19765SOL    HW259322   2.139  11.290  12.397
19766SOL     OW59323   1.899  12.482  12.454
19766SOL    HW159324   1.952  12.433  12.522
19766SOL    HW259325   1.921  12.580  12.459
19767SOL     OW59326   2.594  11.806  12.236
19767SOL    HW159327   2.653  11.780  12.160
19767SOL    HW259328   2.566  11.902  12.225
19768SOL     OW59329   2.169  11.235  11.790
19768SOL    HW159330   2.158  11.329  11.823
19768SOL    HW259331   2.164  11.172  11.867
19769SOL     OW59332   3.484  11.539  11.546
19769SOL    HW159333   3.486  11.463  11.610
19769SOL    HW259334   3.436  11.616  11.586
19770SOL     OW59335   2.885  11.938  12.138
19770SOL    HW159336   2.900  11.959  12.234
19770SOL    HW259337   2.855  11.843  12.129
19771SOL     OW59338   3.402  11.446  11.297
19771SOL    HW159339   3.341  11.371  11.320
19771SOL    HW259340   3.424  11.498  11.380
19772SOL     OW59341   3.165  12.010  11.214
19772SOL    HW159342   3.199  11.917  11.229
19772SOL    HW259343   3.183  12.037  11.119
19773SOL     OW59344   2.930  12.505  12.021
19773SOL    HW159345   2.937  12.421  11.966
19773SOL    HW259346   2.992  12.574  11.985
19774SOL     OW59347   2.181  11.982  12.121
19774SOL    HW159348   2.274  12.018  12.126
19774SOL    HW259349   2.175  11.897  12.173
19775SOL     OW59350   2.201  11.681  12.178
19775SOL    HW159351   2.149  11.598  12.161
19775SOL    HW259352   2.278  11.686  12.114
19776SOL     OW59353   3.000  11.552  12.850
19776SOL    HW159354   2.955  11.615  12.914
19776SOL    HW259355   3.093  11.583  12.833
19777SOL     OW59356   3.022  11.379  12.649
19777SOL    HW159357   3.022  11.443  12.726
19777SOL    HW259358   3.050  11.427  12.566
19778SOL     OW59359   1.870  12.498  11.372
19778SOL    HW159360   1.777  12.519  11.341
19778SOL    HW259361   1.880  12.399  11.385
19779SOL     OW59362   2.864  11.968  12.410
19779SOL    HW159363   2.905  11.936  12.496
19779SOL    HW259364   2.768  11.941  12.407
19780SOL     OW59365   1.902  11.716  12.286
19780SOL    HW159366   1.987  11.683  12.245
19780SOL    HW259367   1.915  11.731  12.384
19781SOL     OW59368   2.677  11.744  11.497
19781SOL    HW159369   2.684  11.655  11.451
19781SOL    HW259370   2.583  11.778  11.489
19782SOL     OW59371   3.519  11.776  12.378
19782SOL    HW159372   3.481  11.707  12.440
19782SOL    HW259373   3.601  11.740  12.334
19783SOL     OW59374   2.533  11.636  12.441
19783SOL    HW159375   2.499  11.547  12.411
19783SOL    HW259376   2.559  11.690  12.361
19784SOL     OW59377   2.335  11.672  11.363
19784SOL    HW159378   2.396  11.752  11.367
19784SOL    HW259379   2.240  11.703  11.370
19785SOL     OW59380   2.021  12.309  12.638
19785SOL    HW159381   2.043  12.248  12.714
19785SOL    HW259382   2.031  12.260  12.552
19786SOL     OW59383   3.209  12.231  12.406
19786SOL    HW159384   3.233  12.168  12.332
19786SOL    HW259385   3.119  12.271  12.388
19787SOL     OW59386   3.164  12.027  11.481
19787SOL    HW159387   3.078  11.996  11.523
19787SOL    HW259388   3.160  12.013  11.382
19788SOL     OW59389   1.945  12.430  12.194
19788SOL    HW159390   1.940  12.429  12.294
19788SOL    HW259391   1.862  12.389  12.156
19789SOL     OW59392   3.588  11.307  11.695
19789SOL    HW159393   3.661  11.290  11.628
19789SOL    HW259394   3.557  11.220  11.733
19790SOL     OW59395   3.142  12.099  11.844
19790SOL    HW159396   3.202  12.018  11.846
19790SOL    HW259397   3.182  12.168  11.784
19791SOL     OW59398   3.703  11.347  12.135
19791SOL    HW159399   3.742  11.262  12.099
19791SOL    HW259400   3.605  11.349  12.116
19792SOL     OW59401   2.125  11.498  11.892
19792SOL    HW159402   2.046  11.549  11.858
19792SOL    HW259403   2.116  11.483  11.990
19793SOL     OW59404   2.684  12.174  12.544
19793SOL    HW159405   2.724  12.173  12.452
19793SOL    HW259406   2.694  12.266  12.584
19794SOL     OW59407   2.778  12.082  11.463
19794SOL    HW159408   2.841  12.120  11.395
19794SOL    HW259409   2.818  11.999  11.502
19795SOL     OW59410   2.234  12.460  12.662
19795SOL    HW159411   2.221  12.553  12.628
19795SOL    HW259412   2.150  12.408  12.649
19796SOL     OW59413   3.476  12.464  12.461
19796SOL    HW159414   3.536  12.467  12.541
19796SOL    HW259415   3.401  12.528  12.474
19797SOL     OW59416   2.901  12.270  11.868
19797SOL    HW159417   2.831  12.223  11.922
19797SOL    HW259418   2.960  12.202  11.825
19798SOL     OW59419   2.876  11.408  12.143
19798SOL    HW159420   2.868  11.372  12.050
19798SOL    HW259421   2.874  11.332  12.208
19799SOL     OW59422   3.571  11.557  12.553
19799SOL    HW159423   3.644  11.626  12.557
19799SOL    HW259424   3.599  11.482  12.494
19800SOL     OW59425   2.117  12.520  11.462
19800SOL    HW159426   2.021  12.521  11.435
19800SOL    HW259427   2.129  12.573  11.546
19801SOL     OW59428   1.937  11.517  11.205
19801SOL    HW159429   1.845  11.489  11.176
19801SOL    HW259430   1.968  11.594  11.149
19802SOL     OW59431   3.302  12.028  12.570
19802SOL    HW159432   3.245  12.080  12.507
19802SOL    HW259433   3.398  12.040  12.546
19803SOL     OW59434   1.934  11.338  11.490
19803SOL    HW159435   1.917  11.421  11.436
19803SOL    HW259436   2.024  11.301  11.468
19804SOL     OW59437   3.045  12.507  11.291
19804SOL    HW159438   2.946  12.496  11.293
19804SOL    HW259439   3.079  12.522  11.384
19805SOL     OW59440   2.475  12.014  12.603
19805SOL    HW159441   2.531  12.095  12.586
19805SOL    HW259442   2.534  11.934  12.606
19806SOL     OW59443   3.536  12.055  12.426
19806SOL    HW159444   3.509  11.966  12.389
19806SOL    HW259445   3.537  12.123  12.353
19807SOL     OW59446   3.087  11.497  11.621
19807SOL    HW159447   3.152  11.423  11.610
19807SOL    HW259448   3.107  11.547  11.705
19808SOL     OW59449   2.456  11.917  11.824
19808SOL    HW159450   2.506  12.002  11.805
19808SOL    HW259451   2.368  11.919  11.776
19809SOL     OW59452   3.639  11.514  12.814
19809SOL    HW159453   3.622  11.545  12.720
19809SOL    HW259454   3.555  11.477  12.852
19810SOL     OW59455   3.592  12.106  12.689
19810SOL    HW159456   3.630  12.197  12.704
19810SOL    HW259457   3.584  12.089  12.590
19811SOL     OW59458   2.721  12.546  11.188
19811SOL    HW159459   2.675  12.561  11.276
19811SOL    HW259460   2.765  12.631  11.158
19812SOL     OW59461   2.721  12.128  12.033
19812SOL    HW159462   2.775  12.059  12.081
19812SOL    HW259463   2.689  12.197  12.099
19813SOL     OW59464   2.945  12.156  11.259
19813SOL    HW159465   2.922  12.209  11.177
19813SOL    HW259466   3.026  12.100  11.240
19814SOL     OW59467   1.941  12.412  11.825
19814SOL    HW159468   1.940  12.365  11.913
19814SOL    HW259469   2.023  12.384  11.774
19815SOL     OW59470   3.686  11.364  12.399
19815SOL    HW159471   3.682  11.274  12.443
19815SOL    HW259472   3.689  11.353  12.300
19816SOL     OW59473   2.290  11.596  11.692
19816SOL    HW159474   2.320  11.524  11.630
19816SOL    HW259475   2.251  11.556  11.775
19817SOL     OW59476   3.567  12.659  12.276
19817SOL    HW159477   3.474  12.634  12.249
19817SOL    HW259478   3.593  12.609  12.358
19818SOL     OW59479   2.179  11.719  12.452
19818SOL    HW159480   2.217  11.660  12.524
19818SOL    HW259481   2.219  11.693  12.364
19819SOL     OW59482   3.286  11.386  12.284
19819SOL    HW159483   3.338  11.321  12.339
19819SOL    HW259484   3.237  11.449  12.345
19820SOL     OW59485   2.863  11.206  12.326
19820SOL    HW159486   2.800  11.134  12.295
19820SOL    HW259487   2.956  11.170  12.326
19821SOL     OW59488   2.632  12.502  11.473
19821SOL    HW159489   2.586  12.415  11.490
19821SOL    HW259490   2.723  12.499  11.514
19822SOL     OW59491   2.480  12.739  12.456
19822SOL    HW159492   2.475  12.821  12.513
19822SOL    HW259493   2.569  12.736  12.411
19823SOL     OW59494   3.214  11.224  11.340
19823SOL    HW159495   3.249  11.183  11.256
19823SOL    HW259496   3.124  11.186  11.360
19824SOL     OW59497   3.162  11.625  11.863
19824SOL    HW159498   3.103  11.705  11.867
19824SOL    HW259499   3.177  11.590  11.956
19825SOL     OW59500   3.455  11.393  12.054
19825SOL    HW159501   3.371  11.392  12.108
19825SOL    HW259502   3.457  11.476  11.998
19826SOL     OW59503   1.901  12.249  11.472
19826SOL    HW159504   2.000  12.238  11.463
19826SOL    HW259505   1.861  12.163  11.504
19827SOL     OW59506   3.954   0.628   0.113
19827SOL    HW159507   3.861   0.626   0.150
19827SOL    HW259508   3.955   0.589   0.021
19828SOL     OW59509   3.949   0.275   0.996
19828SOL    HW159510   3.984   0.258   1.088
19828SOL    HW259511   3.861   0.230   0.984
19829SOL     OW59512   3.743   0.368   0.647
19829SOL    HW159513   3.661   0.411   0.686
19829SOL    HW259514   3.715   0.295   0.584
19830SOL     OW59515   4.293   1.275   1.165
19830SOL    HW159516   4.200   1.268   1.128
19830SOL    HW259517   4.304   1.364   1.209
19831SOL     OW59518   5.279   1.511   0.703
19831SOL    HW159519   5.222   1.495   0.784
19831SOL    HW259520   5.220   1.521   0.623
19832SOL     OW59521   4.859   0.703   0.717
19832SOL    HW159522   4.916   0.781   0.692
19832SOL    HW259523   4.799   0.729   0.793
19833SOL     OW59524   5.479   0.607   0.231
19833SOL    HW159525   5.467   0.594   0.132
19833SOL    HW259526   5.449   0.526   0.280
19834SOL     OW59527   4.492   1.144   1.023
19834SOL    HW159528   4.414   1.161   1.083
19834SOL    HW259529   4.526   1.231   0.987
19835SOL     OW59530   4.574   0.798   1.823
19835SOL    HW159531   4.570   0.874   1.888
19835SOL    HW259532   4.596   0.834   1.732
19836SOL     OW59533   4.409   1.012   0.665
19836SOL    HW159534   4.478   0.996   0.735
19836SOL    HW259535   4.336   1.069   0.703
19837SOL     OW59536   4.410   1.161   1.803
19837SOL    HW159537   4.470   1.240   1.817
19837SOL    HW259538   4.324   1.192   1.762
19838SOL     OW59539   4.059   1.435   1.061
19838SOL    HW159540   3.981   1.404   1.008
19838SOL    HW259541   4.117   1.493   1.004
19839SOL     OW59542   5.184   1.505   1.339
19839SOL    HW159543   5.208   1.599   1.365
19839SOL    HW259544   5.168   1.451   1.421
19840SOL     OW59545   4.162   0.392   1.499
19840SOL    HW159546   4.244   0.336   1.508
19840SOL    HW259547   4.081   0.334   1.503
19841SOL     OW59548   5.327   0.447   0.737
19841SOL    HW159549   5.253   0.493   0.687
19841SOL    HW259550   5.378   0.515   0.790
19842SOL     OW59551   3.955   1.713   0.483
19842SOL    HW159552   3.989   1.790   0.537
19842SOL    HW259553   3.999   1.713   0.393
19843SOL     OW59554   4.851   1.341   1.690
19843SOL    HW159555   4.898   1.341   1.778
19843SOL    HW259556   4.803   1.254   1.679
19844SOL     OW59557   3.954   1.434   0.538
19844SOL    HW159558   3.928   1.530   0.538
19844SOL    HW259559   3.883   1.380   0.583
19845SOL     OW59560   3.964   1.091   0.886
19845SOL    HW159561   3.978   1.007   0.938
19845SOL    HW259562   3.909   1.155   0.941
19846SOL     OW59563   4.344   1.786   1.439
19846SOL    HW159564   4.252   1.769   1.474
19846SOL    HW259565   4.372   1.878   1.465
19847SOL     OW59566   4.330   0.964   0.123
19847SOL    HW159567   4.337   1.048   0.069
19847SOL    HW259568   4.376   0.977   0.211
19848SOL     OW59569   5.318   0.114   1.480
19848SOL    HW159570   5.300   0.181   1.408
19848SOL    HW259571   5.315   0.160   1.569
19849SOL     OW59572   3.846   0.643   0.563
19849SOL    HW159573   3.801   0.555   0.580
19849SOL    HW259574   3.845   0.697   0.647
19850SOL     OW59575   5.566   1.767   0.359
19850SOL    HW159576   5.620   1.738   0.439
19850SOL    HW259577   5.596   1.857   0.330
19851SOL     OW59578   3.751   1.596   0.117
19851SOL    HW159579   3.732   1.500   0.138
19851SOL    HW259580   3.718   1.654   0.192
19852SOL     OW59581   5.413   0.922   0.612
19852SOL    HW159582   5.508   0.893   0.620
19852SOL    HW259583   5.405   0.987   0.537
19853SOL     OW59584   5.365   1.108   0.432
19853SOL    HW159585   5.451   1.110   0.380
19853SOL    HW259586   5.379   1.155   0.520
19854SOL     OW59587   3.837   0.737   1.597
19854SOL    HW159588   3.925   0.724   1.642
19854SOL    HW259589   3.824   0.834   1.575
19855SOL     OW59590   4.337   1.365   0.726
19855SOL    HW159591   4.288   1.278   0.735
19855SOL    HW259592   4.314   1.408   0.639
19856SOL     OW59593   5.017   1.228   1.423
19856SOL    HW159594   5.054   1.155   1.365
19856SOL    HW259595   5.069   1.233   1.508
19857SOL     OW59596   4.533   0.004   0.502
19857SOL    HW159597   4.573   0.095   0.493
19857SOL    HW259598   4.433   0.012   0.508
19858SOL     OW59599   3.921   0.976   1.264
19858SOL    HW159600   4.010   0.931   1.250
19858SOL    HW259601   3.848   0.911   1.245
19859SOL     OW59602   5.249   0.999   0.190
19859SOL    HW159603   5.186   0.923   0.203
19859SOL    HW259604   5.297   1.017   0.276
19860SOL     OW59605   4.911   1.792   1.616
19860SOL    HW159606   4.935   1.852   1.540
19860SOL    HW259607   4.918   1.697   1.586
19861SOL     OW59608   4.041   0.251   1.801
19861SOL    HW159609   4.112   0.322   1.807
19861SOL    HW259610   3.953   0.290   1.829
19862SOL     OW59611   5.190   1.417   0.953
19862SOL    HW159612   5.131   1.423   1.033
19862SOL    HW259613   5.175   1.329   0.907
19863SOL     OW59614   5.391   1.714   0.572
19863SOL    HW159615   5.350   1.691   0.484
19863SOL    HW259616   5.373   1.640   0.637
19864SOL     OW59617   4.322   0.729   0.270
19864SOL    HW159618   4.346   0.798   0.202
19864SOL    HW259619   4.244   0.762   0.324
19865SOL     OW59620   5.005   0.345   0.944
19865SOL    HW159621   4.919   0.295   0.931
19865SOL    HW259622   5.067   0.291   1.000
19866SOL     OW59623   5.300   1.662   0.307
19866SOL    HW159624   5.389   1.708   0.310
19866SOL    HW259625   5.279   1.638   0.212
19867SOL     OW59626   4.531   0.605   1.465
19867SOL    HW159627   4.484   0.602   1.554
19867SOL    HW259628   4.480   0.550   1.399
19868SOL     OW59629   5.118   0.469   1.674
19868SOL    HW159630   5.098   0.512   1.762
19868SOL    HW259631   5.196   0.407   1.683
19869SOL     OW59632   4.697   0.890   1.572
19869SOL    HW159633   4.743   0.806   1.543
19869SOL    HW259634   4.641   0.924   1.497
19870SOL     OW59635   4.715   0.410   1.242
19870SOL    HW159636   4.638   0.444   1.296
19870SOL    HW259637   4.681   0.359   1.163
19871SOL     OW59638   4.765   0.701   0.429
19871SOL    HW159639   4.791   0.697   0.525
19871SOL    HW259640   4.680   0.650   0.415
19872SOL     OW59641   3.800   0.811   0.789
19872SOL    HW159642   3.899   0.799   0.798
19872SOL    HW259643   3.776   0.906   0.810
19873SOL     OW59644   3.854   1.821   1.571
19873SOL    HW159645   3.844   1.806   1.670
19873SOL    HW259646   3.768   1.857   1.535
19874SOL     OW59647   4.589   0.348   0.195
19874SOL    HW159648   4.648   0.411   0.146
19874SOL    HW259649   4.608   0.254   0.166
19875SOL     OW59650   5.443   0.585   1.831
19875SOL    HW159651   5.417   0.674   1.795
19875SOL    HW259652   5.441   0.517   1.758
19876SOL     OW59653   5.086   1.144   0.545
19876SOL    HW159654   5.169   1.115   0.497
19876SOL    HW259655   5.037   1.211   0.489
19877SOL     OW59656   4.274   0.196   0.885
19877SOL    HW159657   4.269   0.191   0.985
19877SOL    HW259658   4.276   0.292   0.856
19878SOL     OW59659   4.732   1.456   0.477
19878SOL    HW159660   4.686   1.528   0.425
19878SOL    HW259661   4.728   1.476   0.575
19879SOL     OW59662   4.075   1.801   0.853
19879SOL    HW159663   4.125   1.715   0.859
19879SOL    HW259664   4.140   1.878   0.850
19880SOL     OW59665   5.519   1.066   0.873
19880SOL    HW159666   5.457   1.051   0.797
19880SOL    HW259667   5.467   1.077   0.958
19881SOL     OW59668   4.951   1.550   1.506
19881SOL    HW159669   4.957   1.473   1.570
19881SOL    HW259670   4.899   1.524   1.426
19882SOL     OW59671   4.045   0.943   0.242
19882SOL    HW159672   4.127   0.982   0.200
19882SOL    HW259673   4.018   0.861   0.193
19883SOL     OW59674   5.182   0.735   0.728
19883SOL    HW159675   5.177   0.670   0.803
19883SOL    HW259676   5.262   0.794   0.741
19884SOL     OW59677   4.185   1.266   1.727
19884SOL    HW159678   4.135   1.267   1.641
19884SOL    HW259679   4.122   1.248   1.803
19885SOL     OW59680   4.835   1.776   0.237
19885SOL    HW159681   4.775   1.714   0.287
19885SOL    HW259682   4.866   1.732   0.152
19886SOL     OW59683   3.926   0.285   1.498
19886SOL    HW159684   3.846   0.345   1.485
19886SOL    HW259685   3.916   0.236   1.584
19887SOL     OW59686   5.356   1.377   0.081
19887SOL    HW159687   5.324   1.471   0.071
19887SOL    HW259688   5.280   1.314   0.069
19888SOL     OW59689   4.188   1.743   0.323
19888SOL    HW159690   4.221   1.782   0.409
19888SOL    HW259691   4.264   1.736   0.258
19889SOL     OW59692   5.124   0.107   0.426
19889SOL    HW159693   5.100   0.070   0.336
19889SOL    HW259694   5.223   0.123   0.430
19890SOL     OW59695   3.973   1.785   1.241
19890SOL    HW159696   4.030   1.720   1.291
19890SOL    HW259697   3.957   1.752   1.148
19891SOL     OW59698   4.664   1.698   0.904
19891SOL    HW159699   4.744   1.641   0.925
19891SOL    HW259700   4.615   1.658   0.827
19892SOL     OW59701   4.106   0.700   0.480
19892SOL    HW159702   4.151   0.610   0.477
19892SOL    HW259703   4.012   0.689   0.513
19893SOL     OW59704   5.271   0.222   1.729
19893SOL    HW159705   5.266   0.259   1.821
19893SOL    HW259706   5.199   0.153   1.717
19894SOL     OW59707   4.338   0.122   0.117
19894SOL    HW159708   4.436   0.100   0.124
19894SOL    HW259709   4.307   0.105   0.024
19895SOL     OW59710   4.505   0.264   1.749
19895SOL    HW159711   4.572   0.203   1.792
19895SOL    HW259712   4.432   0.283   1.814
19896SOL     OW59713   4.612   1.514   1.195
19896SOL    HW159714   4.589   1.489   1.101
19896SOL    HW259715   4.673   1.445   1.234
19897SOL     OW59716   5.075   0.590   1.433
19897SOL    HW159717   5.103   0.547   1.518
19897SOL    HW259718   5.100   0.686   1.434
19898SOL     OW59719   4.527   1.402   0.924
19898SOL    HW159720   4.617   1.416   0.882
19898SOL    HW259721   4.456   1.404   0.853
19899SOL     OW59722   4.646   0.503   0.899
19899SOL    HW159723   4.621   0.494   0.803
19899SOL    HW259724   4.694   0.421   0.930
19900SOL     OW59725   4.263   0.064   0.512
19900SOL    HW159726   4.182   0.065   0.570
19900SOL    HW259727   4.266   0.147   0.457
19901SOL     OW59728   5.158   1.188   0.041
19901SOL    HW159729   5.190   1.112   0.098
19901SOL    HW259730   5.066   1.215   0.071
19902SOL     OW59731   4.021   0.035   0.171
19902SOL    HW159732   4.070   0.119   0.150
19902SOL    HW259733   4.083  -0.030   0.216
19903SOL     OW59734   4.659   0.236   0.480
19903SOL    HW159735   4.611   0.277   0.402
19903SOL    HW259736   4.758   0.234   0.461
19904SOL     OW59737   4.800   0.683   1.464
19904SOL    HW159738   4.720   0.622   1.467
19904SOL    HW259739   4.881   0.630   1.440
19905SOL     OW59740   4.951   1.570   0.793
19905SOL    HW159741   4.972   1.644   0.728
19905SOL    HW259742   5.019   1.570   0.866
19906SOL     OW59743   4.183   1.152   0.741
19906SOL    HW159744   4.112   1.125   0.806
19906SOL    HW259745   4.157   1.124   0.648
19907SOL     OW59746   4.995   1.797   0.591
19907SOL    HW159747   5.039   1.861   0.527
19907SOL    HW259748   4.945   1.849   0.661
19908SOL     OW59749   4.756   0.549   0.016
19908SOL    HW159750   4.715   0.631  -0.023
19908SOL    HW259751   4.820   0.575   0.089
19909SOL     OW59752   3.802   0.556   1.386
19909SOL    HW159753   3.894   0.555   1.345
19909SOL    HW259754   3.796   0.630   1.453
19910SOL     OW59755   4.285   0.222   1.147
19910SOL    HW159756   4.323   0.138   1.184
19910SOL    HW259757   4.197   0.241   1.191
19911SOL     OW59758   4.590   0.454   0.642
19911SOL    HW159759   4.558   0.526   0.580
19911SOL    HW259760   4.614   0.373   0.589
19912SOL     OW59761   4.741   0.039   0.753
19912SOL    HW159762   4.669   0.044   0.684
19912SOL    HW259763   4.717  -0.030   0.822
19913SOL     OW59764   5.153   1.173   0.867
19913SOL    HW159765   5.098   1.089   0.860
19913SOL    HW259766   5.179   1.202   0.775
19914SOL     OW59767   5.190   0.590   0.992
19914SOL    HW159768   5.160   0.495   0.999
19914SOL    HW259769   5.263   0.606   1.058
19915SOL     OW59770   5.581   0.833   0.377
19915SOL    HW159771   5.623   0.769   0.441
19915SOL    HW259772   5.543   0.782   0.299
19916SOL     OW59773   4.212   1.385   0.174
19916SOL    HW159774   4.125   1.370   0.221
19916SOL    HW259775   4.195   1.411   0.079
19917SOL     OW59776   5.388   1.280   0.657
19917SOL    HW159777   5.487   1.288   0.671
19917SOL    HW259778   5.343   1.364   0.688
19918SOL     OW59779   5.114   0.575   0.078
19918SOL    HW159780   5.060   0.554   0.159
19918SOL    HW259781   5.205   0.534   0.087
19919SOL     OW59782   4.251   0.256   0.328
19919SOL    HW159783   4.278   0.197   0.253
19919SOL    HW259784   4.251   0.351   0.297
19920SOL     OW59785   5.478   1.223   1.588
19920SOL    HW159786   5.569   1.184   1.575
19920SOL    HW259787   5.486   1.319   1.612
19921SOL     OW59788   4.788   1.347   1.340
19921SOL    HW159789   4.708   1.324   1.395
19921SOL    HW259790   4.871   1.321   1.389
19922SOL     OW59791   5.316   1.629   1.625
19922SOL    HW159792   5.343   1.663   1.535
19922SOL    HW259793   5.395   1.591   1.671
19923SOL     OW59794   4.835   1.195   1.100
19923SOL    HW159795   4.795   1.239   1.181
19923SOL    HW259796   4.794   1.232   1.017
19924SOL     OW59797   5.362   1.099   1.079
19924SOL    HW159798   5.367   1.180   1.138
19924SOL    HW259799   5.276   1.101   1.028
19925SOL     OW59800   4.639   0.089   1.402
19925SOL    HW159801   4.664   0.069   1.307
19925SOL    HW259802   4.711   0.145   1.444
19926SOL     OW59803   4.704   1.116   1.719
19926SOL    HW159804   4.605   1.122   1.729
19926SOL    HW259805   4.727   1.036   1.663
19927SOL     OW59806   4.429   1.050   0.368
19927SOL    HW159807   4.415   1.057   0.467
19927SOL    HW259808   4.513   0.999   0.350
19928SOL     OW59809   4.134   0.813   1.251
19928SOL    HW159810   4.220   0.825   1.301
19928SOL    HW259811   4.092   0.726   1.278
19929SOL     OW59812   4.998   0.386   1.262
19929SOL    HW159813   5.019   0.460   1.326
19929SOL    HW259814   4.909   0.403   1.219
19930SOL     OW59815   3.788   1.564   1.331
19930SOL    HW159816   3.742   1.646   1.297
19930SOL    HW259817   3.886   1.583   1.340
19931SOL     OW59818   4.091   1.100   0.501
19931SOL    HW159819   4.084   1.183   0.445
19931SOL    HW259820   4.095   1.020   0.441
19932SOL     OW59821   4.290   0.537   0.865
19932SOL    HW159822   4.302   0.603   0.791
19932SOL    HW259823   4.336   0.571   0.948
19933SOL     OW59824   4.976   1.348   0.388
19933SOL    HW159825   5.026   1.425   0.428
19933SOL    HW259826   4.881   1.350   0.420
19934SOL     OW59827   4.996   1.445   1.142
19934SOL    HW159828   5.043   1.458   1.229
19934SOL    HW259829   4.930   1.371   1.151
19935SOL     OW59830   5.306   0.639   0.472
19935SOL    HW159831   5.275   0.700   0.545
19935SOL    HW259832   5.356   0.691   0.403
19936SOL     OW59833   4.078   1.510   1.329
19936SOL    HW159834   4.057   1.466   1.242
19936SOL    HW259835   4.175   1.536   1.332
19937SOL     OW59836   4.126   0.751   1.598
19937SOL    HW159837   4.194   0.806   1.551
19937SOL    HW259838   4.166   0.663   1.625
19938SOL     OW59839   5.311   0.779   1.670
19938SOL    HW159840   5.219   0.817   1.665
19938SOL    HW259841   5.371   0.826   1.605
19939SOL     OW59842   4.737   0.105   1.770
19939SOL    HW159843   4.743   0.190   1.718
19939SOL    HW259844   4.769   0.029   1.713
19940SOL     OW59845   4.228   0.050   1.740
19940SOL    HW159846   4.186  -0.007   1.670
19940SOL    HW259847   4.162   0.119   1.772
19941SOL     OW59848   4.297   0.870   1.029
19941SOL    HW159849   4.341   0.959   1.020
19941SOL    HW259850   4.234   0.870   1.106
19942SOL     OW59851   5.084   0.862   1.045
19942SOL    HW159852   5.009   0.862   0.979
19942SOL    HW259853   5.121   0.770   1.054
19943SOL     OW59854   4.933   0.525   0.275
19943SOL    HW159855   4.946   0.441   0.329
19943SOL    HW259856   4.904   0.599   0.335
19944SOL     OW59857   4.031   0.213   1.231
19944SOL    HW159858   4.008   0.250   1.321
19944SOL    HW259859   4.001   0.118   1.225
19945SOL     OW59860   3.761   1.310   1.282
19945SOL    HW159861   3.814   1.261   1.350
19945SOL    HW259862   3.783   1.408   1.287
19946SOL     OW59863   4.456   0.634   1.064
19946SOL    HW159864   4.515   0.608   0.988
19946SOL    HW259865   4.428   0.730   1.053
19947SOL     OW59866   5.452   0.935   1.854
19947SOL    HW159867   5.406   0.928   1.765
19947SOL    HW259868   5.390   0.979   1.920
19948SOL     OW59869   4.031   0.063   0.618
19948SOL    HW159870   4.020   0.157   0.651
19948SOL    HW259871   4.026   0.000   0.695
19949SOL     OW59872   5.346   0.367   0.374
19949SOL    HW159873   5.348   0.291   0.438
19949SOL    HW259874   5.298   0.444   0.414
19950SOL     OW59875   4.747   0.766   0.966
19950SOL    HW159876   4.762   0.787   1.062
19950SOL    HW259877   4.717   0.671   0.957
19951SOL     OW59878   4.704   1.573   1.700
19951SOL    HW159879   4.684   1.617   1.612
19951SOL    HW259880   4.743   1.482   1.684
19952SOL     OW59881   5.583   1.518   1.605
19952SOL    HW159882   5.597   1.545   1.510
19952SOL    HW259883   5.666   1.540   1.658
19953SOL     OW59884   4.074   0.898   1.804
19953SOL    HW159885   4.150   0.942   1.852
19953SOL    HW259886   4.109   0.851   1.722
19954SOL     OW59887   5.264   0.274   0.125
19954SOL    HW159888   5.203   0.199   0.148
19954SOL    HW259889   5.286   0.326   0.208
19955SOL     OW59890   5.027   0.838   0.042
19955SOL    HW159891   5.061   0.745   0.057
19955SOL    HW259892   5.045   0.865  -0.053
19956SOL     OW59893   4.792   1.333   0.849
19956SOL    HW159894   4.799   1.249   0.794
19956SOL    HW259895   4.854   1.402   0.813
19957SOL     OW59896   4.043   0.810   0.949
19957SOL    HW159897   4.136   0.846   0.954
19957SOL    HW259898   4.037   0.725   1.001
19958SOL     OW59899   4.063   0.509   1.006
19958SOL    HW159900   4.011   0.426   0.989
19958SOL    HW259901   4.140   0.514   0.942
19959SOL     OW59902   4.862   0.380   1.678
19959SOL    HW159903   4.817   0.443   1.742
19959SOL    HW259904   4.955   0.411   1.661
19960SOL     OW59905   4.884   0.207   1.477
19960SOL    HW159906   4.884   0.271   1.554
19960SOL    HW259907   4.912   0.255   1.394
19961SOL     OW59908   3.732   1.326   0.200
19961SOL    HW159909   3.639   1.347   0.169
19961SOL    HW259910   3.742   1.227   0.213
19962SOL     OW59911   3.812   1.801   0.927
19962SOL    HW159912   3.770   1.715   0.900
19962SOL    HW259913   3.906   1.804   0.893
19963SOL     OW59914   4.228   1.568   0.910
19963SOL    HW159915   4.294   1.642   0.919
19963SOL    HW259916   4.272   1.489   0.868
19964SOL     OW59917   4.726   0.796   1.238
19964SOL    HW159918   4.767   0.764   1.324
19964SOL    HW259919   4.630   0.769   1.235
19965SOL     OW59920   3.764   0.544   1.114
19965SOL    HW159921   3.849   0.511   1.073
19965SOL    HW259922   3.777   0.559   1.212
19966SOL     OW59923   3.913   0.520   1.722
19966SOL    HW159924   3.972   0.480   1.652
19966SOL    HW259925   3.855   0.591   1.681
19967SOL     OW59926   5.093   0.950   1.660
19967SOL    HW159927   5.132   1.039   1.680
19967SOL    HW259928   5.103   0.930   1.563
19968SOL     OW59929   4.539   0.572   0.325
19968SOL    HW159930   4.546   0.483   0.279
19968SOL    HW259931   4.445   0.606   0.317
19969SOL     OW59932   5.381   0.604   1.206
19969SOL    HW159933   5.343   0.535   1.268
19969SOL    HW259934   5.463   0.568   1.162
19970SOL     OW59935   3.976   1.564   1.744
19970SOL    HW159936   3.946   1.621   1.820
19970SOL    HW259937   3.969   1.467   1.770
19971SOL     OW59938   4.395   0.464   1.269
19971SOL    HW159939   4.361   0.375   1.239
19971SOL    HW259940   4.421   0.518   1.189
19972SOL     OW59941   4.654   1.678   1.465
19972SOL    HW159942   4.630   1.660   1.370
19972SOL    HW259943   4.684   1.772   1.475
19973SOL     OW59944   4.197   0.500   0.191
19973SOL    HW159945   4.258   0.580   0.195
19973SOL    HW259946   4.102   0.531   0.198
19974SOL     OW59947   3.883   1.137   1.466
19974SOL    HW159948   3.905   1.076   1.542
19974SOL    HW259949   3.893   1.088   1.380
19975SOL     OW59950   5.071   1.059   1.234
19975SOL    HW159951   5.095   0.996   1.160
19975SOL    HW259952   4.981   1.099   1.216
19976SOL     OW59953   5.026   0.855   0.309
19976SOL    HW159954   4.940   0.824   0.351
19976SOL    HW259955   5.022   0.841   0.210
19977SOL     OW59956   5.483   1.747   1.154
19977SOL    HW159957   5.544   1.777   1.081
19977SOL    HW259958   5.445   1.658   1.132
19978SOL     OW59959   4.976   1.731   1.128
19978SOL    HW159960   5.060   1.736   1.074
19978SOL    HW259961   4.953   1.635   1.146
19979SOL     OW59962   3.807   1.258   1.022
19979SOL    HW159963   3.802   1.257   1.122
19979SOL    HW259964   3.724   1.217   0.984
19980SOL     OW59965   4.412   1.662   1.716
19980SOL    HW159966   4.356   1.743   1.725
19980SOL    HW259967   4.464   1.666   1.630
19981SOL     OW59968   4.627   0.086   0.133
19981SOL    HW159969   4.678   0.087   0.047
19981SOL    HW259970   4.683   0.044   0.204
19982SOL     OW59971   5.450   0.135   0.523
19982SOL    HW159972   5.523   0.118   0.456
19982SOL    HW259973   5.419   0.048   0.561
19983SOL     OW59974   5.112   1.573   0.477
19983SOL    HW159975   5.179   1.585   0.403
19983SOL    HW259976   5.072   1.662   0.500
19984SOL     OW59977   3.854   1.794   1.851
19984SOL    HW159978   3.813   1.720   1.904
19984SOL    HW259979   3.918   1.845   1.909
19985SOL     OW59980   5.004   0.927   0.672
19985SOL    HW159981   5.064   0.846   0.674
19985SOL    HW259982   5.044   0.996   0.612
19986SOL     OW59983   4.554   1.273   1.422
19986SOL    HW159984   4.549   1.306   1.517
19986SOL    HW259985   4.468   1.292   1.376
19987SOL     OW59986   4.396   1.616   0.154
19987SOL    HW159987   4.405   1.626   0.055
19987SOL    HW259988   4.356   1.527   0.175
19988SOL     OW59989   5.374   1.720   1.394
19988SOL    HW159990   5.427   1.730   1.310
19988SOL    HW259991   5.347   1.810   1.428
19989SOL     OW59992   5.565   0.175   0.963
19989SOL    HW159993   5.604   0.090   0.927
19989SOL    HW259994   5.467   0.177   0.944
19990SOL     OW59995   3.987   0.326   0.720
19990SOL    HW159996   3.908   0.377   0.686
19990SOL    HW259997   3.978   0.311   0.818
19991SOL     OW59998   4.918   1.612   0.031
19991SOL    HW159999   4.924   1.519   0.068
19991SOL    HW260000   4.859   1.612  -0.049
19992SOL     OW60001   4.546   1.002   1.372
19992SOL    HW160002   4.586   1.001   1.280
19992SOL    HW260003   4.556   1.094   1.412
19993SOL     OW60004   4.640   0.910   0.291
19993SOL    HW160005   4.703   0.948   0.223
19993SOL    HW260006   4.680   0.827   0.330
19994SOL     OW60007   5.228   1.607   0.044
19994SOL    HW160008   5.136   1.644   0.051
19994SOL    HW260009   5.266   1.627  -0.046
19995SOL     OW60010   4.096   1.288   1.490
19995SOL    HW160011   4.083   1.381   1.456
19995SOL    HW260012   4.012   1.236   1.477
19996SOL     OW60013   5.338   1.292   1.289
19996SOL    HW160014   5.398   1.295   1.369
19996SOL    HW260015   5.263   1.356   1.302
19997SOL     OW60016   4.763   1.098   0.696
19997SOL    HW160017   4.693   1.051   0.750
19997SOL    HW260018   4.822   1.030   0.653
19998SOL     OW60019   4.738   0.236   0.971
19998SOL    HW160020   4.730   0.200   0.878
19998SOL    HW260021   4.736   0.160   1.036
19999SOL     OW60022   4.314   1.487   0.491
19999SOL    HW160023   4.356   1.429   0.421
19999SOL    HW260024   4.270   1.566   0.447
20000SOL     OW60025   5.433   0.385   1.381
20000SOL    HW160026   5.506   0.454   1.385
20000SOL    HW260027   5.461   0.310   1.322
20001SOL     OW60028   3.979   1.348   0.290
20001SOL    HW160029   3.883   1.349   0.263
20001SOL    HW260030   3.991   1.401   0.374
20002SOL     OW60031   3.829   1.013   1.726
20002SOL    HW160032   3.752   0.980   1.780
20002SOL    HW260033   3.914   0.983   1.768
20003SOL     OW60034   4.396   0.203   1.489
20003SOL    HW160035   4.486   0.187   1.449
20003SOL    HW260036   4.404   0.208   1.588
20004SOL     OW60037   5.164   0.856   1.398
20004SOL    HW160038   5.107   0.908   1.335
20004SOL    HW260039   5.260   0.868   1.374
20005SOL     OW60040   3.796   0.166   0.318
20005SOL    HW160041   3.779   0.249   0.264
20005SOL    HW260042   3.886   0.129   0.296
20006SOL     OW60043   4.907   1.335   0.119
20006SOL    HW160044   4.808   1.324   0.121
20006SOL    HW260045   4.941   1.350   0.212
20007SOL     OW60046   4.337   0.842   1.431
20007SOL    HW160047   4.393   0.923   1.414
20007SOL    HW260048   4.396   0.762   1.434
20008SOL     OW60049   5.217   1.767   0.959
20008SOL    HW160050   5.250   1.831   0.890
20008SOL    HW260051   5.283   1.761   1.034
20009SOL     OW60052   4.440   0.565   1.708
20009SOL    HW160053   4.459   0.630   1.782
20009SOL    HW260054   4.500   0.485   1.717
20010SOL     OW60055   5.174   1.220   1.633
20010SOL    HW160056   5.165   1.210   1.732
20010SOL    HW260057   5.270   1.213   1.607
20011SOL     OW60058   4.114   1.741   1.560
20011SOL    HW160059   4.023   1.782   1.558
20011SOL    HW260060   4.107   1.647   1.592
20012SOL     OW60061   5.398   0.883   1.254
20012SOL    HW160062   5.371   0.794   1.217
20012SOL    HW260063   5.399   0.951   1.181
20013SOL     OW60064   4.949   0.325   0.449
20013SOL    HW160065   5.014   0.251   0.438
20013SOL    HW260066   4.969   0.375   0.533
20014SOL     OW60067   4.318   0.745   0.652
20014SOL    HW160068   4.368   0.830   0.633
20014SOL    HW260069   4.230   0.747   0.604
20015SOL     OW60070   5.501   0.342   1.642
20015SOL    HW160071   5.484   0.373   1.548
20015SOL    HW260072   5.417   0.305   1.680
20016SOL     OW60073   5.454   0.934   1.517
20016SOL    HW160074   5.492   1.025   1.532
20016SOL    HW260075   5.446   0.917   1.418
20017SOL     OW60076   4.583   1.374   0.016
20017SOL    HW160077   4.537   1.389   0.104
20017SOL    HW260078   4.627   1.459  -0.014
20018SOL     OW60079   4.385   1.790   0.953
20018SOL    HW160080   4.339   1.878   0.940
20018SOL    HW260081   4.484   1.802   0.946
20019SOL     OW60082   4.583   0.956   0.861
20019SOL    HW160083   4.637   0.887   0.909
20019SOL    HW260084   4.551   1.025   0.927
20020SOL     OW60085   4.807   0.984   0.087
20020SOL    HW160086   4.784   1.037   0.005
20020SOL    HW260087   4.888   0.928   0.068
20021SOL     OW60088   5.585   1.569   0.851
20021SOL    HW160089   5.514   1.557   0.781
20021SOL    HW260090   5.586   1.490   0.911
20022SOL     OW60091   3.945   1.314   1.844
20022SOL    HW160092   3.880   1.241   1.823
20022SOL    HW260093   3.949   1.328   1.942
20023SOL     OW60094   3.803   1.240   0.653
20023SOL    HW160095   3.802   1.193   0.741
20023SOL    HW260096   3.885   1.212   0.602
20024SOL     OW60097   4.396   1.391   1.624
20024SOL    HW160098   4.318   1.341   1.662
20024SOL    HW260099   4.393   1.486   1.655
20025SOL     OW60100   5.548   0.192   1.227
20025SOL    HW160101   5.544   0.102   1.271
20025SOL    HW260102   5.551   0.181   1.128
20026SOL     OW60103   4.152   0.424   0.520
20026SOL    HW160104   4.182   0.352   0.458
20026SOL    HW260105   4.113   0.384   0.603
20027SOL     OW60106   5.429   1.487   1.104
20027SOL    HW160107   5.336   1.462   1.077
20027SOL    HW260108   5.455   1.437   1.186
20028SOL     OW60109   4.041   0.547   1.280
20028SOL    HW160110   4.079   0.488   1.352
20028SOL    HW260111   4.081   0.521   1.192
20029SOL     OW60112   4.536   1.586   0.687
20029SOL    HW160113   4.568   1.596   0.593
20029SOL    HW260114   4.457   1.524   0.689
20030SOL     OW60115   5.148   0.214   1.112
20030SOL    HW160116   5.200   0.149   1.167
20030SOL    HW260117   5.099   0.277   1.173
20031SOL     OW60118   4.725   0.034   1.154
20031SOL    HW160119   4.662  -0.038   1.123
20031SOL    HW260120   4.818  -0.002   1.154
20032SOL     OW60121   4.494   1.330   0.301
20032SOL    HW160122   4.448   1.243   0.318
20032SOL    HW260123   4.585   1.327   0.342
20033SOL     OW60124   4.342   1.567   1.284
20033SOL    HW160125   4.337   1.649   1.341
20033SOL    HW260126   4.431   1.564   1.239
20034SOL     OW60127   5.076   0.052   0.168
20034SOL    HW160128   5.111   0.011   0.084
20034SOL    HW260129   4.986   0.014   0.188
20035SOL     OW60130   5.024   0.453   0.691
20035SOL    HW160131   4.965   0.533   0.695
20035SOL    HW260132   5.039   0.418   0.784
20036SOL     OW60133   5.317   0.221   0.882
20036SOL    HW160134   5.233   0.220   0.936
20036SOL    HW260135   5.319   0.304   0.826
20037SOL     OW60136   3.763   1.077   0.300
20037SOL    HW160137   3.862   1.066   0.291
20037SOL    HW260138   3.723   0.991   0.332
20038SOL     OW60139   4.599   1.646   0.337
20038SOL    HW160140   4.522   1.611   0.283
20038SOL    HW260141   4.567   1.717   0.399
20039SOL     OW60142   3.954   0.628   1.975
20039SOL    HW160143   3.861   0.626   2.012
20039SOL    HW260144   3.955   0.589   1.883
20040SOL     OW60145   3.949   0.275   2.858
20040SOL    HW160146   3.984   0.258   2.950
20040SOL    HW260147   3.861   0.230   2.846
20041SOL     OW60148   3.743   0.368   2.509
20041SOL    HW160149   3.661   0.411   2.548
20041SOL    HW260150   3.715   0.295   2.446
20042SOL     OW60151   4.293   1.275   3.027
20042SOL    HW160152   4.200   1.268   2.990
20042SOL    HW260153   4.304   1.364   3.071
20043SOL     OW60154   5.279   1.511   2.565
20043SOL    HW160155   5.222   1.495   2.646
20043SOL    HW260156   5.220   1.521   2.485
20044SOL     OW60157   4.859   0.703   2.579
20044SOL    HW160158   4.916   0.781   2.554
20044SOL    HW260159   4.799   0.729   2.655
20045SOL     OW60160   5.479   0.607   2.093
20045SOL    HW160161   5.467   0.594   1.994
20045SOL    HW260162   5.449   0.526   2.142
20046SOL     OW60163   4.492   1.144   2.885
20046SOL    HW160164   4.414   1.161   2.945
20046SOL    HW260165   4.526   1.231   2.849
20047SOL     OW60166   4.574   0.798   3.685
20047SOL    HW160167   4.570   0.874   3.750
20047SOL    HW260168   4.596   0.834   3.594
20048SOL     OW60169   4.409   1.012   2.527
20048SOL    HW160170   4.478   0.996   2.597
20048SOL    HW260171   4.336   1.069   2.565
20049SOL     OW60172   4.410   1.161   3.665
20049SOL    HW160173   4.470   1.240   3.679
20049SOL    HW260174   4.324   1.192   3.624
20050SOL     OW60175   4.059   1.435   2.923
20050SOL    HW160176   3.981   1.404   2.870
20050SOL    HW260177   4.117   1.493   2.866
20051SOL     OW60178   5.184   1.505   3.201
20051SOL    HW160179   5.208   1.599   3.227
20051SOL    HW260180   5.168   1.451   3.283
20052SOL     OW60181   4.162   0.392   3.361
20052SOL    HW160182   4.244   0.336   3.370
20052SOL    HW260183   4.081   0.334   3.365
20053SOL     OW60184   5.327   0.447   2.599
20053SOL    HW160185   5.253   0.493   2.549
20053SOL    HW260186   5.378   0.515   2.652
20054SOL     OW60187   3.955   1.713   2.345
20054SOL    HW160188   3.989   1.790   2.399
20054SOL    HW260189   3.999   1.713   2.255
20055SOL     OW60190   4.851   1.341   3.552
20055SOL    HW160191   4.898   1.341   3.640
20055SOL    HW260192   4.803   1.254   3.541
20056SOL     OW60193   3.954   1.434   2.400
20056SOL    HW160194   3.928   1.530   2.400
20056SOL    HW260195   3.883   1.380   2.445
20057SOL     OW60196   3.964   1.091   2.748
20057SOL    HW160197   3.978   1.007   2.800
20057SOL    HW260198   3.909   1.155   2.803
20058SOL     OW60199   4.344   1.786   3.301
20058SOL    HW160200   4.252   1.769   3.336
20058SOL    HW260201   4.372   1.878   3.327
20059SOL     OW60202   4.330   0.964   1.985
20059SOL    HW160203   4.337   1.048   1.931
20059SOL    HW260204   4.376   0.977   2.073
20060SOL     OW60205   5.318   0.114   3.342
20060SOL    HW160206   5.300   0.181   3.270
20060SOL    HW260207   5.315   0.160   3.431
20061SOL     OW60208   3.846   0.643   2.425
20061SOL    HW160209   3.801   0.555   2.442
20061SOL    HW260210   3.845   0.697   2.509
20062SOL     OW60211   5.566   1.767   2.221
20062SOL    HW160212   5.620   1.738   2.301
20062SOL    HW260213   5.596   1.857   2.192
20063SOL     OW60214   3.751   1.596   1.979
20063SOL    HW160215   3.732   1.500   2.000
20063SOL    HW260216   3.718   1.654   2.054
20064SOL     OW60217   5.413   0.922   2.474
20064SOL    HW160218   5.508   0.893   2.482
20064SOL    HW260219   5.405   0.987   2.399
20065SOL     OW60220   5.365   1.108   2.294
20065SOL    HW160221   5.451   1.110   2.242
20065SOL    HW260222   5.379   1.155   2.382
20066SOL     OW60223   3.837   0.737   3.459
20066SOL    HW160224   3.925   0.724   3.504
20066SOL    HW260225   3.824   0.834   3.437
20067SOL     OW60226   4.337   1.365   2.588
20067SOL    HW160227   4.288   1.278   2.597
20067SOL    HW260228   4.314   1.408   2.501
20068SOL     OW60229   5.017   1.228   3.285
20068SOL    HW160230   5.054   1.155   3.227
20068SOL    HW260231   5.069   1.233   3.370
20069SOL     OW60232   4.533   0.004   2.364
20069SOL    HW160233   4.573   0.095   2.355
20069SOL    HW260234   4.433   0.012   2.370
20070SOL     OW60235   3.921   0.976   3.126
20070SOL    HW160236   4.010   0.931   3.112
20070SOL    HW260237   3.848   0.911   3.107
20071SOL     OW60238   5.249   0.999   2.052
20071SOL    HW160239   5.186   0.923   2.065
20071SOL    HW260240   5.297   1.017   2.138
20072SOL     OW60241   4.911   1.792   3.478
20072SOL    HW160242   4.935   1.852   3.402
20072SOL    HW260243   4.918   1.697   3.448
20073SOL     OW60244   4.041   0.251   3.663
20073SOL    HW160245   4.112   0.322   3.669
20073SOL    HW260246   3.953   0.290   3.691
20074SOL     OW60247   5.190   1.417   2.815
20074SOL    HW160248   5.131   1.423   2.895
20074SOL    HW260249   5.175   1.329   2.769
20075SOL     OW60250   5.391   1.714   2.434
20075SOL    HW160251   5.350   1.691   2.346
20075SOL    HW260252   5.373   1.640   2.499
20076SOL     OW60253   4.322   0.729   2.132
20076SOL    HW160254   4.346   0.798   2.064
20076SOL    HW260255   4.244   0.762   2.186
20077SOL     OW60256   5.005   0.345   2.806
20077SOL    HW160257   4.919   0.295   2.793
20077SOL    HW260258   5.067   0.291   2.862
20078SOL     OW60259   5.300   1.662   2.169
20078SOL    HW160260   5.389   1.708   2.172
20078SOL    HW260261   5.279   1.638   2.074
20079SOL     OW60262   4.531   0.605   3.327
20079SOL    HW160263   4.484   0.602   3.416
20079SOL    HW260264   4.480   0.550   3.261
20080SOL     OW60265   5.118   0.469   3.536
20080SOL    HW160266   5.098   0.512   3.624
20080SOL    HW260267   5.196   0.407   3.545
20081SOL     OW60268   4.697   0.890   3.434
20081SOL    HW160269   4.743   0.806   3.405
20081SOL    HW260270   4.641   0.924   3.359
20082SOL     OW60271   4.715   0.410   3.104
20082SOL    HW160272   4.638   0.444   3.158
20082SOL    HW260273   4.681   0.359   3.025
20083SOL     OW60274   4.765   0.701   2.291
20083SOL    HW160275   4.791   0.697   2.387
20083SOL    HW260276   4.680   0.650   2.277
20084SOL     OW60277   3.800   0.811   2.651
20084SOL    HW160278   3.899   0.799   2.660
20084SOL    HW260279   3.776   0.906   2.672
20085SOL     OW60280   3.854   1.821   3.433
20085SOL    HW160281   3.844   1.806   3.532
20085SOL    HW260282   3.768   1.857   3.397
20086SOL     OW60283   4.589   0.348   2.057
20086SOL    HW160284   4.648   0.411   2.008
20086SOL    HW260285   4.608   0.254   2.028
20087SOL     OW60286   5.443   0.585   3.693
20087SOL    HW160287   5.417   0.674   3.657
20087SOL    HW260288   5.441   0.517   3.620
20088SOL     OW60289   5.086   1.144   2.407
20088SOL    HW160290   5.169   1.115   2.359
20088SOL    HW260291   5.037   1.211   2.351
20089SOL     OW60292   4.274   0.196   2.747
20089SOL    HW160293   4.269   0.191   2.847
20089SOL    HW260294   4.276   0.292   2.718
20090SOL     OW60295   4.732   1.456   2.339
20090SOL    HW160296   4.686   1.528   2.287
20090SOL    HW260297   4.728   1.476   2.437
20091SOL     OW60298   4.075   1.801   2.715
20091SOL    HW160299   4.125   1.715   2.721
20091SOL    HW260300   4.140   1.878   2.712
20092SOL     OW60301   5.519   1.066   2.735
20092SOL    HW160302   5.457   1.051   2.659
20092SOL    HW260303   5.467   1.077   2.820
20093SOL     OW60304   4.951   1.550   3.368
20093SOL    HW160305   4.957   1.473   3.432
20093SOL    HW260306   4.899   1.524   3.288
20094SOL     OW60307   4.045   0.943   2.104
20094SOL    HW160308   4.127   0.982   2.062
20094SOL    HW260309   4.018   0.861   2.055
20095SOL     OW60310   5.182   0.735   2.590
20095SOL    HW160311   5.177   0.670   2.665
20095SOL    HW260312   5.262   0.794   2.603
20096SOL     OW60313   4.185   1.266   3.589
20096SOL    HW160314   4.135   1.267   3.503
20096SOL    HW260315   4.122   1.248   3.665
20097SOL     OW60316   4.835   1.776   2.099
20097SOL    HW160317   4.775   1.714   2.149
20097SOL    HW260318   4.866   1.732   2.014
20098SOL     OW60319   3.926   0.285   3.360
20098SOL    HW160320   3.846   0.345   3.347
20098SOL    HW260321   3.916   0.236   3.446
20099SOL     OW60322   5.356   1.377   1.943
20099SOL    HW160323   5.324   1.471   1.933
20099SOL    HW260324   5.280   1.314   1.931
20100SOL     OW60325   4.188   1.743   2.185
20100SOL    HW160326   4.221   1.782   2.271
20100SOL    HW260327   4.264   1.736   2.120
20101SOL     OW60328   5.124   0.107   2.288
20101SOL    HW160329   5.100   0.070   2.198
20101SOL    HW260330   5.223   0.123   2.292
20102SOL     OW60331   3.973   1.785   3.103
20102SOL    HW160332   4.030   1.720   3.153
20102SOL    HW260333   3.957   1.752   3.010
20103SOL     OW60334   4.664   1.698   2.766
20103SOL    HW160335   4.744   1.641   2.787
20103SOL    HW260336   4.615   1.658   2.689
20104SOL     OW60337   4.106   0.700   2.342
20104SOL    HW160338   4.151   0.610   2.339
20104SOL    HW260339   4.012   0.689   2.375
20105SOL     OW60340   5.271   0.222   3.591
20105SOL    HW160341   5.266   0.259   3.683
20105SOL    HW260342   5.199   0.153   3.579
20106SOL     OW60343   4.338   0.122   1.979
20106SOL    HW160344   4.436   0.100   1.986
20106SOL    HW260345   4.307   0.105   1.886
20107SOL     OW60346   4.505   0.264   3.611
20107SOL    HW160347   4.572   0.203   3.654
20107SOL    HW260348   4.432   0.283   3.676
20108SOL     OW60349   4.612   1.514   3.057
20108SOL    HW160350   4.589   1.489   2.963
20108SOL    HW260351   4.673   1.445   3.096
20109SOL     OW60352   5.075   0.590   3.295
20109SOL    HW160353   5.103   0.547   3.380
20109SOL    HW260354   5.100   0.686   3.296
20110SOL     OW60355   4.527   1.402   2.786
20110SOL    HW160356   4.617   1.416   2.744
20110SOL    HW260357   4.456   1.404   2.715
20111SOL     OW60358   4.646   0.503   2.761
20111SOL    HW160359   4.621   0.494   2.665
20111SOL    HW260360   4.694   0.421   2.792
20112SOL     OW60361   4.263   0.064   2.374
20112SOL    HW160362   4.182   0.065   2.432
20112SOL    HW260363   4.266   0.147   2.319
20113SOL     OW60364   5.158   1.188   1.903
20113SOL    HW160365   5.190   1.112   1.960
20113SOL    HW260366   5.066   1.215   1.933
20114SOL     OW60367   4.021   0.035   2.033
20114SOL    HW160368   4.070   0.119   2.012
20114SOL    HW260369   4.083  -0.030   2.078
20115SOL     OW60370   4.659   0.236   2.342
20115SOL    HW160371   4.611   0.277   2.264
20115SOL    HW260372   4.758   0.234   2.323
20116SOL     OW60373   4.800   0.683   3.326
20116SOL    HW160374   4.720   0.622   3.329
20116SOL    HW260375   4.881   0.630   3.302
20117SOL     OW60376   4.951   1.570   2.655
20117SOL    HW160377   4.972   1.644   2.590
20117SOL    HW260378   5.019   1.570   2.728
20118SOL     OW60379   4.183   1.152   2.603
20118SOL    HW160380   4.112   1.125   2.668
20118SOL    HW260381   4.157   1.124   2.510
20119SOL     OW60382   4.995   1.797   2.453
20119SOL    HW160383   5.039   1.861   2.389
20119SOL    HW260384   4.945   1.849   2.523
20120SOL     OW60385   4.756   0.549   1.878
20120SOL    HW160386   4.715   0.631   1.839
20120SOL    HW260387   4.820   0.575   1.951
20121SOL     OW60388   3.802   0.556   3.248
20121SOL    HW160389   3.894   0.555   3.207
20121SOL    HW260390   3.796   0.630   3.315
20122SOL     OW60391   4.285   0.222   3.009
20122SOL    HW160392   4.323   0.138   3.046
20122SOL    HW260393   4.197   0.241   3.053
20123SOL     OW60394   4.590   0.454   2.504
20123SOL    HW160395   4.558   0.526   2.442
20123SOL    HW260396   4.614   0.373   2.451
20124SOL     OW60397   4.741   0.039   2.615
20124SOL    HW160398   4.669   0.044   2.546
20124SOL    HW260399   4.717  -0.030   2.684
20125SOL     OW60400   5.153   1.173   2.729
20125SOL    HW160401   5.098   1.089   2.722
20125SOL    HW260402   5.179   1.202   2.637
20126SOL     OW60403   5.190   0.590   2.854
20126SOL    HW160404   5.160   0.495   2.861
20126SOL    HW260405   5.263   0.606   2.920
20127SOL     OW60406   5.581   0.833   2.239
20127SOL    HW160407   5.623   0.769   2.303
20127SOL    HW260408   5.543   0.782   2.161
20128SOL     OW60409   4.212   1.385   2.036
20128SOL    HW160410   4.125   1.370   2.083
20128SOL    HW260411   4.195   1.411   1.941
20129SOL     OW60412   5.388   1.280   2.519
20129SOL    HW160413   5.487   1.288   2.533
20129SOL    HW260414   5.343   1.364   2.550
20130SOL     OW60415   5.114   0.575   1.940
20130SOL    HW160416   5.060   0.554   2.021
20130SOL    HW260417   5.205   0.534   1.949
20131SOL     OW60418   4.251   0.256   2.190
20131SOL    HW160419   4.278   0.197   2.115
20131SOL    HW260420   4.251   0.351   2.159
20132SOL     OW60421   5.478   1.223   3.450
20132SOL    HW160422   5.569   1.184   3.437
20132SOL    HW260423   5.486   1.319   3.474
20133SOL     OW60424   4.788   1.347   3.202
20133SOL    HW160425   4.708   1.324   3.257
20133SOL    HW260426   4.871   1.321   3.251
20134SOL     OW60427   5.316   1.629   3.487
20134SOL    HW160428   5.343   1.663   3.397
20134SOL    HW260429   5.395   1.591   3.533
20135SOL     OW60430   4.835   1.195   2.962
20135SOL    HW160431   4.795   1.239   3.043
20135SOL    HW260432   4.794   1.232   2.879
20136SOL     OW60433   5.362   1.099   2.941
20136SOL    HW160434   5.367   1.180   3.000
20136SOL    HW260435   5.276   1.101   2.890
20137SOL     OW60436   4.639   0.089   3.264
20137SOL    HW160437   4.664   0.069   3.169
20137SOL    HW260438   4.711   0.145   3.306
20138SOL     OW60439   4.704   1.116   3.581
20138SOL    HW160440   4.605   1.122   3.591
20138SOL    HW260441   4.727   1.036   3.525
20139SOL     OW60442   4.429   1.050   2.230
20139SOL    HW160443   4.415   1.057   2.329
20139SOL    HW260444   4.513   0.999   2.212
20140SOL     OW60445   4.134   0.813   3.113
20140SOL    HW160446   4.220   0.825   3.163
20140SOL    HW260447   4.092   0.726   3.140
20141SOL     OW60448   4.998   0.386   3.124
20141SOL    HW160449   5.019   0.460   3.188
20141SOL    HW260450   4.909   0.403   3.081
20142SOL     OW60451   3.788   1.564   3.193
20142SOL    HW160452   3.742   1.646   3.159
20142SOL    HW260453   3.886   1.583   3.202
20143SOL     OW60454   4.091   1.100   2.363
20143SOL    HW160455   4.084   1.183   2.307
20143SOL    HW260456   4.095   1.020   2.303
20144SOL     OW60457   4.290   0.537   2.727
20144SOL    HW160458   4.302   0.603   2.653
20144SOL    HW260459   4.336   0.571   2.810
20145SOL     OW60460   4.976   1.348   2.250
20145SOL    HW160461   5.026   1.425   2.290
20145SOL    HW260462   4.881   1.350   2.282
20146SOL     OW60463   4.996   1.445   3.004
20146SOL    HW160464   5.043   1.458   3.091
20146SOL    HW260465   4.930   1.371   3.013
20147SOL     OW60466   5.306   0.639   2.334
20147SOL    HW160467   5.275   0.700   2.407
20147SOL    HW260468   5.356   0.691   2.265
20148SOL     OW60469   4.078   1.510   3.191
20148SOL    HW160470   4.057   1.466   3.104
20148SOL    HW260471   4.175   1.536   3.194
20149SOL     OW60472   4.126   0.751   3.460
20149SOL    HW160473   4.194   0.806   3.413
20149SOL    HW260474   4.166   0.663   3.487
20150SOL     OW60475   5.311   0.779   3.532
20150SOL    HW160476   5.219   0.817   3.527
20150SOL    HW260477   5.371   0.826   3.467
20151SOL     OW60478   4.737   0.105   3.632
20151SOL    HW160479   4.743   0.190   3.580
20151SOL    HW260480   4.769   0.029   3.575
20152SOL     OW60481   4.228   0.050   3.602
20152SOL    HW160482   4.186  -0.007   3.532
20152SOL    HW260483   4.162   0.119   3.634
20153SOL     OW60484   4.297   0.870   2.891
20153SOL    HW160485   4.341   0.959   2.882
20153SOL    HW260486   4.234   0.870   2.968
20154SOL     OW60487   5.084   0.862   2.907
20154SOL    HW160488   5.009   0.862   2.841
20154SOL    HW260489   5.121   0.770   2.916
20155SOL     OW60490   4.933   0.525   2.137
20155SOL    HW160491   4.946   0.441   2.191
20155SOL    HW260492   4.904   0.599   2.197
20156SOL     OW60493   4.031   0.213   3.093
20156SOL    HW160494   4.008   0.250   3.183
20156SOL    HW260495   4.001   0.118   3.087
20157SOL     OW60496   3.761   1.310   3.144
20157SOL    HW160497   3.814   1.261   3.212
20157SOL    HW260498   3.783   1.408   3.149
20158SOL     OW60499   4.456   0.634   2.926
20158SOL    HW160500   4.515   0.608   2.850
20158SOL    HW260501   4.428   0.730   2.915
20159SOL     OW60502   5.452   0.935   3.716
20159SOL    HW160503   5.406   0.928   3.627
20159SOL    HW260504   5.390   0.979   3.782
20160SOL     OW60505   4.031   0.063   2.480
20160SOL    HW160506   4.020   0.157   2.513
20160SOL    HW260507   4.026   0.000   2.557
20161SOL     OW60508   5.346   0.367   2.236
20161SOL    HW160509   5.348   0.291   2.300
20161SOL    HW260510   5.298   0.444   2.276
20162SOL     OW60511   4.747   0.766   2.828
20162SOL    HW160512   4.762   0.787   2.924
20162SOL    HW260513   4.717   0.671   2.819
20163SOL     OW60514   4.704   1.573   3.562
20163SOL    HW160515   4.684   1.617   3.474
20163SOL    HW260516   4.743   1.482   3.546
20164SOL     OW60517   5.583   1.518   3.467
20164SOL    HW160518   5.597   1.545   3.372
20164SOL    HW260519   5.666   1.540   3.520
20165SOL     OW60520   4.074   0.898   3.666
20165SOL    HW160521   4.150   0.942   3.714
20165SOL    HW260522   4.109   0.851   3.584
20166SOL     OW60523   5.264   0.274   1.987
20166SOL    HW160524   5.203   0.199   2.010
20166SOL    HW260525   5.286   0.326   2.070
20167SOL     OW60526   5.027   0.838   1.904
20167SOL    HW160527   5.061   0.745   1.919
20167SOL    HW260528   5.045   0.865   1.809
20168SOL     OW60529   4.792   1.333   2.711
20168SOL    HW160530   4.799   1.249   2.656
20168SOL    HW260531   4.854   1.402   2.675
20169SOL     OW60532   4.043   0.810   2.811
20169SOL    HW160533   4.136   0.846   2.816
20169SOL    HW260534   4.037   0.725   2.863
20170SOL     OW60535   4.063   0.509   2.868
20170SOL    HW160536   4.011   0.426   2.851
20170SOL    HW260537   4.140   0.514   2.804
20171SOL     OW60538   4.862   0.380   3.540
20171SOL    HW160539   4.817   0.443   3.604
20171SOL    HW260540   4.955   0.411   3.523
20172SOL     OW60541   4.884   0.207   3.339
20172SOL    HW160542   4.884   0.271   3.416
20172SOL    HW260543   4.912   0.255   3.256
20173SOL     OW60544   3.732   1.326   2.062
20173SOL    HW160545   3.639   1.347   2.031
20173SOL    HW260546   3.742   1.227   2.075
20174SOL     OW60547   3.812   1.801   2.789
20174SOL    HW160548   3.770   1.715   2.762
20174SOL    HW260549   3.906   1.804   2.755
20175SOL     OW60550   4.228   1.568   2.772
20175SOL    HW160551   4.294   1.642   2.781
20175SOL    HW260552   4.272   1.489   2.730
20176SOL     OW60553   4.726   0.796   3.100
20176SOL    HW160554   4.767   0.764   3.186
20176SOL    HW260555   4.630   0.769   3.097
20177SOL     OW60556   3.764   0.544   2.976
20177SOL    HW160557   3.849   0.511   2.935
20177SOL    HW260558   3.777   0.559   3.074
20178SOL     OW60559   3.913   0.520   3.584
20178SOL    HW160560   3.972   0.480   3.514
20178SOL    HW260561   3.855   0.591   3.543
20179SOL     OW60562   5.093   0.950   3.522
20179SOL    HW160563   5.132   1.039   3.542
20179SOL    HW260564   5.103   0.930   3.425
20180SOL     OW60565   4.539   0.572   2.187
20180SOL    HW160566   4.546   0.483   2.141
20180SOL    HW260567   4.445   0.606   2.179
20181SOL     OW60568   5.381   0.604   3.068
20181SOL    HW160569   5.343   0.535   3.130
20181SOL    HW260570   5.463   0.568   3.024
20182SOL     OW60571   3.976   1.564   3.606
20182SOL    HW160572   3.946   1.621   3.682
20182SOL    HW260573   3.969   1.467   3.632
20183SOL     OW60574   4.395   0.464   3.131
20183SOL    HW160575   4.361   0.375   3.101
20183SOL    HW260576   4.421   0.518   3.051
20184SOL     OW60577   4.654   1.678   3.327
20184SOL    HW160578   4.630   1.660   3.232
20184SOL    HW260579   4.684   1.772   3.337
20185SOL     OW60580   4.197   0.500   2.053
20185SOL    HW160581   4.258   0.580   2.057
20185SOL    HW260582   4.102   0.531   2.060
20186SOL     OW60583   3.883   1.137   3.328
20186SOL    HW160584   3.905   1.076   3.404
20186SOL    HW260585   3.893   1.088   3.242
20187SOL     OW60586   5.071   1.059   3.096
20187SOL    HW160587   5.095   0.996   3.022
20187SOL    HW260588   4.981   1.099   3.078
20188SOL     OW60589   5.026   0.855   2.171
20188SOL    HW160590   4.940   0.824   2.213
20188SOL    HW260591   5.022   0.841   2.072
20189SOL     OW60592   5.483   1.747   3.016
20189SOL    HW160593   5.544   1.777   2.943
20189SOL    HW260594   5.445   1.658   2.994
20190SOL     OW60595   4.976   1.731   2.990
20190SOL    HW160596   5.060   1.736   2.936
20190SOL    HW260597   4.953   1.635   3.008
20191SOL     OW60598   3.807   1.258   2.884
20191SOL    HW160599   3.802   1.257   2.984
20191SOL    HW260600   3.724   1.217   2.846
20192SOL     OW60601   4.412   1.662   3.578
20192SOL    HW160602   4.356   1.743   3.587
20192SOL    HW260603   4.464   1.666   3.492
20193SOL     OW60604   5.450   0.135   2.385
20193SOL    HW160605   5.523   0.118   2.318
20193SOL    HW260606   5.419   0.048   2.423
20194SOL     OW60607   5.112   1.573   2.339
20194SOL    HW160608   5.179   1.585   2.265
20194SOL    HW260609   5.072   1.662   2.362
20195SOL     OW60610   3.854   1.794   3.713
20195SOL    HW160611   3.813   1.720   3.766
20195SOL    HW260612   3.918   1.845   3.771
20196SOL     OW60613   5.004   0.927   2.534
20196SOL    HW160614   5.064   0.846   2.536
20196SOL    HW260615   5.044   0.996   2.474
20197SOL     OW60616   4.554   1.273   3.284
20197SOL    HW160617   4.549   1.306   3.379
20197SOL    HW260618   4.468   1.292   3.238
20198SOL     OW60619   4.396   1.616   2.016
20198SOL    HW160620   4.405   1.626   1.917
20198SOL    HW260621   4.356   1.527   2.037
20199SOL     OW60622   5.374   1.720   3.256
20199SOL    HW160623   5.427   1.730   3.172
20199SOL    HW260624   5.347   1.810   3.290
20200SOL     OW60625   5.565   0.175   2.825
20200SOL    HW160626   5.604   0.090   2.789
20200SOL    HW260627   5.467   0.177   2.806
20201SOL     OW60628   3.987   0.326   2.582
20201SOL    HW160629   3.908   0.377   2.548
20201SOL    HW260630   3.978   0.311   2.680
20202SOL     OW60631   4.918   1.612   1.893
20202SOL    HW160632   4.924   1.519   1.930
20202SOL    HW260633   4.859   1.612   1.813
20203SOL     OW60634   4.546   1.002   3.234
20203SOL    HW160635   4.586   1.001   3.142
20203SOL    HW260636   4.556   1.094   3.274
20204SOL     OW60637   4.640   0.910   2.153
20204SOL    HW160638   4.703   0.948   2.085
20204SOL    HW260639   4.680   0.827   2.192
20205SOL     OW60640   5.228   1.607   1.906
20205SOL    HW160641   5.136   1.644   1.913
20205SOL    HW260642   5.266   1.627   1.816
20206SOL     OW60643   4.096   1.288   3.352
20206SOL    HW160644   4.083   1.381   3.318
20206SOL    HW260645   4.012   1.236   3.339
20207SOL     OW60646   5.338   1.292   3.151
20207SOL    HW160647   5.398   1.295   3.231
20207SOL    HW260648   5.263   1.356   3.164
20208SOL     OW60649   4.763   1.098   2.558
20208SOL    HW160650   4.693   1.051   2.612
20208SOL    HW260651   4.822   1.030   2.515
20209SOL     OW60652   4.738   0.236   2.833
20209SOL    HW160653   4.730   0.200   2.740
20209SOL    HW260654   4.736   0.160   2.898
20210SOL     OW60655   4.314   1.487   2.353
20210SOL    HW160656   4.356   1.429   2.283
20210SOL    HW260657   4.270   1.566   2.309
20211SOL     OW60658   5.433   0.385   3.243
20211SOL    HW160659   5.506   0.454   3.247
20211SOL    HW260660   5.461   0.310   3.184
20212SOL     OW60661   3.979   1.348   2.152
20212SOL    HW160662   3.883   1.349   2.125
20212SOL    HW260663   3.991   1.401   2.236
20213SOL     OW60664   3.829   1.013   3.588
20213SOL    HW160665   3.752   0.980   3.642
20213SOL    HW260666   3.914   0.983   3.630
20214SOL     OW60667   4.396   0.203   3.351
20214SOL    HW160668   4.486   0.187   3.311
20214SOL    HW260669   4.404   0.208   3.450
20215SOL     OW60670   3.799   0.345   1.895
20215SOL    HW160671   3.707   0.317   1.866
20215SOL    HW260672   3.830   0.422   1.839
20216SOL     OW60673   5.164   0.856   3.260
20216SOL    HW160674   5.107   0.908   3.197
20216SOL    HW260675   5.260   0.868   3.236
20217SOL     OW60676   3.796   0.166   2.180
20217SOL    HW160677   3.779   0.249   2.126
20217SOL    HW260678   3.886   0.129   2.158
20218SOL     OW60679   4.907   1.335   1.981
20218SOL    HW160680   4.808   1.324   1.983
20218SOL    HW260681   4.941   1.350   2.074
20219SOL     OW60682   4.337   0.842   3.293
20219SOL    HW160683   4.393   0.923   3.276
20219SOL    HW260684   4.396   0.762   3.296
20220SOL     OW60685   5.217   1.767   2.821
20220SOL    HW160686   5.250   1.831   2.752
20220SOL    HW260687   5.283   1.761   2.896
20221SOL     OW60688   4.440   0.565   3.570
20221SOL    HW160689   4.459   0.630   3.644
20221SOL    HW260690   4.500   0.485   3.579
20222SOL     OW60691   5.174   1.220   3.495
20222SOL    HW160692   5.165   1.210   3.594
20222SOL    HW260693   5.270   1.213   3.469
20223SOL     OW60694   4.114   1.741   3.422
20223SOL    HW160695   4.023   1.782   3.420
20223SOL    HW260696   4.107   1.647   3.454
20224SOL     OW60697   5.398   0.883   3.116
20224SOL    HW160698   5.371   0.794   3.079
20224SOL    HW260699   5.399   0.951   3.043
20225SOL     OW60700   4.949   0.325   2.311
20225SOL    HW160701   5.014   0.251   2.300
20225SOL    HW260702   4.969   0.375   2.395
20226SOL     OW60703   4.318   0.745   2.514
20226SOL    HW160704   4.368   0.830   2.495
20226SOL    HW260705   4.230   0.747   2.466
20227SOL     OW60706   5.501   0.342   3.504
20227SOL    HW160707   5.484   0.373   3.410
20227SOL    HW260708   5.417   0.305   3.542
20228SOL     OW60709   5.454   0.934   3.379
20228SOL    HW160710   5.492   1.025   3.394
20228SOL    HW260711   5.446   0.917   3.280
20229SOL     OW60712   4.583   1.374   1.878
20229SOL    HW160713   4.537   1.389   1.966
20229SOL    HW260714   4.627   1.459   1.848
20230SOL     OW60715   4.385   1.790   2.815
20230SOL    HW160716   4.339   1.878   2.802
20230SOL    HW260717   4.484   1.802   2.808
20231SOL     OW60718   4.583   0.956   2.723
20231SOL    HW160719   4.637   0.887   2.771
20231SOL    HW260720   4.551   1.025   2.789
20232SOL     OW60721   4.807   0.984   1.949
20232SOL    HW160722   4.784   1.037   1.867
20232SOL    HW260723   4.888   0.928   1.930
20233SOL     OW60724   5.585   1.569   2.713
20233SOL    HW160725   5.514   1.557   2.643
20233SOL    HW260726   5.586   1.490   2.773
20234SOL     OW60727   3.945   1.314   3.706
20234SOL    HW160728   3.880   1.241   3.685
20234SOL    HW260729   3.949   1.328   3.804
20235SOL     OW60730   3.803   1.240   2.515
20235SOL    HW160731   3.802   1.193   2.603
20235SOL    HW260732   3.885   1.212   2.464
20236SOL     OW60733   4.396   1.391   3.486
20236SOL    HW160734   4.318   1.341   3.524
20236SOL    HW260735   4.393   1.486   3.517
20237SOL     OW60736   5.548   0.192   3.089
20237SOL    HW160737   5.544   0.102   3.133
20237SOL    HW260738   5.551   0.181   2.990
20238SOL     OW60739   4.152   0.424   2.382
20238SOL    HW160740   4.182   0.352   2.320
20238SOL    HW260741   4.113   0.384   2.465
20239SOL     OW60742   5.429   1.487   2.966
20239SOL    HW160743   5.336   1.462   2.939
20239SOL    HW260744   5.455   1.437   3.048
20240SOL     OW60745   4.041   0.547   3.142
20240SOL    HW160746   4.079   0.488   3.214
20240SOL    HW260747   4.081   0.521   3.054
20241SOL     OW60748   4.536   1.586   2.549
20241SOL    HW160749   4.568   1.596   2.455
20241SOL    HW260750   4.457   1.524   2.551
20242SOL     OW60751   5.148   0.214   2.974
20242SOL    HW160752   5.200   0.149   3.029
20242SOL    HW260753   5.099   0.277   3.035
20243SOL     OW60754   4.725   0.034   3.016
20243SOL    HW160755   4.662  -0.038   2.985
20243SOL    HW260756   4.818  -0.002   3.016
20244SOL     OW60757   4.494   1.330   2.163
20244SOL    HW160758   4.448   1.243   2.180
20244SOL    HW260759   4.585   1.327   2.204
20245SOL     OW60760   4.342   1.567   3.146
20245SOL    HW160761   4.337   1.649   3.203
20245SOL    HW260762   4.431   1.564   3.101
20246SOL     OW60763   5.076   0.052   2.030
20246SOL    HW160764   5.111   0.011   1.946
20246SOL    HW260765   4.986   0.014   2.050
20247SOL     OW60766   5.024   0.453   2.553
20247SOL    HW160767   4.965   0.533   2.557
20247SOL    HW260768   5.039   0.418   2.646
20248SOL     OW60769   5.317   0.221   2.744
20248SOL    HW160770   5.233   0.220   2.798
20248SOL    HW260771   5.319   0.304   2.688
20249SOL     OW60772   3.763   1.077   2.162
20249SOL    HW160773   3.862   1.066   2.153
20249SOL    HW260774   3.723   0.991   2.194
20250SOL     OW60775   4.599   1.646   2.199
20250SOL    HW160776   4.522   1.611   2.145
20250SOL    HW260777   4.567   1.717   2.261
20251SOL     OW60778   3.954   0.628   3.837
20251SOL    HW160779   3.861   0.626   3.874
20251SOL    HW260780   3.955   0.589   3.745
20252SOL     OW60781   3.949   0.275   4.720
20252SOL    HW160782   3.984   0.258   4.812
20252SOL    HW260783   3.861   0.230   4.708
20253SOL     OW60784   3.743   0.368   4.371
20253SOL    HW160785   3.661   0.411   4.410
20253SOL    HW260786   3.715   0.295   4.308
20254SOL     OW60787   4.293   1.275   4.889
20254SOL    HW160788   4.200   1.268   4.852
20254SOL    HW260789   4.304   1.364   4.933
20255SOL     OW60790   5.279   1.511   4.427
20255SOL    HW160791   5.222   1.495   4.508
20255SOL    HW260792   5.220   1.521   4.347
20256SOL     OW60793   4.859   0.703   4.441
20256SOL    HW160794   4.916   0.781   4.416
20256SOL    HW260795   4.799   0.729   4.517
20257SOL     OW60796   5.479   0.607   3.955
20257SOL    HW160797   5.467   0.594   3.856
20257SOL    HW260798   5.449   0.526   4.004
20258SOL     OW60799   4.492   1.144   4.747
20258SOL    HW160800   4.414   1.161   4.807
20258SOL    HW260801   4.526   1.231   4.711
20259SOL     OW60802   4.574   0.798   5.547
20259SOL    HW160803   4.570   0.874   5.612
20259SOL    HW260804   4.596   0.834   5.456
20260SOL     OW60805   4.409   1.012   4.389
20260SOL    HW160806   4.478   0.996   4.459
20260SOL    HW260807   4.336   1.069   4.427
20261SOL     OW60808   4.410   1.161   5.527
20261SOL    HW160809   4.470   1.240   5.541
20261SOL    HW260810   4.324   1.192   5.486
20262SOL     OW60811   4.059   1.435   4.785
20262SOL    HW160812   3.981   1.404   4.732
20262SOL    HW260813   4.117   1.493   4.728
20263SOL     OW60814   5.184   1.505   5.063
20263SOL    HW160815   5.208   1.599   5.089
20263SOL    HW260816   5.168   1.451   5.145
20264SOL     OW60817   4.162   0.392   5.223
20264SOL    HW160818   4.244   0.336   5.232
20264SOL    HW260819   4.081   0.334   5.227
20265SOL     OW60820   5.327   0.447   4.461
20265SOL    HW160821   5.253   0.493   4.411
20265SOL    HW260822   5.378   0.515   4.514
20266SOL     OW60823   3.955   1.713   4.207
20266SOL    HW160824   3.989   1.790   4.261
20266SOL    HW260825   3.999   1.713   4.117
20267SOL     OW60826   4.851   1.341   5.414
20267SOL    HW160827   4.898   1.341   5.502
20267SOL    HW260828   4.803   1.254   5.403
20268SOL     OW60829   3.954   1.434   4.262
20268SOL    HW160830   3.928   1.530   4.262
20268SOL    HW260831   3.883   1.380   4.307
20269SOL     OW60832   3.964   1.091   4.610
20269SOL    HW160833   3.978   1.007   4.662
20269SOL    HW260834   3.909   1.155   4.665
20270SOL     OW60835   4.344   1.786   5.163
20270SOL    HW160836   4.252   1.769   5.198
20270SOL    HW260837   4.372   1.878   5.189
20271SOL     OW60838   4.330   0.964   3.847
20271SOL    HW160839   4.337   1.048   3.793
20271SOL    HW260840   4.376   0.977   3.935
20272SOL     OW60841   5.318   0.114   5.204
20272SOL    HW160842   5.300   0.181   5.132
20272SOL    HW260843   5.315   0.160   5.293
20273SOL     OW60844   3.846   0.643   4.287
20273SOL    HW160845   3.801   0.555   4.304
20273SOL    HW260846   3.845   0.697   4.371
20274SOL     OW60847   5.566   1.767   4.083
20274SOL    HW160848   5.620   1.738   4.163
20274SOL    HW260849   5.596   1.857   4.054
20275SOL     OW60850   3.751   1.596   3.841
20275SOL    HW160851   3.732   1.500   3.862
20275SOL    HW260852   3.718   1.654   3.916
20276SOL     OW60853   5.413   0.922   4.336
20276SOL    HW160854   5.508   0.893   4.344
20276SOL    HW260855   5.405   0.987   4.261
20277SOL     OW60856   5.365   1.108   4.156
20277SOL    HW160857   5.451   1.110   4.104
20277SOL    HW260858   5.379   1.155   4.244
20278SOL     OW60859   3.837   0.737   5.321
20278SOL    HW160860   3.925   0.724   5.366
20278SOL    HW260861   3.824   0.834   5.299
20279SOL     OW60862   4.337   1.365   4.450
20279SOL    HW160863   4.288   1.278   4.459
20279SOL    HW260864   4.314   1.408   4.363
20280SOL     OW60865   5.017   1.228   5.147
20280SOL    HW160866   5.054   1.155   5.089
20280SOL    HW260867   5.069   1.233   5.232
20281SOL     OW60868   4.533   0.004   4.226
20281SOL    HW160869   4.573   0.095   4.217
20281SOL    HW260870   4.433   0.012   4.232
20282SOL     OW60871   3.921   0.976   4.988
20282SOL    HW160872   4.010   0.931   4.974
20282SOL    HW260873   3.848   0.911   4.969
20283SOL     OW60874   5.249   0.999   3.914
20283SOL    HW160875   5.186   0.923   3.927
20283SOL    HW260876   5.297   1.017   4.000
20284SOL     OW60877   4.911   1.792   5.340
20284SOL    HW160878   4.935   1.852   5.264
20284SOL    HW260879   4.918   1.697   5.310
20285SOL     OW60880   4.041   0.251   5.525
20285SOL    HW160881   4.112   0.322   5.531
20285SOL    HW260882   3.953   0.290   5.553
20286SOL     OW60883   5.190   1.417   4.677
20286SOL    HW160884   5.131   1.423   4.757
20286SOL    HW260885   5.175   1.329   4.631
20287SOL     OW60886   5.391   1.714   4.296
20287SOL    HW160887   5.350   1.691   4.208
20287SOL    HW260888   5.373   1.640   4.361
20288SOL     OW60889   4.322   0.729   3.994
20288SOL    HW160890   4.346   0.798   3.926
20288SOL    HW260891   4.244   0.762   4.048
20289SOL     OW60892   5.005   0.345   4.668
20289SOL    HW160893   4.919   0.295   4.655
20289SOL    HW260894   5.067   0.291   4.724
20290SOL     OW60895   5.300   1.662   4.031
20290SOL    HW160896   5.389   1.708   4.034
20290SOL    HW260897   5.279   1.638   3.936
20291SOL     OW60898   4.531   0.605   5.189
20291SOL    HW160899   4.484   0.602   5.278
20291SOL    HW260900   4.480   0.550   5.123
20292SOL     OW60901   5.118   0.469   5.398
20292SOL    HW160902   5.098   0.512   5.486
20292SOL    HW260903   5.196   0.407   5.407
20293SOL     OW60904   4.697   0.890   5.296
20293SOL    HW160905   4.743   0.806   5.267
20293SOL    HW260906   4.641   0.924   5.221
20294SOL     OW60907   4.715   0.410   4.966
20294SOL    HW160908   4.638   0.444   5.020
20294SOL    HW260909   4.681   0.359   4.887
20295SOL     OW60910   4.765   0.701   4.153
20295SOL    HW160911   4.791   0.697   4.249
20295SOL    HW260912   4.680   0.650   4.139
20296SOL     OW60913   3.800   0.811   4.513
20296SOL    HW160914   3.899   0.799   4.522
20296SOL    HW260915   3.776   0.906   4.534
20297SOL     OW60916   3.854   1.821   5.295
20297SOL    HW160917   3.844   1.806   5.394
20297SOL    HW260918   3.768   1.857   5.259
20298SOL     OW60919   4.589   0.348   3.919
20298SOL    HW160920   4.648   0.411   3.870
20298SOL    HW260921   4.608   0.254   3.890
20299SOL     OW60922   5.443   0.585   5.555
20299SOL    HW160923   5.417   0.674   5.519
20299SOL    HW260924   5.441   0.517   5.482
20300SOL     OW60925   5.086   1.144   4.269
20300SOL    HW160926   5.169   1.115   4.221
20300SOL    HW260927   5.037   1.211   4.213
20301SOL     OW60928   4.274   0.196   4.609
20301SOL    HW160929   4.269   0.191   4.709
20301SOL    HW260930   4.276   0.292   4.580
20302SOL     OW60931   4.732   1.456   4.201
20302SOL    HW160932   4.686   1.528   4.149
20302SOL    HW260933   4.728   1.476   4.299
20303SOL     OW60934   4.075   1.801   4.577
20303SOL    HW160935   4.125   1.715   4.583
20303SOL    HW260936   4.140   1.878   4.574
20304SOL     OW60937   5.519   1.066   4.597
20304SOL    HW160938   5.457   1.051   4.521
20304SOL    HW260939   5.467   1.077   4.682
20305SOL     OW60940   4.951   1.550   5.230
20305SOL    HW160941   4.957   1.473   5.294
20305SOL    HW260942   4.899   1.524   5.150
20306SOL     OW60943   4.045   0.943   3.966
20306SOL    HW160944   4.127   0.982   3.924
20306SOL    HW260945   4.018   0.861   3.917
20307SOL     OW60946   5.182   0.735   4.452
20307SOL    HW160947   5.177   0.670   4.527
20307SOL    HW260948   5.262   0.794   4.465
20308SOL     OW60949   4.185   1.266   5.451
20308SOL    HW160950   4.135   1.267   5.365
20308SOL    HW260951   4.122   1.248   5.527
20309SOL     OW60952   4.835   1.776   3.961
20309SOL    HW160953   4.775   1.714   4.011
20309SOL    HW260954   4.866   1.732   3.876
20310SOL     OW60955   3.926   0.285   5.222
20310SOL    HW160956   3.846   0.345   5.209
20310SOL    HW260957   3.916   0.236   5.308
20311SOL     OW60958   5.356   1.377   3.805
20311SOL    HW160959   5.324   1.471   3.795
20311SOL    HW260960   5.280   1.314   3.793
20312SOL     OW60961   4.188   1.743   4.047
20312SOL    HW160962   4.221   1.782   4.133
20312SOL    HW260963   4.264   1.736   3.982
20313SOL     OW60964   5.124   0.107   4.150
20313SOL    HW160965   5.100   0.070   4.060
20313SOL    HW260966   5.223   0.123   4.154
20314SOL     OW60967   3.973   1.785   4.965
20314SOL    HW160968   4.030   1.720   5.015
20314SOL    HW260969   3.957   1.752   4.872
20315SOL     OW60970   4.664   1.698   4.628
20315SOL    HW160971   4.744   1.641   4.649
20315SOL    HW260972   4.615   1.658   4.551
20316SOL     OW60973   4.106   0.700   4.204
20316SOL    HW160974   4.151   0.610   4.201
20316SOL    HW260975   4.012   0.689   4.237
20317SOL     OW60976   5.271   0.222   5.453
20317SOL    HW160977   5.266   0.259   5.545
20317SOL    HW260978   5.199   0.153   5.441
20318SOL     OW60979   4.338   0.122   3.841
20318SOL    HW160980   4.436   0.100   3.848
20318SOL    HW260981   4.307   0.105   3.748
20319SOL     OW60982   4.505   0.264   5.473
20319SOL    HW160983   4.572   0.203   5.516
20319SOL    HW260984   4.432   0.283   5.538
20320SOL     OW60985   4.612   1.514   4.919
20320SOL    HW160986   4.589   1.489   4.825
20320SOL    HW260987   4.673   1.445   4.958
20321SOL     OW60988   5.075   0.590   5.157
20321SOL    HW160989   5.103   0.547   5.242
20321SOL    HW260990   5.100   0.686   5.158
20322SOL     OW60991   4.527   1.402   4.648
20322SOL    HW160992   4.617   1.416   4.606
20322SOL    HW260993   4.456   1.404   4.577
20323SOL     OW60994   4.646   0.503   4.623
20323SOL    HW160995   4.621   0.494   4.527
20323SOL    HW260996   4.694   0.421   4.654
20324SOL     OW60997   4.263   0.064   4.236
20324SOL    HW160998   4.182   0.065   4.294
20324SOL    HW260999   4.266   0.147   4.181
20325SOL     OW61000   5.158   1.188   3.765
20325SOL    HW161001   5.190   1.112   3.822
20325SOL    HW261002   5.066   1.215   3.795
20326SOL     OW61003   4.021   0.035   3.895
20326SOL    HW161004   4.070   0.119   3.874
20326SOL    HW261005   4.083  -0.030   3.940
20327SOL     OW61006   4.659   0.236   4.204
20327SOL    HW161007   4.611   0.277   4.126
20327SOL    HW261008   4.758   0.234   4.185
20328SOL     OW61009   4.800   0.683   5.188
20328SOL    HW161010   4.720   0.622   5.191
20328SOL    HW261011   4.881   0.630   5.164
20329SOL     OW61012   4.951   1.570   4.517
20329SOL    HW161013   4.972   1.644   4.452
20329SOL    HW261014   5.019   1.570   4.590
20330SOL     OW61015   4.183   1.152   4.465
20330SOL    HW161016   4.112   1.125   4.530
20330SOL    HW261017   4.157   1.124   4.372
20331SOL     OW61018   4.995   1.797   4.315
20331SOL    HW161019   5.039   1.861   4.251
20331SOL    HW261020   4.945   1.849   4.385
20332SOL     OW61021   4.756   0.549   3.740
20332SOL    HW161022   4.715   0.631   3.701
20332SOL    HW261023   4.820   0.575   3.813
20333SOL     OW61024   3.802   0.556   5.110
20333SOL    HW161025   3.894   0.555   5.069
20333SOL    HW261026   3.796   0.630   5.177
20334SOL     OW61027   4.285   0.222   4.871
20334SOL    HW161028   4.323   0.138   4.908
20334SOL    HW261029   4.197   0.241   4.915
20335SOL     OW61030   4.590   0.454   4.366
20335SOL    HW161031   4.558   0.526   4.304
20335SOL    HW261032   4.614   0.373   4.313
20336SOL     OW61033   4.741   0.039   4.477
20336SOL    HW161034   4.669   0.044   4.408
20336SOL    HW261035   4.717  -0.030   4.546
20337SOL     OW61036   5.153   1.173   4.591
20337SOL    HW161037   5.098   1.089   4.584
20337SOL    HW261038   5.179   1.202   4.499
20338SOL     OW61039   5.190   0.590   4.716
20338SOL    HW161040   5.160   0.495   4.723
20338SOL    HW261041   5.263   0.606   4.782
20339SOL     OW61042   5.581   0.833   4.101
20339SOL    HW161043   5.623   0.769   4.165
20339SOL    HW261044   5.543   0.782   4.023
20340SOL     OW61045   4.212   1.385   3.898
20340SOL    HW161046   4.125   1.370   3.945
20340SOL    HW261047   4.195   1.411   3.803
20341SOL     OW61048   5.388   1.280   4.381
20341SOL    HW161049   5.487   1.288   4.395
20341SOL    HW261050   5.343   1.364   4.412
20342SOL     OW61051   5.114   0.575   3.802
20342SOL    HW161052   5.060   0.554   3.883
20342SOL    HW261053   5.205   0.534   3.811
20343SOL     OW61054   4.251   0.256   4.052
20343SOL    HW161055   4.278   0.197   3.977
20343SOL    HW261056   4.251   0.351   4.021
20344SOL     OW61057   5.478   1.223   5.312
20344SOL    HW161058   5.569   1.184   5.299
20344SOL    HW261059   5.486   1.319   5.336
20345SOL     OW61060   4.788   1.347   5.064
20345SOL    HW161061   4.708   1.324   5.119
20345SOL    HW261062   4.871   1.321   5.113
20346SOL     OW61063   5.316   1.629   5.349
20346SOL    HW161064   5.343   1.663   5.259
20346SOL    HW261065   5.395   1.591   5.395
20347SOL     OW61066   4.835   1.195   4.824
20347SOL    HW161067   4.795   1.239   4.905
20347SOL    HW261068   4.794   1.232   4.741
20348SOL     OW61069   5.362   1.099   4.803
20348SOL    HW161070   5.367   1.180   4.862
20348SOL    HW261071   5.276   1.101   4.752
20349SOL     OW61072   4.639   0.089   5.126
20349SOL    HW161073   4.664   0.069   5.031
20349SOL    HW261074   4.711   0.145   5.168
20350SOL     OW61075   4.704   1.116   5.443
20350SOL    HW161076   4.605   1.122   5.453
20350SOL    HW261077   4.727   1.036   5.387
20351SOL     OW61078   4.429   1.050   4.092
20351SOL    HW161079   4.415   1.057   4.191
20351SOL    HW261080   4.513   0.999   4.074
20352SOL     OW61081   4.134   0.813   4.975
20352SOL    HW161082   4.220   0.825   5.025
20352SOL    HW261083   4.092   0.726   5.002
20353SOL     OW61084   4.998   0.386   4.986
20353SOL    HW161085   5.019   0.460   5.050
20353SOL    HW261086   4.909   0.403   4.943
20354SOL     OW61087   3.788   1.564   5.055
20354SOL    HW161088   3.742   1.646   5.021
20354SOL    HW261089   3.886   1.583   5.064
20355SOL     OW61090   4.091   1.100   4.225
20355SOL    HW161091   4.084   1.183   4.169
20355SOL    HW261092   4.095   1.020   4.165
20356SOL     OW61093   4.290   0.537   4.589
20356SOL    HW161094   4.302   0.603   4.515
20356SOL    HW261095   4.336   0.571   4.672
20357SOL     OW61096   4.976   1.348   4.112
20357SOL    HW161097   5.026   1.425   4.152
20357SOL    HW261098   4.881   1.350   4.144
20358SOL     OW61099   4.996   1.445   4.866
20358SOL    HW161100   5.043   1.458   4.953
20358SOL    HW261101   4.930   1.371   4.875
20359SOL     OW61102   5.306   0.639   4.196
20359SOL    HW161103   5.275   0.700   4.269
20359SOL    HW261104   5.356   0.691   4.127
20360SOL     OW61105   4.078   1.510   5.053
20360SOL    HW161106   4.057   1.466   4.966
20360SOL    HW261107   4.175   1.536   5.056
20361SOL     OW61108   4.126   0.751   5.322
20361SOL    HW161109   4.194   0.806   5.275
20361SOL    HW261110   4.166   0.663   5.349
20362SOL     OW61111   5.311   0.779   5.394
20362SOL    HW161112   5.219   0.817   5.389
20362SOL    HW261113   5.371   0.826   5.329
20363SOL     OW61114   4.737   0.105   5.494
20363SOL    HW161115   4.743   0.190   5.442
20363SOL    HW261116   4.769   0.029   5.437
20364SOL     OW61117   4.228   0.050   5.464
20364SOL    HW161118   4.186  -0.007   5.394
20364SOL    HW261119   4.162   0.119   5.496
20365SOL     OW61120   4.297   0.870   4.753
20365SOL    HW161121   4.341   0.959   4.744
20365SOL    HW261122   4.234   0.870   4.830
20366SOL     OW61123   5.084   0.862   4.769
20366SOL    HW161124   5.009   0.862   4.703
20366SOL    HW261125   5.121   0.770   4.778
20367SOL     OW61126   4.933   0.525   3.999
20367SOL    HW161127   4.946   0.441   4.053
20367SOL    HW261128   4.904   0.599   4.059
20368SOL     OW61129   4.031   0.213   4.955
20368SOL    HW161130   4.008   0.250   5.045
20368SOL    HW261131   4.001   0.118   4.949
20369SOL     OW61132   3.761   1.310   5.006
20369SOL    HW161133   3.814   1.261   5.074
20369SOL    HW261134   3.783   1.408   5.011
20370SOL     OW61135   4.456   0.634   4.788
20370SOL    HW161136   4.515   0.608   4.712
20370SOL    HW261137   4.428   0.730   4.777
20371SOL     OW61138   5.452   0.935   5.578
20371SOL    HW161139   5.406   0.928   5.489
20371SOL    HW261140   5.390   0.979   5.644
20372SOL     OW61141   4.031   0.063   4.342
20372SOL    HW161142   4.020   0.157   4.375
20372SOL    HW261143   4.026   0.000   4.419
20373SOL     OW61144   5.346   0.367   4.098
20373SOL    HW161145   5.348   0.291   4.162
20373SOL    HW261146   5.298   0.444   4.138
20374SOL     OW61147   4.747   0.766   4.690
20374SOL    HW161148   4.762   0.787   4.786
20374SOL    HW261149   4.717   0.671   4.681
20375SOL     OW61150   4.704   1.573   5.424
20375SOL    HW161151   4.684   1.617   5.336
20375SOL    HW261152   4.743   1.482   5.408
20376SOL     OW61153   5.583   1.518   5.329
20376SOL    HW161154   5.597   1.545   5.234
20376SOL    HW261155   5.666   1.540   5.382
20377SOL     OW61156   4.074   0.898   5.528
20377SOL    HW161157   4.150   0.942   5.576
20377SOL    HW261158   4.109   0.851   5.446
20378SOL     OW61159   5.264   0.274   3.849
20378SOL    HW161160   5.203   0.199   3.872
20378SOL    HW261161   5.286   0.326   3.932
20379SOL     OW61162   5.027   0.838   3.766
20379SOL    HW161163   5.061   0.745   3.781
20379SOL    HW261164   5.045   0.865   3.671
20380SOL     OW61165   4.792   1.333   4.573
20380SOL    HW161166   4.799   1.249   4.518
20380SOL    HW261167   4.854   1.402   4.537
20381SOL     OW61168   4.043   0.810   4.673
20381SOL    HW161169   4.136   0.846   4.678
20381SOL    HW261170   4.037   0.725   4.725
20382SOL     OW61171   4.063   0.509   4.730
20382SOL    HW161172   4.011   0.426   4.713
20382SOL    HW261173   4.140   0.514   4.666
20383SOL     OW61174   4.862   0.380   5.402
20383SOL    HW161175   4.817   0.443   5.466
20383SOL    HW261176   4.955   0.411   5.385
20384SOL     OW61177   4.884   0.207   5.201
20384SOL    HW161178   4.884   0.271   5.278
20384SOL    HW261179   4.912   0.255   5.118
20385SOL     OW61180   3.732   1.326   3.924
20385SOL    HW161181   3.639   1.347   3.893
20385SOL    HW261182   3.742   1.227   3.937
20386SOL     OW61183   3.812   1.801   4.651
20386SOL    HW161184   3.770   1.715   4.624
20386SOL    HW261185   3.906   1.804   4.617
20387SOL     OW61186   4.228   1.568   4.634
20387SOL    HW161187   4.294   1.642   4.643
20387SOL    HW261188   4.272   1.489   4.592
20388SOL     OW61189   4.726   0.796   4.962
20388SOL    HW161190   4.767   0.764   5.048
20388SOL    HW261191   4.630   0.769   4.959
20389SOL     OW61192   3.764   0.544   4.838
20389SOL    HW161193   3.849   0.511   4.797
20389SOL    HW261194   3.777   0.559   4.936
20390SOL     OW61195   3.913   0.520   5.446
20390SOL    HW161196   3.972   0.480   5.376
20390SOL    HW261197   3.855   0.591   5.405
20391SOL     OW61198   5.093   0.950   5.384
20391SOL    HW161199   5.132   1.039   5.404
20391SOL    HW261200   5.103   0.930   5.287
20392SOL     OW61201   4.539   0.572   4.049
20392SOL    HW161202   4.546   0.483   4.003
20392SOL    HW261203   4.445   0.606   4.041
20393SOL     OW61204   5.381   0.604   4.930
20393SOL    HW161205   5.343   0.535   4.992
20393SOL    HW261206   5.463   0.568   4.886
20394SOL     OW61207   3.976   1.564   5.468
20394SOL    HW161208   3.946   1.621   5.544
20394SOL    HW261209   3.969   1.467   5.494
20395SOL     OW61210   4.395   0.464   4.993
20395SOL    HW161211   4.361   0.375   4.963
20395SOL    HW261212   4.421   0.518   4.913
20396SOL     OW61213   4.654   1.678   5.189
20396SOL    HW161214   4.630   1.660   5.094
20396SOL    HW261215   4.684   1.772   5.199
20397SOL     OW61216   4.197   0.500   3.915
20397SOL    HW161217   4.258   0.580   3.919
20397SOL    HW261218   4.102   0.531   3.922
20398SOL     OW61219   3.883   1.137   5.190
20398SOL    HW161220   3.905   1.076   5.266
20398SOL    HW261221   3.893   1.088   5.104
20399SOL     OW61222   5.071   1.059   4.958
20399SOL    HW161223   5.095   0.996   4.884
20399SOL    HW261224   4.981   1.099   4.940
20400SOL     OW61225   5.026   0.855   4.033
20400SOL    HW161226   4.940   0.824   4.075
20400SOL    HW261227   5.022   0.841   3.934
20401SOL     OW61228   5.483   1.747   4.878
20401SOL    HW161229   5.544   1.777   4.805
20401SOL    HW261230   5.445   1.658   4.856
20402SOL     OW61231   4.976   1.731   4.852
20402SOL    HW161232   5.060   1.736   4.798
20402SOL    HW261233   4.953   1.635   4.870
20403SOL     OW61234   3.807   1.258   4.746
20403SOL    HW161235   3.802   1.257   4.846
20403SOL    HW261236   3.724   1.217   4.708
20404SOL     OW61237   4.412   1.662   5.440
20404SOL    HW161238   4.356   1.743   5.449
20404SOL    HW261239   4.464   1.666   5.354
20405SOL     OW61240   5.450   0.135   4.247
20405SOL    HW161241   5.523   0.118   4.180
20405SOL    HW261242   5.419   0.048   4.285
20406SOL     OW61243   5.112   1.573   4.201
20406SOL    HW161244   5.179   1.585   4.127
20406SOL    HW261245   5.072   1.662   4.224
20407SOL     OW61246   3.854   1.794   5.575
20407SOL    HW161247   3.813   1.720   5.628
20407SOL    HW261248   3.918   1.845   5.633
20408SOL     OW61249   5.004   0.927   4.396
20408SOL    HW161250   5.064   0.846   4.398
20408SOL    HW261251   5.044   0.996   4.336
20409SOL     OW61252   4.554   1.273   5.146
20409SOL    HW161253   4.549   1.306   5.241
20409SOL    HW261254   4.468   1.292   5.100
20410SOL     OW61255   4.396   1.616   3.878
20410SOL    HW161256   4.405   1.626   3.779
20410SOL    HW261257   4.356   1.527   3.899
20411SOL     OW61258   5.374   1.720   5.118
20411SOL    HW161259   5.427   1.730   5.034
20411SOL    HW261260   5.347   1.810   5.152
20412SOL     OW61261   5.565   0.175   4.687
20412SOL    HW161262   5.604   0.090   4.651
20412SOL    HW261263   5.467   0.177   4.668
20413SOL     OW61264   3.987   0.326   4.444
20413SOL    HW161265   3.908   0.377   4.410
20413SOL    HW261266   3.978   0.311   4.542
20414SOL     OW61267   4.918   1.612   3.755
20414SOL    HW161268   4.924   1.519   3.792
20414SOL    HW261269   4.859   1.612   3.675
20415SOL     OW61270   4.546   1.002   5.096
20415SOL    HW161271   4.586   1.001   5.004
20415SOL    HW261272   4.556   1.094   5.136
20416SOL     OW61273   4.640   0.910   4.015
20416SOL    HW161274   4.703   0.948   3.947
20416SOL    HW261275   4.680   0.827   4.054
20417SOL     OW61276   5.228   1.607   3.768
20417SOL    HW161277   5.136   1.644   3.775
20417SOL    HW261278   5.266   1.627   3.678
20418SOL     OW61279   4.096   1.288   5.214
20418SOL    HW161280   4.083   1.381   5.180
20418SOL    HW261281   4.012   1.236   5.201
20419SOL     OW61282   5.338   1.292   5.013
20419SOL    HW161283   5.398   1.295   5.093
20419SOL    HW261284   5.263   1.356   5.026
20420SOL     OW61285   4.763   1.098   4.420
20420SOL    HW161286   4.693   1.051   4.474
20420SOL    HW261287   4.822   1.030   4.377
20421SOL     OW61288   4.738   0.236   4.695
20421SOL    HW161289   4.730   0.200   4.602
20421SOL    HW261290   4.736   0.160   4.760
20422SOL     OW61291   4.314   1.487   4.215
20422SOL    HW161292   4.356   1.429   4.145
20422SOL    HW261293   4.270   1.566   4.171
20423SOL     OW61294   5.433   0.385   5.105
20423SOL    HW161295   5.506   0.454   5.109
20423SOL    HW261296   5.461   0.310   5.046
20424SOL     OW61297   3.979   1.348   4.014
20424SOL    HW161298   3.883   1.349   3.987
20424SOL    HW261299   3.991   1.401   4.098
20425SOL     OW61300   3.829   1.013   5.450
20425SOL    HW161301   3.752   0.980   5.504
20425SOL    HW261302   3.914   0.983   5.492
20426SOL     OW61303   4.396   0.203   5.213
20426SOL    HW161304   4.486   0.187   5.173
20426SOL    HW261305   4.404   0.208   5.312
20427SOL     OW61306   3.799   0.345   3.757
20427SOL    HW161307   3.707   0.317   3.728
20427SOL    HW261308   3.830   0.422   3.701
20428SOL     OW61309   5.164   0.856   5.122
20428SOL    HW161310   5.107   0.908   5.059
20428SOL    HW261311   5.260   0.868   5.098
20429SOL     OW61312   3.796   0.166   4.042
20429SOL    HW161313   3.779   0.249   3.988
20429SOL    HW261314   3.886   0.129   4.020
20430SOL     OW61315   4.907   1.335   3.843
20430SOL    HW161316   4.808   1.324   3.845
20430SOL    HW261317   4.941   1.350   3.936
20431SOL     OW61318   4.337   0.842   5.155
20431SOL    HW161319   4.393   0.923   5.138
20431SOL    HW261320   4.396   0.762   5.158
20432SOL     OW61321   5.217   1.767   4.683
20432SOL    HW161322   5.250   1.831   4.614
20432SOL    HW261323   5.283   1.761   4.758
20433SOL     OW61324   4.440   0.565   5.432
20433SOL    HW161325   4.459   0.630   5.506
20433SOL    HW261326   4.500   0.485   5.441
20434SOL     OW61327   5.174   1.220   5.357
20434SOL    HW161328   5.165   1.210   5.456
20434SOL    HW261329   5.270   1.213   5.331
20435SOL     OW61330   4.114   1.741   5.284
20435SOL    HW161331   4.023   1.782   5.282
20435SOL    HW261332   4.107   1.647   5.316
20436SOL     OW61333   5.398   0.883   4.978
20436SOL    HW161334   5.371   0.794   4.941
20436SOL    HW261335   5.399   0.951   4.905
20437SOL     OW61336   4.949   0.325   4.173
20437SOL    HW161337   5.014   0.251   4.162
20437SOL    HW261338   4.969   0.375   4.257
20438SOL     OW61339   4.318   0.745   4.376
20438SOL    HW161340   4.368   0.830   4.357
20438SOL    HW261341   4.230   0.747   4.328
20439SOL     OW61342   5.501   0.342   5.366
20439SOL    HW161343   5.484   0.373   5.272
20439SOL    HW261344   5.417   0.305   5.404
20440SOL     OW61345   5.454   0.934   5.241
20440SOL    HW161346   5.492   1.025   5.256
20440SOL    HW261347   5.446   0.917   5.142
20441SOL     OW61348   4.583   1.374   3.740
20441SOL    HW161349   4.537   1.389   3.828
20441SOL    HW261350   4.627   1.459   3.710
20442SOL     OW61351   4.385   1.790   4.677
20442SOL    HW161352   4.339   1.878   4.664
20442SOL    HW261353   4.484   1.802   4.670
20443SOL     OW61354   4.583   0.956   4.585
20443SOL    HW161355   4.637   0.887   4.633
20443SOL    HW261356   4.551   1.025   4.651
20444SOL     OW61357   4.807   0.984   3.811
20444SOL    HW161358   4.784   1.037   3.729
20444SOL    HW261359   4.888   0.928   3.792
20445SOL     OW61360   5.585   1.569   4.575
20445SOL    HW161361   5.514   1.557   4.505
20445SOL    HW261362   5.586   1.490   4.635
20446SOL     OW61363   3.945   1.314   5.568
20446SOL    HW161364   3.880   1.241   5.547
20446SOL    HW261365   3.949   1.328   5.666
20447SOL     OW61366   3.803   1.240   4.377
20447SOL    HW161367   3.802   1.193   4.465
20447SOL    HW261368   3.885   1.212   4.326
20448SOL     OW61369   4.396   1.391   5.348
20448SOL    HW161370   4.318   1.341   5.386
20448SOL    HW261371   4.393   1.486   5.379
20449SOL     OW61372   5.548   0.192   4.951
20449SOL    HW161373   5.544   0.102   4.995
20449SOL    HW261374   5.551   0.181   4.852
20450SOL     OW61375   4.152   0.424   4.244
20450SOL    HW161376   4.182   0.352   4.182
20450SOL    HW261377   4.113   0.384   4.327
20451SOL     OW61378   5.429   1.487   4.828
20451SOL    HW161379   5.336   1.462   4.801
20451SOL    HW261380   5.455   1.437   4.910
20452SOL     OW61381   4.041   0.547   5.004
20452SOL    HW161382   4.079   0.488   5.076
20452SOL    HW261383   4.081   0.521   4.916
20453SOL     OW61384   4.536   1.586   4.411
20453SOL    HW161385   4.568   1.596   4.317
20453SOL    HW261386   4.457   1.524   4.413
20454SOL     OW61387   5.148   0.214   4.836
20454SOL    HW161388   5.200   0.149   4.891
20454SOL    HW261389   5.099   0.277   4.897
20455SOL     OW61390   4.725   0.034   4.878
20455SOL    HW161391   4.662  -0.038   4.847
20455SOL    HW261392   4.818  -0.002   4.878
20456SOL     OW61393   4.494   1.330   4.025
20456SOL    HW161394   4.448   1.243   4.042
20456SOL    HW261395   4.585   1.327   4.066
20457SOL     OW61396   4.342   1.567   5.008
20457SOL    HW161397   4.337   1.649   5.065
20457SOL    HW261398   4.431   1.564   4.963
20458SOL     OW61399   5.076   0.052   3.892
20458SOL    HW161400   5.111   0.011   3.808
20458SOL    HW261401   4.986   0.014   3.912
20459SOL     OW61402   5.024   0.453   4.415
20459SOL    HW161403   4.965   0.533   4.419
20459SOL    HW261404   5.039   0.418   4.508
20460SOL     OW61405   5.317   0.221   4.606
20460SOL    HW161406   5.233   0.220   4.660
20460SOL    HW261407   5.319   0.304   4.550
20461SOL     OW61408   3.763   1.077   4.024
20461SOL    HW161409   3.862   1.066   4.015
20461SOL    HW261410   3.723   0.991   4.056
20462SOL     OW61411   4.599   1.646   4.061
20462SOL    HW161412   4.522   1.611   4.007
20462SOL    HW261413   4.567   1.717   4.123
20463SOL     OW61414   3.954   0.628   5.699
20463SOL    HW161415   3.861   0.626   5.736
20463SOL    HW261416   3.955   0.589   5.607
20464SOL     OW61417   3.949   0.275   6.582
20464SOL    HW161418   3.984   0.258   6.674
20464SOL    HW261419   3.861   0.230   6.570
20465SOL     OW61420   3.743   0.368   6.233
20465SOL    HW161421   3.661   0.411   6.272
20465SOL    HW261422   3.715   0.295   6.170
20466SOL     OW61423   4.293   1.275   6.751
20466SOL    HW161424   4.200   1.268   6.714
20466SOL    HW261425   4.304   1.364   6.795
20467SOL     OW61426   5.279   1.511   6.289
20467SOL    HW161427   5.222   1.495   6.370
20467SOL    HW261428   5.220   1.521   6.209
20468SOL     OW61429   4.859   0.703   6.303
20468SOL    HW161430   4.916   0.781   6.278
20468SOL    HW261431   4.799   0.729   6.379
20469SOL     OW61432   5.479   0.607   5.817
20469SOL    HW161433   5.467   0.594   5.718
20469SOL    HW261434   5.449   0.526   5.866
20470SOL     OW61435   4.492   1.144   6.609
20470SOL    HW161436   4.414   1.161   6.669
20470SOL    HW261437   4.526   1.231   6.573
20471SOL     OW61438   4.574   0.798   7.409
20471SOL    HW161439   4.570   0.874   7.474
20471SOL    HW261440   4.596   0.834   7.318
20472SOL     OW61441   4.409   1.012   6.251
20472SOL    HW161442   4.478   0.996   6.321
20472SOL    HW261443   4.336   1.069   6.289
20473SOL     OW61444   4.410   1.161   7.389
20473SOL    HW161445   4.470   1.240   7.403
20473SOL    HW261446   4.324   1.192   7.348
20474SOL     OW61447   4.059   1.435   6.647
20474SOL    HW161448   3.981   1.404   6.594
20474SOL    HW261449   4.117   1.493   6.590
20475SOL     OW61450   5.184   1.505   6.925
20475SOL    HW161451   5.208   1.599   6.951
20475SOL    HW261452   5.168   1.451   7.007
20476SOL     OW61453   4.162   0.392   7.085
20476SOL    HW161454   4.244   0.336   7.094
20476SOL    HW261455   4.081   0.334   7.089
20477SOL     OW61456   5.327   0.447   6.323
20477SOL    HW161457   5.253   0.493   6.273
20477SOL    HW261458   5.378   0.515   6.376
20478SOL     OW61459   3.955   1.713   6.069
20478SOL    HW161460   3.989   1.790   6.123
20478SOL    HW261461   3.999   1.713   5.979
20479SOL     OW61462   4.851   1.341   7.276
20479SOL    HW161463   4.898   1.341   7.364
20479SOL    HW261464   4.803   1.254   7.265
20480SOL     OW61465   3.954   1.434   6.124
20480SOL    HW161466   3.928   1.530   6.124
20480SOL    HW261467   3.883   1.380   6.169
20481SOL     OW61468   3.964   1.091   6.472
20481SOL    HW161469   3.978   1.007   6.524
20481SOL    HW261470   3.909   1.155   6.527
20482SOL     OW61471   4.344   1.786   7.025
20482SOL    HW161472   4.252   1.769   7.060
20482SOL    HW261473   4.372   1.878   7.051
20483SOL     OW61474   4.330   0.964   5.709
20483SOL    HW161475   4.337   1.048   5.655
20483SOL    HW261476   4.376   0.977   5.797
20484SOL     OW61477   5.318   0.114   7.066
20484SOL    HW161478   5.300   0.181   6.994
20484SOL    HW261479   5.315   0.160   7.155
20485SOL     OW61480   3.846   0.643   6.149
20485SOL    HW161481   3.801   0.555   6.166
20485SOL    HW261482   3.845   0.697   6.233
20486SOL     OW61483   5.566   1.767   5.945
20486SOL    HW161484   5.620   1.738   6.025
20486SOL    HW261485   5.596   1.857   5.916
20487SOL     OW61486   3.751   1.596   5.703
20487SOL    HW161487   3.732   1.500   5.724
20487SOL    HW261488   3.718   1.654   5.778
20488SOL     OW61489   5.413   0.922   6.198
20488SOL    HW161490   5.508   0.893   6.206
20488SOL    HW261491   5.405   0.987   6.123
20489SOL     OW61492   5.365   1.108   6.018
20489SOL    HW161493   5.451   1.110   5.966
20489SOL    HW261494   5.379   1.155   6.106
20490SOL     OW61495   3.837   0.737   7.183
20490SOL    HW161496   3.925   0.724   7.228
20490SOL    HW261497   3.824   0.834   7.161
20491SOL     OW61498   4.337   1.365   6.312
20491SOL    HW161499   4.288   1.278   6.321
20491SOL    HW261500   4.314   1.408   6.225
20492SOL     OW61501   5.017   1.228   7.009
20492SOL    HW161502   5.054   1.155   6.951
20492SOL    HW261503   5.069   1.233   7.094
20493SOL     OW61504   4.533   0.004   6.088
20493SOL    HW161505   4.573   0.095   6.079
20493SOL    HW261506   4.433   0.012   6.094
20494SOL     OW61507   3.921   0.976   6.850
20494SOL    HW161508   4.010   0.931   6.836
20494SOL    HW261509   3.848   0.911   6.831
20495SOL     OW61510   5.249   0.999   5.776
20495SOL    HW161511   5.186   0.923   5.789
20495SOL    HW261512   5.297   1.017   5.862
20496SOL     OW61513   4.911   1.792   7.202
20496SOL    HW161514   4.935   1.852   7.126
20496SOL    HW261515   4.918   1.697   7.172
20497SOL     OW61516   4.041   0.251   7.387
20497SOL    HW161517   4.112   0.322   7.393
20497SOL    HW261518   3.953   0.290   7.415
20498SOL     OW61519   5.190   1.417   6.539
20498SOL    HW161520   5.131   1.423   6.619
20498SOL    HW261521   5.175   1.329   6.493
20499SOL     OW61522   5.391   1.714   6.158
20499SOL    HW161523   5.350   1.691   6.070
20499SOL    HW261524   5.373   1.640   6.223
20500SOL     OW61525   4.322   0.729   5.856
20500SOL    HW161526   4.346   0.798   5.788
20500SOL    HW261527   4.244   0.762   5.910
20501SOL     OW61528   5.005   0.345   6.530
20501SOL    HW161529   4.919   0.295   6.517
20501SOL    HW261530   5.067   0.291   6.586
20502SOL     OW61531   5.300   1.662   5.893
20502SOL    HW161532   5.389   1.708   5.896
20502SOL    HW261533   5.279   1.638   5.798
20503SOL     OW61534   4.531   0.605   7.051
20503SOL    HW161535   4.484   0.602   7.140
20503SOL    HW261536   4.480   0.550   6.985
20504SOL     OW61537   5.118   0.469   7.260
20504SOL    HW161538   5.098   0.512   7.348
20504SOL    HW261539   5.196   0.407   7.269
20505SOL     OW61540   4.697   0.890   7.158
20505SOL    HW161541   4.743   0.806   7.129
20505SOL    HW261542   4.641   0.924   7.083
20506SOL     OW61543   4.715   0.410   6.828
20506SOL    HW161544   4.638   0.444   6.882
20506SOL    HW261545   4.681   0.359   6.749
20507SOL     OW61546   4.765   0.701   6.015
20507SOL    HW161547   4.791   0.697   6.111
20507SOL    HW261548   4.680   0.650   6.001
20508SOL     OW61549   3.800   0.811   6.375
20508SOL    HW161550   3.899   0.799   6.384
20508SOL    HW261551   3.776   0.906   6.396
20509SOL     OW61552   3.854   1.821   7.157
20509SOL    HW161553   3.844   1.806   7.256
20509SOL    HW261554   3.768   1.857   7.121
20510SOL     OW61555   4.589   0.348   5.781
20510SOL    HW161556   4.648   0.411   5.732
20510SOL    HW261557   4.608   0.254   5.752
20511SOL     OW61558   5.443   0.585   7.417
20511SOL    HW161559   5.417   0.674   7.381
20511SOL    HW261560   5.441   0.517   7.344
20512SOL     OW61561   5.086   1.144   6.131
20512SOL    HW161562   5.169   1.115   6.083
20512SOL    HW261563   5.037   1.211   6.075
20513SOL     OW61564   4.274   0.196   6.471
20513SOL    HW161565   4.269   0.191   6.571
20513SOL    HW261566   4.276   0.292   6.442
20514SOL     OW61567   4.732   1.456   6.063
20514SOL    HW161568   4.686   1.528   6.011
20514SOL    HW261569   4.728   1.476   6.161
20515SOL     OW61570   4.075   1.801   6.439
20515SOL    HW161571   4.125   1.715   6.445
20515SOL    HW261572   4.140   1.878   6.436
20516SOL     OW61573   5.519   1.066   6.459
20516SOL    HW161574   5.457   1.051   6.383
20516SOL    HW261575   5.467   1.077   6.544
20517SOL     OW61576   4.951   1.550   7.092
20517SOL    HW161577   4.957   1.473   7.156
20517SOL    HW261578   4.899   1.524   7.012
20518SOL     OW61579   4.045   0.943   5.828
20518SOL    HW161580   4.127   0.982   5.786
20518SOL    HW261581   4.018   0.861   5.779
20519SOL     OW61582   5.182   0.735   6.314
20519SOL    HW161583   5.177   0.670   6.389
20519SOL    HW261584   5.262   0.794   6.327
20520SOL     OW61585   4.185   1.266   7.313
20520SOL    HW161586   4.135   1.267   7.227
20520SOL    HW261587   4.122   1.248   7.389
20521SOL     OW61588   4.835   1.776   5.823
20521SOL    HW161589   4.775   1.714   5.873
20521SOL    HW261590   4.866   1.732   5.738
20522SOL     OW61591   3.926   0.285   7.084
20522SOL    HW161592   3.846   0.345   7.071
20522SOL    HW261593   3.916   0.236   7.170
20523SOL     OW61594   5.356   1.377   5.667
20523SOL    HW161595   5.324   1.471   5.657
20523SOL    HW261596   5.280   1.314   5.655
20524SOL     OW61597   4.188   1.743   5.909
20524SOL    HW161598   4.221   1.782   5.995
20524SOL    HW261599   4.264   1.736   5.844
20525SOL     OW61600   5.124   0.107   6.012
20525SOL    HW161601   5.100   0.070   5.922
20525SOL    HW261602   5.223   0.123   6.016
20526SOL     OW61603   3.973   1.785   6.827
20526SOL    HW161604   4.030   1.720   6.877
20526SOL    HW261605   3.957   1.752   6.734
20527SOL     OW61606   4.664   1.698   6.490
20527SOL    HW161607   4.744   1.641   6.511
20527SOL    HW261608   4.615   1.658   6.413
20528SOL     OW61609   4.106   0.700   6.066
20528SOL    HW161610   4.151   0.610   6.063
20528SOL    HW261611   4.012   0.689   6.099
20529SOL     OW61612   5.271   0.222   7.315
20529SOL    HW161613   5.266   0.259   7.407
20529SOL    HW261614   5.199   0.153   7.303
20530SOL     OW61615   4.338   0.122   5.703
20530SOL    HW161616   4.436   0.100   5.710
20530SOL    HW261617   4.307   0.105   5.610
20531SOL     OW61618   4.505   0.264   7.335
20531SOL    HW161619   4.572   0.203   7.378
20531SOL    HW261620   4.432   0.283   7.400
20532SOL     OW61621   4.612   1.514   6.781
20532SOL    HW161622   4.589   1.489   6.687
20532SOL    HW261623   4.673   1.445   6.820
20533SOL     OW61624   5.075   0.590   7.019
20533SOL    HW161625   5.103   0.547   7.104
20533SOL    HW261626   5.100   0.686   7.020
20534SOL     OW61627   4.527   1.402   6.510
20534SOL    HW161628   4.617   1.416   6.468
20534SOL    HW261629   4.456   1.404   6.439
20535SOL     OW61630   4.646   0.503   6.485
20535SOL    HW161631   4.621   0.494   6.389
20535SOL    HW261632   4.694   0.421   6.516
20536SOL     OW61633   4.263   0.064   6.098
20536SOL    HW161634   4.182   0.065   6.156
20536SOL    HW261635   4.266   0.147   6.043
20537SOL     OW61636   5.158   1.188   5.627
20537SOL    HW161637   5.190   1.112   5.684
20537SOL    HW261638   5.066   1.215   5.657
20538SOL     OW61639   4.021   0.035   5.757
20538SOL    HW161640   4.070   0.119   5.736
20538SOL    HW261641   4.083  -0.030   5.802
20539SOL     OW61642   4.659   0.236   6.066
20539SOL    HW161643   4.611   0.277   5.988
20539SOL    HW261644   4.758   0.234   6.047
20540SOL     OW61645   4.800   0.683   7.050
20540SOL    HW161646   4.720   0.622   7.053
20540SOL    HW261647   4.881   0.630   7.026
20541SOL     OW61648   4.951   1.570   6.379
20541SOL    HW161649   4.972   1.644   6.314
20541SOL    HW261650   5.019   1.570   6.452
20542SOL     OW61651   4.183   1.152   6.327
20542SOL    HW161652   4.112   1.125   6.392
20542SOL    HW261653   4.157   1.124   6.234
20543SOL     OW61654   4.995   1.797   6.177
20543SOL    HW161655   5.039   1.861   6.113
20543SOL    HW261656   4.945   1.849   6.247
20544SOL     OW61657   4.756   0.549   5.602
20544SOL    HW161658   4.715   0.631   5.563
20544SOL    HW261659   4.820   0.575   5.675
20545SOL     OW61660   3.802   0.556   6.972
20545SOL    HW161661   3.894   0.555   6.931
20545SOL    HW261662   3.796   0.630   7.039
20546SOL     OW61663   4.285   0.222   6.733
20546SOL    HW161664   4.323   0.138   6.770
20546SOL    HW261665   4.197   0.241   6.777
20547SOL     OW61666   4.590   0.454   6.228
20547SOL    HW161667   4.558   0.526   6.166
20547SOL    HW261668   4.614   0.373   6.175
20548SOL     OW61669   4.741   0.039   6.339
20548SOL    HW161670   4.669   0.044   6.270
20548SOL    HW261671   4.717  -0.030   6.408
20549SOL     OW61672   5.153   1.173   6.453
20549SOL    HW161673   5.098   1.089   6.446
20549SOL    HW261674   5.179   1.202   6.361
20550SOL     OW61675   5.190   0.590   6.578
20550SOL    HW161676   5.160   0.495   6.585
20550SOL    HW261677   5.263   0.606   6.644
20551SOL     OW61678   5.581   0.833   5.963
20551SOL    HW161679   5.623   0.769   6.027
20551SOL    HW261680   5.543   0.782   5.885
20552SOL     OW61681   4.212   1.385   5.760
20552SOL    HW161682   4.125   1.370   5.807
20552SOL    HW261683   4.195   1.411   5.665
20553SOL     OW61684   5.388   1.280   6.243
20553SOL    HW161685   5.487   1.288   6.257
20553SOL    HW261686   5.343   1.364   6.274
20554SOL     OW61687   5.114   0.575   5.664
20554SOL    HW161688   5.060   0.554   5.745
20554SOL    HW261689   5.205   0.534   5.673
20555SOL     OW61690   4.251   0.256   5.914
20555SOL    HW161691   4.278   0.197   5.839
20555SOL    HW261692   4.251   0.351   5.883
20556SOL     OW61693   5.478   1.223   7.174
20556SOL    HW161694   5.569   1.184   7.161
20556SOL    HW261695   5.486   1.319   7.198
20557SOL     OW61696   4.788   1.347   6.926
20557SOL    HW161697   4.708   1.324   6.981
20557SOL    HW261698   4.871   1.321   6.975
20558SOL     OW61699   5.316   1.629   7.211
20558SOL    HW161700   5.343   1.663   7.121
20558SOL    HW261701   5.395   1.591   7.257
20559SOL     OW61702   4.835   1.195   6.686
20559SOL    HW161703   4.795   1.239   6.767
20559SOL    HW261704   4.794   1.232   6.603
20560SOL     OW61705   5.362   1.099   6.665
20560SOL    HW161706   5.367   1.180   6.724
20560SOL    HW261707   5.276   1.101   6.614
20561SOL     OW61708   4.639   0.089   6.988
20561SOL    HW161709   4.664   0.069   6.893
20561SOL    HW261710   4.711   0.145   7.030
20562SOL     OW61711   4.704   1.116   7.305
20562SOL    HW161712   4.605   1.122   7.315
20562SOL    HW261713   4.727   1.036   7.249
20563SOL     OW61714   4.429   1.050   5.954
20563SOL    HW161715   4.415   1.057   6.053
20563SOL    HW261716   4.513   0.999   5.936
20564SOL     OW61717   4.134   0.813   6.837
20564SOL    HW161718   4.220   0.825   6.887
20564SOL    HW261719   4.092   0.726   6.864
20565SOL     OW61720   4.998   0.386   6.848
20565SOL    HW161721   5.019   0.460   6.912
20565SOL    HW261722   4.909   0.403   6.805
20566SOL     OW61723   3.788   1.564   6.917
20566SOL    HW161724   3.742   1.646   6.883
20566SOL    HW261725   3.886   1.583   6.926
20567SOL     OW61726   4.091   1.100   6.087
20567SOL    HW161727   4.084   1.183   6.031
20567SOL    HW261728   4.095   1.020   6.027
20568SOL     OW61729   4.290   0.537   6.451
20568SOL    HW161730   4.302   0.603   6.377
20568SOL    HW261731   4.336   0.571   6.534
20569SOL     OW61732   4.976   1.348   5.974
20569SOL    HW161733   5.026   1.425   6.014
20569SOL    HW261734   4.881   1.350   6.006
20570SOL     OW61735   4.996   1.445   6.728
20570SOL    HW161736   5.043   1.458   6.815
20570SOL    HW261737   4.930   1.371   6.737
20571SOL     OW61738   5.306   0.639   6.058
20571SOL    HW161739   5.275   0.700   6.131
20571SOL    HW261740   5.356   0.691   5.989
20572SOL     OW61741   4.078   1.510   6.915
20572SOL    HW161742   4.057   1.466   6.828
20572SOL    HW261743   4.175   1.536   6.918
20573SOL     OW61744   4.126   0.751   7.184
20573SOL    HW161745   4.194   0.806   7.137
20573SOL    HW261746   4.166   0.663   7.211
20574SOL     OW61747   5.311   0.779   7.256
20574SOL    HW161748   5.219   0.817   7.251
20574SOL    HW261749   5.371   0.826   7.191
20575SOL     OW61750   4.737   0.105   7.356
20575SOL    HW161751   4.743   0.190   7.304
20575SOL    HW261752   4.769   0.029   7.299
20576SOL     OW61753   4.228   0.050   7.326
20576SOL    HW161754   4.186  -0.007   7.256
20576SOL    HW261755   4.162   0.119   7.358
20577SOL     OW61756   4.297   0.870   6.615
20577SOL    HW161757   4.341   0.959   6.606
20577SOL    HW261758   4.234   0.870   6.692
20578SOL     OW61759   5.084   0.862   6.631
20578SOL    HW161760   5.009   0.862   6.565
20578SOL    HW261761   5.121   0.770   6.640
20579SOL     OW61762   4.933   0.525   5.861
20579SOL    HW161763   4.946   0.441   5.915
20579SOL    HW261764   4.904   0.599   5.921
20580SOL     OW61765   4.031   0.213   6.817
20580SOL    HW161766   4.008   0.250   6.907
20580SOL    HW261767   4.001   0.118   6.811
20581SOL     OW61768   3.761   1.310   6.868
20581SOL    HW161769   3.814   1.261   6.936
20581SOL    HW261770   3.783   1.408   6.873
20582SOL     OW61771   4.456   0.634   6.650
20582SOL    HW161772   4.515   0.608   6.574
20582SOL    HW261773   4.428   0.730   6.639
20583SOL     OW61774   5.452   0.935   7.440
20583SOL    HW161775   5.406   0.928   7.351
20583SOL    HW261776   5.390   0.979   7.506
20584SOL     OW61777   4.031   0.063   6.204
20584SOL    HW161778   4.020   0.157   6.237
20584SOL    HW261779   4.026   0.000   6.281
20585SOL     OW61780   5.346   0.367   5.960
20585SOL    HW161781   5.348   0.291   6.024
20585SOL    HW261782   5.298   0.444   6.000
20586SOL     OW61783   4.747   0.766   6.552
20586SOL    HW161784   4.762   0.787   6.648
20586SOL    HW261785   4.717   0.671   6.543
20587SOL     OW61786   4.704   1.573   7.286
20587SOL    HW161787   4.684   1.617   7.198
20587SOL    HW261788   4.743   1.482   7.270
20588SOL     OW61789   5.583   1.518   7.191
20588SOL    HW161790   5.597   1.545   7.096
20588SOL    HW261791   5.666   1.540   7.244
20589SOL     OW61792   4.074   0.898   7.390
20589SOL    HW161793   4.150   0.942   7.438
20589SOL    HW261794   4.109   0.851   7.308
20590SOL     OW61795   5.264   0.274   5.711
20590SOL    HW161796   5.203   0.199   5.734
20590SOL    HW261797   5.286   0.326   5.794
20591SOL     OW61798   5.027   0.838   5.628
20591SOL    HW161799   5.061   0.745   5.643
20591SOL    HW261800   5.045   0.865   5.533
20592SOL     OW61801   4.792   1.333   6.435
20592SOL    HW161802   4.799   1.249   6.380
20592SOL    HW261803   4.854   1.402   6.399
20593SOL     OW61804   4.043   0.810   6.535
20593SOL    HW161805   4.136   0.846   6.540
20593SOL    HW261806   4.037   0.725   6.587
20594SOL     OW61807   4.063   0.509   6.592
20594SOL    HW161808   4.011   0.426   6.575
20594SOL    HW261809   4.140   0.514   6.528
20595SOL     OW61810   4.862   0.380   7.264
20595SOL    HW161811   4.817   0.443   7.328
20595SOL    HW261812   4.955   0.411   7.247
20596SOL     OW61813   4.884   0.207   7.063
20596SOL    HW161814   4.884   0.271   7.140
20596SOL    HW261815   4.912   0.255   6.980
20597SOL     OW61816   3.732   1.326   5.786
20597SOL    HW161817   3.639   1.347   5.755
20597SOL    HW261818   3.742   1.227   5.799
20598SOL     OW61819   3.812   1.801   6.513
20598SOL    HW161820   3.770   1.715   6.486
20598SOL    HW261821   3.906   1.804   6.479
20599SOL     OW61822   4.228   1.568   6.496
20599SOL    HW161823   4.294   1.642   6.505
20599SOL    HW261824   4.272   1.489   6.454
20600SOL     OW61825   4.726   0.796   6.824
20600SOL    HW161826   4.767   0.764   6.910
20600SOL    HW261827   4.630   0.769   6.821
20601SOL     OW61828   3.764   0.544   6.700
20601SOL    HW161829   3.849   0.511   6.659
20601SOL    HW261830   3.777   0.559   6.798
20602SOL     OW61831   3.913   0.520   7.308
20602SOL    HW161832   3.972   0.480   7.238
20602SOL    HW261833   3.855   0.591   7.267
20603SOL     OW61834   5.093   0.950   7.246
20603SOL    HW161835   5.132   1.039   7.266
20603SOL    HW261836   5.103   0.930   7.149
20604SOL     OW61837   4.539   0.572   5.911
20604SOL    HW161838   4.546   0.483   5.865
20604SOL    HW261839   4.445   0.606   5.903
20605SOL     OW61840   5.381   0.604   6.792
20605SOL    HW161841   5.343   0.535   6.854
20605SOL    HW261842   5.463   0.568   6.748
20606SOL     OW61843   3.976   1.564   7.330
20606SOL    HW161844   3.946   1.621   7.406
20606SOL    HW261845   3.969   1.467   7.356
20607SOL     OW61846   4.395   0.464   6.855
20607SOL    HW161847   4.361   0.375   6.825
20607SOL    HW261848   4.421   0.518   6.775
20608SOL     OW61849   4.654   1.678   7.051
20608SOL    HW161850   4.630   1.660   6.956
20608SOL    HW261851   4.684   1.772   7.061
20609SOL     OW61852   4.197   0.500   5.777
20609SOL    HW161853   4.258   0.580   5.781
20609SOL    HW261854   4.102   0.531   5.784
20610SOL     OW61855   3.883   1.137   7.052
20610SOL    HW161856   3.905   1.076   7.128
20610SOL    HW261857   3.893   1.088   6.966
20611SOL     OW61858   5.071   1.059   6.820
20611SOL    HW161859   5.095   0.996   6.746
20611SOL    HW261860   4.981   1.099   6.802
20612SOL     OW61861   5.026   0.855   5.895
20612SOL    HW161862   4.940   0.824   5.937
20612SOL    HW261863   5.022   0.841   5.796
20613SOL     OW61864   5.483   1.747   6.740
20613SOL    HW161865   5.544   1.777   6.667
20613SOL    HW261866   5.445   1.658   6.718
20614SOL     OW61867   4.976   1.731   6.714
20614SOL    HW161868   5.060   1.736   6.660
20614SOL    HW261869   4.953   1.635   6.732
20615SOL     OW61870   3.807   1.258   6.608
20615SOL    HW161871   3.802   1.257   6.708
20615SOL    HW261872   3.724   1.217   6.570
20616SOL     OW61873   4.412   1.662   7.302
20616SOL    HW161874   4.356   1.743   7.311
20616SOL    HW261875   4.464   1.666   7.216
20617SOL     OW61876   5.450   0.135   6.109
20617SOL    HW161877   5.523   0.118   6.042
20617SOL    HW261878   5.419   0.048   6.147
20618SOL     OW61879   5.112   1.573   6.063
20618SOL    HW161880   5.179   1.585   5.989
20618SOL    HW261881   5.072   1.662   6.086
20619SOL     OW61882   3.854   1.794   7.437
20619SOL    HW161883   3.813   1.720   7.490
20619SOL    HW261884   3.918   1.845   7.495
20620SOL     OW61885   5.004   0.927   6.258
20620SOL    HW161886   5.064   0.846   6.260
20620SOL    HW261887   5.044   0.996   6.198
20621SOL     OW61888   4.554   1.273   7.008
20621SOL    HW161889   4.549   1.306   7.103
20621SOL    HW261890   4.468   1.292   6.962
20622SOL     OW61891   4.396   1.616   5.740
20622SOL    HW161892   4.405   1.626   5.641
20622SOL    HW261893   4.356   1.527   5.761
20623SOL     OW61894   5.374   1.720   6.980
20623SOL    HW161895   5.427   1.730   6.896
20623SOL    HW261896   5.347   1.810   7.014
20624SOL     OW61897   5.565   0.175   6.549
20624SOL    HW161898   5.604   0.090   6.513
20624SOL    HW261899   5.467   0.177   6.530
20625SOL     OW61900   3.987   0.326   6.306
20625SOL    HW161901   3.908   0.377   6.272
20625SOL    HW261902   3.978   0.311   6.404
20626SOL     OW61903   4.918   1.612   5.617
20626SOL    HW161904   4.924   1.519   5.654
20626SOL    HW261905   4.859   1.612   5.537
20627SOL     OW61906   4.546   1.002   6.958
20627SOL    HW161907   4.586   1.001   6.866
20627SOL    HW261908   4.556   1.094   6.998
20628SOL     OW61909   4.640   0.910   5.877
20628SOL    HW161910   4.703   0.948   5.809
20628SOL    HW261911   4.680   0.827   5.916
20629SOL     OW61912   5.228   1.607   5.630
20629SOL    HW161913   5.136   1.644   5.637
20629SOL    HW261914   5.266   1.627   5.540
20630SOL     OW61915   4.096   1.288   7.076
20630SOL    HW161916   4.083   1.381   7.042
20630SOL    HW261917   4.012   1.236   7.063
20631SOL     OW61918   5.338   1.292   6.875
20631SOL    HW161919   5.398   1.295   6.955
20631SOL    HW261920   5.263   1.356   6.888
20632SOL     OW61921   4.763   1.098   6.282
20632SOL    HW161922   4.693   1.051   6.336
20632SOL    HW261923   4.822   1.030   6.239
20633SOL     OW61924   4.738   0.236   6.557
20633SOL    HW161925   4.730   0.200   6.464
20633SOL    HW261926   4.736   0.160   6.622
20634SOL     OW61927   4.314   1.487   6.077
20634SOL    HW161928   4.356   1.429   6.007
20634SOL    HW261929   4.270   1.566   6.033
20635SOL     OW61930   5.433   0.385   6.967
20635SOL    HW161931   5.506   0.454   6.971
20635SOL    HW261932   5.461   0.310   6.908
20636SOL     OW61933   3.979   1.348   5.876
20636SOL    HW161934   3.883   1.349   5.849
20636SOL    HW261935   3.991   1.401   5.960
20637SOL     OW61936   3.829   1.013   7.312
20637SOL    HW161937   3.752   0.980   7.366
20637SOL    HW261938   3.914   0.983   7.354
20638SOL     OW61939   4.396   0.203   7.075
20638SOL    HW161940   4.486   0.187   7.035
20638SOL    HW261941   4.404   0.208   7.174
20639SOL     OW61942   3.799   0.345   5.619
20639SOL    HW161943   3.707   0.317   5.590
20639SOL    HW261944   3.830   0.422   5.563
20640SOL     OW61945   5.164   0.856   6.984
20640SOL    HW161946   5.107   0.908   6.921
20640SOL    HW261947   5.260   0.868   6.960
20641SOL     OW61948   3.796   0.166   5.904
20641SOL    HW161949   3.779   0.249   5.850
20641SOL    HW261950   3.886   0.129   5.882
20642SOL     OW61951   4.907   1.335   5.705
20642SOL    HW161952   4.808   1.324   5.707
20642SOL    HW261953   4.941   1.350   5.798
20643SOL     OW61954   4.337   0.842   7.017
20643SOL    HW161955   4.393   0.923   7.000
20643SOL    HW261956   4.396   0.762   7.020
20644SOL     OW61957   5.217   1.767   6.545
20644SOL    HW161958   5.250   1.831   6.476
20644SOL    HW261959   5.283   1.761   6.620
20645SOL     OW61960   4.440   0.565   7.294
20645SOL    HW161961   4.459   0.630   7.368
20645SOL    HW261962   4.500   0.485   7.303
20646SOL     OW61963   5.174   1.220   7.219
20646SOL    HW161964   5.165   1.210   7.318
20646SOL    HW261965   5.270   1.213   7.193
20647SOL     OW61966   4.114   1.741   7.146
20647SOL    HW161967   4.023   1.782   7.144
20647SOL    HW261968   4.107   1.647   7.178
20648SOL     OW61969   5.398   0.883   6.840
20648SOL    HW161970   5.371   0.794   6.803
20648SOL    HW261971   5.399   0.951   6.767
20649SOL     OW61972   4.949   0.325   6.035
20649SOL    HW161973   5.014   0.251   6.024
20649SOL    HW261974   4.969   0.375   6.119
20650SOL     OW61975   4.318   0.745   6.238
20650SOL    HW161976   4.368   0.830   6.219
20650SOL    HW261977   4.230   0.747   6.190
20651SOL     OW61978   5.501   0.342   7.228
20651SOL    HW161979   5.484   0.373   7.134
20651SOL    HW261980   5.417   0.305   7.266
20652SOL     OW61981   5.454   0.934   7.103
20652SOL    HW161982   5.492   1.025   7.118
20652SOL    HW261983   5.446   0.917   7.004
20653SOL     OW61984   4.583   1.374   5.602
20653SOL    HW161985   4.537   1.389   5.690
20653SOL    HW261986   4.627   1.459   5.572
20654SOL     OW61987   4.385   1.790   6.539
20654SOL    HW161988   4.339   1.878   6.526
20654SOL    HW261989   4.484   1.802   6.532
20655SOL     OW61990   4.583   0.956   6.447
20655SOL    HW161991   4.637   0.887   6.495
20655SOL    HW261992   4.551   1.025   6.513
20656SOL     OW61993   4.807   0.984   5.673
20656SOL    HW161994   4.784   1.037   5.591
20656SOL    HW261995   4.888   0.928   5.654
20657SOL     OW61996   5.585   1.569   6.437
20657SOL    HW161997   5.514   1.557   6.367
20657SOL    HW261998   5.586   1.490   6.497
20658SOL     OW61999   3.945   1.314   7.430
20658SOL    HW162000   3.880   1.241   7.409
20658SOL    HW262001   3.949   1.328   7.528
20659SOL     OW62002   3.803   1.240   6.239
20659SOL    HW162003   3.802   1.193   6.327
20659SOL    HW262004   3.885   1.212   6.188
20660SOL     OW62005   4.396   1.391   7.210
20660SOL    HW162006   4.318   1.341   7.248
20660SOL    HW262007   4.393   1.486   7.241
20661SOL     OW62008   5.548   0.192   6.813
20661SOL    HW162009   5.544   0.102   6.857
20661SOL    HW262010   5.551   0.181   6.714
20662SOL     OW62011   4.152   0.424   6.106
20662SOL    HW162012   4.182   0.352   6.044
20662SOL    HW262013   4.113   0.384   6.189
20663SOL     OW62014   5.429   1.487   6.690
20663SOL    HW162015   5.336   1.462   6.663
20663SOL    HW262016   5.455   1.437   6.772
20664SOL     OW62017   4.041   0.547   6.866
20664SOL    HW162018   4.079   0.488   6.938
20664SOL    HW262019   4.081   0.521   6.778
20665SOL     OW62020   4.536   1.586   6.273
20665SOL    HW162021   4.568   1.596   6.179
20665SOL    HW262022   4.457   1.524   6.275
20666SOL     OW62023   5.148   0.214   6.698
20666SOL    HW162024   5.200   0.149   6.753
20666SOL    HW262025   5.099   0.277   6.759
20667SOL     OW62026   4.725   0.034   6.740
20667SOL    HW162027   4.662  -0.038   6.709
20667SOL    HW262028   4.818  -0.002   6.740
20668SOL     OW62029   4.494   1.330   5.887
20668SOL    HW162030   4.448   1.243   5.904
20668SOL    HW262031   4.585   1.327   5.928
20669SOL     OW62032   4.342   1.567   6.870
20669SOL    HW162033   4.337   1.649   6.927
20669SOL    HW262034   4.431   1.564   6.825
20670SOL     OW62035   5.076   0.052   5.754
20670SOL    HW162036   5.111   0.011   5.670
20670SOL    HW262037   4.986   0.014   5.774
20671SOL     OW62038   5.024   0.453   6.277
20671SOL    HW162039   4.965   0.533   6.281
20671SOL    HW262040   5.039   0.418   6.370
20672SOL     OW62041   5.317   0.221   6.468
20672SOL    HW162042   5.233   0.220   6.522
20672SOL    HW262043   5.319   0.304   6.412
20673SOL     OW62044   3.763   1.077   5.886
20673SOL    HW162045   3.862   1.066   5.877
20673SOL    HW262046   3.723   0.991   5.918
20674SOL     OW62047   4.599   1.646   5.923
20674SOL    HW162048   4.522   1.611   5.869
20674SOL    HW262049   4.567   1.717   5.985
20675SOL     OW62050   3.954   0.628   7.561
20675SOL    HW162051   3.861   0.626   7.598
20675SOL    HW262052   3.955   0.589   7.469
20676SOL     OW62053   3.949   0.275   8.444
20676SOL    HW162054   3.984   0.258   8.536
20676SOL    HW262055   3.861   0.230   8.432
20677SOL     OW62056   3.743   0.368   8.095
20677SOL    HW162057   3.661   0.411   8.134
20677SOL    HW262058   3.715   0.295   8.032
20678SOL     OW62059   4.293   1.275   8.613
20678SOL    HW162060   4.200   1.268   8.576
20678SOL    HW262061   4.304   1.364   8.657
20679SOL     OW62062   5.279   1.511   8.151
20679SOL    HW162063   5.222   1.495   8.232
20679SOL    HW262064   5.220   1.521   8.071
20680SOL     OW62065   4.859   0.703   8.165
20680SOL    HW162066   4.916   0.781   8.140
20680SOL    HW262067   4.799   0.729   8.241
20681SOL     OW62068   5.479   0.607   7.679
20681SOL    HW162069   5.467   0.594   7.580
20681SOL    HW262070   5.449   0.526   7.728
20682SOL     OW62071   4.492   1.144   8.471
20682SOL    HW162072   4.414   1.161   8.531
20682SOL    HW262073   4.526   1.231   8.435
20683SOL     OW62074   4.574   0.798   9.271
20683SOL    HW162075   4.570   0.874   9.336
20683SOL    HW262076   4.596   0.834   9.180
20684SOL     OW62077   4.409   1.012   8.113
20684SOL    HW162078   4.478   0.996   8.183
20684SOL    HW262079   4.336   1.069   8.151
20685SOL     OW62080   4.410   1.161   9.251
20685SOL    HW162081   4.470   1.240   9.265
20685SOL    HW262082   4.324   1.192   9.210
20686SOL     OW62083   4.059   1.435   8.509
20686SOL    HW162084   3.981   1.404   8.456
20686SOL    HW262085   4.117   1.493   8.452
20687SOL     OW62086   5.184   1.505   8.787
20687SOL    HW162087   5.208   1.599   8.813
20687SOL    HW262088   5.168   1.451   8.869
20688SOL     OW62089   4.162   0.392   8.947
20688SOL    HW162090   4.244   0.336   8.956
20688SOL    HW262091   4.081   0.334   8.951
20689SOL     OW62092   5.327   0.447   8.185
20689SOL    HW162093   5.253   0.493   8.135
20689SOL    HW262094   5.378   0.515   8.238
20690SOL     OW62095   3.955   1.713   7.931
20690SOL    HW162096   3.989   1.790   7.985
20690SOL    HW262097   3.999   1.713   7.841
20691SOL     OW62098   4.851   1.341   9.138
20691SOL    HW162099   4.898   1.341   9.226
20691SOL    HW262100   4.803   1.254   9.127
20692SOL     OW62101   3.954   1.434   7.986
20692SOL    HW162102   3.928   1.530   7.986
20692SOL    HW262103   3.883   1.380   8.031
20693SOL     OW62104   3.964   1.091   8.334
20693SOL    HW162105   3.978   1.007   8.386
20693SOL    HW262106   3.909   1.155   8.389
20694SOL     OW62107   4.344   1.786   8.887
20694SOL    HW162108   4.252   1.769   8.922
20694SOL    HW262109   4.372   1.878   8.913
20695SOL     OW62110   4.330   0.964   7.571
20695SOL    HW162111   4.337   1.048   7.517
20695SOL    HW262112   4.376   0.977   7.659
20696SOL     OW62113   5.318   0.114   8.928
20696SOL    HW162114   5.300   0.181   8.856
20696SOL    HW262115   5.315   0.160   9.017
20697SOL     OW62116   3.846   0.643   8.011
20697SOL    HW162117   3.801   0.555   8.028
20697SOL    HW262118   3.845   0.697   8.095
20698SOL     OW62119   5.566   1.767   7.807
20698SOL    HW162120   5.620   1.738   7.887
20698SOL    HW262121   5.596   1.857   7.778
20699SOL     OW62122   3.751   1.596   7.565
20699SOL    HW162123   3.732   1.500   7.586
20699SOL    HW262124   3.718   1.654   7.640
20700SOL     OW62125   5.413   0.922   8.060
20700SOL    HW162126   5.508   0.893   8.068
20700SOL    HW262127   5.405   0.987   7.985
20701SOL     OW62128   5.365   1.108   7.880
20701SOL    HW162129   5.451   1.110   7.828
20701SOL    HW262130   5.379   1.155   7.968
20702SOL     OW62131   3.837   0.737   9.045
20702SOL    HW162132   3.925   0.724   9.090
20702SOL    HW262133   3.824   0.834   9.023
20703SOL     OW62134   4.337   1.365   8.174
20703SOL    HW162135   4.288   1.278   8.183
20703SOL    HW262136   4.314   1.408   8.087
20704SOL     OW62137   5.017   1.228   8.871
20704SOL    HW162138   5.054   1.155   8.813
20704SOL    HW262139   5.069   1.233   8.956
20705SOL     OW62140   4.533   0.004   7.950
20705SOL    HW162141   4.573   0.095   7.941
20705SOL    HW262142   4.433   0.012   7.956
20706SOL     OW62143   3.921   0.976   8.712
20706SOL    HW162144   4.010   0.931   8.698
20706SOL    HW262145   3.848   0.911   8.693
20707SOL     OW62146   5.249   0.999   7.638
20707SOL    HW162147   5.186   0.923   7.651
20707SOL    HW262148   5.297   1.017   7.724
20708SOL     OW62149   4.911   1.792   9.064
20708SOL    HW162150   4.935   1.852   8.988
20708SOL    HW262151   4.918   1.697   9.034
20709SOL     OW62152   4.041   0.251   9.249
20709SOL    HW162153   4.112   0.322   9.255
20709SOL    HW262154   3.953   0.290   9.277
20710SOL     OW62155   5.190   1.417   8.401
20710SOL    HW162156   5.131   1.423   8.481
20710SOL    HW262157   5.175   1.329   8.355
20711SOL     OW62158   5.391   1.714   8.020
20711SOL    HW162159   5.350   1.691   7.932
20711SOL    HW262160   5.373   1.640   8.085
20712SOL     OW62161   4.322   0.729   7.718
20712SOL    HW162162   4.346   0.798   7.650
20712SOL    HW262163   4.244   0.762   7.772
20713SOL     OW62164   5.005   0.345   8.392
20713SOL    HW162165   4.919   0.295   8.379
20713SOL    HW262166   5.067   0.291   8.448
20714SOL     OW62167   5.300   1.662   7.755
20714SOL    HW162168   5.389   1.708   7.758
20714SOL    HW262169   5.279   1.638   7.660
20715SOL     OW62170   4.531   0.605   8.913
20715SOL    HW162171   4.484   0.602   9.002
20715SOL    HW262172   4.480   0.550   8.847
20716SOL     OW62173   5.118   0.469   9.122
20716SOL    HW162174   5.098   0.512   9.210
20716SOL    HW262175   5.196   0.407   9.131
20717SOL     OW62176   4.697   0.890   9.020
20717SOL    HW162177   4.743   0.806   8.991
20717SOL    HW262178   4.641   0.924   8.945
20718SOL     OW62179   4.715   0.410   8.690
20718SOL    HW162180   4.638   0.444   8.744
20718SOL    HW262181   4.681   0.359   8.611
20719SOL     OW62182   4.765   0.701   7.877
20719SOL    HW162183   4.791   0.697   7.973
20719SOL    HW262184   4.680   0.650   7.863
20720SOL     OW62185   3.800   0.811   8.237
20720SOL    HW162186   3.899   0.799   8.246
20720SOL    HW262187   3.776   0.906   8.258
20721SOL     OW62188   3.854   1.821   9.019
20721SOL    HW162189   3.844   1.806   9.118
20721SOL    HW262190   3.768   1.857   8.983
20722SOL     OW62191   4.589   0.348   7.643
20722SOL    HW162192   4.648   0.411   7.594
20722SOL    HW262193   4.608   0.254   7.614
20723SOL     OW62194   5.443   0.585   9.279
20723SOL    HW162195   5.417   0.674   9.243
20723SOL    HW262196   5.441   0.517   9.206
20724SOL     OW62197   5.086   1.144   7.993
20724SOL    HW162198   5.169   1.115   7.945
20724SOL    HW262199   5.037   1.211   7.937
20725SOL     OW62200   4.274   0.196   8.333
20725SOL    HW162201   4.269   0.191   8.433
20725SOL    HW262202   4.276   0.292   8.304
20726SOL     OW62203   4.732   1.456   7.925
20726SOL    HW162204   4.686   1.528   7.873
20726SOL    HW262205   4.728   1.476   8.023
20727SOL     OW62206   4.075   1.801   8.301
20727SOL    HW162207   4.125   1.715   8.307
20727SOL    HW262208   4.140   1.878   8.298
20728SOL     OW62209   5.519   1.066   8.321
20728SOL    HW162210   5.457   1.051   8.245
20728SOL    HW262211   5.467   1.077   8.406
20729SOL     OW62212   4.951   1.550   8.954
20729SOL    HW162213   4.957   1.473   9.018
20729SOL    HW262214   4.899   1.524   8.874
20730SOL     OW62215   4.045   0.943   7.690
20730SOL    HW162216   4.127   0.982   7.648
20730SOL    HW262217   4.018   0.861   7.641
20731SOL     OW62218   5.182   0.735   8.176
20731SOL    HW162219   5.177   0.670   8.251
20731SOL    HW262220   5.262   0.794   8.189
20732SOL     OW62221   4.185   1.266   9.175
20732SOL    HW162222   4.135   1.267   9.089
20732SOL    HW262223   4.122   1.248   9.251
20733SOL     OW62224   4.835   1.776   7.685
20733SOL    HW162225   4.775   1.714   7.735
20733SOL    HW262226   4.866   1.732   7.600
20734SOL     OW62227   3.926   0.285   8.946
20734SOL    HW162228   3.846   0.345   8.933
20734SOL    HW262229   3.916   0.236   9.032
20735SOL     OW62230   5.356   1.377   7.529
20735SOL    HW162231   5.324   1.471   7.519
20735SOL    HW262232   5.280   1.314   7.517
20736SOL     OW62233   4.188   1.743   7.771
20736SOL    HW162234   4.221   1.782   7.857
20736SOL    HW262235   4.264   1.736   7.706
20737SOL     OW62236   5.124   0.107   7.874
20737SOL    HW162237   5.100   0.070   7.784
20737SOL    HW262238   5.223   0.123   7.878
20738SOL     OW62239   3.973   1.785   8.689
20738SOL    HW162240   4.030   1.720   8.739
20738SOL    HW262241   3.957   1.752   8.596
20739SOL     OW62242   4.664   1.698   8.352
20739SOL    HW162243   4.744   1.641   8.373
20739SOL    HW262244   4.615   1.658   8.275
20740SOL     OW62245   4.106   0.700   7.928
20740SOL    HW162246   4.151   0.610   7.925
20740SOL    HW262247   4.012   0.689   7.961
20741SOL     OW62248   5.271   0.222   9.177
20741SOL    HW162249   5.266   0.259   9.269
20741SOL    HW262250   5.199   0.153   9.165
20742SOL     OW62251   4.338   0.122   7.565
20742SOL    HW162252   4.436   0.100   7.572
20742SOL    HW262253   4.307   0.105   7.472
20743SOL     OW62254   4.505   0.264   9.197
20743SOL    HW162255   4.572   0.203   9.240
20743SOL    HW262256   4.432   0.283   9.262
20744SOL     OW62257   4.612   1.514   8.643
20744SOL    HW162258   4.589   1.489   8.549
20744SOL    HW262259   4.673   1.445   8.682
20745SOL     OW62260   5.075   0.590   8.881
20745SOL    HW162261   5.103   0.547   8.966
20745SOL    HW262262   5.100   0.686   8.882
20746SOL     OW62263   4.527   1.402   8.372
20746SOL    HW162264   4.617   1.416   8.330
20746SOL    HW262265   4.456   1.404   8.301
20747SOL     OW62266   4.646   0.503   8.347
20747SOL    HW162267   4.621   0.494   8.251
20747SOL    HW262268   4.694   0.421   8.378
20748SOL     OW62269   4.263   0.064   7.960
20748SOL    HW162270   4.182   0.065   8.018
20748SOL    HW262271   4.266   0.147   7.905
20749SOL     OW62272   5.158   1.188   7.489
20749SOL    HW162273   5.190   1.112   7.546
20749SOL    HW262274   5.066   1.215   7.519
20750SOL     OW62275   4.021   0.035   7.619
20750SOL    HW162276   4.070   0.119   7.598
20750SOL    HW262277   4.083  -0.030   7.664
20751SOL     OW62278   4.659   0.236   7.928
20751SOL    HW162279   4.611   0.277   7.850
20751SOL    HW262280   4.758   0.234   7.909
20752SOL     OW62281   4.800   0.683   8.912
20752SOL    HW162282   4.720   0.622   8.915
20752SOL    HW262283   4.881   0.630   8.888
20753SOL     OW62284   4.951   1.570   8.241
20753SOL    HW162285   4.972   1.644   8.176
20753SOL    HW262286   5.019   1.570   8.314
20754SOL     OW62287   4.183   1.152   8.189
20754SOL    HW162288   4.112   1.125   8.254
20754SOL    HW262289   4.157   1.124   8.096
20755SOL     OW62290   4.995   1.797   8.039
20755SOL    HW162291   5.039   1.861   7.975
20755SOL    HW262292   4.945   1.849   8.109
20756SOL     OW62293   4.756   0.549   7.464
20756SOL    HW162294   4.715   0.631   7.425
20756SOL    HW262295   4.820   0.575   7.537
20757SOL     OW62296   3.802   0.556   8.834
20757SOL    HW162297   3.894   0.555   8.793
20757SOL    HW262298   3.796   0.630   8.901
20758SOL     OW62299   4.285   0.222   8.595
20758SOL    HW162300   4.323   0.138   8.632
20758SOL    HW262301   4.197   0.241   8.639
20759SOL     OW62302   4.590   0.454   8.090
20759SOL    HW162303   4.558   0.526   8.028
20759SOL    HW262304   4.614   0.373   8.037
20760SOL     OW62305   4.741   0.039   8.201
20760SOL    HW162306   4.669   0.044   8.132
20760SOL    HW262307   4.717  -0.030   8.270
20761SOL     OW62308   5.153   1.173   8.315
20761SOL    HW162309   5.098   1.089   8.308
20761SOL    HW262310   5.179   1.202   8.223
20762SOL     OW62311   5.190   0.590   8.440
20762SOL    HW162312   5.160   0.495   8.447
20762SOL    HW262313   5.263   0.606   8.506
20763SOL     OW62314   5.581   0.833   7.825
20763SOL    HW162315   5.623   0.769   7.889
20763SOL    HW262316   5.543   0.782   7.747
20764SOL     OW62317   4.212   1.385   7.622
20764SOL    HW162318   4.125   1.370   7.669
20764SOL    HW262319   4.195   1.411   7.527
20765SOL     OW62320   5.388   1.280   8.105
20765SOL    HW162321   5.487   1.288   8.119
20765SOL    HW262322   5.343   1.364   8.136
20766SOL     OW62323   5.114   0.575   7.526
20766SOL    HW162324   5.060   0.554   7.607
20766SOL    HW262325   5.205   0.534   7.535
20767SOL     OW62326   4.251   0.256   7.776
20767SOL    HW162327   4.278   0.197   7.701
20767SOL    HW262328   4.251   0.351   7.745
20768SOL     OW62329   5.478   1.223   9.036
20768SOL    HW162330   5.569   1.184   9.023
20768SOL    HW262331   5.486   1.319   9.060
20769SOL     OW62332   4.788   1.347   8.788
20769SOL    HW162333   4.708   1.324   8.843
20769SOL    HW262334   4.871   1.321   8.837
20770SOL     OW62335   5.316   1.629   9.073
20770SOL    HW162336   5.343   1.663   8.983
20770SOL    HW262337   5.395   1.591   9.119
20771SOL     OW62338   4.835   1.195   8.548
20771SOL    HW162339   4.795   1.239   8.629
20771SOL    HW262340   4.794   1.232   8.465
20772SOL     OW62341   5.362   1.099   8.527
20772SOL    HW162342   5.367   1.180   8.586
20772SOL    HW262343   5.276   1.101   8.476
20773SOL     OW62344   4.639   0.089   8.850
20773SOL    HW162345   4.664   0.069   8.755
20773SOL    HW262346   4.711   0.145   8.892
20774SOL     OW62347   4.704   1.116   9.167
20774SOL    HW162348   4.605   1.122   9.177
20774SOL    HW262349   4.727   1.036   9.111
20775SOL     OW62350   4.429   1.050   7.816
20775SOL    HW162351   4.415   1.057   7.915
20775SOL    HW262352   4.513   0.999   7.798
20776SOL     OW62353   4.134   0.813   8.699
20776SOL    HW162354   4.220   0.825   8.749
20776SOL    HW262355   4.092   0.726   8.726
20777SOL     OW62356   4.998   0.386   8.710
20777SOL    HW162357   5.019   0.460   8.774
20777SOL    HW262358   4.909   0.403   8.667
20778SOL     OW62359   3.788   1.564   8.779
20778SOL    HW162360   3.742   1.646   8.745
20778SOL    HW262361   3.886   1.583   8.788
20779SOL     OW62362   4.091   1.100   7.949
20779SOL    HW162363   4.084   1.183   7.893
20779SOL    HW262364   4.095   1.020   7.889
20780SOL     OW62365   4.290   0.537   8.313
20780SOL    HW162366   4.302   0.603   8.239
20780SOL    HW262367   4.336   0.571   8.396
20781SOL     OW62368   4.976   1.348   7.836
20781SOL    HW162369   5.026   1.425   7.876
20781SOL    HW262370   4.881   1.350   7.868
20782SOL     OW62371   4.996   1.445   8.590
20782SOL    HW162372   5.043   1.458   8.677
20782SOL    HW262373   4.930   1.371   8.599
20783SOL     OW62374   5.306   0.639   7.920
20783SOL    HW162375   5.275   0.700   7.993
20783SOL    HW262376   5.356   0.691   7.851
20784SOL     OW62377   4.078   1.510   8.777
20784SOL    HW162378   4.057   1.466   8.690
20784SOL    HW262379   4.175   1.536   8.780
20785SOL     OW62380   4.126   0.751   9.046
20785SOL    HW162381   4.194   0.806   8.999
20785SOL    HW262382   4.166   0.663   9.073
20786SOL     OW62383   5.311   0.779   9.118
20786SOL    HW162384   5.219   0.817   9.113
20786SOL    HW262385   5.371   0.826   9.053
20787SOL     OW62386   4.737   0.105   9.218
20787SOL    HW162387   4.743   0.190   9.166
20787SOL    HW262388   4.769   0.029   9.161
20788SOL     OW62389   4.228   0.050   9.188
20788SOL    HW162390   4.186  -0.007   9.118
20788SOL    HW262391   4.162   0.119   9.220
20789SOL     OW62392   4.297   0.870   8.477
20789SOL    HW162393   4.341   0.959   8.468
20789SOL    HW262394   4.234   0.870   8.554
20790SOL     OW62395   5.084   0.862   8.493
20790SOL    HW162396   5.009   0.862   8.427
20790SOL    HW262397   5.121   0.770   8.502
20791SOL     OW62398   4.933   0.525   7.723
20791SOL    HW162399   4.946   0.441   7.777
20791SOL    HW262400   4.904   0.599   7.783
20792SOL     OW62401   4.031   0.213   8.679
20792SOL    HW162402   4.008   0.250   8.769
20792SOL    HW262403   4.001   0.118   8.673
20793SOL     OW62404   3.761   1.310   8.730
20793SOL    HW162405   3.814   1.261   8.798
20793SOL    HW262406   3.783   1.408   8.735
20794SOL     OW62407   4.456   0.634   8.512
20794SOL    HW162408   4.515   0.608   8.436
20794SOL    HW262409   4.428   0.730   8.501
20795SOL     OW62410   5.452   0.935   9.302
20795SOL    HW162411   5.406   0.928   9.213
20795SOL    HW262412   5.390   0.979   9.368
20796SOL     OW62413   4.031   0.063   8.066
20796SOL    HW162414   4.020   0.157   8.099
20796SOL    HW262415   4.026   0.000   8.143
20797SOL     OW62416   5.346   0.367   7.822
20797SOL    HW162417   5.348   0.291   7.886
20797SOL    HW262418   5.298   0.444   7.862
20798SOL     OW62419   4.747   0.766   8.414
20798SOL    HW162420   4.762   0.787   8.510
20798SOL    HW262421   4.717   0.671   8.405
20799SOL     OW62422   4.704   1.573   9.148
20799SOL    HW162423   4.684   1.617   9.060
20799SOL    HW262424   4.743   1.482   9.132
20800SOL     OW62425   5.583   1.518   9.053
20800SOL    HW162426   5.597   1.545   8.958
20800SOL    HW262427   5.666   1.540   9.106
20801SOL     OW62428   4.074   0.898   9.252
20801SOL    HW162429   4.150   0.942   9.300
20801SOL    HW262430   4.109   0.851   9.170
20802SOL     OW62431   5.264   0.274   7.573
20802SOL    HW162432   5.203   0.199   7.596
20802SOL    HW262433   5.286   0.326   7.656
20803SOL     OW62434   5.027   0.838   7.490
20803SOL    HW162435   5.061   0.745   7.505
20803SOL    HW262436   5.045   0.865   7.395
20804SOL     OW62437   4.792   1.333   8.297
20804SOL    HW162438   4.799   1.249   8.242
20804SOL    HW262439   4.854   1.402   8.261
20805SOL     OW62440   4.043   0.810   8.397
20805SOL    HW162441   4.136   0.846   8.402
20805SOL    HW262442   4.037   0.725   8.449
20806SOL     OW62443   4.063   0.509   8.454
20806SOL    HW162444   4.011   0.426   8.437
20806SOL    HW262445   4.140   0.514   8.390
20807SOL     OW62446   4.862   0.380   9.126
20807SOL    HW162447   4.817   0.443   9.190
20807SOL    HW262448   4.955   0.411   9.109
20808SOL     OW62449   4.884   0.207   8.925
20808SOL    HW162450   4.884   0.271   9.002
20808SOL    HW262451   4.912   0.255   8.842
20809SOL     OW62452   3.732   1.326   7.648
20809SOL    HW162453   3.639   1.347   7.617
20809SOL    HW262454   3.742   1.227   7.661
20810SOL     OW62455   3.812   1.801   8.375
20810SOL    HW162456   3.770   1.715   8.348
20810SOL    HW262457   3.906   1.804   8.341
20811SOL     OW62458   4.228   1.568   8.358
20811SOL    HW162459   4.294   1.642   8.367
20811SOL    HW262460   4.272   1.489   8.316
20812SOL     OW62461   4.726   0.796   8.686
20812SOL    HW162462   4.767   0.764   8.772
20812SOL    HW262463   4.630   0.769   8.683
20813SOL     OW62464   3.764   0.544   8.562
20813SOL    HW162465   3.849   0.511   8.521
20813SOL    HW262466   3.777   0.559   8.660
20814SOL     OW62467   3.913   0.520   9.170
20814SOL    HW162468   3.972   0.480   9.100
20814SOL    HW262469   3.855   0.591   9.129
20815SOL     OW62470   5.093   0.950   9.108
20815SOL    HW162471   5.132   1.039   9.128
20815SOL    HW262472   5.103   0.930   9.011
20816SOL     OW62473   4.539   0.572   7.773
20816SOL    HW162474   4.546   0.483   7.727
20816SOL    HW262475   4.445   0.606   7.765
20817SOL     OW62476   5.381   0.604   8.654
20817SOL    HW162477   5.343   0.535   8.716
20817SOL    HW262478   5.463   0.568   8.610
20818SOL     OW62479   3.976   1.564   9.192
20818SOL    HW162480   3.946   1.621   9.268
20818SOL    HW262481   3.969   1.467   9.218
20819SOL     OW62482   4.395   0.464   8.717
20819SOL    HW162483   4.361   0.375   8.687
20819SOL    HW262484   4.421   0.518   8.637
20820SOL     OW62485   4.654   1.678   8.913
20820SOL    HW162486   4.630   1.660   8.818
20820SOL    HW262487   4.684   1.772   8.923
20821SOL     OW62488   4.197   0.500   7.639
20821SOL    HW162489   4.258   0.580   7.643
20821SOL    HW262490   4.102   0.531   7.646
20822SOL     OW62491   3.883   1.137   8.914
20822SOL    HW162492   3.905   1.076   8.990
20822SOL    HW262493   3.893   1.088   8.828
20823SOL     OW62494   5.071   1.059   8.682
20823SOL    HW162495   5.095   0.996   8.608
20823SOL    HW262496   4.981   1.099   8.664
20824SOL     OW62497   5.026   0.855   7.757
20824SOL    HW162498   4.940   0.824   7.799
20824SOL    HW262499   5.022   0.841   7.658
20825SOL     OW62500   5.483   1.747   8.602
20825SOL    HW162501   5.544   1.777   8.529
20825SOL    HW262502   5.445   1.658   8.580
20826SOL     OW62503   4.976   1.731   8.576
20826SOL    HW162504   5.060   1.736   8.522
20826SOL    HW262505   4.953   1.635   8.594
20827SOL     OW62506   3.807   1.258   8.470
20827SOL    HW162507   3.802   1.257   8.570
20827SOL    HW262508   3.724   1.217   8.432
20828SOL     OW62509   4.412   1.662   9.164
20828SOL    HW162510   4.356   1.743   9.173
20828SOL    HW262511   4.464   1.666   9.078
20829SOL     OW62512   5.450   0.135   7.971
20829SOL    HW162513   5.523   0.118   7.904
20829SOL    HW262514   5.419   0.048   8.009
20830SOL     OW62515   5.112   1.573   7.925
20830SOL    HW162516   5.179   1.585   7.851
20830SOL    HW262517   5.072   1.662   7.948
20831SOL     OW62518   3.854   1.794   9.299
20831SOL    HW162519   3.813   1.720   9.352
20831SOL    HW262520   3.918   1.845   9.357
20832SOL     OW62521   5.004   0.927   8.120
20832SOL    HW162522   5.064   0.846   8.122
20832SOL    HW262523   5.044   0.996   8.060
20833SOL     OW62524   4.554   1.273   8.870
20833SOL    HW162525   4.549   1.306   8.965
20833SOL    HW262526   4.468   1.292   8.824
20834SOL     OW62527   4.396   1.616   7.602
20834SOL    HW162528   4.405   1.626   7.503
20834SOL    HW262529   4.356   1.527   7.623
20835SOL     OW62530   5.374   1.720   8.842
20835SOL    HW162531   5.427   1.730   8.758
20835SOL    HW262532   5.347   1.810   8.876
20836SOL     OW62533   5.565   0.175   8.411
20836SOL    HW162534   5.604   0.090   8.375
20836SOL    HW262535   5.467   0.177   8.392
20837SOL     OW62536   3.987   0.326   8.168
20837SOL    HW162537   3.908   0.377   8.134
20837SOL    HW262538   3.978   0.311   8.266
20838SOL     OW62539   4.918   1.612   7.479
20838SOL    HW162540   4.924   1.519   7.516
20838SOL    HW262541   4.859   1.612   7.399
20839SOL     OW62542   4.546   1.002   8.820
20839SOL    HW162543   4.586   1.001   8.728
20839SOL    HW262544   4.556   1.094   8.860
20840SOL     OW62545   4.640   0.910   7.739
20840SOL    HW162546   4.703   0.948   7.671
20840SOL    HW262547   4.680   0.827   7.778
20841SOL     OW62548   5.228   1.607   7.492
20841SOL    HW162549   5.136   1.644   7.499
20841SOL    HW262550   5.266   1.627   7.402
20842SOL     OW62551   4.096   1.288   8.938
20842SOL    HW162552   4.083   1.381   8.904
20842SOL    HW262553   4.012   1.236   8.925
20843SOL     OW62554   5.338   1.292   8.737
20843SOL    HW162555   5.398   1.295   8.817
20843SOL    HW262556   5.263   1.356   8.750
20844SOL     OW62557   4.763   1.098   8.144
20844SOL    HW162558   4.693   1.051   8.198
20844SOL    HW262559   4.822   1.030   8.101
20845SOL     OW62560   4.738   0.236   8.419
20845SOL    HW162561   4.730   0.200   8.326
20845SOL    HW262562   4.736   0.160   8.484
20846SOL     OW62563   4.314   1.487   7.939
20846SOL    HW162564   4.356   1.429   7.869
20846SOL    HW262565   4.270   1.566   7.895
20847SOL     OW62566   5.433   0.385   8.829
20847SOL    HW162567   5.506   0.454   8.833
20847SOL    HW262568   5.461   0.310   8.770
20848SOL     OW62569   3.979   1.348   7.738
20848SOL    HW162570   3.883   1.349   7.711
20848SOL    HW262571   3.991   1.401   7.822
20849SOL     OW62572   3.829   1.013   9.174
20849SOL    HW162573   3.752   0.980   9.228
20849SOL    HW262574   3.914   0.983   9.216
20850SOL     OW62575   4.396   0.203   8.937
20850SOL    HW162576   4.486   0.187   8.897
20850SOL    HW262577   4.404   0.208   9.036
20851SOL     OW62578   3.799   0.345   7.481
20851SOL    HW162579   3.707   0.317   7.452
20851SOL    HW262580   3.830   0.422   7.425
20852SOL     OW62581   5.164   0.856   8.846
20852SOL    HW162582   5.107   0.908   8.783
20852SOL    HW262583   5.260   0.868   8.822
20853SOL     OW62584   3.796   0.166   7.766
20853SOL    HW162585   3.779   0.249   7.712
20853SOL    HW262586   3.886   0.129   7.744
20854SOL     OW62587   4.907   1.335   7.567
20854SOL    HW162588   4.808   1.324   7.569
20854SOL    HW262589   4.941   1.350   7.660
20855SOL     OW62590   4.337   0.842   8.879
20855SOL    HW162591   4.393   0.923   8.862
20855SOL    HW262592   4.396   0.762   8.882
20856SOL     OW62593   5.217   1.767   8.407
20856SOL    HW162594   5.250   1.831   8.338
20856SOL    HW262595   5.283   1.761   8.482
20857SOL     OW62596   4.440   0.565   9.156
20857SOL    HW162597   4.459   0.630   9.230
20857SOL    HW262598   4.500   0.485   9.165
20858SOL     OW62599   5.174   1.220   9.081
20858SOL    HW162600   5.165   1.210   9.180
20858SOL    HW262601   5.270   1.213   9.055
20859SOL     OW62602   4.114   1.741   9.008
20859SOL    HW162603   4.023   1.782   9.006
20859SOL    HW262604   4.107   1.647   9.040
20860SOL     OW62605   5.398   0.883   8.702
20860SOL    HW162606   5.371   0.794   8.665
20860SOL    HW262607   5.399   0.951   8.629
20861SOL     OW62608   4.949   0.325   7.897
20861SOL    HW162609   5.014   0.251   7.886
20861SOL    HW262610   4.969   0.375   7.981
20862SOL     OW62611   4.318   0.745   8.100
20862SOL    HW162612   4.368   0.830   8.081
20862SOL    HW262613   4.230   0.747   8.052
20863SOL     OW62614   5.501   0.342   9.090
20863SOL    HW162615   5.484   0.373   8.996
20863SOL    HW262616   5.417   0.305   9.128
20864SOL     OW62617   5.454   0.934   8.965
20864SOL    HW162618   5.492   1.025   8.980
20864SOL    HW262619   5.446   0.917   8.866
20865SOL     OW62620   4.583   1.374   7.464
20865SOL    HW162621   4.537   1.389   7.552
20865SOL    HW262622   4.627   1.459   7.434
20866SOL     OW62623   4.385   1.790   8.401
20866SOL    HW162624   4.339   1.878   8.388
20866SOL    HW262625   4.484   1.802   8.394
20867SOL     OW62626   4.583   0.956   8.309
20867SOL    HW162627   4.637   0.887   8.357
20867SOL    HW262628   4.551   1.025   8.375
20868SOL     OW62629   4.807   0.984   7.535
20868SOL    HW162630   4.784   1.037   7.453
20868SOL    HW262631   4.888   0.928   7.516
20869SOL     OW62632   5.585   1.569   8.299
20869SOL    HW162633   5.514   1.557   8.229
20869SOL    HW262634   5.586   1.490   8.359
20870SOL     OW62635   3.945   1.314   9.292
20870SOL    HW162636   3.880   1.241   9.271
20870SOL    HW262637   3.949   1.328   9.390
20871SOL     OW62638   3.803   1.240   8.101
20871SOL    HW162639   3.802   1.193   8.189
20871SOL    HW262640   3.885   1.212   8.050
20872SOL     OW62641   4.396   1.391   9.072
20872SOL    HW162642   4.318   1.341   9.110
20872SOL    HW262643   4.393   1.486   9.103
20873SOL     OW62644   5.548   0.192   8.675
20873SOL    HW162645   5.544   0.102   8.719
20873SOL    HW262646   5.551   0.181   8.576
20874SOL     OW62647   4.152   0.424   7.968
20874SOL    HW162648   4.182   0.352   7.906
20874SOL    HW262649   4.113   0.384   8.051
20875SOL     OW62650   5.429   1.487   8.552
20875SOL    HW162651   5.336   1.462   8.525
20875SOL    HW262652   5.455   1.437   8.634
20876SOL     OW62653   4.041   0.547   8.728
20876SOL    HW162654   4.079   0.488   8.800
20876SOL    HW262655   4.081   0.521   8.640
20877SOL     OW62656   4.536   1.586   8.135
20877SOL    HW162657   4.568   1.596   8.041
20877SOL    HW262658   4.457   1.524   8.137
20878SOL     OW62659   5.148   0.214   8.560
20878SOL    HW162660   5.200   0.149   8.615
20878SOL    HW262661   5.099   0.277   8.621
20879SOL     OW62662   4.725   0.034   8.602
20879SOL    HW162663   4.662  -0.038   8.571
20879SOL    HW262664   4.818  -0.002   8.602
20880SOL     OW62665   4.494   1.330   7.749
20880SOL    HW162666   4.448   1.243   7.766
20880SOL    HW262667   4.585   1.327   7.790
20881SOL     OW62668   4.342   1.567   8.732
20881SOL    HW162669   4.337   1.649   8.789
20881SOL    HW262670   4.431   1.564   8.687
20882SOL     OW62671   5.076   0.052   7.616
20882SOL    HW162672   5.111   0.011   7.532
20882SOL    HW262673   4.986   0.014   7.636
20883SOL     OW62674   5.024   0.453   8.139
20883SOL    HW162675   4.965   0.533   8.143
20883SOL    HW262676   5.039   0.418   8.232
20884SOL     OW62677   5.317   0.221   8.330
20884SOL    HW162678   5.233   0.220   8.384
20884SOL    HW262679   5.319   0.304   8.274
20885SOL     OW62680   3.763   1.077   7.748
20885SOL    HW162681   3.862   1.066   7.739
20885SOL    HW262682   3.723   0.991   7.780
20886SOL     OW62683   4.599   1.646   7.785
20886SOL    HW162684   4.522   1.611   7.731
20886SOL    HW262685   4.567   1.717   7.847
20887SOL     OW62686   3.954   0.628   9.423
20887SOL    HW162687   3.861   0.626   9.460
20887SOL    HW262688   3.955   0.589   9.331
20888SOL     OW62689   3.949   0.275  10.306
20888SOL    HW162690   3.984   0.258  10.398
20888SOL    HW262691   3.861   0.230  10.294
20889SOL     OW62692   3.743   0.368   9.957
20889SOL    HW162693   3.661   0.411   9.996
20889SOL    HW262694   3.715   0.295   9.894
20890SOL     OW62695   4.293   1.275  10.475
20890SOL    HW162696   4.200   1.268  10.438
20890SOL    HW262697   4.304   1.364  10.519
20891SOL     OW62698   5.279   1.511  10.013
20891SOL    HW162699   5.222   1.495  10.094
20891SOL    HW262700   5.220   1.521   9.933
20892SOL     OW62701   4.859   0.703  10.027
20892SOL    HW162702   4.916   0.781  10.002
20892SOL    HW262703   4.799   0.729  10.103
20893SOL     OW62704   5.479   0.607   9.541
20893SOL    HW162705   5.467   0.594   9.442
20893SOL    HW262706   5.449   0.526   9.590
20894SOL     OW62707   4.492   1.144  10.333
20894SOL    HW162708   4.414   1.161  10.393
20894SOL    HW262709   4.526   1.231  10.297
20895SOL     OW62710   4.574   0.798  11.133
20895SOL    HW162711   4.570   0.874  11.198
20895SOL    HW262712   4.596   0.834  11.042
20896SOL     OW62713   4.409   1.012   9.975
20896SOL    HW162714   4.478   0.996  10.045
20896SOL    HW262715   4.336   1.069  10.013
20897SOL     OW62716   4.410   1.161  11.113
20897SOL    HW162717   4.470   1.240  11.127
20897SOL    HW262718   4.324   1.192  11.072
20898SOL     OW62719   4.059   1.435  10.371
20898SOL    HW162720   3.981   1.404  10.318
20898SOL    HW262721   4.117   1.493  10.314
20899SOL     OW62722   5.184   1.505  10.649
20899SOL    HW162723   5.208   1.599  10.675
20899SOL    HW262724   5.168   1.451  10.731
20900SOL     OW62725   4.162   0.392  10.809
20900SOL    HW162726   4.244   0.336  10.818
20900SOL    HW262727   4.081   0.334  10.813
20901SOL     OW62728   5.327   0.447  10.047
20901SOL    HW162729   5.253   0.493   9.997
20901SOL    HW262730   5.378   0.515  10.100
20902SOL     OW62731   3.955   1.713   9.793
20902SOL    HW162732   3.989   1.790   9.847
20902SOL    HW262733   3.999   1.713   9.703
20903SOL     OW62734   4.851   1.341  11.000
20903SOL    HW162735   4.898   1.341  11.088
20903SOL    HW262736   4.803   1.254  10.989
20904SOL     OW62737   3.954   1.434   9.848
20904SOL    HW162738   3.928   1.530   9.848
20904SOL    HW262739   3.883   1.380   9.893
20905SOL     OW62740   3.964   1.091  10.196
20905SOL    HW162741   3.978   1.007  10.248
20905SOL    HW262742   3.909   1.155  10.251
20906SOL     OW62743   4.344   1.786  10.749
20906SOL    HW162744   4.252   1.769  10.784
20906SOL    HW262745   4.372   1.878  10.775
20907SOL     OW62746   4.330   0.964   9.433
20907SOL    HW162747   4.337   1.048   9.379
20907SOL    HW262748   4.376   0.977   9.521
20908SOL     OW62749   5.318   0.114  10.790
20908SOL    HW162750   5.300   0.181  10.718
20908SOL    HW262751   5.315   0.160  10.879
20909SOL     OW62752   3.846   0.643   9.873
20909SOL    HW162753   3.801   0.555   9.890
20909SOL    HW262754   3.845   0.697   9.957
20910SOL     OW62755   5.566   1.767   9.669
20910SOL    HW162756   5.620   1.738   9.749
20910SOL    HW262757   5.596   1.857   9.640
20911SOL     OW62758   3.751   1.596   9.427
20911SOL    HW162759   3.732   1.500   9.448
20911SOL    HW262760   3.718   1.654   9.502
20912SOL     OW62761   5.413   0.922   9.922
20912SOL    HW162762   5.508   0.893   9.930
20912SOL    HW262763   5.405   0.987   9.847
20913SOL     OW62764   5.365   1.108   9.742
20913SOL    HW162765   5.451   1.110   9.690
20913SOL    HW262766   5.379   1.155   9.830
20914SOL     OW62767   3.837   0.737  10.907
20914SOL    HW162768   3.925   0.724  10.952
20914SOL    HW262769   3.824   0.834  10.885
20915SOL     OW62770   4.337   1.365  10.036
20915SOL    HW162771   4.288   1.278  10.045
20915SOL    HW262772   4.314   1.408   9.949
20916SOL     OW62773   5.017   1.228  10.733
20916SOL    HW162774   5.054   1.155  10.675
20916SOL    HW262775   5.069   1.233  10.818
20917SOL     OW62776   4.533   0.004   9.812
20917SOL    HW162777   4.573   0.095   9.803
20917SOL    HW262778   4.433   0.012   9.818
20918SOL     OW62779   3.921   0.976  10.574
20918SOL    HW162780   4.010   0.931  10.560
20918SOL    HW262781   3.848   0.911  10.555
20919SOL     OW62782   5.249   0.999   9.500
20919SOL    HW162783   5.186   0.923   9.513
20919SOL    HW262784   5.297   1.017   9.586
20920SOL     OW62785   4.911   1.792  10.926
20920SOL    HW162786   4.935   1.852  10.850
20920SOL    HW262787   4.918   1.697  10.896
20921SOL     OW62788   4.041   0.251  11.111
20921SOL    HW162789   4.112   0.322  11.117
20921SOL    HW262790   3.953   0.290  11.139
20922SOL     OW62791   5.190   1.417  10.263
20922SOL    HW162792   5.131   1.423  10.343
20922SOL    HW262793   5.175   1.329  10.217
20923SOL     OW62794   5.391   1.714   9.882
20923SOL    HW162795   5.350   1.691   9.794
20923SOL    HW262796   5.373   1.640   9.947
20924SOL     OW62797   4.322   0.729   9.580
20924SOL    HW162798   4.346   0.798   9.512
20924SOL    HW262799   4.244   0.762   9.634
20925SOL     OW62800   5.005   0.345  10.254
20925SOL    HW162801   4.919   0.295  10.241
20925SOL    HW262802   5.067   0.291  10.310
20926SOL     OW62803   5.300   1.662   9.617
20926SOL    HW162804   5.389   1.708   9.620
20926SOL    HW262805   5.279   1.638   9.522
20927SOL     OW62806   4.531   0.605  10.775
20927SOL    HW162807   4.484   0.602  10.864
20927SOL    HW262808   4.480   0.550  10.709
20928SOL     OW62809   5.118   0.469  10.984
20928SOL    HW162810   5.098   0.512  11.072
20928SOL    HW262811   5.196   0.407  10.993
20929SOL     OW62812   4.697   0.890  10.882
20929SOL    HW162813   4.743   0.806  10.853
20929SOL    HW262814   4.641   0.924  10.807
20930SOL     OW62815   4.715   0.410  10.552
20930SOL    HW162816   4.638   0.444  10.606
20930SOL    HW262817   4.681   0.359  10.473
20931SOL     OW62818   4.765   0.701   9.739
20931SOL    HW162819   4.791   0.697   9.835
20931SOL    HW262820   4.680   0.650   9.725
20932SOL     OW62821   3.800   0.811  10.099
20932SOL    HW162822   3.899   0.799  10.108
20932SOL    HW262823   3.776   0.906  10.120
20933SOL     OW62824   3.854   1.821  10.881
20933SOL    HW162825   3.844   1.806  10.980
20933SOL    HW262826   3.768   1.857  10.845
20934SOL     OW62827   4.589   0.348   9.505
20934SOL    HW162828   4.648   0.411   9.456
20934SOL    HW262829   4.608   0.254   9.476
20935SOL     OW62830   5.443   0.585  11.141
20935SOL    HW162831   5.417   0.674  11.105
20935SOL    HW262832   5.441   0.517  11.068
20936SOL     OW62833   5.086   1.144   9.855
20936SOL    HW162834   5.169   1.115   9.807
20936SOL    HW262835   5.037   1.211   9.799
20937SOL     OW62836   4.274   0.196  10.195
20937SOL    HW162837   4.269   0.191  10.295
20937SOL    HW262838   4.276   0.292  10.166
20938SOL     OW62839   4.732   1.456   9.787
20938SOL    HW162840   4.686   1.528   9.735
20938SOL    HW262841   4.728   1.476   9.885
20939SOL     OW62842   4.075   1.801  10.163
20939SOL    HW162843   4.125   1.715  10.169
20939SOL    HW262844   4.140   1.878  10.160
20940SOL     OW62845   5.519   1.066  10.183
20940SOL    HW162846   5.457   1.051  10.107
20940SOL    HW262847   5.467   1.077  10.268
20941SOL     OW62848   4.951   1.550  10.816
20941SOL    HW162849   4.957   1.473  10.880
20941SOL    HW262850   4.899   1.524  10.736
20942SOL     OW62851   4.045   0.943   9.552
20942SOL    HW162852   4.127   0.982   9.510
20942SOL    HW262853   4.018   0.861   9.503
20943SOL     OW62854   5.182   0.735  10.038
20943SOL    HW162855   5.177   0.670  10.113
20943SOL    HW262856   5.262   0.794  10.051
20944SOL     OW62857   4.185   1.266  11.037
20944SOL    HW162858   4.135   1.267  10.951
20944SOL    HW262859   4.122   1.248  11.113
20945SOL     OW62860   4.835   1.776   9.547
20945SOL    HW162861   4.775   1.714   9.597
20945SOL    HW262862   4.866   1.732   9.462
20946SOL     OW62863   3.926   0.285  10.808
20946SOL    HW162864   3.846   0.345  10.795
20946SOL    HW262865   3.916   0.236  10.894
20947SOL     OW62866   5.356   1.377   9.391
20947SOL    HW162867   5.324   1.471   9.381
20947SOL    HW262868   5.280   1.314   9.379
20948SOL     OW62869   4.188   1.743   9.633
20948SOL    HW162870   4.221   1.782   9.719
20948SOL    HW262871   4.264   1.736   9.568
20949SOL     OW62872   5.124   0.107   9.736
20949SOL    HW162873   5.100   0.070   9.646
20949SOL    HW262874   5.223   0.123   9.740
20950SOL     OW62875   3.973   1.785  10.551
20950SOL    HW162876   4.030   1.720  10.601
20950SOL    HW262877   3.957   1.752  10.458
20951SOL     OW62878   4.664   1.698  10.214
20951SOL    HW162879   4.744   1.641  10.235
20951SOL    HW262880   4.615   1.658  10.137
20952SOL     OW62881   4.106   0.700   9.790
20952SOL    HW162882   4.151   0.610   9.787
20952SOL    HW262883   4.012   0.689   9.823
20953SOL     OW62884   5.271   0.222  11.039
20953SOL    HW162885   5.266   0.259  11.131
20953SOL    HW262886   5.199   0.153  11.027
20954SOL     OW62887   4.338   0.122   9.427
20954SOL    HW162888   4.436   0.100   9.434
20954SOL    HW262889   4.307   0.105   9.334
20955SOL     OW62890   4.505   0.264  11.059
20955SOL    HW162891   4.572   0.203  11.102
20955SOL    HW262892   4.432   0.283  11.124
20956SOL     OW62893   4.612   1.514  10.505
20956SOL    HW162894   4.589   1.489  10.411
20956SOL    HW262895   4.673   1.445  10.544
20957SOL     OW62896   5.075   0.590  10.743
20957SOL    HW162897   5.103   0.547  10.828
20957SOL    HW262898   5.100   0.686  10.744
20958SOL     OW62899   4.527   1.402  10.234
20958SOL    HW162900   4.617   1.416  10.192
20958SOL    HW262901   4.456   1.404  10.163
20959SOL     OW62902   4.646   0.503  10.209
20959SOL    HW162903   4.621   0.494  10.113
20959SOL    HW262904   4.694   0.421  10.240
20960SOL     OW62905   4.263   0.064   9.822
20960SOL    HW162906   4.182   0.065   9.880
20960SOL    HW262907   4.266   0.147   9.767
20961SOL     OW62908   5.158   1.188   9.351
20961SOL    HW162909   5.190   1.112   9.408
20961SOL    HW262910   5.066   1.215   9.381
20962SOL     OW62911   4.021   0.035   9.481
20962SOL    HW162912   4.070   0.119   9.460
20962SOL    HW262913   4.083  -0.030   9.526
20963SOL     OW62914   4.659   0.236   9.790
20963SOL    HW162915   4.611   0.277   9.712
20963SOL    HW262916   4.758   0.234   9.771
20964SOL     OW62917   4.800   0.683  10.774
20964SOL    HW162918   4.720   0.622  10.777
20964SOL    HW262919   4.881   0.630  10.750
20965SOL     OW62920   4.951   1.570  10.103
20965SOL    HW162921   4.972   1.644  10.038
20965SOL    HW262922   5.019   1.570  10.176
20966SOL     OW62923   4.183   1.152  10.051
20966SOL    HW162924   4.112   1.125  10.116
20966SOL    HW262925   4.157   1.124   9.958
20967SOL     OW62926   4.995   1.797   9.901
20967SOL    HW162927   5.039   1.861   9.837
20967SOL    HW262928   4.945   1.849   9.971
20968SOL     OW62929   4.756   0.549   9.326
20968SOL    HW162930   4.715   0.631   9.287
20968SOL    HW262931   4.820   0.575   9.399
20969SOL     OW62932   3.802   0.556  10.696
20969SOL    HW162933   3.894   0.555  10.655
20969SOL    HW262934   3.796   0.630  10.763
20970SOL     OW62935   4.285   0.222  10.457
20970SOL    HW162936   4.323   0.138  10.494
20970SOL    HW262937   4.197   0.241  10.501
20971SOL     OW62938   4.590   0.454   9.952
20971SOL    HW162939   4.558   0.526   9.890
20971SOL    HW262940   4.614   0.373   9.899
20972SOL     OW62941   4.741   0.039  10.063
20972SOL    HW162942   4.669   0.044   9.994
20972SOL    HW262943   4.717  -0.030  10.132
20973SOL     OW62944   5.153   1.173  10.177
20973SOL    HW162945   5.098   1.089  10.170
20973SOL    HW262946   5.179   1.202  10.085
20974SOL     OW62947   5.190   0.590  10.302
20974SOL    HW162948   5.160   0.495  10.309
20974SOL    HW262949   5.263   0.606  10.368
20975SOL     OW62950   5.581   0.833   9.687
20975SOL    HW162951   5.623   0.769   9.751
20975SOL    HW262952   5.543   0.782   9.609
20976SOL     OW62953   4.212   1.385   9.484
20976SOL    HW162954   4.125   1.370   9.531
20976SOL    HW262955   4.195   1.411   9.389
20977SOL     OW62956   5.388   1.280   9.967
20977SOL    HW162957   5.487   1.288   9.981
20977SOL    HW262958   5.343   1.364   9.998
20978SOL     OW62959   5.114   0.575   9.388
20978SOL    HW162960   5.060   0.554   9.469
20978SOL    HW262961   5.205   0.534   9.397
20979SOL     OW62962   4.251   0.256   9.638
20979SOL    HW162963   4.278   0.197   9.563
20979SOL    HW262964   4.251   0.351   9.607
20980SOL     OW62965   5.478   1.223  10.898
20980SOL    HW162966   5.569   1.184  10.885
20980SOL    HW262967   5.486   1.319  10.922
20981SOL     OW62968   4.788   1.347  10.650
20981SOL    HW162969   4.708   1.324  10.705
20981SOL    HW262970   4.871   1.321  10.699
20982SOL     OW62971   5.316   1.629  10.935
20982SOL    HW162972   5.343   1.663  10.845
20982SOL    HW262973   5.395   1.591  10.981
20983SOL     OW62974   4.835   1.195  10.410
20983SOL    HW162975   4.795   1.239  10.491
20983SOL    HW262976   4.794   1.232  10.327
20984SOL     OW62977   5.362   1.099  10.389
20984SOL    HW162978   5.367   1.180  10.448
20984SOL    HW262979   5.276   1.101  10.338
20985SOL     OW62980   4.639   0.089  10.712
20985SOL    HW162981   4.664   0.069  10.617
20985SOL    HW262982   4.711   0.145  10.754
20986SOL     OW62983   4.704   1.116  11.029
20986SOL    HW162984   4.605   1.122  11.039
20986SOL    HW262985   4.727   1.036  10.973
20987SOL     OW62986   4.429   1.050   9.678
20987SOL    HW162987   4.415   1.057   9.777
20987SOL    HW262988   4.513   0.999   9.660
20988SOL     OW62989   4.134   0.813  10.561
20988SOL    HW162990   4.220   0.825  10.611
20988SOL    HW262991   4.092   0.726  10.588
20989SOL     OW62992   4.998   0.386  10.572
20989SOL    HW162993   5.019   0.460  10.636
20989SOL    HW262994   4.909   0.403  10.529
20990SOL     OW62995   3.788   1.564  10.641
20990SOL    HW162996   3.742   1.646  10.607
20990SOL    HW262997   3.886   1.583  10.650
20991SOL     OW62998   4.091   1.100   9.811
20991SOL    HW162999   4.084   1.183   9.755
20991SOL    HW263000   4.095   1.020   9.751
20992SOL     OW63001   4.290   0.537  10.175
20992SOL    HW163002   4.302   0.603  10.101
20992SOL    HW263003   4.336   0.571  10.258
20993SOL     OW63004   4.976   1.348   9.698
20993SOL    HW163005   5.026   1.425   9.738
20993SOL    HW263006   4.881   1.350   9.730
20994SOL     OW63007   4.996   1.445  10.452
20994SOL    HW163008   5.043   1.458  10.539
20994SOL    HW263009   4.930   1.371  10.461
20995SOL     OW63010   5.306   0.639   9.782
20995SOL    HW163011   5.275   0.700   9.855
20995SOL    HW263012   5.356   0.691   9.713
20996SOL     OW63013   4.078   1.510  10.639
20996SOL    HW163014   4.057   1.466  10.552
20996SOL    HW263015   4.175   1.536  10.642
20997SOL     OW63016   4.126   0.751  10.908
20997SOL    HW163017   4.194   0.806  10.861
20997SOL    HW263018   4.166   0.663  10.935
20998SOL     OW63019   5.311   0.779  10.980
20998SOL    HW163020   5.219   0.817  10.975
20998SOL    HW263021   5.371   0.826  10.915
20999SOL     OW63022   4.737   0.105  11.080
20999SOL    HW163023   4.743   0.190  11.028
20999SOL    HW263024   4.769   0.029  11.023
21000SOL     OW63025   4.228   0.050  11.050
21000SOL    HW163026   4.186  -0.007  10.980
21000SOL    HW263027   4.162   0.119  11.082
21001SOL     OW63028   4.297   0.870  10.339
21001SOL    HW163029   4.341   0.959  10.330
21001SOL    HW263030   4.234   0.870  10.416
21002SOL     OW63031   5.084   0.862  10.355
21002SOL    HW163032   5.009   0.862  10.289
21002SOL    HW263033   5.121   0.770  10.364
21003SOL     OW63034   4.933   0.525   9.585
21003SOL    HW163035   4.946   0.441   9.639
21003SOL    HW263036   4.904   0.599   9.645
21004SOL     OW63037   4.031   0.213  10.541
21004SOL    HW163038   4.008   0.250  10.631
21004SOL    HW263039   4.001   0.118  10.535
21005SOL     OW63040   3.761   1.310  10.592
21005SOL    HW163041   3.814   1.261  10.660
21005SOL    HW263042   3.783   1.408  10.597
21006SOL     OW63043   4.456   0.634  10.374
21006SOL    HW163044   4.515   0.608  10.298
21006SOL    HW263045   4.428   0.730  10.363
21007SOL     OW63046   5.452   0.935  11.164
21007SOL    HW163047   5.406   0.928  11.075
21007SOL    HW263048   5.390   0.979  11.230
21008SOL     OW63049   4.031   0.063   9.928
21008SOL    HW163050   4.020   0.157   9.961
21008SOL    HW263051   4.026   0.000  10.005
21009SOL     OW63052   5.346   0.367   9.684
21009SOL    HW163053   5.348   0.291   9.748
21009SOL    HW263054   5.298   0.444   9.724
21010SOL     OW63055   4.747   0.766  10.276
21010SOL    HW163056   4.762   0.787  10.372
21010SOL    HW263057   4.717   0.671  10.267
21011SOL     OW63058   4.704   1.573  11.010
21011SOL    HW163059   4.684   1.617  10.922
21011SOL    HW263060   4.743   1.482  10.994
21012SOL     OW63061   5.583   1.518  10.915
21012SOL    HW163062   5.597   1.545  10.820
21012SOL    HW263063   5.666   1.540  10.968
21013SOL     OW63064   4.074   0.898  11.114
21013SOL    HW163065   4.150   0.942  11.162
21013SOL    HW263066   4.109   0.851  11.032
21014SOL     OW63067   5.264   0.274   9.435
21014SOL    HW163068   5.203   0.199   9.458
21014SOL    HW263069   5.286   0.326   9.518
21015SOL     OW63070   5.027   0.838   9.352
21015SOL    HW163071   5.061   0.745   9.367
21015SOL    HW263072   5.045   0.865   9.257
21016SOL     OW63073   4.792   1.333  10.159
21016SOL    HW163074   4.799   1.249  10.104
21016SOL    HW263075   4.854   1.402  10.123
21017SOL     OW63076   4.043   0.810  10.259
21017SOL    HW163077   4.136   0.846  10.264
21017SOL    HW263078   4.037   0.725  10.311
21018SOL     OW63079   4.063   0.509  10.316
21018SOL    HW163080   4.011   0.426  10.299
21018SOL    HW263081   4.140   0.514  10.252
21019SOL     OW63082   4.862   0.380  10.988
21019SOL    HW163083   4.817   0.443  11.052
21019SOL    HW263084   4.955   0.411  10.971
21020SOL     OW63085   4.884   0.207  10.787
21020SOL    HW163086   4.884   0.271  10.864
21020SOL    HW263087   4.912   0.255  10.704
21021SOL     OW63088   3.732   1.326   9.510
21021SOL    HW163089   3.639   1.347   9.479
21021SOL    HW263090   3.742   1.227   9.523
21022SOL     OW63091   3.812   1.801  10.237
21022SOL    HW163092   3.770   1.715  10.210
21022SOL    HW263093   3.906   1.804  10.203
21023SOL     OW63094   4.228   1.568  10.220
21023SOL    HW163095   4.294   1.642  10.229
21023SOL    HW263096   4.272   1.489  10.178
21024SOL     OW63097   4.726   0.796  10.548
21024SOL    HW163098   4.767   0.764  10.634
21024SOL    HW263099   4.630   0.769  10.545
21025SOL     OW63100   3.764   0.544  10.424
21025SOL    HW163101   3.849   0.511  10.383
21025SOL    HW263102   3.777   0.559  10.522
21026SOL     OW63103   3.913   0.520  11.032
21026SOL    HW163104   3.972   0.480  10.962
21026SOL    HW263105   3.855   0.591  10.991
21027SOL     OW63106   5.093   0.950  10.970
21027SOL    HW163107   5.132   1.039  10.990
21027SOL    HW263108   5.103   0.930  10.873
21028SOL     OW63109   4.539   0.572   9.635
21028SOL    HW163110   4.546   0.483   9.589
21028SOL    HW263111   4.445   0.606   9.627
21029SOL     OW63112   5.381   0.604  10.516
21029SOL    HW163113   5.343   0.535  10.578
21029SOL    HW263114   5.463   0.568  10.472
21030SOL     OW63115   3.976   1.564  11.054
21030SOL    HW163116   3.946   1.621  11.130
21030SOL    HW263117   3.969   1.467  11.080
21031SOL     OW63118   4.395   0.464  10.579
21031SOL    HW163119   4.361   0.375  10.549
21031SOL    HW263120   4.421   0.518  10.499
21032SOL     OW63121   4.654   1.678  10.775
21032SOL    HW163122   4.630   1.660  10.680
21032SOL    HW263123   4.684   1.772  10.785
21033SOL     OW63124   4.197   0.500   9.501
21033SOL    HW163125   4.258   0.580   9.505
21033SOL    HW263126   4.102   0.531   9.508
21034SOL     OW63127   3.883   1.137  10.776
21034SOL    HW163128   3.905   1.076  10.852
21034SOL    HW263129   3.893   1.088  10.690
21035SOL     OW63130   5.071   1.059  10.544
21035SOL    HW163131   5.095   0.996  10.470
21035SOL    HW263132   4.981   1.099  10.526
21036SOL     OW63133   5.026   0.855   9.619
21036SOL    HW163134   4.940   0.824   9.661
21036SOL    HW263135   5.022   0.841   9.520
21037SOL     OW63136   5.483   1.747  10.464
21037SOL    HW163137   5.544   1.777  10.391
21037SOL    HW263138   5.445   1.658  10.442
21038SOL     OW63139   4.976   1.731  10.438
21038SOL    HW163140   5.060   1.736  10.384
21038SOL    HW263141   4.953   1.635  10.456
21039SOL     OW63142   3.807   1.258  10.332
21039SOL    HW163143   3.802   1.257  10.432
21039SOL    HW263144   3.724   1.217  10.294
21040SOL     OW63145   4.412   1.662  11.026
21040SOL    HW163146   4.356   1.743  11.035
21040SOL    HW263147   4.464   1.666  10.940
21041SOL     OW63148   5.450   0.135   9.833
21041SOL    HW163149   5.523   0.118   9.766
21041SOL    HW263150   5.419   0.048   9.871
21042SOL     OW63151   5.112   1.573   9.787
21042SOL    HW163152   5.179   1.585   9.713
21042SOL    HW263153   5.072   1.662   9.810
21043SOL     OW63154   3.854   1.794  11.161
21043SOL    HW163155   3.813   1.720  11.214
21043SOL    HW263156   3.918   1.845  11.219
21044SOL     OW63157   5.004   0.927   9.982
21044SOL    HW163158   5.064   0.846   9.984
21044SOL    HW263159   5.044   0.996   9.922
21045SOL     OW63160   4.554   1.273  10.732
21045SOL    HW163161   4.549   1.306  10.827
21045SOL    HW263162   4.468   1.292  10.686
21046SOL     OW63163   4.396   1.616   9.464
21046SOL    HW163164   4.405   1.626   9.365
21046SOL    HW263165   4.356   1.527   9.485
21047SOL     OW63166   5.374   1.720  10.704
21047SOL    HW163167   5.427   1.730  10.620
21047SOL    HW263168   5.347   1.810  10.738
21048SOL     OW63169   5.565   0.175  10.273
21048SOL    HW163170   5.604   0.090  10.237
21048SOL    HW263171   5.467   0.177  10.254
21049SOL     OW63172   3.987   0.326  10.030
21049SOL    HW163173   3.908   0.377   9.996
21049SOL    HW263174   3.978   0.311  10.128
21050SOL     OW63175   4.918   1.612   9.341
21050SOL    HW163176   4.924   1.519   9.378
21050SOL    HW263177   4.859   1.612   9.261
21051SOL     OW63178   4.546   1.002  10.682
21051SOL    HW163179   4.586   1.001  10.590
21051SOL    HW263180   4.556   1.094  10.722
21052SOL     OW63181   4.640   0.910   9.601
21052SOL    HW163182   4.703   0.948   9.533
21052SOL    HW263183   4.680   0.827   9.640
21053SOL     OW63184   5.228   1.607   9.354
21053SOL    HW163185   5.136   1.644   9.361
21053SOL    HW263186   5.266   1.627   9.264
21054SOL     OW63187   4.096   1.288  10.800
21054SOL    HW163188   4.083   1.381  10.766
21054SOL    HW263189   4.012   1.236  10.787
21055SOL     OW63190   5.338   1.292  10.599
21055SOL    HW163191   5.398   1.295  10.679
21055SOL    HW263192   5.263   1.356  10.612
21056SOL     OW63193   4.763   1.098  10.006
21056SOL    HW163194   4.693   1.051  10.060
21056SOL    HW263195   4.822   1.030   9.963
21057SOL     OW63196   4.738   0.236  10.281
21057SOL    HW163197   4.730   0.200  10.188
21057SOL    HW263198   4.736   0.160  10.346
21058SOL     OW63199   4.314   1.487   9.801
21058SOL    HW163200   4.356   1.429   9.731
21058SOL    HW263201   4.270   1.566   9.757
21059SOL     OW63202   5.433   0.385  10.691
21059SOL    HW163203   5.506   0.454  10.695
21059SOL    HW263204   5.461   0.310  10.632
21060SOL     OW63205   3.979   1.348   9.600
21060SOL    HW163206   3.883   1.349   9.573
21060SOL    HW263207   3.991   1.401   9.684
21061SOL     OW63208   3.829   1.013  11.036
21061SOL    HW163209   3.752   0.980  11.090
21061SOL    HW263210   3.914   0.983  11.078
21062SOL     OW63211   4.396   0.203  10.799
21062SOL    HW163212   4.486   0.187  10.759
21062SOL    HW263213   4.404   0.208  10.898
21063SOL     OW63214   3.799   0.345   9.343
21063SOL    HW163215   3.707   0.317   9.314
21063SOL    HW263216   3.830   0.422   9.287
21064SOL     OW63217   5.164   0.856  10.708
21064SOL    HW163218   5.107   0.908  10.645
21064SOL    HW263219   5.260   0.868  10.684
21065SOL     OW63220   3.796   0.166   9.628
21065SOL    HW163221   3.779   0.249   9.574
21065SOL    HW263222   3.886   0.129   9.606
21066SOL     OW63223   4.907   1.335   9.429
21066SOL    HW163224   4.808   1.324   9.431
21066SOL    HW263225   4.941   1.350   9.522
21067SOL     OW63226   4.337   0.842  10.741
21067SOL    HW163227   4.393   0.923  10.724
21067SOL    HW263228   4.396   0.762  10.744
21068SOL     OW63229   5.217   1.767  10.269
21068SOL    HW163230   5.250   1.831  10.200
21068SOL    HW263231   5.283   1.761  10.344
21069SOL     OW63232   4.440   0.565  11.018
21069SOL    HW163233   4.459   0.630  11.092
21069SOL    HW263234   4.500   0.485  11.027
21070SOL     OW63235   5.174   1.220  10.943
21070SOL    HW163236   5.165   1.210  11.042
21070SOL    HW263237   5.270   1.213  10.917
21071SOL     OW63238   4.114   1.741  10.870
21071SOL    HW163239   4.023   1.782  10.868
21071SOL    HW263240   4.107   1.647  10.902
21072SOL     OW63241   5.398   0.883  10.564
21072SOL    HW163242   5.371   0.794  10.527
21072SOL    HW263243   5.399   0.951  10.491
21073SOL     OW63244   4.949   0.325   9.759
21073SOL    HW163245   5.014   0.251   9.748
21073SOL    HW263246   4.969   0.375   9.843
21074SOL     OW63247   4.318   0.745   9.962
21074SOL    HW163248   4.368   0.830   9.943
21074SOL    HW263249   4.230   0.747   9.914
21075SOL     OW63250   5.501   0.342  10.952
21075SOL    HW163251   5.484   0.373  10.858
21075SOL    HW263252   5.417   0.305  10.990
21076SOL     OW63253   5.454   0.934  10.827
21076SOL    HW163254   5.492   1.025  10.842
21076SOL    HW263255   5.446   0.917  10.728
21077SOL     OW63256   4.583   1.374   9.326
21077SOL    HW163257   4.537   1.389   9.414
21077SOL    HW263258   4.627   1.459   9.296
21078SOL     OW63259   4.385   1.790  10.263
21078SOL    HW163260   4.339   1.878  10.250
21078SOL    HW263261   4.484   1.802  10.256
21079SOL     OW63262   4.583   0.956  10.171
21079SOL    HW163263   4.637   0.887  10.219
21079SOL    HW263264   4.551   1.025  10.237
21080SOL     OW63265   4.807   0.984   9.397
21080SOL    HW163266   4.784   1.037   9.315
21080SOL    HW263267   4.888   0.928   9.378
21081SOL     OW63268   5.585   1.569  10.161
21081SOL    HW163269   5.514   1.557  10.091
21081SOL    HW263270   5.586   1.490  10.221
21082SOL     OW63271   3.945   1.314  11.154
21082SOL    HW163272   3.880   1.241  11.133
21082SOL    HW263273   3.949   1.328  11.252
21083SOL     OW63274   3.803   1.240   9.963
21083SOL    HW163275   3.802   1.193  10.051
21083SOL    HW263276   3.885   1.212   9.912
21084SOL     OW63277   4.396   1.391  10.934
21084SOL    HW163278   4.318   1.341  10.972
21084SOL    HW263279   4.393   1.486  10.965
21085SOL     OW63280   5.548   0.192  10.537
21085SOL    HW163281   5.544   0.102  10.581
21085SOL    HW263282   5.551   0.181  10.438
21086SOL     OW63283   4.152   0.424   9.830
21086SOL    HW163284   4.182   0.352   9.768
21086SOL    HW263285   4.113   0.384   9.913
21087SOL     OW63286   5.429   1.487  10.414
21087SOL    HW163287   5.336   1.462  10.387
21087SOL    HW263288   5.455   1.437  10.496
21088SOL     OW63289   4.041   0.547  10.590
21088SOL    HW163290   4.079   0.488  10.662
21088SOL    HW263291   4.081   0.521  10.502
21089SOL     OW63292   4.536   1.586   9.997
21089SOL    HW163293   4.568   1.596   9.903
21089SOL    HW263294   4.457   1.524   9.999
21090SOL     OW63295   5.148   0.214  10.422
21090SOL    HW163296   5.200   0.149  10.477
21090SOL    HW263297   5.099   0.277  10.483
21091SOL     OW63298   4.725   0.034  10.464
21091SOL    HW163299   4.662  -0.038  10.433
21091SOL    HW263300   4.818  -0.002  10.464
21092SOL     OW63301   4.494   1.330   9.611
21092SOL    HW163302   4.448   1.243   9.628
21092SOL    HW263303   4.585   1.327   9.652
21093SOL     OW63304   4.342   1.567  10.594
21093SOL    HW163305   4.337   1.649  10.651
21093SOL    HW263306   4.431   1.564  10.549
21094SOL     OW63307   5.076   0.052   9.478
21094SOL    HW163308   5.111   0.011   9.394
21094SOL    HW263309   4.986   0.014   9.498
21095SOL     OW63310   5.024   0.453  10.001
21095SOL    HW163311   4.965   0.533  10.005
21095SOL    HW263312   5.039   0.418  10.094
21096SOL     OW63313   5.317   0.221  10.192
21096SOL    HW163314   5.233   0.220  10.246
21096SOL    HW263315   5.319   0.304  10.136
21097SOL     OW63316   3.763   1.077   9.610
21097SOL    HW163317   3.862   1.066   9.601
21097SOL    HW263318   3.723   0.991   9.642
21098SOL     OW63319   4.599   1.646   9.647
21098SOL    HW163320   4.522   1.611   9.593
21098SOL    HW263321   4.567   1.717   9.709
21099SOL     OW63322   3.954   0.628  11.285
21099SOL    HW163323   3.861   0.626  11.322
21099SOL    HW263324   3.955   0.589  11.193
21100SOL     OW63325   3.949   0.275  12.168
21100SOL    HW163326   3.984   0.258  12.260
21100SOL    HW263327   3.861   0.230  12.156
21101SOL     OW63328   3.743   0.368  11.819
21101SOL    HW163329   3.661   0.411  11.858
21101SOL    HW263330   3.715   0.295  11.756
21102SOL     OW63331   4.293   1.275  12.337
21102SOL    HW163332   4.200   1.268  12.300
21102SOL    HW263333   4.304   1.364  12.381
21103SOL     OW63334   5.279   1.511  11.875
21103SOL    HW163335   5.222   1.495  11.956
21103SOL    HW263336   5.220   1.521  11.795
21104SOL     OW63337   4.859   0.703  11.889
21104SOL    HW163338   4.916   0.781  11.864
21104SOL    HW263339   4.799   0.729  11.965
21105SOL     OW63340   5.479   0.607  11.403
21105SOL    HW163341   5.467   0.594  11.304
21105SOL    HW263342   5.449   0.526  11.452
21106SOL     OW63343   4.492   1.144  12.195
21106SOL    HW163344   4.414   1.161  12.255
21106SOL    HW263345   4.526   1.231  12.159
21107SOL     OW63346   4.409   1.012  11.837
21107SOL    HW163347   4.478   0.996  11.907
21107SOL    HW263348   4.336   1.069  11.875
21108SOL     OW63349   4.059   1.435  12.233
21108SOL    HW163350   3.981   1.404  12.180
21108SOL    HW263351   4.117   1.493  12.176
21109SOL     OW63352   5.184   1.505  12.511
21109SOL    HW163353   5.208   1.599  12.537
21109SOL    HW263354   5.168   1.451  12.593
21110SOL     OW63355   4.162   0.392  12.671
21110SOL    HW163356   4.244   0.336  12.680
21110SOL    HW263357   4.081   0.334  12.675
21111SOL     OW63358   5.327   0.447  11.909
21111SOL    HW163359   5.253   0.493  11.859
21111SOL    HW263360   5.378   0.515  11.962
21112SOL     OW63361   3.955   1.713  11.655
21112SOL    HW163362   3.989   1.790  11.709
21112SOL    HW263363   3.999   1.713  11.565
21113SOL     OW63364   3.954   1.434  11.710
21113SOL    HW163365   3.928   1.530  11.710
21113SOL    HW263366   3.883   1.380  11.755
21114SOL     OW63367   3.964   1.091  12.058
21114SOL    HW163368   3.978   1.007  12.110
21114SOL    HW263369   3.909   1.155  12.113
21115SOL     OW63370   4.344   1.786  12.611
21115SOL    HW163371   4.252   1.769  12.646
21115SOL    HW263372   4.372   1.878  12.637
21116SOL     OW63373   4.330   0.964  11.295
21116SOL    HW163374   4.337   1.048  11.241
21116SOL    HW263375   4.376   0.977  11.383
21117SOL     OW63376   5.318   0.114  12.652
21117SOL    HW163377   5.300   0.181  12.580
21117SOL    HW263378   5.315   0.160  12.741
21118SOL     OW63379   3.846   0.643  11.735
21118SOL    HW163380   3.801   0.555  11.752
21118SOL    HW263381   3.845   0.697  11.819
21119SOL     OW63382   5.566   1.767  11.531
21119SOL    HW163383   5.620   1.738  11.611
21119SOL    HW263384   5.596   1.857  11.502
21120SOL     OW63385   3.751   1.596  11.289
21120SOL    HW163386   3.732   1.500  11.310
21120SOL    HW263387   3.718   1.654  11.364
21121SOL     OW63388   5.413   0.922  11.784
21121SOL    HW163389   5.508   0.893  11.792
21121SOL    HW263390   5.405   0.987  11.709
21122SOL     OW63391   5.365   1.108  11.604
21122SOL    HW163392   5.451   1.110  11.552
21122SOL    HW263393   5.379   1.155  11.692
21123SOL     OW63394   4.337   1.365  11.898
21123SOL    HW163395   4.288   1.278  11.907
21123SOL    HW263396   4.314   1.408  11.811
21124SOL     OW63397   4.533   0.004  11.674
21124SOL    HW163398   4.573   0.095  11.665
21124SOL    HW263399   4.433   0.012  11.680
21125SOL     OW63400   3.921   0.976  12.436
21125SOL    HW163401   4.010   0.931  12.422
21125SOL    HW263402   3.848   0.911  12.417
21126SOL     OW63403   5.249   0.999  11.362
21126SOL    HW163404   5.186   0.923  11.375
21126SOL    HW263405   5.297   1.017  11.448
21127SOL     OW63406   4.041   0.251  12.973
21127SOL    HW163407   4.112   0.322  12.979
21127SOL    HW263408   3.953   0.290  13.001
21128SOL     OW63409   5.190   1.417  12.125
21128SOL    HW163410   5.131   1.423  12.205
21128SOL    HW263411   5.175   1.329  12.079
21129SOL     OW63412   5.391   1.714  11.744
21129SOL    HW163413   5.350   1.691  11.656
21129SOL    HW263414   5.373   1.640  11.809
21130SOL     OW63415   4.322   0.729  11.442
21130SOL    HW163416   4.346   0.798  11.374
21130SOL    HW263417   4.244   0.762  11.496
21131SOL     OW63418   5.005   0.345  12.116
21131SOL    HW163419   4.919   0.295  12.103
21131SOL    HW263420   5.067   0.291  12.172
21132SOL     OW63421   5.300   1.662  11.479
21132SOL    HW163422   5.389   1.708  11.482
21132SOL    HW263423   5.279   1.638  11.384
21133SOL     OW63424   4.531   0.605  12.637
21133SOL    HW163425   4.484   0.602  12.726
21133SOL    HW263426   4.480   0.550  12.571
21134SOL     OW63427   4.715   0.410  12.414
21134SOL    HW163428   4.638   0.444  12.468
21134SOL    HW263429   4.681   0.359  12.335
21135SOL     OW63430   4.765   0.701  11.601
21135SOL    HW163431   4.791   0.697  11.697
21135SOL    HW263432   4.680   0.650  11.587
21136SOL     OW63433   3.800   0.811  11.961
21136SOL    HW163434   3.899   0.799  11.970
21136SOL    HW263435   3.776   0.906  11.982
21137SOL     OW63436   3.854   1.821  12.743
21137SOL    HW163437   3.844   1.806  12.842
21137SOL    HW263438   3.768   1.857  12.707
21138SOL     OW63439   4.589   0.348  11.367
21138SOL    HW163440   4.648   0.411  11.318
21138SOL    HW263441   4.608   0.254  11.338
21139SOL     OW63442   5.086   1.144  11.717
21139SOL    HW163443   5.169   1.115  11.669
21139SOL    HW263444   5.037   1.211  11.661
21140SOL     OW63445   4.274   0.196  12.057
21140SOL    HW163446   4.269   0.191  12.157
21140SOL    HW263447   4.276   0.292  12.028
21141SOL     OW63448   4.732   1.456  11.649
21141SOL    HW163449   4.686   1.528  11.597
21141SOL    HW263450   4.728   1.476  11.747
21142SOL     OW63451   4.075   1.801  12.025
21142SOL    HW163452   4.125   1.715  12.031
21142SOL    HW263453   4.140   1.878  12.022
21143SOL     OW63454   5.519   1.066  12.045
21143SOL    HW163455   5.457   1.051  11.969
21143SOL    HW263456   5.467   1.077  12.130
21144SOL     OW63457   4.045   0.943  11.414
21144SOL    HW163458   4.127   0.982  11.372
21144SOL    HW263459   4.018   0.861  11.365
21145SOL     OW63460   5.182   0.735  11.900
21145SOL    HW163461   5.177   0.670  11.975
21145SOL    HW263462   5.262   0.794  11.913
21146SOL     OW63463   4.835   1.776  11.409
21146SOL    HW163464   4.775   1.714  11.459
21146SOL    HW263465   4.866   1.732  11.324
21147SOL     OW63466   3.926   0.285  12.670
21147SOL    HW163467   3.846   0.345  12.657
21147SOL    HW263468   3.916   0.236  12.756
21148SOL     OW63469   5.356   1.377  11.253
21148SOL    HW163470   5.324   1.471  11.243
21148SOL    HW263471   5.280   1.314  11.241
21149SOL     OW63472   4.188   1.743  11.495
21149SOL    HW163473   4.221   1.782  11.581
21149SOL    HW263474   4.264   1.736  11.430
21150SOL     OW63475   5.124   0.107  11.598
21150SOL    HW163476   5.100   0.070  11.508
21150SOL    HW263477   5.223   0.123  11.602
21151SOL     OW63478   3.973   1.785  12.413
21151SOL    HW163479   4.030   1.720  12.463
21151SOL    HW263480   3.957   1.752  12.320
21152SOL     OW63481   4.664   1.698  12.076
21152SOL    HW163482   4.744   1.641  12.097
21152SOL    HW263483   4.615   1.658  11.999
21153SOL     OW63484   4.106   0.700  11.652
21153SOL    HW163485   4.151   0.610  11.649
21153SOL    HW263486   4.012   0.689  11.685
21154SOL     OW63487   4.338   0.122  11.289
21154SOL    HW163488   4.436   0.100  11.296
21154SOL    HW263489   4.307   0.105  11.196
21155SOL     OW63490   4.612   1.514  12.367
21155SOL    HW163491   4.589   1.489  12.273
21155SOL    HW263492   4.673   1.445  12.406
21156SOL     OW63493   4.527   1.402  12.096
21156SOL    HW163494   4.617   1.416  12.054
21156SOL    HW263495   4.456   1.404  12.025
21157SOL     OW63496   4.646   0.503  12.071
21157SOL    HW163497   4.621   0.494  11.975
21157SOL    HW263498   4.694   0.421  12.102
21158SOL     OW63499   4.263   0.064  11.684
21158SOL    HW163500   4.182   0.065  11.742
21158SOL    HW263501   4.266   0.147  11.629
21159SOL     OW63502   5.158   1.188  11.213
21159SOL    HW163503   5.190   1.112  11.270
21159SOL    HW263504   5.066   1.215  11.243
21160SOL     OW63505   4.021   0.035  11.343
21160SOL    HW163506   4.070   0.119  11.322
21160SOL    HW263507   4.083  -0.030  11.388
21161SOL     OW63508   4.659   0.236  11.652
21161SOL    HW163509   4.611   0.277  11.574
21161SOL    HW263510   4.758   0.234  11.633
21162SOL     OW63511   4.951   1.570  11.965
21162SOL    HW163512   4.972   1.644  11.900
21162SOL    HW263513   5.019   1.570  12.038
21163SOL     OW63514   4.183   1.152  11.913
21163SOL    HW163515   4.112   1.125  11.978
21163SOL    HW263516   4.157   1.124  11.820
21164SOL     OW63517   4.995   1.797  11.763
21164SOL    HW163518   5.039   1.861  11.699
21164SOL    HW263519   4.945   1.849  11.833
21165SOL     OW63520   4.756   0.549  11.188
21165SOL    HW163521   4.715   0.631  11.149
21165SOL    HW263522   4.820   0.575  11.261
21166SOL     OW63523   3.802   0.556  12.558
21166SOL    HW163524   3.894   0.555  12.517
21166SOL    HW263525   3.796   0.630  12.625
21167SOL     OW63526   4.285   0.222  12.319
21167SOL    HW163527   4.323   0.138  12.356
21167SOL    HW263528   4.197   0.241  12.363
21168SOL     OW63529   4.590   0.454  11.814
21168SOL    HW163530   4.558   0.526  11.752
21168SOL    HW263531   4.614   0.373  11.761
21169SOL     OW63532   4.741   0.039  11.925
21169SOL    HW163533   4.669   0.044  11.856
21169SOL    HW263534   4.717  -0.030  11.994
21170SOL     OW63535   5.153   1.173  12.039
21170SOL    HW163536   5.098   1.089  12.032
21170SOL    HW263537   5.179   1.202  11.947
21171SOL     OW63538   5.190   0.590  12.164
21171SOL    HW163539   5.160   0.495  12.171
21171SOL    HW263540   5.263   0.606  12.230
21172SOL     OW63541   5.581   0.833  11.549
21172SOL    HW163542   5.623   0.769  11.613
21172SOL    HW263543   5.543   0.782  11.471
21173SOL     OW63544   4.212   1.385  11.346
21173SOL    HW163545   4.125   1.370  11.393
21173SOL    HW263546   4.195   1.411  11.251
21174SOL     OW63547   5.388   1.280  11.829
21174SOL    HW163548   5.487   1.288  11.843
21174SOL    HW263549   5.343   1.364  11.860
21175SOL     OW63550   5.114   0.575  11.250
21175SOL    HW163551   5.060   0.554  11.331
21175SOL    HW263552   5.205   0.534  11.259
21176SOL     OW63553   4.251   0.256  11.500
21176SOL    HW163554   4.278   0.197  11.425
21176SOL    HW263555   4.251   0.351  11.469
21177SOL     OW63556   4.788   1.347  12.512
21177SOL    HW163557   4.708   1.324  12.567
21177SOL    HW263558   4.871   1.321  12.561
21178SOL     OW63559   4.835   1.195  12.272
21178SOL    HW163560   4.795   1.239  12.353
21178SOL    HW263561   4.794   1.232  12.189
21179SOL     OW63562   5.362   1.099  12.251
21179SOL    HW163563   5.367   1.180  12.310
21179SOL    HW263564   5.276   1.101  12.200
21180SOL     OW63565   4.639   0.089  12.574
21180SOL    HW163566   4.664   0.069  12.479
21180SOL    HW263567   4.711   0.145  12.616
21181SOL     OW63568   4.429   1.050  11.540
21181SOL    HW163569   4.415   1.057  11.639
21181SOL    HW263570   4.513   0.999  11.522
21182SOL     OW63571   4.134   0.813  12.423
21182SOL    HW163572   4.220   0.825  12.473
21182SOL    HW263573   4.092   0.726  12.450
21183SOL     OW63574   4.998   0.386  12.434
21183SOL    HW163575   5.019   0.460  12.498
21183SOL    HW263576   4.909   0.403  12.391
21184SOL     OW63577   3.788   1.564  12.503
21184SOL    HW163578   3.742   1.646  12.469
21184SOL    HW263579   3.886   1.583  12.512
21185SOL     OW63580   4.091   1.100  11.673
21185SOL    HW163581   4.084   1.183  11.617
21185SOL    HW263582   4.095   1.020  11.613
21186SOL     OW63583   4.290   0.537  12.037
21186SOL    HW163584   4.302   0.603  11.963
21186SOL    HW263585   4.336   0.571  12.120
21187SOL     OW63586   4.976   1.348  11.560
21187SOL    HW163587   5.026   1.425  11.600
21187SOL    HW263588   4.881   1.350  11.592
21188SOL     OW63589   4.996   1.445  12.314
21188SOL    HW163590   5.043   1.458  12.401
21188SOL    HW263591   4.930   1.371  12.323
21189SOL     OW63592   5.306   0.639  11.644
21189SOL    HW163593   5.275   0.700  11.717
21189SOL    HW263594   5.356   0.691  11.575
21190SOL     OW63595   4.078   1.510  12.501
21190SOL    HW163596   4.057   1.466  12.414
21190SOL    HW263597   4.175   1.536  12.504
21191SOL     OW63598   4.126   0.751  12.770
21191SOL    HW163599   4.194   0.806  12.723
21191SOL    HW263600   4.166   0.663  12.797
21192SOL     OW63601   5.311   0.779  12.842
21192SOL    HW163602   5.219   0.817  12.837
21192SOL    HW263603   5.371   0.826  12.777
21193SOL     OW63604   4.297   0.870  12.201
21193SOL    HW163605   4.341   0.959  12.192
21193SOL    HW263606   4.234   0.870  12.278
21194SOL     OW63607   5.084   0.862  12.217
21194SOL    HW163608   5.009   0.862  12.151
21194SOL    HW263609   5.121   0.770  12.226
21195SOL     OW63610   4.933   0.525  11.447
21195SOL    HW163611   4.946   0.441  11.501
21195SOL    HW263612   4.904   0.599  11.507
21196SOL     OW63613   4.031   0.213  12.403
21196SOL    HW163614   4.008   0.250  12.493
21196SOL    HW263615   4.001   0.118  12.397
21197SOL     OW63616   3.761   1.310  12.454
21197SOL    HW163617   3.814   1.261  12.522
21197SOL    HW263618   3.783   1.408  12.459
21198SOL     OW63619   4.456   0.634  12.236
21198SOL    HW163620   4.515   0.608  12.160
21198SOL    HW263621   4.428   0.730  12.225
21199SOL     OW63622   4.031   0.063  11.790
21199SOL    HW163623   4.020   0.157  11.823
21199SOL    HW263624   4.026   0.000  11.867
21200SOL     OW63625   5.346   0.367  11.546
21200SOL    HW163626   5.348   0.291  11.610
21200SOL    HW263627   5.298   0.444  11.586
21201SOL     OW63628   4.747   0.766  12.138
21201SOL    HW163629   4.762   0.787  12.234
21201SOL    HW263630   4.717   0.671  12.129
21202SOL     OW63631   4.704   1.573  12.872
21202SOL    HW163632   4.684   1.617  12.784
21202SOL    HW263633   4.743   1.482  12.856
21203SOL     OW63634   5.264   0.274  11.297
21203SOL    HW163635   5.203   0.199  11.320
21203SOL    HW263636   5.286   0.326  11.380
21204SOL     OW63637   5.027   0.838  11.214
21204SOL    HW163638   5.061   0.745  11.229
21204SOL    HW263639   5.045   0.865  11.119
21205SOL     OW63640   4.792   1.333  12.021
21205SOL    HW163641   4.799   1.249  11.966
21205SOL    HW263642   4.854   1.402  11.985
21206SOL     OW63643   4.043   0.810  12.121
21206SOL    HW163644   4.136   0.846  12.126
21206SOL    HW263645   4.037   0.725  12.173
21207SOL     OW63646   4.063   0.509  12.178
21207SOL    HW163647   4.011   0.426  12.161
21207SOL    HW263648   4.140   0.514  12.114
21208SOL     OW63649   4.862   0.380  12.850
21208SOL    HW163650   4.817   0.443  12.914
21208SOL    HW263651   4.955   0.411  12.833
21209SOL     OW63652   4.884   0.207  12.649
21209SOL    HW163653   4.884   0.271  12.726
21209SOL    HW263654   4.912   0.255  12.566
21210SOL     OW63655   3.732   1.326  11.372
21210SOL    HW163656   3.639   1.347  11.341
21210SOL    HW263657   3.742   1.227  11.385
21211SOL     OW63658   3.812   1.801  12.099
21211SOL    HW163659   3.770   1.715  12.072
21211SOL    HW263660   3.906   1.804  12.065
21212SOL     OW63661   4.228   1.568  12.082
21212SOL    HW163662   4.294   1.642  12.091
21212SOL    HW263663   4.272   1.489  12.040
21213SOL     OW63664   4.726   0.796  12.410
21213SOL    HW163665   4.767   0.764  12.496
21213SOL    HW263666   4.630   0.769  12.407
21214SOL     OW63667   3.764   0.544  12.286
21214SOL    HW163668   3.849   0.511  12.245
21214SOL    HW263669   3.777   0.559  12.384
21215SOL     OW63670   4.539   0.572  11.497
21215SOL    HW163671   4.546   0.483  11.451
21215SOL    HW263672   4.445   0.606  11.489
21216SOL     OW63673   5.381   0.604  12.378
21216SOL    HW163674   5.343   0.535  12.440
21216SOL    HW263675   5.463   0.568  12.334
21217SOL     OW63676   4.395   0.464  12.441
21217SOL    HW163677   4.361   0.375  12.411
21217SOL    HW263678   4.421   0.518  12.361
21218SOL     OW63679   4.654   1.678  12.637
21218SOL    HW163680   4.630   1.660  12.542
21218SOL    HW263681   4.684   1.772  12.647
21219SOL     OW63682   4.197   0.500  11.363
21219SOL    HW163683   4.258   0.580  11.367
21219SOL    HW263684   4.102   0.531  11.370
21220SOL     OW63685   3.883   1.137  12.638
21220SOL    HW163686   3.905   1.076  12.714
21220SOL    HW263687   3.893   1.088  12.552
21221SOL     OW63688   5.071   1.059  12.406
21221SOL    HW163689   5.095   0.996  12.332
21221SOL    HW263690   4.981   1.099  12.388
21222SOL     OW63691   5.026   0.855  11.481
21222SOL    HW163692   4.940   0.824  11.523
21222SOL    HW263693   5.022   0.841  11.382
21223SOL     OW63694   5.483   1.747  12.326
21223SOL    HW163695   5.544   1.777  12.253
21223SOL    HW263696   5.445   1.658  12.304
21224SOL     OW63697   4.976   1.731  12.300
21224SOL    HW163698   5.060   1.736  12.246
21224SOL    HW263699   4.953   1.635  12.318
21225SOL     OW63700   3.807   1.258  12.194
21225SOL    HW163701   3.802   1.257  12.294
21225SOL    HW263702   3.724   1.217  12.156
21226SOL     OW63703   5.450   0.135  11.695
21226SOL    HW163704   5.523   0.118  11.628
21226SOL    HW263705   5.419   0.048  11.733
21227SOL     OW63706   5.112   1.573  11.649
21227SOL    HW163707   5.179   1.585  11.575
21227SOL    HW263708   5.072   1.662  11.672
21228SOL     OW63709   5.004   0.927  11.844
21228SOL    HW163710   5.064   0.846  11.846
21228SOL    HW263711   5.044   0.996  11.784
21229SOL     OW63712   4.396   1.616  11.326
21229SOL    HW163713   4.405   1.626  11.227
21229SOL    HW263714   4.356   1.527  11.347
21230SOL     OW63715   5.374   1.720  12.566
21230SOL    HW163716   5.427   1.730  12.482
21230SOL    HW263717   5.347   1.810  12.600
21231SOL     OW63718   5.565   0.175  12.135
21231SOL    HW163719   5.604   0.090  12.099
21231SOL    HW263720   5.467   0.177  12.116
21232SOL     OW63721   3.987   0.326  11.892
21232SOL    HW163722   3.908   0.377  11.858
21232SOL    HW263723   3.978   0.311  11.990
21233SOL     OW63724   4.918   1.612  11.203
21233SOL    HW163725   4.924   1.519  11.240
21233SOL    HW263726   4.859   1.612  11.123
21234SOL     OW63727   4.546   1.002  12.544
21234SOL    HW163728   4.586   1.001  12.452
21234SOL    HW263729   4.556   1.094  12.584
21235SOL     OW63730   4.640   0.910  11.463
21235SOL    HW163731   4.703   0.948  11.395
21235SOL    HW263732   4.680   0.827  11.502
21236SOL     OW63733   5.228   1.607  11.216
21236SOL    HW163734   5.136   1.644  11.223
21236SOL    HW263735   5.266   1.627  11.126
21237SOL     OW63736   4.096   1.288  12.662
21237SOL    HW163737   4.083   1.381  12.628
21237SOL    HW263738   4.012   1.236  12.649
21238SOL     OW63739   5.338   1.292  12.461
21238SOL    HW163740   5.398   1.295  12.541
21238SOL    HW263741   5.263   1.356  12.474
21239SOL     OW63742   4.763   1.098  11.868
21239SOL    HW163743   4.693   1.051  11.922
21239SOL    HW263744   4.822   1.030  11.825
21240SOL     OW63745   4.738   0.236  12.143
21240SOL    HW163746   4.730   0.200  12.050
21240SOL    HW263747   4.736   0.160  12.208
21241SOL     OW63748   4.314   1.487  11.663
21241SOL    HW163749   4.356   1.429  11.593
21241SOL    HW263750   4.270   1.566  11.619
21242SOL     OW63751   5.433   0.385  12.553
21242SOL    HW163752   5.506   0.454  12.557
21242SOL    HW263753   5.461   0.310  12.494
21243SOL     OW63754   3.979   1.348  11.462
21243SOL    HW163755   3.883   1.349  11.435
21243SOL    HW263756   3.991   1.401  11.546
21244SOL     OW63757   3.799   0.345  11.205
21244SOL    HW163758   3.707   0.317  11.176
21244SOL    HW263759   3.830   0.422  11.149
21245SOL     OW63760   5.164   0.856  12.570
21245SOL    HW163761   5.107   0.908  12.507
21245SOL    HW263762   5.260   0.868  12.546
21246SOL     OW63763   3.796   0.166  11.490
21246SOL    HW163764   3.779   0.249  11.436
21246SOL    HW263765   3.886   0.129  11.468
21247SOL     OW63766   4.907   1.335  11.291
21247SOL    HW163767   4.808   1.324  11.293
21247SOL    HW263768   4.941   1.350  11.384
21248SOL     OW63769   4.337   0.842  12.603
21248SOL    HW163770   4.393   0.923  12.586
21248SOL    HW263771   4.396   0.762  12.606
21249SOL     OW63772   5.217   1.767  12.131
21249SOL    HW163773   5.250   1.831  12.062
21249SOL    HW263774   5.283   1.761  12.206
21250SOL     OW63775   4.114   1.741  12.732
21250SOL    HW163776   4.023   1.782  12.730
21250SOL    HW263777   4.107   1.647  12.764
21251SOL     OW63778   5.398   0.883  12.426
21251SOL    HW163779   5.371   0.794  12.389
21251SOL    HW263780   5.399   0.951  12.353
21252SOL     OW63781   4.949   0.325  11.621
21252SOL    HW163782   5.014   0.251  11.610
21252SOL    HW263783   4.969   0.375  11.705
21253SOL     OW63784   4.318   0.745  11.824
21253SOL    HW163785   4.368   0.830  11.805
21253SOL    HW263786   4.230   0.747  11.776
21254SOL     OW63787   5.501   0.342  12.814
21254SOL    HW163788   5.484   0.373  12.720
21254SOL    HW263789   5.417   0.305  12.852
21255SOL     OW63790   5.454   0.934  12.689
21255SOL    HW163791   5.492   1.025  12.704
21255SOL    HW263792   5.446   0.917  12.590
21256SOL     OW63793   4.583   1.374  11.188
21256SOL    HW163794   4.537   1.389  11.276
21256SOL    HW263795   4.627   1.459  11.158
21257SOL     OW63796   4.385   1.790  12.125
21257SOL    HW163797   4.339   1.878  12.112
21257SOL    HW263798   4.484   1.802  12.118
21258SOL     OW63799   4.583   0.956  12.033
21258SOL    HW163800   4.637   0.887  12.081
21258SOL    HW263801   4.551   1.025  12.099
21259SOL     OW63802   4.807   0.984  11.259
21259SOL    HW163803   4.784   1.037  11.177
21259SOL    HW263804   4.888   0.928  11.240
21260SOL     OW63805   5.585   1.569  12.023
21260SOL    HW163806   5.514   1.557  11.953
21260SOL    HW263807   5.586   1.490  12.083
21261SOL     OW63808   3.803   1.240  11.825
21261SOL    HW163809   3.802   1.193  11.913
21261SOL    HW263810   3.885   1.212  11.774
21262SOL     OW63811   5.548   0.192  12.399
21262SOL    HW163812   5.544   0.102  12.443
21262SOL    HW263813   5.551   0.181  12.300
21263SOL     OW63814   4.152   0.424  11.692
21263SOL    HW163815   4.182   0.352  11.630
21263SOL    HW263816   4.113   0.384  11.775
21264SOL     OW63817   5.429   1.487  12.276
21264SOL    HW163818   5.336   1.462  12.249
21264SOL    HW263819   5.455   1.437  12.358
21265SOL     OW63820   4.041   0.547  12.452
21265SOL    HW163821   4.079   0.488  12.524
21265SOL    HW263822   4.081   0.521  12.364
21266SOL     OW63823   4.536   1.586  11.859
21266SOL    HW163824   4.568   1.596  11.765
21266SOL    HW263825   4.457   1.524  11.861
21267SOL     OW63826   5.148   0.214  12.284
21267SOL    HW163827   5.200   0.149  12.339
21267SOL    HW263828   5.099   0.277  12.345
21268SOL     OW63829   4.725   0.034  12.326
21268SOL    HW163830   4.662  -0.038  12.295
21268SOL    HW263831   4.818  -0.002  12.326
21269SOL     OW63832   4.494   1.330  11.473
21269SOL    HW163833   4.448   1.243  11.490
21269SOL    HW263834   4.585   1.327  11.514
21270SOL     OW63835   4.342   1.567  12.456
21270SOL    HW163836   4.337   1.649  12.513
21270SOL    HW263837   4.431   1.564  12.411
21271SOL     OW63838   5.076   0.052  11.340
21271SOL    HW163839   5.111   0.011  11.256
21271SOL    HW263840   4.986   0.014  11.360
21272SOL     OW63841   5.024   0.453  11.863
21272SOL    HW163842   4.965   0.533  11.867
21272SOL    HW263843   5.039   0.418  11.956
21273SOL     OW63844   5.317   0.221  12.054
21273SOL    HW163845   5.233   0.220  12.108
21273SOL    HW263846   5.319   0.304  11.998
21274SOL     OW63847   3.763   1.077  11.472
21274SOL    HW163848   3.862   1.066  11.463
21274SOL    HW263849   3.723   0.991  11.504
21275SOL     OW63850   4.599   1.646  11.509
21275SOL    HW163851   4.522   1.611  11.455
21275SOL    HW263852   4.567   1.717  11.571
21276SOL     OW63853   3.954   2.490   0.113
21276SOL    HW163854   3.861   2.488   0.150
21276SOL    HW263855   3.955   2.451   0.021
21277SOL     OW63856   3.949   2.137   0.996
21277SOL    HW163857   3.984   2.120   1.088
21277SOL    HW263858   3.861   2.092   0.984
21278SOL     OW63859   3.743   2.230   0.647
21278SOL    HW163860   3.661   2.273   0.686
21278SOL    HW263861   3.715   2.157   0.584
21279SOL     OW63862   4.293   3.137   1.165
21279SOL    HW163863   4.200   3.130   1.128
21279SOL    HW263864   4.304   3.226   1.209
21280SOL     OW63865   5.279   3.373   0.703
21280SOL    HW163866   5.222   3.357   0.784
21280SOL    HW263867   5.220   3.383   0.623
21281SOL     OW63868   4.859   2.565   0.717
21281SOL    HW163869   4.916   2.643   0.692
21281SOL    HW263870   4.799   2.591   0.793
21282SOL     OW63871   5.479   2.469   0.231
21282SOL    HW163872   5.467   2.456   0.132
21282SOL    HW263873   5.449   2.388   0.280
21283SOL     OW63874   4.492   3.006   1.023
21283SOL    HW163875   4.414   3.023   1.083
21283SOL    HW263876   4.526   3.093   0.987
21284SOL     OW63877   4.574   2.660   1.823
21284SOL    HW163878   4.570   2.736   1.888
21284SOL    HW263879   4.596   2.696   1.732
21285SOL     OW63880   4.409   2.874   0.665
21285SOL    HW163881   4.478   2.858   0.735
21285SOL    HW263882   4.336   2.931   0.703
21286SOL     OW63883   4.410   3.023   1.803
21286SOL    HW163884   4.470   3.102   1.817
21286SOL    HW263885   4.324   3.054   1.762
21287SOL     OW63886   4.059   3.297   1.061
21287SOL    HW163887   3.981   3.266   1.008
21287SOL    HW263888   4.117   3.355   1.004
21288SOL     OW63889   5.184   3.367   1.339
21288SOL    HW163890   5.208   3.461   1.365
21288SOL    HW263891   5.168   3.313   1.421
21289SOL     OW63892   4.162   2.254   1.499
21289SOL    HW163893   4.244   2.198   1.508
21289SOL    HW263894   4.081   2.196   1.503
21290SOL     OW63895   5.327   2.309   0.737
21290SOL    HW163896   5.253   2.355   0.687
21290SOL    HW263897   5.378   2.377   0.790
21291SOL     OW63898   3.955   3.575   0.483
21291SOL    HW163899   3.989   3.652   0.537
21291SOL    HW263900   3.999   3.575   0.393
21292SOL     OW63901   4.851   3.203   1.690
21292SOL    HW163902   4.898   3.203   1.778
21292SOL    HW263903   4.803   3.116   1.679
21293SOL     OW63904   3.954   3.296   0.538
21293SOL    HW163905   3.928   3.392   0.538
21293SOL    HW263906   3.883   3.242   0.583
21294SOL     OW63907   3.964   2.953   0.886
21294SOL    HW163908   3.978   2.869   0.938
21294SOL    HW263909   3.909   3.017   0.941
21295SOL     OW63910   4.344   3.648   1.439
21295SOL    HW163911   4.252   3.631   1.474
21295SOL    HW263912   4.372   3.740   1.465
21296SOL     OW63913   4.330   2.826   0.123
21296SOL    HW163914   4.337   2.910   0.069
21296SOL    HW263915   4.376   2.839   0.211
21297SOL     OW63916   5.318   1.976   1.480
21297SOL    HW163917   5.300   2.043   1.408
21297SOL    HW263918   5.315   2.022   1.569
21298SOL     OW63919   3.846   2.505   0.563
21298SOL    HW163920   3.801   2.417   0.580
21298SOL    HW263921   3.845   2.559   0.647
21299SOL     OW63922   5.566   3.629   0.359
21299SOL    HW163923   5.620   3.600   0.439
21299SOL    HW263924   5.596   3.719   0.330
21300SOL     OW63925   3.751   3.458   0.117
21300SOL    HW163926   3.732   3.362   0.138
21300SOL    HW263927   3.718   3.516   0.192
21301SOL     OW63928   5.413   2.784   0.612
21301SOL    HW163929   5.508   2.755   0.620
21301SOL    HW263930   5.405   2.849   0.537
21302SOL     OW63931   5.365   2.970   0.432
21302SOL    HW163932   5.451   2.972   0.380
21302SOL    HW263933   5.379   3.017   0.520
21303SOL     OW63934   3.837   2.599   1.597
21303SOL    HW163935   3.925   2.586   1.642
21303SOL    HW263936   3.824   2.696   1.575
21304SOL     OW63937   4.337   3.227   0.726
21304SOL    HW163938   4.288   3.140   0.735
21304SOL    HW263939   4.314   3.270   0.639
21305SOL     OW63940   5.017   3.090   1.423
21305SOL    HW163941   5.054   3.017   1.365
21305SOL    HW263942   5.069   3.095   1.508
21306SOL     OW63943   4.533   1.866   0.502
21306SOL    HW163944   4.573   1.957   0.493
21306SOL    HW263945   4.433   1.874   0.508
21307SOL     OW63946   3.921   2.838   1.264
21307SOL    HW163947   4.010   2.793   1.250
21307SOL    HW263948   3.848   2.773   1.245
21308SOL     OW63949   5.249   2.861   0.190
21308SOL    HW163950   5.186   2.785   0.203
21308SOL    HW263951   5.297   2.879   0.276
21309SOL     OW63952   4.911   3.654   1.616
21309SOL    HW163953   4.935   3.714   1.540
21309SOL    HW263954   4.918   3.559   1.586
21310SOL     OW63955   4.041   2.113   1.801
21310SOL    HW163956   4.112   2.184   1.807
21310SOL    HW263957   3.953   2.152   1.829
21311SOL     OW63958   5.190   3.279   0.953
21311SOL    HW163959   5.131   3.285   1.033
21311SOL    HW263960   5.175   3.191   0.907
21312SOL     OW63961   5.391   3.576   0.572
21312SOL    HW163962   5.350   3.553   0.484
21312SOL    HW263963   5.373   3.502   0.637
21313SOL     OW63964   4.322   2.591   0.270
21313SOL    HW163965   4.346   2.660   0.202
21313SOL    HW263966   4.244   2.624   0.324
21314SOL     OW63967   5.005   2.207   0.944
21314SOL    HW163968   4.919   2.157   0.931
21314SOL    HW263969   5.067   2.153   1.000
21315SOL     OW63970   5.300   3.524   0.307
21315SOL    HW163971   5.389   3.570   0.310
21315SOL    HW263972   5.279   3.500   0.212
21316SOL     OW63973   4.531   2.467   1.465
21316SOL    HW163974   4.484   2.464   1.554
21316SOL    HW263975   4.480   2.412   1.399
21317SOL     OW63976   5.118   2.331   1.674
21317SOL    HW163977   5.098   2.374   1.762
21317SOL    HW263978   5.196   2.269   1.683
21318SOL     OW63979   4.697   2.752   1.572
21318SOL    HW163980   4.743   2.668   1.543
21318SOL    HW263981   4.641   2.786   1.497
21319SOL     OW63982   4.715   2.272   1.242
21319SOL    HW163983   4.638   2.306   1.296
21319SOL    HW263984   4.681   2.221   1.163
21320SOL     OW63985   4.765   2.563   0.429
21320SOL    HW163986   4.791   2.559   0.525
21320SOL    HW263987   4.680   2.512   0.415
21321SOL     OW63988   3.800   2.673   0.789
21321SOL    HW163989   3.899   2.661   0.798
21321SOL    HW263990   3.776   2.768   0.810
21322SOL     OW63991   3.854   3.683   1.571
21322SOL    HW163992   3.844   3.668   1.670
21322SOL    HW263993   3.768   3.719   1.535
21323SOL     OW63994   4.589   2.210   0.195
21323SOL    HW163995   4.648   2.273   0.146
21323SOL    HW263996   4.608   2.116   0.166
21324SOL     OW63997   5.443   2.447   1.831
21324SOL    HW163998   5.417   2.536   1.795
21324SOL    HW263999   5.441   2.379   1.758
21325SOL     OW64000   5.086   3.006   0.545
21325SOL    HW164001   5.169   2.977   0.497
21325SOL    HW264002   5.037   3.073   0.489
21326SOL     OW64003   4.274   2.058   0.885
21326SOL    HW164004   4.269   2.053   0.985
21326SOL    HW264005   4.276   2.154   0.856
21327SOL     OW64006   4.732   3.318   0.477
21327SOL    HW164007   4.686   3.390   0.425
21327SOL    HW264008   4.728   3.338   0.575
21328SOL     OW64009   4.075   3.663   0.853
21328SOL    HW164010   4.125   3.577   0.859
21328SOL    HW264011   4.140   3.740   0.850
21329SOL     OW64012   5.519   2.928   0.873
21329SOL    HW164013   5.457   2.913   0.797
21329SOL    HW264014   5.467   2.939   0.958
21330SOL     OW64015   4.951   3.412   1.506
21330SOL    HW164016   4.957   3.335   1.570
21330SOL    HW264017   4.899   3.386   1.426
21331SOL     OW64018   4.045   2.805   0.242
21331SOL    HW164019   4.127   2.844   0.200
21331SOL    HW264020   4.018   2.723   0.193
21332SOL     OW64021   5.182   2.597   0.728
21332SOL    HW164022   5.177   2.532   0.803
21332SOL    HW264023   5.262   2.656   0.741
21333SOL     OW64024   4.185   3.128   1.727
21333SOL    HW164025   4.135   3.129   1.641
21333SOL    HW264026   4.122   3.110   1.803
21334SOL     OW64027   4.835   3.638   0.237
21334SOL    HW164028   4.775   3.576   0.287
21334SOL    HW264029   4.866   3.594   0.152
21335SOL     OW64030   3.926   2.147   1.498
21335SOL    HW164031   3.846   2.207   1.485
21335SOL    HW264032   3.916   2.098   1.584
21336SOL     OW64033   5.356   3.239   0.081
21336SOL    HW164034   5.324   3.333   0.071
21336SOL    HW264035   5.280   3.176   0.069
21337SOL     OW64036   4.188   3.605   0.323
21337SOL    HW164037   4.221   3.644   0.409
21337SOL    HW264038   4.264   3.598   0.258
21338SOL     OW64039   5.124   1.969   0.426
21338SOL    HW164040   5.100   1.932   0.336
21338SOL    HW264041   5.223   1.985   0.430
21339SOL     OW64042   3.973   3.647   1.241
21339SOL    HW164043   4.030   3.582   1.291
21339SOL    HW264044   3.957   3.614   1.148
21340SOL     OW64045   4.664   3.560   0.904
21340SOL    HW164046   4.744   3.503   0.925
21340SOL    HW264047   4.615   3.520   0.827
21341SOL     OW64048   4.106   2.562   0.480
21341SOL    HW164049   4.151   2.472   0.477
21341SOL    HW264050   4.012   2.551   0.513
21342SOL     OW64051   5.271   2.084   1.729
21342SOL    HW164052   5.266   2.121   1.821
21342SOL    HW264053   5.199   2.015   1.717
21343SOL     OW64054   4.338   1.984   0.117
21343SOL    HW164055   4.436   1.962   0.124
21343SOL    HW264056   4.307   1.967   0.024
21344SOL     OW64057   4.505   2.126   1.749
21344SOL    HW164058   4.572   2.065   1.792
21344SOL    HW264059   4.432   2.145   1.814
21345SOL     OW64060   4.612   3.376   1.195
21345SOL    HW164061   4.589   3.351   1.101
21345SOL    HW264062   4.673   3.307   1.234
21346SOL     OW64063   5.075   2.452   1.433
21346SOL    HW164064   5.103   2.409   1.518
21346SOL    HW264065   5.100   2.548   1.434
21347SOL     OW64066   4.527   3.264   0.924
21347SOL    HW164067   4.617   3.278   0.882
21347SOL    HW264068   4.456   3.266   0.853
21348SOL     OW64069   4.646   2.365   0.899
21348SOL    HW164070   4.621   2.356   0.803
21348SOL    HW264071   4.694   2.283   0.930
21349SOL     OW64072   4.263   1.926   0.512
21349SOL    HW164073   4.182   1.927   0.570
21349SOL    HW264074   4.266   2.009   0.457
21350SOL     OW64075   5.158   3.050   0.041
21350SOL    HW164076   5.190   2.974   0.098
21350SOL    HW264077   5.066   3.077   0.071
21351SOL     OW64078   4.021   1.897   0.171
21351SOL    HW164079   4.070   1.981   0.150
21351SOL    HW264080   4.083   1.832   0.216
21352SOL     OW64081   4.659   2.098   0.480
21352SOL    HW164082   4.611   2.139   0.402
21352SOL    HW264083   4.758   2.096   0.461
21353SOL     OW64084   4.800   2.545   1.464
21353SOL    HW164085   4.720   2.484   1.467
21353SOL    HW264086   4.881   2.492   1.440
21354SOL     OW64087   4.951   3.432   0.793
21354SOL    HW164088   4.972   3.506   0.728
21354SOL    HW264089   5.019   3.432   0.866
21355SOL     OW64090   4.183   3.014   0.741
21355SOL    HW164091   4.112   2.987   0.806
21355SOL    HW264092   4.157   2.986   0.648
21356SOL     OW64093   4.995   3.659   0.591
21356SOL    HW164094   5.039   3.723   0.527
21356SOL    HW264095   4.945   3.711   0.661
21357SOL     OW64096   4.756   2.411   0.016
21357SOL    HW164097   4.715   2.493  -0.023
21357SOL    HW264098   4.820   2.437   0.089
21358SOL     OW64099   3.802   2.418   1.386
21358SOL    HW164100   3.894   2.417   1.345
21358SOL    HW264101   3.796   2.492   1.453
21359SOL     OW64102   4.285   2.084   1.147
21359SOL    HW164103   4.323   2.000   1.184
21359SOL    HW264104   4.197   2.103   1.191
21360SOL     OW64105   4.590   2.316   0.642
21360SOL    HW164106   4.558   2.388   0.580
21360SOL    HW264107   4.614   2.235   0.589
21361SOL     OW64108   4.741   1.901   0.753
21361SOL    HW164109   4.669   1.906   0.684
21361SOL    HW264110   4.717   1.832   0.822
21362SOL     OW64111   5.153   3.035   0.867
21362SOL    HW164112   5.098   2.951   0.860
21362SOL    HW264113   5.179   3.064   0.775
21363SOL     OW64114   5.190   2.452   0.992
21363SOL    HW164115   5.160   2.357   0.999
21363SOL    HW264116   5.263   2.468   1.058
21364SOL     OW64117   5.581   2.695   0.377
21364SOL    HW164118   5.623   2.631   0.441
21364SOL    HW264119   5.543   2.644   0.299
21365SOL     OW64120   4.212   3.247   0.174
21365SOL    HW164121   4.125   3.232   0.221
21365SOL    HW264122   4.195   3.273   0.079
21366SOL     OW64123   5.388   3.142   0.657
21366SOL    HW164124   5.487   3.150   0.671
21366SOL    HW264125   5.343   3.226   0.688
21367SOL     OW64126   5.114   2.437   0.078
21367SOL    HW164127   5.060   2.416   0.159
21367SOL    HW264128   5.205   2.396   0.087
21368SOL     OW64129   4.251   2.118   0.328
21368SOL    HW164130   4.278   2.059   0.253
21368SOL    HW264131   4.251   2.213   0.297
21369SOL     OW64132   5.478   3.085   1.588
21369SOL    HW164133   5.569   3.046   1.575
21369SOL    HW264134   5.486   3.181   1.612
21370SOL     OW64135   4.788   3.209   1.340
21370SOL    HW164136   4.708   3.186   1.395
21370SOL    HW264137   4.871   3.183   1.389
21371SOL     OW64138   5.316   3.491   1.625
21371SOL    HW164139   5.343   3.525   1.535
21371SOL    HW264140   5.395   3.453   1.671
21372SOL     OW64141   4.835   3.057   1.100
21372SOL    HW164142   4.795   3.101   1.181
21372SOL    HW264143   4.794   3.094   1.017
21373SOL     OW64144   5.362   2.961   1.079
21373SOL    HW164145   5.367   3.042   1.138
21373SOL    HW264146   5.276   2.963   1.028
21374SOL     OW64147   4.639   1.951   1.402
21374SOL    HW164148   4.664   1.931   1.307
21374SOL    HW264149   4.711   2.007   1.444
21375SOL     OW64150   4.704   2.978   1.719
21375SOL    HW164151   4.605   2.984   1.729
21375SOL    HW264152   4.727   2.898   1.663
21376SOL     OW64153   4.429   2.912   0.368
21376SOL    HW164154   4.415   2.919   0.467
21376SOL    HW264155   4.513   2.861   0.350
21377SOL     OW64156   4.134   2.675   1.251
21377SOL    HW164157   4.220   2.687   1.301
21377SOL    HW264158   4.092   2.588   1.278
21378SOL     OW64159   4.998   2.248   1.262
21378SOL    HW164160   5.019   2.322   1.326
21378SOL    HW264161   4.909   2.265   1.219
21379SOL     OW64162   3.788   3.426   1.331
21379SOL    HW164163   3.742   3.508   1.297
21379SOL    HW264164   3.886   3.445   1.340
21380SOL     OW64165   4.091   2.962   0.501
21380SOL    HW164166   4.084   3.045   0.445
21380SOL    HW264167   4.095   2.882   0.441
21381SOL     OW64168   4.290   2.399   0.865
21381SOL    HW164169   4.302   2.465   0.791
21381SOL    HW264170   4.336   2.433   0.948
21382SOL     OW64171   4.976   3.210   0.388
21382SOL    HW164172   5.026   3.287   0.428
21382SOL    HW264173   4.881   3.212   0.420
21383SOL     OW64174   4.996   3.307   1.142
21383SOL    HW164175   5.043   3.320   1.229
21383SOL    HW264176   4.930   3.233   1.151
21384SOL     OW64177   5.306   2.501   0.472
21384SOL    HW164178   5.275   2.562   0.545
21384SOL    HW264179   5.356   2.553   0.403
21385SOL     OW64180   4.078   3.372   1.329
21385SOL    HW164181   4.057   3.328   1.242
21385SOL    HW264182   4.175   3.398   1.332
21386SOL     OW64183   4.126   2.613   1.598
21386SOL    HW164184   4.194   2.668   1.551
21386SOL    HW264185   4.166   2.525   1.625
21387SOL     OW64186   5.311   2.641   1.670
21387SOL    HW164187   5.219   2.679   1.665
21387SOL    HW264188   5.371   2.688   1.605
21388SOL     OW64189   4.737   1.967   1.770
21388SOL    HW164190   4.743   2.052   1.718
21388SOL    HW264191   4.769   1.891   1.713
21389SOL     OW64192   4.228   1.912   1.740
21389SOL    HW164193   4.186   1.855   1.670
21389SOL    HW264194   4.162   1.981   1.772
21390SOL     OW64195   4.297   2.732   1.029
21390SOL    HW164196   4.341   2.821   1.020
21390SOL    HW264197   4.234   2.732   1.106
21391SOL     OW64198   5.084   2.724   1.045
21391SOL    HW164199   5.009   2.724   0.979
21391SOL    HW264200   5.121   2.632   1.054
21392SOL     OW64201   4.933   2.387   0.275
21392SOL    HW164202   4.946   2.303   0.329
21392SOL    HW264203   4.904   2.461   0.335
21393SOL     OW64204   4.031   2.075   1.231
21393SOL    HW164205   4.008   2.112   1.321
21393SOL    HW264206   4.001   1.980   1.225
21394SOL     OW64207   3.761   3.172   1.282
21394SOL    HW164208   3.814   3.123   1.350
21394SOL    HW264209   3.783   3.270   1.287
21395SOL     OW64210   4.456   2.496   1.064
21395SOL    HW164211   4.515   2.470   0.988
21395SOL    HW264212   4.428   2.592   1.053
21396SOL     OW64213   5.452   2.797   1.854
21396SOL    HW164214   5.406   2.790   1.765
21396SOL    HW264215   5.390   2.841   1.920
21397SOL     OW64216   4.031   1.925   0.618
21397SOL    HW164217   4.020   2.019   0.651
21397SOL    HW264218   4.026   1.862   0.695
21398SOL     OW64219   5.346   2.229   0.374
21398SOL    HW164220   5.348   2.153   0.438
21398SOL    HW264221   5.298   2.306   0.414
21399SOL     OW64222   4.747   2.628   0.966
21399SOL    HW164223   4.762   2.649   1.062
21399SOL    HW264224   4.717   2.533   0.957
21400SOL     OW64225   4.704   3.435   1.700
21400SOL    HW164226   4.684   3.479   1.612
21400SOL    HW264227   4.743   3.344   1.684
21401SOL     OW64228   5.583   3.380   1.605
21401SOL    HW164229   5.597   3.407   1.510
21401SOL    HW264230   5.666   3.402   1.658
21402SOL     OW64231   4.074   2.760   1.804
21402SOL    HW164232   4.150   2.804   1.852
21402SOL    HW264233   4.109   2.713   1.722
21403SOL     OW64234   5.264   2.136   0.125
21403SOL    HW164235   5.203   2.061   0.148
21403SOL    HW264236   5.286   2.188   0.208
21404SOL     OW64237   5.027   2.700   0.042
21404SOL    HW164238   5.061   2.607   0.057
21404SOL    HW264239   5.045   2.727  -0.053
21405SOL     OW64240   4.792   3.195   0.849
21405SOL    HW164241   4.799   3.111   0.794
21405SOL    HW264242   4.854   3.264   0.813
21406SOL     OW64243   4.043   2.672   0.949
21406SOL    HW164244   4.136   2.708   0.954
21406SOL    HW264245   4.037   2.587   1.001
21407SOL     OW64246   4.063   2.371   1.006
21407SOL    HW164247   4.011   2.288   0.989
21407SOL    HW264248   4.140   2.376   0.942
21408SOL     OW64249   4.862   2.242   1.678
21408SOL    HW164250   4.817   2.305   1.742
21408SOL    HW264251   4.955   2.273   1.661
21409SOL     OW64252   4.884   2.069   1.477
21409SOL    HW164253   4.884   2.133   1.554
21409SOL    HW264254   4.912   2.117   1.394
21410SOL     OW64255   3.732   3.188   0.200
21410SOL    HW164256   3.639   3.209   0.169
21410SOL    HW264257   3.742   3.089   0.213
21411SOL     OW64258   3.812   3.663   0.927
21411SOL    HW164259   3.770   3.577   0.900
21411SOL    HW264260   3.906   3.666   0.893
21412SOL     OW64261   4.228   3.430   0.910
21412SOL    HW164262   4.294   3.504   0.919
21412SOL    HW264263   4.272   3.351   0.868
21413SOL     OW64264   4.726   2.658   1.238
21413SOL    HW164265   4.767   2.626   1.324
21413SOL    HW264266   4.630   2.631   1.235
21414SOL     OW64267   3.764   2.406   1.114
21414SOL    HW164268   3.849   2.373   1.073
21414SOL    HW264269   3.777   2.421   1.212
21415SOL     OW64270   3.913   2.382   1.722
21415SOL    HW164271   3.972   2.342   1.652
21415SOL    HW264272   3.855   2.453   1.681
21416SOL     OW64273   5.093   2.812   1.660
21416SOL    HW164274   5.132   2.901   1.680
21416SOL    HW264275   5.103   2.792   1.563
21417SOL     OW64276   4.539   2.434   0.325
21417SOL    HW164277   4.546   2.345   0.279
21417SOL    HW264278   4.445   2.468   0.317
21418SOL     OW64279   5.381   2.466   1.206
21418SOL    HW164280   5.343   2.397   1.268
21418SOL    HW264281   5.463   2.430   1.162
21419SOL     OW64282   3.976   3.426   1.744
21419SOL    HW164283   3.946   3.483   1.820
21419SOL    HW264284   3.969   3.329   1.770
21420SOL     OW64285   4.395   2.326   1.269
21420SOL    HW164286   4.361   2.237   1.239
21420SOL    HW264287   4.421   2.380   1.189
21421SOL     OW64288   4.654   3.540   1.465
21421SOL    HW164289   4.630   3.522   1.370
21421SOL    HW264290   4.684   3.634   1.475
21422SOL     OW64291   4.197   2.362   0.191
21422SOL    HW164292   4.258   2.442   0.195
21422SOL    HW264293   4.102   2.393   0.198
21423SOL     OW64294   3.883   2.999   1.466
21423SOL    HW164295   3.905   2.938   1.542
21423SOL    HW264296   3.893   2.950   1.380
21424SOL     OW64297   5.071   2.921   1.234
21424SOL    HW164298   5.095   2.858   1.160
21424SOL    HW264299   4.981   2.961   1.216
21425SOL     OW64300   5.026   2.717   0.309
21425SOL    HW164301   4.940   2.686   0.351
21425SOL    HW264302   5.022   2.703   0.210
21426SOL     OW64303   5.483   3.609   1.154
21426SOL    HW164304   5.544   3.639   1.081
21426SOL    HW264305   5.445   3.520   1.132
21427SOL     OW64306   4.976   3.593   1.128
21427SOL    HW164307   5.060   3.598   1.074
21427SOL    HW264308   4.953   3.497   1.146
21428SOL     OW64309   3.807   3.120   1.022
21428SOL    HW164310   3.802   3.119   1.122
21428SOL    HW264311   3.724   3.079   0.984
21429SOL     OW64312   4.412   3.524   1.716
21429SOL    HW164313   4.356   3.605   1.725
21429SOL    HW264314   4.464   3.528   1.630
21430SOL     OW64315   4.627   1.948   0.133
21430SOL    HW164316   4.678   1.949   0.047
21430SOL    HW264317   4.683   1.906   0.204
21431SOL     OW64318   5.450   1.997   0.523
21431SOL    HW164319   5.523   1.980   0.456
21431SOL    HW264320   5.419   1.910   0.561
21432SOL     OW64321   5.112   3.435   0.477
21432SOL    HW164322   5.179   3.447   0.403
21432SOL    HW264323   5.072   3.524   0.500
21433SOL     OW64324   3.854   3.656   1.851
21433SOL    HW164325   3.813   3.582   1.904
21433SOL    HW264326   3.918   3.707   1.909
21434SOL     OW64327   5.004   2.789   0.672
21434SOL    HW164328   5.064   2.708   0.674
21434SOL    HW264329   5.044   2.858   0.612
21435SOL     OW64330   4.554   3.135   1.422
21435SOL    HW164331   4.549   3.168   1.517
21435SOL    HW264332   4.468   3.154   1.376
21436SOL     OW64333   4.396   3.478   0.154
21436SOL    HW164334   4.405   3.488   0.055
21436SOL    HW264335   4.356   3.389   0.175
21437SOL     OW64336   5.374   3.582   1.394
21437SOL    HW164337   5.427   3.592   1.310
21437SOL    HW264338   5.347   3.672   1.428
21438SOL     OW64339   5.565   2.037   0.963
21438SOL    HW164340   5.604   1.952   0.927
21438SOL    HW264341   5.467   2.039   0.944
21439SOL     OW64342   3.987   2.188   0.720
21439SOL    HW164343   3.908   2.239   0.686
21439SOL    HW264344   3.978   2.173   0.818
21440SOL     OW64345   4.918   3.474   0.031
21440SOL    HW164346   4.924   3.381   0.068
21440SOL    HW264347   4.859   3.474  -0.049
21441SOL     OW64348   4.546   2.864   1.372
21441SOL    HW164349   4.586   2.863   1.280
21441SOL    HW264350   4.556   2.956   1.412
21442SOL     OW64351   4.640   2.772   0.291
21442SOL    HW164352   4.703   2.810   0.223
21442SOL    HW264353   4.680   2.689   0.330
21443SOL     OW64354   5.228   3.469   0.044
21443SOL    HW164355   5.136   3.506   0.051
21443SOL    HW264356   5.266   3.489  -0.046
21444SOL     OW64357   4.096   3.150   1.490
21444SOL    HW164358   4.083   3.243   1.456
21444SOL    HW264359   4.012   3.098   1.477
21445SOL     OW64360   5.338   3.154   1.289
21445SOL    HW164361   5.398   3.157   1.369
21445SOL    HW264362   5.263   3.218   1.302
21446SOL     OW64363   4.763   2.960   0.696
21446SOL    HW164364   4.693   2.913   0.750
21446SOL    HW264365   4.822   2.892   0.653
21447SOL     OW64366   4.738   2.098   0.971
21447SOL    HW164367   4.730   2.062   0.878
21447SOL    HW264368   4.736   2.022   1.036
21448SOL     OW64369   4.314   3.349   0.491
21448SOL    HW164370   4.356   3.291   0.421
21448SOL    HW264371   4.270   3.428   0.447
21449SOL     OW64372   5.433   2.247   1.381
21449SOL    HW164373   5.506   2.316   1.385
21449SOL    HW264374   5.461   2.172   1.322
21450SOL     OW64375   3.979   3.210   0.290
21450SOL    HW164376   3.883   3.211   0.263
21450SOL    HW264377   3.991   3.263   0.374
21451SOL     OW64378   3.829   2.875   1.726
21451SOL    HW164379   3.752   2.842   1.780
21451SOL    HW264380   3.914   2.845   1.768
21452SOL     OW64381   4.396   2.065   1.489
21452SOL    HW164382   4.486   2.049   1.449
21452SOL    HW264383   4.404   2.070   1.588
21453SOL     OW64384   5.164   2.718   1.398
21453SOL    HW164385   5.107   2.770   1.335
21453SOL    HW264386   5.260   2.730   1.374
21454SOL     OW64387   3.796   2.028   0.318
21454SOL    HW164388   3.779   2.111   0.264
21454SOL    HW264389   3.886   1.991   0.296
21455SOL     OW64390   4.907   3.197   0.119
21455SOL    HW164391   4.808   3.186   0.121
21455SOL    HW264392   4.941   3.212   0.212
21456SOL     OW64393   4.337   2.704   1.431
21456SOL    HW164394   4.393   2.785   1.414
21456SOL    HW264395   4.396   2.624   1.434
21457SOL     OW64396   5.217   3.629   0.959
21457SOL    HW164397   5.250   3.693   0.890
21457SOL    HW264398   5.283   3.623   1.034
21458SOL     OW64399   4.440   2.427   1.708
21458SOL    HW164400   4.459   2.492   1.782
21458SOL    HW264401   4.500   2.347   1.717
21459SOL     OW64402   5.174   3.082   1.633
21459SOL    HW164403   5.165   3.072   1.732
21459SOL    HW264404   5.270   3.075   1.607
21460SOL     OW64405   4.114   3.603   1.560
21460SOL    HW164406   4.023   3.644   1.558
21460SOL    HW264407   4.107   3.509   1.592
21461SOL     OW64408   5.398   2.745   1.254
21461SOL    HW164409   5.371   2.656   1.217
21461SOL    HW264410   5.399   2.813   1.181
21462SOL     OW64411   4.949   2.187   0.449
21462SOL    HW164412   5.014   2.113   0.438
21462SOL    HW264413   4.969   2.237   0.533
21463SOL     OW64414   4.318   2.607   0.652
21463SOL    HW164415   4.368   2.692   0.633
21463SOL    HW264416   4.230   2.609   0.604
21464SOL     OW64417   5.501   2.204   1.642
21464SOL    HW164418   5.484   2.235   1.548
21464SOL    HW264419   5.417   2.167   1.680
21465SOL     OW64420   5.454   2.796   1.517
21465SOL    HW164421   5.492   2.887   1.532
21465SOL    HW264422   5.446   2.779   1.418
21466SOL     OW64423   4.583   3.236   0.016
21466SOL    HW164424   4.537   3.251   0.104
21466SOL    HW264425   4.627   3.321  -0.014
21467SOL     OW64426   4.385   3.652   0.953
21467SOL    HW164427   4.339   3.740   0.940
21467SOL    HW264428   4.484   3.664   0.946
21468SOL     OW64429   4.583   2.818   0.861
21468SOL    HW164430   4.637   2.749   0.909
21468SOL    HW264431   4.551   2.887   0.927
21469SOL     OW64432   4.807   2.846   0.087
21469SOL    HW164433   4.784   2.899   0.005
21469SOL    HW264434   4.888   2.790   0.068
21470SOL     OW64435   5.585   3.431   0.851
21470SOL    HW164436   5.514   3.419   0.781
21470SOL    HW264437   5.586   3.352   0.911
21471SOL     OW64438   3.945   3.176   1.844
21471SOL    HW164439   3.880   3.103   1.823
21471SOL    HW264440   3.949   3.190   1.942
21472SOL     OW64441   3.803   3.102   0.653
21472SOL    HW164442   3.802   3.055   0.741
21472SOL    HW264443   3.885   3.074   0.602
21473SOL     OW64444   4.396   3.253   1.624
21473SOL    HW164445   4.318   3.203   1.662
21473SOL    HW264446   4.393   3.348   1.655
21474SOL     OW64447   5.548   2.054   1.227
21474SOL    HW164448   5.544   1.964   1.271
21474SOL    HW264449   5.551   2.043   1.128
21475SOL     OW64450   4.152   2.286   0.520
21475SOL    HW164451   4.182   2.214   0.458
21475SOL    HW264452   4.113   2.246   0.603
21476SOL     OW64453   5.429   3.349   1.104
21476SOL    HW164454   5.336   3.324   1.077
21476SOL    HW264455   5.455   3.299   1.186
21477SOL     OW64456   4.041   2.409   1.280
21477SOL    HW164457   4.079   2.350   1.352
21477SOL    HW264458   4.081   2.383   1.192
21478SOL     OW64459   4.536   3.448   0.687
21478SOL    HW164460   4.568   3.458   0.593
21478SOL    HW264461   4.457   3.386   0.689
21479SOL     OW64462   5.148   2.076   1.112
21479SOL    HW164463   5.200   2.011   1.167
21479SOL    HW264464   5.099   2.139   1.173
21480SOL     OW64465   4.725   1.896   1.154
21480SOL    HW164466   4.662   1.824   1.123
21480SOL    HW264467   4.818   1.860   1.154
21481SOL     OW64468   4.494   3.192   0.301
21481SOL    HW164469   4.448   3.105   0.318
21481SOL    HW264470   4.585   3.189   0.342
21482SOL     OW64471   4.342   3.429   1.284
21482SOL    HW164472   4.337   3.511   1.341
21482SOL    HW264473   4.431   3.426   1.239
21483SOL     OW64474   5.076   1.914   0.168
21483SOL    HW164475   5.111   1.873   0.084
21483SOL    HW264476   4.986   1.876   0.188
21484SOL     OW64477   5.024   2.315   0.691
21484SOL    HW164478   4.965   2.395   0.695
21484SOL    HW264479   5.039   2.280   0.784
21485SOL     OW64480   5.317   2.083   0.882
21485SOL    HW164481   5.233   2.082   0.936
21485SOL    HW264482   5.319   2.166   0.826
21486SOL     OW64483   3.763   2.939   0.300
21486SOL    HW164484   3.862   2.928   0.291
21486SOL    HW264485   3.723   2.853   0.332
21487SOL     OW64486   4.599   3.508   0.337
21487SOL    HW164487   4.522   3.473   0.283
21487SOL    HW264488   4.567   3.579   0.399
21488SOL     OW64489   3.954   2.490   1.975
21488SOL    HW164490   3.861   2.488   2.012
21488SOL    HW264491   3.955   2.451   1.883
21489SOL     OW64492   3.949   2.137   2.858
21489SOL    HW164493   3.984   2.120   2.950
21489SOL    HW264494   3.861   2.092   2.846
21490SOL     OW64495   3.743   2.230   2.509
21490SOL    HW164496   3.661   2.273   2.548
21490SOL    HW264497   3.715   2.157   2.446
21491SOL     OW64498   4.293   3.137   3.027
21491SOL    HW164499   4.200   3.130   2.990
21491SOL    HW264500   4.304   3.226   3.071
21492SOL     OW64501   5.279   3.373   2.565
21492SOL    HW164502   5.222   3.357   2.646
21492SOL    HW264503   5.220   3.383   2.485
21493SOL     OW64504   4.859   2.565   2.579
21493SOL    HW164505   4.916   2.643   2.554
21493SOL    HW264506   4.799   2.591   2.655
21494SOL     OW64507   5.479   2.469   2.093
21494SOL    HW164508   5.467   2.456   1.994
21494SOL    HW264509   5.449   2.388   2.142
21495SOL     OW64510   4.492   3.006   2.885
21495SOL    HW164511   4.414   3.023   2.945
21495SOL    HW264512   4.526   3.093   2.849
21496SOL     OW64513   4.574   2.660   3.685
21496SOL    HW164514   4.570   2.736   3.750
21496SOL    HW264515   4.596   2.696   3.594
21497SOL     OW64516   4.409   2.874   2.527
21497SOL    HW164517   4.478   2.858   2.597
21497SOL    HW264518   4.336   2.931   2.565
21498SOL     OW64519   4.410   3.023   3.665
21498SOL    HW164520   4.470   3.102   3.679
21498SOL    HW264521   4.324   3.054   3.624
21499SOL     OW64522   4.059   3.297   2.923
21499SOL    HW164523   3.981   3.266   2.870
21499SOL    HW264524   4.117   3.355   2.866
21500SOL     OW64525   5.184   3.367   3.201
21500SOL    HW164526   5.208   3.461   3.227
21500SOL    HW264527   5.168   3.313   3.283
21501SOL     OW64528   4.162   2.254   3.361
21501SOL    HW164529   4.244   2.198   3.370
21501SOL    HW264530   4.081   2.196   3.365
21502SOL     OW64531   5.327   2.309   2.599
21502SOL    HW164532   5.253   2.355   2.549
21502SOL    HW264533   5.378   2.377   2.652
21503SOL     OW64534   3.955   3.575   2.345
21503SOL    HW164535   3.989   3.652   2.399
21503SOL    HW264536   3.999   3.575   2.255
21504SOL     OW64537   4.851   3.203   3.552
21504SOL    HW164538   4.898   3.203   3.640
21504SOL    HW264539   4.803   3.116   3.541
21505SOL     OW64540   3.954   3.296   2.400
21505SOL    HW164541   3.928   3.392   2.400
21505SOL    HW264542   3.883   3.242   2.445
21506SOL     OW64543   3.964   2.953   2.748
21506SOL    HW164544   3.978   2.869   2.800
21506SOL    HW264545   3.909   3.017   2.803
21507SOL     OW64546   4.344   3.648   3.301
21507SOL    HW164547   4.252   3.631   3.336
21507SOL    HW264548   4.372   3.740   3.327
21508SOL     OW64549   4.330   2.826   1.985
21508SOL    HW164550   4.337   2.910   1.931
21508SOL    HW264551   4.376   2.839   2.073
21509SOL     OW64552   5.318   1.976   3.342
21509SOL    HW164553   5.300   2.043   3.270
21509SOL    HW264554   5.315   2.022   3.431
21510SOL     OW64555   3.846   2.505   2.425
21510SOL    HW164556   3.801   2.417   2.442
21510SOL    HW264557   3.845   2.559   2.509
21511SOL     OW64558   5.566   3.629   2.221
21511SOL    HW164559   5.620   3.600   2.301
21511SOL    HW264560   5.596   3.719   2.192
21512SOL     OW64561   3.751   3.458   1.979
21512SOL    HW164562   3.732   3.362   2.000
21512SOL    HW264563   3.718   3.516   2.054
21513SOL     OW64564   5.413   2.784   2.474
21513SOL    HW164565   5.508   2.755   2.482
21513SOL    HW264566   5.405   2.849   2.399
21514SOL     OW64567   5.365   2.970   2.294
21514SOL    HW164568   5.451   2.972   2.242
21514SOL    HW264569   5.379   3.017   2.382
21515SOL     OW64570   3.837   2.599   3.459
21515SOL    HW164571   3.925   2.586   3.504
21515SOL    HW264572   3.824   2.696   3.437
21516SOL     OW64573   4.337   3.227   2.588
21516SOL    HW164574   4.288   3.140   2.597
21516SOL    HW264575   4.314   3.270   2.501
21517SOL     OW64576   5.017   3.090   3.285
21517SOL    HW164577   5.054   3.017   3.227
21517SOL    HW264578   5.069   3.095   3.370
21518SOL     OW64579   4.533   1.866   2.364
21518SOL    HW164580   4.573   1.957   2.355
21518SOL    HW264581   4.433   1.874   2.370
21519SOL     OW64582   3.921   2.838   3.126
21519SOL    HW164583   4.010   2.793   3.112
21519SOL    HW264584   3.848   2.773   3.107
21520SOL     OW64585   5.249   2.861   2.052
21520SOL    HW164586   5.186   2.785   2.065
21520SOL    HW264587   5.297   2.879   2.138
21521SOL     OW64588   4.911   3.654   3.478
21521SOL    HW164589   4.935   3.714   3.402
21521SOL    HW264590   4.918   3.559   3.448
21522SOL     OW64591   4.041   2.113   3.663
21522SOL    HW164592   4.112   2.184   3.669
21522SOL    HW264593   3.953   2.152   3.691
21523SOL     OW64594   5.190   3.279   2.815
21523SOL    HW164595   5.131   3.285   2.895
21523SOL    HW264596   5.175   3.191   2.769
21524SOL     OW64597   5.391   3.576   2.434
21524SOL    HW164598   5.350   3.553   2.346
21524SOL    HW264599   5.373   3.502   2.499
21525SOL     OW64600   4.322   2.591   2.132
21525SOL    HW164601   4.346   2.660   2.064
21525SOL    HW264602   4.244   2.624   2.186
21526SOL     OW64603   5.005   2.207   2.806
21526SOL    HW164604   4.919   2.157   2.793
21526SOL    HW264605   5.067   2.153   2.862
21527SOL     OW64606   5.300   3.524   2.169
21527SOL    HW164607   5.389   3.570   2.172
21527SOL    HW264608   5.279   3.500   2.074
21528SOL     OW64609   4.531   2.467   3.327
21528SOL    HW164610   4.484   2.464   3.416
21528SOL    HW264611   4.480   2.412   3.261
21529SOL     OW64612   5.118   2.331   3.536
21529SOL    HW164613   5.098   2.374   3.624
21529SOL    HW264614   5.196   2.269   3.545
21530SOL     OW64615   4.697   2.752   3.434
21530SOL    HW164616   4.743   2.668   3.405
21530SOL    HW264617   4.641   2.786   3.359
21531SOL     OW64618   4.715   2.272   3.104
21531SOL    HW164619   4.638   2.306   3.158
21531SOL    HW264620   4.681   2.221   3.025
21532SOL     OW64621   4.765   2.563   2.291
21532SOL    HW164622   4.791   2.559   2.387
21532SOL    HW264623   4.680   2.512   2.277
21533SOL     OW64624   3.800   2.673   2.651
21533SOL    HW164625   3.899   2.661   2.660
21533SOL    HW264626   3.776   2.768   2.672
21534SOL     OW64627   3.854   3.683   3.433
21534SOL    HW164628   3.844   3.668   3.532
21534SOL    HW264629   3.768   3.719   3.397
21535SOL     OW64630   4.589   2.210   2.057
21535SOL    HW164631   4.648   2.273   2.008
21535SOL    HW264632   4.608   2.116   2.028
21536SOL     OW64633   5.443   2.447   3.693
21536SOL    HW164634   5.417   2.536   3.657
21536SOL    HW264635   5.441   2.379   3.620
21537SOL     OW64636   5.086   3.006   2.407
21537SOL    HW164637   5.169   2.977   2.359
21537SOL    HW264638   5.037   3.073   2.351
21538SOL     OW64639   4.274   2.058   2.747
21538SOL    HW164640   4.269   2.053   2.847
21538SOL    HW264641   4.276   2.154   2.718
21539SOL     OW64642   4.732   3.318   2.339
21539SOL    HW164643   4.686   3.390   2.287
21539SOL    HW264644   4.728   3.338   2.437
21540SOL     OW64645   4.075   3.663   2.715
21540SOL    HW164646   4.125   3.577   2.721
21540SOL    HW264647   4.140   3.740   2.712
21541SOL     OW64648   5.519   2.928   2.735
21541SOL    HW164649   5.457   2.913   2.659
21541SOL    HW264650   5.467   2.939   2.820
21542SOL     OW64651   4.951   3.412   3.368
21542SOL    HW164652   4.957   3.335   3.432
21542SOL    HW264653   4.899   3.386   3.288
21543SOL     OW64654   4.045   2.805   2.104
21543SOL    HW164655   4.127   2.844   2.062
21543SOL    HW264656   4.018   2.723   2.055
21544SOL     OW64657   5.182   2.597   2.590
21544SOL    HW164658   5.177   2.532   2.665
21544SOL    HW264659   5.262   2.656   2.603
21545SOL     OW64660   4.185   3.128   3.589
21545SOL    HW164661   4.135   3.129   3.503
21545SOL    HW264662   4.122   3.110   3.665
21546SOL     OW64663   4.835   3.638   2.099
21546SOL    HW164664   4.775   3.576   2.149
21546SOL    HW264665   4.866   3.594   2.014
21547SOL     OW64666   3.926   2.147   3.360
21547SOL    HW164667   3.846   2.207   3.347
21547SOL    HW264668   3.916   2.098   3.446
21548SOL     OW64669   5.356   3.239   1.943
21548SOL    HW164670   5.324   3.333   1.933
21548SOL    HW264671   5.280   3.176   1.931
21549SOL     OW64672   4.188   3.605   2.185
21549SOL    HW164673   4.221   3.644   2.271
21549SOL    HW264674   4.264   3.598   2.120
21550SOL     OW64675   5.124   1.969   2.288
21550SOL    HW164676   5.100   1.932   2.198
21550SOL    HW264677   5.223   1.985   2.292
21551SOL     OW64678   3.973   3.647   3.103
21551SOL    HW164679   4.030   3.582   3.153
21551SOL    HW264680   3.957   3.614   3.010
21552SOL     OW64681   4.664   3.560   2.766
21552SOL    HW164682   4.744   3.503   2.787
21552SOL    HW264683   4.615   3.520   2.689
21553SOL     OW64684   4.106   2.562   2.342
21553SOL    HW164685   4.151   2.472   2.339
21553SOL    HW264686   4.012   2.551   2.375
21554SOL     OW64687   5.271   2.084   3.591
21554SOL    HW164688   5.266   2.121   3.683
21554SOL    HW264689   5.199   2.015   3.579
21555SOL     OW64690   4.338   1.984   1.979
21555SOL    HW164691   4.436   1.962   1.986
21555SOL    HW264692   4.307   1.967   1.886
21556SOL     OW64693   4.505   2.126   3.611
21556SOL    HW164694   4.572   2.065   3.654
21556SOL    HW264695   4.432   2.145   3.676
21557SOL     OW64696   4.612   3.376   3.057
21557SOL    HW164697   4.589   3.351   2.963
21557SOL    HW264698   4.673   3.307   3.096
21558SOL     OW64699   5.075   2.452   3.295
21558SOL    HW164700   5.103   2.409   3.380
21558SOL    HW264701   5.100   2.548   3.296
21559SOL     OW64702   4.527   3.264   2.786
21559SOL    HW164703   4.617   3.278   2.744
21559SOL    HW264704   4.456   3.266   2.715
21560SOL     OW64705   4.646   2.365   2.761
21560SOL    HW164706   4.621   2.356   2.665
21560SOL    HW264707   4.694   2.283   2.792
21561SOL     OW64708   4.263   1.926   2.374
21561SOL    HW164709   4.182   1.927   2.432
21561SOL    HW264710   4.266   2.009   2.319
21562SOL     OW64711   5.158   3.050   1.903
21562SOL    HW164712   5.190   2.974   1.960
21562SOL    HW264713   5.066   3.077   1.933
21563SOL     OW64714   4.021   1.897   2.033
21563SOL    HW164715   4.070   1.981   2.012
21563SOL    HW264716   4.083   1.832   2.078
21564SOL     OW64717   4.659   2.098   2.342
21564SOL    HW164718   4.611   2.139   2.264
21564SOL    HW264719   4.758   2.096   2.323
21565SOL     OW64720   4.800   2.545   3.326
21565SOL    HW164721   4.720   2.484   3.329
21565SOL    HW264722   4.881   2.492   3.302
21566SOL     OW64723   4.951   3.432   2.655
21566SOL    HW164724   4.972   3.506   2.590
21566SOL    HW264725   5.019   3.432   2.728
21567SOL     OW64726   4.183   3.014   2.603
21567SOL    HW164727   4.112   2.987   2.668
21567SOL    HW264728   4.157   2.986   2.510
21568SOL     OW64729   4.995   3.659   2.453
21568SOL    HW164730   5.039   3.723   2.389
21568SOL    HW264731   4.945   3.711   2.523
21569SOL     OW64732   4.756   2.411   1.878
21569SOL    HW164733   4.715   2.493   1.839
21569SOL    HW264734   4.820   2.437   1.951
21570SOL     OW64735   3.802   2.418   3.248
21570SOL    HW164736   3.894   2.417   3.207
21570SOL    HW264737   3.796   2.492   3.315
21571SOL     OW64738   4.285   2.084   3.009
21571SOL    HW164739   4.323   2.000   3.046
21571SOL    HW264740   4.197   2.103   3.053
21572SOL     OW64741   4.590   2.316   2.504
21572SOL    HW164742   4.558   2.388   2.442
21572SOL    HW264743   4.614   2.235   2.451
21573SOL     OW64744   4.741   1.901   2.615
21573SOL    HW164745   4.669   1.906   2.546
21573SOL    HW264746   4.717   1.832   2.684
21574SOL     OW64747   5.153   3.035   2.729
21574SOL    HW164748   5.098   2.951   2.722
21574SOL    HW264749   5.179   3.064   2.637
21575SOL     OW64750   5.190   2.452   2.854
21575SOL    HW164751   5.160   2.357   2.861
21575SOL    HW264752   5.263   2.468   2.920
21576SOL     OW64753   5.581   2.695   2.239
21576SOL    HW164754   5.623   2.631   2.303
21576SOL    HW264755   5.543   2.644   2.161
21577SOL     OW64756   4.212   3.247   2.036
21577SOL    HW164757   4.125   3.232   2.083
21577SOL    HW264758   4.195   3.273   1.941
21578SOL     OW64759   5.388   3.142   2.519
21578SOL    HW164760   5.487   3.150   2.533
21578SOL    HW264761   5.343   3.226   2.550
21579SOL     OW64762   5.114   2.437   1.940
21579SOL    HW164763   5.060   2.416   2.021
21579SOL    HW264764   5.205   2.396   1.949
21580SOL     OW64765   4.251   2.118   2.190
21580SOL    HW164766   4.278   2.059   2.115
21580SOL    HW264767   4.251   2.213   2.159
21581SOL     OW64768   5.478   3.085   3.450
21581SOL    HW164769   5.569   3.046   3.437
21581SOL    HW264770   5.486   3.181   3.474
21582SOL     OW64771   4.788   3.209   3.202
21582SOL    HW164772   4.708   3.186   3.257
21582SOL    HW264773   4.871   3.183   3.251
21583SOL     OW64774   5.316   3.491   3.487
21583SOL    HW164775   5.343   3.525   3.397
21583SOL    HW264776   5.395   3.453   3.533
21584SOL     OW64777   4.835   3.057   2.962
21584SOL    HW164778   4.795   3.101   3.043
21584SOL    HW264779   4.794   3.094   2.879
21585SOL     OW64780   5.362   2.961   2.941
21585SOL    HW164781   5.367   3.042   3.000
21585SOL    HW264782   5.276   2.963   2.890
21586SOL     OW64783   4.639   1.951   3.264
21586SOL    HW164784   4.664   1.931   3.169
21586SOL    HW264785   4.711   2.007   3.306
21587SOL     OW64786   4.704   2.978   3.581
21587SOL    HW164787   4.605   2.984   3.591
21587SOL    HW264788   4.727   2.898   3.525
21588SOL     OW64789   4.429   2.912   2.230
21588SOL    HW164790   4.415   2.919   2.329
21588SOL    HW264791   4.513   2.861   2.212
21589SOL     OW64792   4.134   2.675   3.113
21589SOL    HW164793   4.220   2.687   3.163
21589SOL    HW264794   4.092   2.588   3.140
21590SOL     OW64795   4.998   2.248   3.124
21590SOL    HW164796   5.019   2.322   3.188
21590SOL    HW264797   4.909   2.265   3.081
21591SOL     OW64798   3.788   3.426   3.193
21591SOL    HW164799   3.742   3.508   3.159
21591SOL    HW264800   3.886   3.445   3.202
21592SOL     OW64801   4.091   2.962   2.363
21592SOL    HW164802   4.084   3.045   2.307
21592SOL    HW264803   4.095   2.882   2.303
21593SOL     OW64804   4.290   2.399   2.727
21593SOL    HW164805   4.302   2.465   2.653
21593SOL    HW264806   4.336   2.433   2.810
21594SOL     OW64807   4.976   3.210   2.250
21594SOL    HW164808   5.026   3.287   2.290
21594SOL    HW264809   4.881   3.212   2.282
21595SOL     OW64810   4.996   3.307   3.004
21595SOL    HW164811   5.043   3.320   3.091
21595SOL    HW264812   4.930   3.233   3.013
21596SOL     OW64813   5.306   2.501   2.334
21596SOL    HW164814   5.275   2.562   2.407
21596SOL    HW264815   5.356   2.553   2.265
21597SOL     OW64816   4.078   3.372   3.191
21597SOL    HW164817   4.057   3.328   3.104
21597SOL    HW264818   4.175   3.398   3.194
21598SOL     OW64819   4.126   2.613   3.460
21598SOL    HW164820   4.194   2.668   3.413
21598SOL    HW264821   4.166   2.525   3.487
21599SOL     OW64822   5.311   2.641   3.532
21599SOL    HW164823   5.219   2.679   3.527
21599SOL    HW264824   5.371   2.688   3.467
21600SOL     OW64825   4.737   1.967   3.632
21600SOL    HW164826   4.743   2.052   3.580
21600SOL    HW264827   4.769   1.891   3.575
21601SOL     OW64828   4.228   1.912   3.602
21601SOL    HW164829   4.186   1.855   3.532
21601SOL    HW264830   4.162   1.981   3.634
21602SOL     OW64831   4.297   2.732   2.891
21602SOL    HW164832   4.341   2.821   2.882
21602SOL    HW264833   4.234   2.732   2.968
21603SOL     OW64834   5.084   2.724   2.907
21603SOL    HW164835   5.009   2.724   2.841
21603SOL    HW264836   5.121   2.632   2.916
21604SOL     OW64837   4.933   2.387   2.137
21604SOL    HW164838   4.946   2.303   2.191
21604SOL    HW264839   4.904   2.461   2.197
21605SOL     OW64840   4.031   2.075   3.093
21605SOL    HW164841   4.008   2.112   3.183
21605SOL    HW264842   4.001   1.980   3.087
21606SOL     OW64843   3.761   3.172   3.144
21606SOL    HW164844   3.814   3.123   3.212
21606SOL    HW264845   3.783   3.270   3.149
21607SOL     OW64846   4.456   2.496   2.926
21607SOL    HW164847   4.515   2.470   2.850
21607SOL    HW264848   4.428   2.592   2.915
21608SOL     OW64849   5.452   2.797   3.716
21608SOL    HW164850   5.406   2.790   3.627
21608SOL    HW264851   5.390   2.841   3.782
21609SOL     OW64852   4.031   1.925   2.480
21609SOL    HW164853   4.020   2.019   2.513
21609SOL    HW264854   4.026   1.862   2.557
21610SOL     OW64855   5.346   2.229   2.236
21610SOL    HW164856   5.348   2.153   2.300
21610SOL    HW264857   5.298   2.306   2.276
21611SOL     OW64858   4.747   2.628   2.828
21611SOL    HW164859   4.762   2.649   2.924
21611SOL    HW264860   4.717   2.533   2.819
21612SOL     OW64861   4.704   3.435   3.562
21612SOL    HW164862   4.684   3.479   3.474
21612SOL    HW264863   4.743   3.344   3.546
21613SOL     OW64864   5.583   3.380   3.467
21613SOL    HW164865   5.597   3.407   3.372
21613SOL    HW264866   5.666   3.402   3.520
21614SOL     OW64867   4.074   2.760   3.666
21614SOL    HW164868   4.150   2.804   3.714
21614SOL    HW264869   4.109   2.713   3.584
21615SOL     OW64870   5.264   2.136   1.987
21615SOL    HW164871   5.203   2.061   2.010
21615SOL    HW264872   5.286   2.188   2.070
21616SOL     OW64873   5.027   2.700   1.904
21616SOL    HW164874   5.061   2.607   1.919
21616SOL    HW264875   5.045   2.727   1.809
21617SOL     OW64876   4.792   3.195   2.711
21617SOL    HW164877   4.799   3.111   2.656
21617SOL    HW264878   4.854   3.264   2.675
21618SOL     OW64879   4.043   2.672   2.811
21618SOL    HW164880   4.136   2.708   2.816
21618SOL    HW264881   4.037   2.587   2.863
21619SOL     OW64882   4.063   2.371   2.868
21619SOL    HW164883   4.011   2.288   2.851
21619SOL    HW264884   4.140   2.376   2.804
21620SOL     OW64885   4.862   2.242   3.540
21620SOL    HW164886   4.817   2.305   3.604
21620SOL    HW264887   4.955   2.273   3.523
21621SOL     OW64888   4.884   2.069   3.339
21621SOL    HW164889   4.884   2.133   3.416
21621SOL    HW264890   4.912   2.117   3.256
21622SOL     OW64891   3.732   3.188   2.062
21622SOL    HW164892   3.639   3.209   2.031
21622SOL    HW264893   3.742   3.089   2.075
21623SOL     OW64894   3.812   3.663   2.789
21623SOL    HW164895   3.770   3.577   2.762
21623SOL    HW264896   3.906   3.666   2.755
21624SOL     OW64897   4.228   3.430   2.772
21624SOL    HW164898   4.294   3.504   2.781
21624SOL    HW264899   4.272   3.351   2.730
21625SOL     OW64900   4.726   2.658   3.100
21625SOL    HW164901   4.767   2.626   3.186
21625SOL    HW264902   4.630   2.631   3.097
21626SOL     OW64903   3.764   2.406   2.976
21626SOL    HW164904   3.849   2.373   2.935
21626SOL    HW264905   3.777   2.421   3.074
21627SOL     OW64906   3.913   2.382   3.584
21627SOL    HW164907   3.972   2.342   3.514
21627SOL    HW264908   3.855   2.453   3.543
21628SOL     OW64909   5.093   2.812   3.522
21628SOL    HW164910   5.132   2.901   3.542
21628SOL    HW264911   5.103   2.792   3.425
21629SOL     OW64912   4.539   2.434   2.187
21629SOL    HW164913   4.546   2.345   2.141
21629SOL    HW264914   4.445   2.468   2.179
21630SOL     OW64915   5.381   2.466   3.068
21630SOL    HW164916   5.343   2.397   3.130
21630SOL    HW264917   5.463   2.430   3.024
21631SOL     OW64918   3.976   3.426   3.606
21631SOL    HW164919   3.946   3.483   3.682
21631SOL    HW264920   3.969   3.329   3.632
21632SOL     OW64921   4.395   2.326   3.131
21632SOL    HW164922   4.361   2.237   3.101
21632SOL    HW264923   4.421   2.380   3.051
21633SOL     OW64924   4.654   3.540   3.327
21633SOL    HW164925   4.630   3.522   3.232
21633SOL    HW264926   4.684   3.634   3.337
21634SOL     OW64927   4.197   2.362   2.053
21634SOL    HW164928   4.258   2.442   2.057
21634SOL    HW264929   4.102   2.393   2.060
21635SOL     OW64930   3.883   2.999   3.328
21635SOL    HW164931   3.905   2.938   3.404
21635SOL    HW264932   3.893   2.950   3.242
21636SOL     OW64933   5.071   2.921   3.096
21636SOL    HW164934   5.095   2.858   3.022
21636SOL    HW264935   4.981   2.961   3.078
21637SOL     OW64936   5.026   2.717   2.171
21637SOL    HW164937   4.940   2.686   2.213
21637SOL    HW264938   5.022   2.703   2.072
21638SOL     OW64939   5.483   3.609   3.016
21638SOL    HW164940   5.544   3.639   2.943
21638SOL    HW264941   5.445   3.520   2.994
21639SOL     OW64942   4.976   3.593   2.990
21639SOL    HW164943   5.060   3.598   2.936
21639SOL    HW264944   4.953   3.497   3.008
21640SOL     OW64945   3.807   3.120   2.884
21640SOL    HW164946   3.802   3.119   2.984
21640SOL    HW264947   3.724   3.079   2.846
21641SOL     OW64948   4.412   3.524   3.578
21641SOL    HW164949   4.356   3.605   3.587
21641SOL    HW264950   4.464   3.528   3.492
21642SOL     OW64951   5.450   1.997   2.385
21642SOL    HW164952   5.523   1.980   2.318
21642SOL    HW264953   5.419   1.910   2.423
21643SOL     OW64954   5.112   3.435   2.339
21643SOL    HW164955   5.179   3.447   2.265
21643SOL    HW264956   5.072   3.524   2.362
21644SOL     OW64957   3.854   3.656   3.713
21644SOL    HW164958   3.813   3.582   3.766
21644SOL    HW264959   3.918   3.707   3.771
21645SOL     OW64960   5.004   2.789   2.534
21645SOL    HW164961   5.064   2.708   2.536
21645SOL    HW264962   5.044   2.858   2.474
21646SOL     OW64963   4.554   3.135   3.284
21646SOL    HW164964   4.549   3.168   3.379
21646SOL    HW264965   4.468   3.154   3.238
21647SOL     OW64966   4.396   3.478   2.016
21647SOL    HW164967   4.405   3.488   1.917
21647SOL    HW264968   4.356   3.389   2.037
21648SOL     OW64969   5.374   3.582   3.256
21648SOL    HW164970   5.427   3.592   3.172
21648SOL    HW264971   5.347   3.672   3.290
21649SOL     OW64972   5.565   2.037   2.825
21649SOL    HW164973   5.604   1.952   2.789
21649SOL    HW264974   5.467   2.039   2.806
21650SOL     OW64975   3.987   2.188   2.582
21650SOL    HW164976   3.908   2.239   2.548
21650SOL    HW264977   3.978   2.173   2.680
21651SOL     OW64978   4.918   3.474   1.893
21651SOL    HW164979   4.924   3.381   1.930
21651SOL    HW264980   4.859   3.474   1.813
21652SOL     OW64981   4.546   2.864   3.234
21652SOL    HW164982   4.586   2.863   3.142
21652SOL    HW264983   4.556   2.956   3.274
21653SOL     OW64984   4.640   2.772   2.153
21653SOL    HW164985   4.703   2.810   2.085
21653SOL    HW264986   4.680   2.689   2.192
21654SOL     OW64987   5.228   3.469   1.906
21654SOL    HW164988   5.136   3.506   1.913
21654SOL    HW264989   5.266   3.489   1.816
21655SOL     OW64990   4.096   3.150   3.352
21655SOL    HW164991   4.083   3.243   3.318
21655SOL    HW264992   4.012   3.098   3.339
21656SOL     OW64993   5.338   3.154   3.151
21656SOL    HW164994   5.398   3.157   3.231
21656SOL    HW264995   5.263   3.218   3.164
21657SOL     OW64996   4.763   2.960   2.558
21657SOL    HW164997   4.693   2.913   2.612
21657SOL    HW264998   4.822   2.892   2.515
21658SOL     OW64999   4.738   2.098   2.833
21658SOL    HW165000   4.730   2.062   2.740
21658SOL    HW265001   4.736   2.022   2.898
21659SOL     OW65002   4.314   3.349   2.353
21659SOL    HW165003   4.356   3.291   2.283
21659SOL    HW265004   4.270   3.428   2.309
21660SOL     OW65005   5.433   2.247   3.243
21660SOL    HW165006   5.506   2.316   3.247
21660SOL    HW265007   5.461   2.172   3.184
21661SOL     OW65008   3.979   3.210   2.152
21661SOL    HW165009   3.883   3.211   2.125
21661SOL    HW265010   3.991   3.263   2.236
21662SOL     OW65011   3.829   2.875   3.588
21662SOL    HW165012   3.752   2.842   3.642
21662SOL    HW265013   3.914   2.845   3.630
21663SOL     OW65014   4.396   2.065   3.351
21663SOL    HW165015   4.486   2.049   3.311
21663SOL    HW265016   4.404   2.070   3.450
21664SOL     OW65017   3.799   2.207   1.895
21664SOL    HW165018   3.707   2.179   1.866
21664SOL    HW265019   3.830   2.284   1.839
21665SOL     OW65020   5.164   2.718   3.260
21665SOL    HW165021   5.107   2.770   3.197
21665SOL    HW265022   5.260   2.730   3.236
21666SOL     OW65023   3.796   2.028   2.180
21666SOL    HW165024   3.779   2.111   2.126
21666SOL    HW265025   3.886   1.991   2.158
21667SOL     OW65026   4.907   3.197   1.981
21667SOL    HW165027   4.808   3.186   1.983
21667SOL    HW265028   4.941   3.212   2.074
21668SOL     OW65029   4.337   2.704   3.293
21668SOL    HW165030   4.393   2.785   3.276
21668SOL    HW265031   4.396   2.624   3.296
21669SOL     OW65032   5.217   3.629   2.821
21669SOL    HW165033   5.250   3.693   2.752
21669SOL    HW265034   5.283   3.623   2.896
21670SOL     OW65035   4.440   2.427   3.570
21670SOL    HW165036   4.459   2.492   3.644
21670SOL    HW265037   4.500   2.347   3.579
21671SOL     OW65038   5.174   3.082   3.495
21671SOL    HW165039   5.165   3.072   3.594
21671SOL    HW265040   5.270   3.075   3.469
21672SOL     OW65041   4.114   3.603   3.422
21672SOL    HW165042   4.023   3.644   3.420
21672SOL    HW265043   4.107   3.509   3.454
21673SOL     OW65044   5.398   2.745   3.116
21673SOL    HW165045   5.371   2.656   3.079
21673SOL    HW265046   5.399   2.813   3.043
21674SOL     OW65047   4.949   2.187   2.311
21674SOL    HW165048   5.014   2.113   2.300
21674SOL    HW265049   4.969   2.237   2.395
21675SOL     OW65050   4.318   2.607   2.514
21675SOL    HW165051   4.368   2.692   2.495
21675SOL    HW265052   4.230   2.609   2.466
21676SOL     OW65053   5.501   2.204   3.504
21676SOL    HW165054   5.484   2.235   3.410
21676SOL    HW265055   5.417   2.167   3.542
21677SOL     OW65056   5.454   2.796   3.379
21677SOL    HW165057   5.492   2.887   3.394
21677SOL    HW265058   5.446   2.779   3.280
21678SOL     OW65059   4.583   3.236   1.878
21678SOL    HW165060   4.537   3.251   1.966
21678SOL    HW265061   4.627   3.321   1.848
21679SOL     OW65062   4.385   3.652   2.815
21679SOL    HW165063   4.339   3.740   2.802
21679SOL    HW265064   4.484   3.664   2.808
21680SOL     OW65065   4.583   2.818   2.723
21680SOL    HW165066   4.637   2.749   2.771
21680SOL    HW265067   4.551   2.887   2.789
21681SOL     OW65068   4.807   2.846   1.949
21681SOL    HW165069   4.784   2.899   1.867
21681SOL    HW265070   4.888   2.790   1.930
21682SOL     OW65071   5.585   3.431   2.713
21682SOL    HW165072   5.514   3.419   2.643
21682SOL    HW265073   5.586   3.352   2.773
21683SOL     OW65074   3.945   3.176   3.706
21683SOL    HW165075   3.880   3.103   3.685
21683SOL    HW265076   3.949   3.190   3.804
21684SOL     OW65077   3.803   3.102   2.515
21684SOL    HW165078   3.802   3.055   2.603
21684SOL    HW265079   3.885   3.074   2.464
21685SOL     OW65080   4.396   3.253   3.486
21685SOL    HW165081   4.318   3.203   3.524
21685SOL    HW265082   4.393   3.348   3.517
21686SOL     OW65083   5.548   2.054   3.089
21686SOL    HW165084   5.544   1.964   3.133
21686SOL    HW265085   5.551   2.043   2.990
21687SOL     OW65086   4.152   2.286   2.382
21687SOL    HW165087   4.182   2.214   2.320
21687SOL    HW265088   4.113   2.246   2.465
21688SOL     OW65089   5.429   3.349   2.966
21688SOL    HW165090   5.336   3.324   2.939
21688SOL    HW265091   5.455   3.299   3.048
21689SOL     OW65092   4.041   2.409   3.142
21689SOL    HW165093   4.079   2.350   3.214
21689SOL    HW265094   4.081   2.383   3.054
21690SOL     OW65095   4.536   3.448   2.549
21690SOL    HW165096   4.568   3.458   2.455
21690SOL    HW265097   4.457   3.386   2.551
21691SOL     OW65098   5.148   2.076   2.974
21691SOL    HW165099   5.200   2.011   3.029
21691SOL    HW265100   5.099   2.139   3.035
21692SOL     OW65101   4.725   1.896   3.016
21692SOL    HW165102   4.662   1.824   2.985
21692SOL    HW265103   4.818   1.860   3.016
21693SOL     OW65104   4.494   3.192   2.163
21693SOL    HW165105   4.448   3.105   2.180
21693SOL    HW265106   4.585   3.189   2.204
21694SOL     OW65107   4.342   3.429   3.146
21694SOL    HW165108   4.337   3.511   3.203
21694SOL    HW265109   4.431   3.426   3.101
21695SOL     OW65110   5.076   1.914   2.030
21695SOL    HW165111   5.111   1.873   1.946
21695SOL    HW265112   4.986   1.876   2.050
21696SOL     OW65113   5.024   2.315   2.553
21696SOL    HW165114   4.965   2.395   2.557
21696SOL    HW265115   5.039   2.280   2.646
21697SOL     OW65116   5.317   2.083   2.744
21697SOL    HW165117   5.233   2.082   2.798
21697SOL    HW265118   5.319   2.166   2.688
21698SOL     OW65119   3.763   2.939   2.162
21698SOL    HW165120   3.862   2.928   2.153
21698SOL    HW265121   3.723   2.853   2.194
21699SOL     OW65122   4.599   3.508   2.199
21699SOL    HW165123   4.522   3.473   2.145
21699SOL    HW265124   4.567   3.579   2.261
21700SOL     OW65125   3.954   2.490   3.837
21700SOL    HW165126   3.861   2.488   3.874
21700SOL    HW265127   3.955   2.451   3.745
21701SOL     OW65128   3.949   2.137   4.720
21701SOL    HW165129   3.984   2.120   4.812
21701SOL    HW265130   3.861   2.092   4.708
21702SOL     OW65131   3.743   2.230   4.371
21702SOL    HW165132   3.661   2.273   4.410
21702SOL    HW265133   3.715   2.157   4.308
21703SOL     OW65134   4.293   3.137   4.889
21703SOL    HW165135   4.200   3.130   4.852
21703SOL    HW265136   4.304   3.226   4.933
21704SOL     OW65137   5.279   3.373   4.427
21704SOL    HW165138   5.222   3.357   4.508
21704SOL    HW265139   5.220   3.383   4.347
21705SOL     OW65140   4.859   2.565   4.441
21705SOL    HW165141   4.916   2.643   4.416
21705SOL    HW265142   4.799   2.591   4.517
21706SOL     OW65143   5.479   2.469   3.955
21706SOL    HW165144   5.467   2.456   3.856
21706SOL    HW265145   5.449   2.388   4.004
21707SOL     OW65146   4.492   3.006   4.747
21707SOL    HW165147   4.414   3.023   4.807
21707SOL    HW265148   4.526   3.093   4.711
21708SOL     OW65149   4.574   2.660   5.547
21708SOL    HW165150   4.570   2.736   5.612
21708SOL    HW265151   4.596   2.696   5.456
21709SOL     OW65152   4.409   2.874   4.389
21709SOL    HW165153   4.478   2.858   4.459
21709SOL    HW265154   4.336   2.931   4.427
21710SOL     OW65155   4.410   3.023   5.527
21710SOL    HW165156   4.470   3.102   5.541
21710SOL    HW265157   4.324   3.054   5.486
21711SOL     OW65158   4.059   3.297   4.785
21711SOL    HW165159   3.981   3.266   4.732
21711SOL    HW265160   4.117   3.355   4.728
21712SOL     OW65161   5.184   3.367   5.063
21712SOL    HW165162   5.208   3.461   5.089
21712SOL    HW265163   5.168   3.313   5.145
21713SOL     OW65164   4.162   2.254   5.223
21713SOL    HW165165   4.244   2.198   5.232
21713SOL    HW265166   4.081   2.196   5.227
21714SOL     OW65167   5.327   2.309   4.461
21714SOL    HW165168   5.253   2.355   4.411
21714SOL    HW265169   5.378   2.377   4.514
21715SOL     OW65170   3.955   3.575   4.207
21715SOL    HW165171   3.989   3.652   4.261
21715SOL    HW265172   3.999   3.575   4.117
21716SOL     OW65173   4.851   3.203   5.414
21716SOL    HW165174   4.898   3.203   5.502
21716SOL    HW265175   4.803   3.116   5.403
21717SOL     OW65176   3.954   3.296   4.262
21717SOL    HW165177   3.928   3.392   4.262
21717SOL    HW265178   3.883   3.242   4.307
21718SOL     OW65179   3.964   2.953   4.610
21718SOL    HW165180   3.978   2.869   4.662
21718SOL    HW265181   3.909   3.017   4.665
21719SOL     OW65182   4.344   3.648   5.163
21719SOL    HW165183   4.252   3.631   5.198
21719SOL    HW265184   4.372   3.740   5.189
21720SOL     OW65185   4.330   2.826   3.847
21720SOL    HW165186   4.337   2.910   3.793
21720SOL    HW265187   4.376   2.839   3.935
21721SOL     OW65188   5.318   1.976   5.204
21721SOL    HW165189   5.300   2.043   5.132
21721SOL    HW265190   5.315   2.022   5.293
21722SOL     OW65191   3.846   2.505   4.287
21722SOL    HW165192   3.801   2.417   4.304
21722SOL    HW265193   3.845   2.559   4.371
21723SOL     OW65194   5.566   3.629   4.083
21723SOL    HW165195   5.620   3.600   4.163
21723SOL    HW265196   5.596   3.719   4.054
21724SOL     OW65197   3.751   3.458   3.841
21724SOL    HW165198   3.732   3.362   3.862
21724SOL    HW265199   3.718   3.516   3.916
21725SOL     OW65200   5.413   2.784   4.336
21725SOL    HW165201   5.508   2.755   4.344
21725SOL    HW265202   5.405   2.849   4.261
21726SOL     OW65203   5.365   2.970   4.156
21726SOL    HW165204   5.451   2.972   4.104
21726SOL    HW265205   5.379   3.017   4.244
21727SOL     OW65206   3.837   2.599   5.321
21727SOL    HW165207   3.925   2.586   5.366
21727SOL    HW265208   3.824   2.696   5.299
21728SOL     OW65209   4.337   3.227   4.450
21728SOL    HW165210   4.288   3.140   4.459
21728SOL    HW265211   4.314   3.270   4.363
21729SOL     OW65212   5.017   3.090   5.147
21729SOL    HW165213   5.054   3.017   5.089
21729SOL    HW265214   5.069   3.095   5.232
21730SOL     OW65215   4.533   1.866   4.226
21730SOL    HW165216   4.573   1.957   4.217
21730SOL    HW265217   4.433   1.874   4.232
21731SOL     OW65218   3.921   2.838   4.988
21731SOL    HW165219   4.010   2.793   4.974
21731SOL    HW265220   3.848   2.773   4.969
21732SOL     OW65221   5.249   2.861   3.914
21732SOL    HW165222   5.186   2.785   3.927
21732SOL    HW265223   5.297   2.879   4.000
21733SOL     OW65224   4.911   3.654   5.340
21733SOL    HW165225   4.935   3.714   5.264
21733SOL    HW265226   4.918   3.559   5.310
21734SOL     OW65227   4.041   2.113   5.525
21734SOL    HW165228   4.112   2.184   5.531
21734SOL    HW265229   3.953   2.152   5.553
21735SOL     OW65230   5.190   3.279   4.677
21735SOL    HW165231   5.131   3.285   4.757
21735SOL    HW265232   5.175   3.191   4.631
21736SOL     OW65233   5.391   3.576   4.296
21736SOL    HW165234   5.350   3.553   4.208
21736SOL    HW265235   5.373   3.502   4.361
21737SOL     OW65236   4.322   2.591   3.994
21737SOL    HW165237   4.346   2.660   3.926
21737SOL    HW265238   4.244   2.624   4.048
21738SOL     OW65239   5.005   2.207   4.668
21738SOL    HW165240   4.919   2.157   4.655
21738SOL    HW265241   5.067   2.153   4.724
21739SOL     OW65242   5.300   3.524   4.031
21739SOL    HW165243   5.389   3.570   4.034
21739SOL    HW265244   5.279   3.500   3.936
21740SOL     OW65245   4.531   2.467   5.189
21740SOL    HW165246   4.484   2.464   5.278
21740SOL    HW265247   4.480   2.412   5.123
21741SOL     OW65248   5.118   2.331   5.398
21741SOL    HW165249   5.098   2.374   5.486
21741SOL    HW265250   5.196   2.269   5.407
21742SOL     OW65251   4.697   2.752   5.296
21742SOL    HW165252   4.743   2.668   5.267
21742SOL    HW265253   4.641   2.786   5.221
21743SOL     OW65254   4.715   2.272   4.966
21743SOL    HW165255   4.638   2.306   5.020
21743SOL    HW265256   4.681   2.221   4.887
21744SOL     OW65257   4.765   2.563   4.153
21744SOL    HW165258   4.791   2.559   4.249
21744SOL    HW265259   4.680   2.512   4.139
21745SOL     OW65260   3.800   2.673   4.513
21745SOL    HW165261   3.899   2.661   4.522
21745SOL    HW265262   3.776   2.768   4.534
21746SOL     OW65263   3.854   3.683   5.295
21746SOL    HW165264   3.844   3.668   5.394
21746SOL    HW265265   3.768   3.719   5.259
21747SOL     OW65266   4.589   2.210   3.919
21747SOL    HW165267   4.648   2.273   3.870
21747SOL    HW265268   4.608   2.116   3.890
21748SOL     OW65269   5.443   2.447   5.555
21748SOL    HW165270   5.417   2.536   5.519
21748SOL    HW265271   5.441   2.379   5.482
21749SOL     OW65272   5.086   3.006   4.269
21749SOL    HW165273   5.169   2.977   4.221
21749SOL    HW265274   5.037   3.073   4.213
21750SOL     OW65275   4.274   2.058   4.609
21750SOL    HW165276   4.269   2.053   4.709
21750SOL    HW265277   4.276   2.154   4.580
21751SOL     OW65278   4.732   3.318   4.201
21751SOL    HW165279   4.686   3.390   4.149
21751SOL    HW265280   4.728   3.338   4.299
21752SOL     OW65281   4.075   3.663   4.577
21752SOL    HW165282   4.125   3.577   4.583
21752SOL    HW265283   4.140   3.740   4.574
21753SOL     OW65284   5.519   2.928   4.597
21753SOL    HW165285   5.457   2.913   4.521
21753SOL    HW265286   5.467   2.939   4.682
21754SOL     OW65287   4.951   3.412   5.230
21754SOL    HW165288   4.957   3.335   5.294
21754SOL    HW265289   4.899   3.386   5.150
21755SOL     OW65290   4.045   2.805   3.966
21755SOL    HW165291   4.127   2.844   3.924
21755SOL    HW265292   4.018   2.723   3.917
21756SOL     OW65293   5.182   2.597   4.452
21756SOL    HW165294   5.177   2.532   4.527
21756SOL    HW265295   5.262   2.656   4.465
21757SOL     OW65296   4.185   3.128   5.451
21757SOL    HW165297   4.135   3.129   5.365
21757SOL    HW265298   4.122   3.110   5.527
21758SOL     OW65299   4.835   3.638   3.961
21758SOL    HW165300   4.775   3.576   4.011
21758SOL    HW265301   4.866   3.594   3.876
21759SOL     OW65302   3.926   2.147   5.222
21759SOL    HW165303   3.846   2.207   5.209
21759SOL    HW265304   3.916   2.098   5.308
21760SOL     OW65305   5.356   3.239   3.805
21760SOL    HW165306   5.324   3.333   3.795
21760SOL    HW265307   5.280   3.176   3.793
21761SOL     OW65308   4.188   3.605   4.047
21761SOL    HW165309   4.221   3.644   4.133
21761SOL    HW265310   4.264   3.598   3.982
21762SOL     OW65311   5.124   1.969   4.150
21762SOL    HW165312   5.100   1.932   4.060
21762SOL    HW265313   5.223   1.985   4.154
21763SOL     OW65314   3.973   3.647   4.965
21763SOL    HW165315   4.030   3.582   5.015
21763SOL    HW265316   3.957   3.614   4.872
21764SOL     OW65317   4.664   3.560   4.628
21764SOL    HW165318   4.744   3.503   4.649
21764SOL    HW265319   4.615   3.520   4.551
21765SOL     OW65320   4.106   2.562   4.204
21765SOL    HW165321   4.151   2.472   4.201
21765SOL    HW265322   4.012   2.551   4.237
21766SOL     OW65323   5.271   2.084   5.453
21766SOL    HW165324   5.266   2.121   5.545
21766SOL    HW265325   5.199   2.015   5.441
21767SOL     OW65326   4.338   1.984   3.841
21767SOL    HW165327   4.436   1.962   3.848
21767SOL    HW265328   4.307   1.967   3.748
21768SOL     OW65329   4.505   2.126   5.473
21768SOL    HW165330   4.572   2.065   5.516
21768SOL    HW265331   4.432   2.145   5.538
21769SOL     OW65332   4.612   3.376   4.919
21769SOL    HW165333   4.589   3.351   4.825
21769SOL    HW265334   4.673   3.307   4.958
21770SOL     OW65335   5.075   2.452   5.157
21770SOL    HW165336   5.103   2.409   5.242
21770SOL    HW265337   5.100   2.548   5.158
21771SOL     OW65338   4.527   3.264   4.648
21771SOL    HW165339   4.617   3.278   4.606
21771SOL    HW265340   4.456   3.266   4.577
21772SOL     OW65341   4.646   2.365   4.623
21772SOL    HW165342   4.621   2.356   4.527
21772SOL    HW265343   4.694   2.283   4.654
21773SOL     OW65344   4.263   1.926   4.236
21773SOL    HW165345   4.182   1.927   4.294
21773SOL    HW265346   4.266   2.009   4.181
21774SOL     OW65347   5.158   3.050   3.765
21774SOL    HW165348   5.190   2.974   3.822
21774SOL    HW265349   5.066   3.077   3.795
21775SOL     OW65350   4.021   1.897   3.895
21775SOL    HW165351   4.070   1.981   3.874
21775SOL    HW265352   4.083   1.832   3.940
21776SOL     OW65353   4.659   2.098   4.204
21776SOL    HW165354   4.611   2.139   4.126
21776SOL    HW265355   4.758   2.096   4.185
21777SOL     OW65356   4.800   2.545   5.188
21777SOL    HW165357   4.720   2.484   5.191
21777SOL    HW265358   4.881   2.492   5.164
21778SOL     OW65359   4.951   3.432   4.517
21778SOL    HW165360   4.972   3.506   4.452
21778SOL    HW265361   5.019   3.432   4.590
21779SOL     OW65362   4.183   3.014   4.465
21779SOL    HW165363   4.112   2.987   4.530
21779SOL    HW265364   4.157   2.986   4.372
21780SOL     OW65365   4.995   3.659   4.315
21780SOL    HW165366   5.039   3.723   4.251
21780SOL    HW265367   4.945   3.711   4.385
21781SOL     OW65368   4.756   2.411   3.740
21781SOL    HW165369   4.715   2.493   3.701
21781SOL    HW265370   4.820   2.437   3.813
21782SOL     OW65371   3.802   2.418   5.110
21782SOL    HW165372   3.894   2.417   5.069
21782SOL    HW265373   3.796   2.492   5.177
21783SOL     OW65374   4.285   2.084   4.871
21783SOL    HW165375   4.323   2.000   4.908
21783SOL    HW265376   4.197   2.103   4.915
21784SOL     OW65377   4.590   2.316   4.366
21784SOL    HW165378   4.558   2.388   4.304
21784SOL    HW265379   4.614   2.235   4.313
21785SOL     OW65380   4.741   1.901   4.477
21785SOL    HW165381   4.669   1.906   4.408
21785SOL    HW265382   4.717   1.832   4.546
21786SOL     OW65383   5.153   3.035   4.591
21786SOL    HW165384   5.098   2.951   4.584
21786SOL    HW265385   5.179   3.064   4.499
21787SOL     OW65386   5.190   2.452   4.716
21787SOL    HW165387   5.160   2.357   4.723
21787SOL    HW265388   5.263   2.468   4.782
21788SOL     OW65389   5.581   2.695   4.101
21788SOL    HW165390   5.623   2.631   4.165
21788SOL    HW265391   5.543   2.644   4.023
21789SOL     OW65392   4.212   3.247   3.898
21789SOL    HW165393   4.125   3.232   3.945
21789SOL    HW265394   4.195   3.273   3.803
21790SOL     OW65395   5.388   3.142   4.381
21790SOL    HW165396   5.487   3.150   4.395
21790SOL    HW265397   5.343   3.226   4.412
21791SOL     OW65398   5.114   2.437   3.802
21791SOL    HW165399   5.060   2.416   3.883
21791SOL    HW265400   5.205   2.396   3.811
21792SOL     OW65401   4.251   2.118   4.052
21792SOL    HW165402   4.278   2.059   3.977
21792SOL    HW265403   4.251   2.213   4.021
21793SOL     OW65404   5.478   3.085   5.312
21793SOL    HW165405   5.569   3.046   5.299
21793SOL    HW265406   5.486   3.181   5.336
21794SOL     OW65407   4.788   3.209   5.064
21794SOL    HW165408   4.708   3.186   5.119
21794SOL    HW265409   4.871   3.183   5.113
21795SOL     OW65410   5.316   3.491   5.349
21795SOL    HW165411   5.343   3.525   5.259
21795SOL    HW265412   5.395   3.453   5.395
21796SOL     OW65413   4.835   3.057   4.824
21796SOL    HW165414   4.795   3.101   4.905
21796SOL    HW265415   4.794   3.094   4.741
21797SOL     OW65416   5.362   2.961   4.803
21797SOL    HW165417   5.367   3.042   4.862
21797SOL    HW265418   5.276   2.963   4.752
21798SOL     OW65419   4.639   1.951   5.126
21798SOL    HW165420   4.664   1.931   5.031
21798SOL    HW265421   4.711   2.007   5.168
21799SOL     OW65422   4.704   2.978   5.443
21799SOL    HW165423   4.605   2.984   5.453
21799SOL    HW265424   4.727   2.898   5.387
21800SOL     OW65425   4.429   2.912   4.092
21800SOL    HW165426   4.415   2.919   4.191
21800SOL    HW265427   4.513   2.861   4.074
21801SOL     OW65428   4.134   2.675   4.975
21801SOL    HW165429   4.220   2.687   5.025
21801SOL    HW265430   4.092   2.588   5.002
21802SOL     OW65431   4.998   2.248   4.986
21802SOL    HW165432   5.019   2.322   5.050
21802SOL    HW265433   4.909   2.265   4.943
21803SOL     OW65434   3.788   3.426   5.055
21803SOL    HW165435   3.742   3.508   5.021
21803SOL    HW265436   3.886   3.445   5.064
21804SOL     OW65437   4.091   2.962   4.225
21804SOL    HW165438   4.084   3.045   4.169
21804SOL    HW265439   4.095   2.882   4.165
21805SOL     OW65440   4.290   2.399   4.589
21805SOL    HW165441   4.302   2.465   4.515
21805SOL    HW265442   4.336   2.433   4.672
21806SOL     OW65443   4.976   3.210   4.112
21806SOL    HW165444   5.026   3.287   4.152
21806SOL    HW265445   4.881   3.212   4.144
21807SOL     OW65446   4.996   3.307   4.866
21807SOL    HW165447   5.043   3.320   4.953
21807SOL    HW265448   4.930   3.233   4.875
21808SOL     OW65449   5.306   2.501   4.196
21808SOL    HW165450   5.275   2.562   4.269
21808SOL    HW265451   5.356   2.553   4.127
21809SOL     OW65452   4.078   3.372   5.053
21809SOL    HW165453   4.057   3.328   4.966
21809SOL    HW265454   4.175   3.398   5.056
21810SOL     OW65455   4.126   2.613   5.322
21810SOL    HW165456   4.194   2.668   5.275
21810SOL    HW265457   4.166   2.525   5.349
21811SOL     OW65458   5.311   2.641   5.394
21811SOL    HW165459   5.219   2.679   5.389
21811SOL    HW265460   5.371   2.688   5.329
21812SOL     OW65461   4.737   1.967   5.494
21812SOL    HW165462   4.743   2.052   5.442
21812SOL    HW265463   4.769   1.891   5.437
21813SOL     OW65464   4.228   1.912   5.464
21813SOL    HW165465   4.186   1.855   5.394
21813SOL    HW265466   4.162   1.981   5.496
21814SOL     OW65467   4.297   2.732   4.753
21814SOL    HW165468   4.341   2.821   4.744
21814SOL    HW265469   4.234   2.732   4.830
21815SOL     OW65470   5.084   2.724   4.769
21815SOL    HW165471   5.009   2.724   4.703
21815SOL    HW265472   5.121   2.632   4.778
21816SOL     OW65473   4.933   2.387   3.999
21816SOL    HW165474   4.946   2.303   4.053
21816SOL    HW265475   4.904   2.461   4.059
21817SOL     OW65476   4.031   2.075   4.955
21817SOL    HW165477   4.008   2.112   5.045
21817SOL    HW265478   4.001   1.980   4.949
21818SOL     OW65479   3.761   3.172   5.006
21818SOL    HW165480   3.814   3.123   5.074
21818SOL    HW265481   3.783   3.270   5.011
21819SOL     OW65482   4.456   2.496   4.788
21819SOL    HW165483   4.515   2.470   4.712
21819SOL    HW265484   4.428   2.592   4.777
21820SOL     OW65485   5.452   2.797   5.578
21820SOL    HW165486   5.406   2.790   5.489
21820SOL    HW265487   5.390   2.841   5.644
21821SOL     OW65488   4.031   1.925   4.342
21821SOL    HW165489   4.020   2.019   4.375
21821SOL    HW265490   4.026   1.862   4.419
21822SOL     OW65491   5.346   2.229   4.098
21822SOL    HW165492   5.348   2.153   4.162
21822SOL    HW265493   5.298   2.306   4.138
21823SOL     OW65494   4.747   2.628   4.690
21823SOL    HW165495   4.762   2.649   4.786
21823SOL    HW265496   4.717   2.533   4.681
21824SOL     OW65497   4.704   3.435   5.424
21824SOL    HW165498   4.684   3.479   5.336
21824SOL    HW265499   4.743   3.344   5.408
21825SOL     OW65500   5.583   3.380   5.329
21825SOL    HW165501   5.597   3.407   5.234
21825SOL    HW265502   5.666   3.402   5.382
21826SOL     OW65503   4.074   2.760   5.528
21826SOL    HW165504   4.150   2.804   5.576
21826SOL    HW265505   4.109   2.713   5.446
21827SOL     OW65506   5.264   2.136   3.849
21827SOL    HW165507   5.203   2.061   3.872
21827SOL    HW265508   5.286   2.188   3.932
21828SOL     OW65509   5.027   2.700   3.766
21828SOL    HW165510   5.061   2.607   3.781
21828SOL    HW265511   5.045   2.727   3.671
21829SOL     OW65512   4.792   3.195   4.573
21829SOL    HW165513   4.799   3.111   4.518
21829SOL    HW265514   4.854   3.264   4.537
21830SOL     OW65515   4.043   2.672   4.673
21830SOL    HW165516   4.136   2.708   4.678
21830SOL    HW265517   4.037   2.587   4.725
21831SOL     OW65518   4.063   2.371   4.730
21831SOL    HW165519   4.011   2.288   4.713
21831SOL    HW265520   4.140   2.376   4.666
21832SOL     OW65521   4.862   2.242   5.402
21832SOL    HW165522   4.817   2.305   5.466
21832SOL    HW265523   4.955   2.273   5.385
21833SOL     OW65524   4.884   2.069   5.201
21833SOL    HW165525   4.884   2.133   5.278
21833SOL    HW265526   4.912   2.117   5.118
21834SOL     OW65527   3.732   3.188   3.924
21834SOL    HW165528   3.639   3.209   3.893
21834SOL    HW265529   3.742   3.089   3.937
21835SOL     OW65530   3.812   3.663   4.651
21835SOL    HW165531   3.770   3.577   4.624
21835SOL    HW265532   3.906   3.666   4.617
21836SOL     OW65533   4.228   3.430   4.634
21836SOL    HW165534   4.294   3.504   4.643
21836SOL    HW265535   4.272   3.351   4.592
21837SOL     OW65536   4.726   2.658   4.962
21837SOL    HW165537   4.767   2.626   5.048
21837SOL    HW265538   4.630   2.631   4.959
21838SOL     OW65539   3.764   2.406   4.838
21838SOL    HW165540   3.849   2.373   4.797
21838SOL    HW265541   3.777   2.421   4.936
21839SOL     OW65542   3.913   2.382   5.446
21839SOL    HW165543   3.972   2.342   5.376
21839SOL    HW265544   3.855   2.453   5.405
21840SOL     OW65545   5.093   2.812   5.384
21840SOL    HW165546   5.132   2.901   5.404
21840SOL    HW265547   5.103   2.792   5.287
21841SOL     OW65548   4.539   2.434   4.049
21841SOL    HW165549   4.546   2.345   4.003
21841SOL    HW265550   4.445   2.468   4.041
21842SOL     OW65551   5.381   2.466   4.930
21842SOL    HW165552   5.343   2.397   4.992
21842SOL    HW265553   5.463   2.430   4.886
21843SOL     OW65554   3.976   3.426   5.468
21843SOL    HW165555   3.946   3.483   5.544
21843SOL    HW265556   3.969   3.329   5.494
21844SOL     OW65557   4.395   2.326   4.993
21844SOL    HW165558   4.361   2.237   4.963
21844SOL    HW265559   4.421   2.380   4.913
21845SOL     OW65560   4.654   3.540   5.189
21845SOL    HW165561   4.630   3.522   5.094
21845SOL    HW265562   4.684   3.634   5.199
21846SOL     OW65563   4.197   2.362   3.915
21846SOL    HW165564   4.258   2.442   3.919
21846SOL    HW265565   4.102   2.393   3.922
21847SOL     OW65566   3.883   2.999   5.190
21847SOL    HW165567   3.905   2.938   5.266
21847SOL    HW265568   3.893   2.950   5.104
21848SOL     OW65569   5.071   2.921   4.958
21848SOL    HW165570   5.095   2.858   4.884
21848SOL    HW265571   4.981   2.961   4.940
21849SOL     OW65572   5.026   2.717   4.033
21849SOL    HW165573   4.940   2.686   4.075
21849SOL    HW265574   5.022   2.703   3.934
21850SOL     OW65575   5.483   3.609   4.878
21850SOL    HW165576   5.544   3.639   4.805
21850SOL    HW265577   5.445   3.520   4.856
21851SOL     OW65578   4.976   3.593   4.852
21851SOL    HW165579   5.060   3.598   4.798
21851SOL    HW265580   4.953   3.497   4.870
21852SOL     OW65581   3.807   3.120   4.746
21852SOL    HW165582   3.802   3.119   4.846
21852SOL    HW265583   3.724   3.079   4.708
21853SOL     OW65584   4.412   3.524   5.440
21853SOL    HW165585   4.356   3.605   5.449
21853SOL    HW265586   4.464   3.528   5.354
21854SOL     OW65587   5.450   1.997   4.247
21854SOL    HW165588   5.523   1.980   4.180
21854SOL    HW265589   5.419   1.910   4.285
21855SOL     OW65590   5.112   3.435   4.201
21855SOL    HW165591   5.179   3.447   4.127
21855SOL    HW265592   5.072   3.524   4.224
21856SOL     OW65593   3.854   3.656   5.575
21856SOL    HW165594   3.813   3.582   5.628
21856SOL    HW265595   3.918   3.707   5.633
21857SOL     OW65596   5.004   2.789   4.396
21857SOL    HW165597   5.064   2.708   4.398
21857SOL    HW265598   5.044   2.858   4.336
21858SOL     OW65599   4.554   3.135   5.146
21858SOL    HW165600   4.549   3.168   5.241
21858SOL    HW265601   4.468   3.154   5.100
21859SOL     OW65602   4.396   3.478   3.878
21859SOL    HW165603   4.405   3.488   3.779
21859SOL    HW265604   4.356   3.389   3.899
21860SOL     OW65605   5.374   3.582   5.118
21860SOL    HW165606   5.427   3.592   5.034
21860SOL    HW265607   5.347   3.672   5.152
21861SOL     OW65608   5.565   2.037   4.687
21861SOL    HW165609   5.604   1.952   4.651
21861SOL    HW265610   5.467   2.039   4.668
21862SOL     OW65611   3.987   2.188   4.444
21862SOL    HW165612   3.908   2.239   4.410
21862SOL    HW265613   3.978   2.173   4.542
21863SOL     OW65614   4.918   3.474   3.755
21863SOL    HW165615   4.924   3.381   3.792
21863SOL    HW265616   4.859   3.474   3.675
21864SOL     OW65617   4.546   2.864   5.096
21864SOL    HW165618   4.586   2.863   5.004
21864SOL    HW265619   4.556   2.956   5.136
21865SOL     OW65620   4.640   2.772   4.015
21865SOL    HW165621   4.703   2.810   3.947
21865SOL    HW265622   4.680   2.689   4.054
21866SOL     OW65623   5.228   3.469   3.768
21866SOL    HW165624   5.136   3.506   3.775
21866SOL    HW265625   5.266   3.489   3.678
21867SOL     OW65626   4.096   3.150   5.214
21867SOL    HW165627   4.083   3.243   5.180
21867SOL    HW265628   4.012   3.098   5.201
21868SOL     OW65629   5.338   3.154   5.013
21868SOL    HW165630   5.398   3.157   5.093
21868SOL    HW265631   5.263   3.218   5.026
21869SOL     OW65632   4.763   2.960   4.420
21869SOL    HW165633   4.693   2.913   4.474
21869SOL    HW265634   4.822   2.892   4.377
21870SOL     OW65635   4.738   2.098   4.695
21870SOL    HW165636   4.730   2.062   4.602
21870SOL    HW265637   4.736   2.022   4.760
21871SOL     OW65638   4.314   3.349   4.215
21871SOL    HW165639   4.356   3.291   4.145
21871SOL    HW265640   4.270   3.428   4.171
21872SOL     OW65641   5.433   2.247   5.105
21872SOL    HW165642   5.506   2.316   5.109
21872SOL    HW265643   5.461   2.172   5.046
21873SOL     OW65644   3.979   3.210   4.014
21873SOL    HW165645   3.883   3.211   3.987
21873SOL    HW265646   3.991   3.263   4.098
21874SOL     OW65647   3.829   2.875   5.450
21874SOL    HW165648   3.752   2.842   5.504
21874SOL    HW265649   3.914   2.845   5.492
21875SOL     OW65650   4.396   2.065   5.213
21875SOL    HW165651   4.486   2.049   5.173
21875SOL    HW265652   4.404   2.070   5.312
21876SOL     OW65653   3.799   2.207   3.757
21876SOL    HW165654   3.707   2.179   3.728
21876SOL    HW265655   3.830   2.284   3.701
21877SOL     OW65656   5.164   2.718   5.122
21877SOL    HW165657   5.107   2.770   5.059
21877SOL    HW265658   5.260   2.730   5.098
21878SOL     OW65659   3.796   2.028   4.042
21878SOL    HW165660   3.779   2.111   3.988
21878SOL    HW265661   3.886   1.991   4.020
21879SOL     OW65662   4.907   3.197   3.843
21879SOL    HW165663   4.808   3.186   3.845
21879SOL    HW265664   4.941   3.212   3.936
21880SOL     OW65665   4.337   2.704   5.155
21880SOL    HW165666   4.393   2.785   5.138
21880SOL    HW265667   4.396   2.624   5.158
21881SOL     OW65668   5.217   3.629   4.683
21881SOL    HW165669   5.250   3.693   4.614
21881SOL    HW265670   5.283   3.623   4.758
21882SOL     OW65671   4.440   2.427   5.432
21882SOL    HW165672   4.459   2.492   5.506
21882SOL    HW265673   4.500   2.347   5.441
21883SOL     OW65674   5.174   3.082   5.357
21883SOL    HW165675   5.165   3.072   5.456
21883SOL    HW265676   5.270   3.075   5.331
21884SOL     OW65677   4.114   3.603   5.284
21884SOL    HW165678   4.023   3.644   5.282
21884SOL    HW265679   4.107   3.509   5.316
21885SOL     OW65680   5.398   2.745   4.978
21885SOL    HW165681   5.371   2.656   4.941
21885SOL    HW265682   5.399   2.813   4.905
21886SOL     OW65683   4.949   2.187   4.173
21886SOL    HW165684   5.014   2.113   4.162
21886SOL    HW265685   4.969   2.237   4.257
21887SOL     OW65686   4.318   2.607   4.376
21887SOL    HW165687   4.368   2.692   4.357
21887SOL    HW265688   4.230   2.609   4.328
21888SOL     OW65689   5.501   2.204   5.366
21888SOL    HW165690   5.484   2.235   5.272
21888SOL    HW265691   5.417   2.167   5.404
21889SOL     OW65692   5.454   2.796   5.241
21889SOL    HW165693   5.492   2.887   5.256
21889SOL    HW265694   5.446   2.779   5.142
21890SOL     OW65695   4.583   3.236   3.740
21890SOL    HW165696   4.537   3.251   3.828
21890SOL    HW265697   4.627   3.321   3.710
21891SOL     OW65698   4.385   3.652   4.677
21891SOL    HW165699   4.339   3.740   4.664
21891SOL    HW265700   4.484   3.664   4.670
21892SOL     OW65701   4.583   2.818   4.585
21892SOL    HW165702   4.637   2.749   4.633
21892SOL    HW265703   4.551   2.887   4.651
21893SOL     OW65704   4.807   2.846   3.811
21893SOL    HW165705   4.784   2.899   3.729
21893SOL    HW265706   4.888   2.790   3.792
21894SOL     OW65707   5.585   3.431   4.575
21894SOL    HW165708   5.514   3.419   4.505
21894SOL    HW265709   5.586   3.352   4.635
21895SOL     OW65710   3.945   3.176   5.568
21895SOL    HW165711   3.880   3.103   5.547
21895SOL    HW265712   3.949   3.190   5.666
21896SOL     OW65713   3.803   3.102   4.377
21896SOL    HW165714   3.802   3.055   4.465
21896SOL    HW265715   3.885   3.074   4.326
21897SOL     OW65716   4.396   3.253   5.348
21897SOL    HW165717   4.318   3.203   5.386
21897SOL    HW265718   4.393   3.348   5.379
21898SOL     OW65719   5.548   2.054   4.951
21898SOL    HW165720   5.544   1.964   4.995
21898SOL    HW265721   5.551   2.043   4.852
21899SOL     OW65722   4.152   2.286   4.244
21899SOL    HW165723   4.182   2.214   4.182
21899SOL    HW265724   4.113   2.246   4.327
21900SOL     OW65725   5.429   3.349   4.828
21900SOL    HW165726   5.336   3.324   4.801
21900SOL    HW265727   5.455   3.299   4.910
21901SOL     OW65728   4.041   2.409   5.004
21901SOL    HW165729   4.079   2.350   5.076
21901SOL    HW265730   4.081   2.383   4.916
21902SOL     OW65731   4.536   3.448   4.411
21902SOL    HW165732   4.568   3.458   4.317
21902SOL    HW265733   4.457   3.386   4.413
21903SOL     OW65734   5.148   2.076   4.836
21903SOL    HW165735   5.200   2.011   4.891
21903SOL    HW265736   5.099   2.139   4.897
21904SOL     OW65737   4.725   1.896   4.878
21904SOL    HW165738   4.662   1.824   4.847
21904SOL    HW265739   4.818   1.860   4.878
21905SOL     OW65740   4.494   3.192   4.025
21905SOL    HW165741   4.448   3.105   4.042
21905SOL    HW265742   4.585   3.189   4.066
21906SOL     OW65743   4.342   3.429   5.008
21906SOL    HW165744   4.337   3.511   5.065
21906SOL    HW265745   4.431   3.426   4.963
21907SOL     OW65746   5.076   1.914   3.892
21907SOL    HW165747   5.111   1.873   3.808
21907SOL    HW265748   4.986   1.876   3.912
21908SOL     OW65749   5.024   2.315   4.415
21908SOL    HW165750   4.965   2.395   4.419
21908SOL    HW265751   5.039   2.280   4.508
21909SOL     OW65752   5.317   2.083   4.606
21909SOL    HW165753   5.233   2.082   4.660
21909SOL    HW265754   5.319   2.166   4.550
21910SOL     OW65755   3.763   2.939   4.024
21910SOL    HW165756   3.862   2.928   4.015
21910SOL    HW265757   3.723   2.853   4.056
21911SOL     OW65758   4.599   3.508   4.061
21911SOL    HW165759   4.522   3.473   4.007
21911SOL    HW265760   4.567   3.579   4.123
21912SOL     OW65761   3.954   2.490   5.699
21912SOL    HW165762   3.861   2.488   5.736
21912SOL    HW265763   3.955   2.451   5.607
21913SOL     OW65764   3.949   2.137   6.582
21913SOL    HW165765   3.984   2.120   6.674
21913SOL    HW265766   3.861   2.092   6.570
21914SOL     OW65767   3.743   2.230   6.233
21914SOL    HW165768   3.661   2.273   6.272
21914SOL    HW265769   3.715   2.157   6.170
21915SOL     OW65770   4.293   3.137   6.751
21915SOL    HW165771   4.200   3.130   6.714
21915SOL    HW265772   4.304   3.226   6.795
21916SOL     OW65773   5.279   3.373   6.289
21916SOL    HW165774   5.222   3.357   6.370
21916SOL    HW265775   5.220   3.383   6.209
21917SOL     OW65776   4.859   2.565   6.303
21917SOL    HW165777   4.916   2.643   6.278
21917SOL    HW265778   4.799   2.591   6.379
21918SOL     OW65779   5.479   2.469   5.817
21918SOL    HW165780   5.467   2.456   5.718
21918SOL    HW265781   5.449   2.388   5.866
21919SOL     OW65782   4.492   3.006   6.609
21919SOL    HW165783   4.414   3.023   6.669
21919SOL    HW265784   4.526   3.093   6.573
21920SOL     OW65785   4.574   2.660   7.409
21920SOL    HW165786   4.570   2.736   7.474
21920SOL    HW265787   4.596   2.696   7.318
21921SOL     OW65788   4.409   2.874   6.251
21921SOL    HW165789   4.478   2.858   6.321
21921SOL    HW265790   4.336   2.931   6.289
21922SOL     OW65791   4.410   3.023   7.389
21922SOL    HW165792   4.470   3.102   7.403
21922SOL    HW265793   4.324   3.054   7.348
21923SOL     OW65794   4.059   3.297   6.647
21923SOL    HW165795   3.981   3.266   6.594
21923SOL    HW265796   4.117   3.355   6.590
21924SOL     OW65797   5.184   3.367   6.925
21924SOL    HW165798   5.208   3.461   6.951
21924SOL    HW265799   5.168   3.313   7.007
21925SOL     OW65800   4.162   2.254   7.085
21925SOL    HW165801   4.244   2.198   7.094
21925SOL    HW265802   4.081   2.196   7.089
21926SOL     OW65803   5.327   2.309   6.323
21926SOL    HW165804   5.253   2.355   6.273
21926SOL    HW265805   5.378   2.377   6.376
21927SOL     OW65806   3.955   3.575   6.069
21927SOL    HW165807   3.989   3.652   6.123
21927SOL    HW265808   3.999   3.575   5.979
21928SOL     OW65809   4.851   3.203   7.276
21928SOL    HW165810   4.898   3.203   7.364
21928SOL    HW265811   4.803   3.116   7.265
21929SOL     OW65812   3.954   3.296   6.124
21929SOL    HW165813   3.928   3.392   6.124
21929SOL    HW265814   3.883   3.242   6.169
21930SOL     OW65815   3.964   2.953   6.472
21930SOL    HW165816   3.978   2.869   6.524
21930SOL    HW265817   3.909   3.017   6.527
21931SOL     OW65818   4.344   3.648   7.025
21931SOL    HW165819   4.252   3.631   7.060
21931SOL    HW265820   4.372   3.740   7.051
21932SOL     OW65821   4.330   2.826   5.709
21932SOL    HW165822   4.337   2.910   5.655
21932SOL    HW265823   4.376   2.839   5.797
21933SOL     OW65824   5.318   1.976   7.066
21933SOL    HW165825   5.300   2.043   6.994
21933SOL    HW265826   5.315   2.022   7.155
21934SOL     OW65827   3.846   2.505   6.149
21934SOL    HW165828   3.801   2.417   6.166
21934SOL    HW265829   3.845   2.559   6.233
21935SOL     OW65830   5.566   3.629   5.945
21935SOL    HW165831   5.620   3.600   6.025
21935SOL    HW265832   5.596   3.719   5.916
21936SOL     OW65833   3.751   3.458   5.703
21936SOL    HW165834   3.732   3.362   5.724
21936SOL    HW265835   3.718   3.516   5.778
21937SOL     OW65836   5.413   2.784   6.198
21937SOL    HW165837   5.508   2.755   6.206
21937SOL    HW265838   5.405   2.849   6.123
21938SOL     OW65839   5.365   2.970   6.018
21938SOL    HW165840   5.451   2.972   5.966
21938SOL    HW265841   5.379   3.017   6.106
21939SOL     OW65842   3.837   2.599   7.183
21939SOL    HW165843   3.925   2.586   7.228
21939SOL    HW265844   3.824   2.696   7.161
21940SOL     OW65845   4.337   3.227   6.312
21940SOL    HW165846   4.288   3.140   6.321
21940SOL    HW265847   4.314   3.270   6.225
21941SOL     OW65848   5.017   3.090   7.009
21941SOL    HW165849   5.054   3.017   6.951
21941SOL    HW265850   5.069   3.095   7.094
21942SOL     OW65851   4.533   1.866   6.088
21942SOL    HW165852   4.573   1.957   6.079
21942SOL    HW265853   4.433   1.874   6.094
21943SOL     OW65854   3.921   2.838   6.850
21943SOL    HW165855   4.010   2.793   6.836
21943SOL    HW265856   3.848   2.773   6.831
21944SOL     OW65857   5.249   2.861   5.776
21944SOL    HW165858   5.186   2.785   5.789
21944SOL    HW265859   5.297   2.879   5.862
21945SOL     OW65860   4.911   3.654   7.202
21945SOL    HW165861   4.935   3.714   7.126
21945SOL    HW265862   4.918   3.559   7.172
21946SOL     OW65863   4.041   2.113   7.387
21946SOL    HW165864   4.112   2.184   7.393
21946SOL    HW265865   3.953   2.152   7.415
21947SOL     OW65866   5.190   3.279   6.539
21947SOL    HW165867   5.131   3.285   6.619
21947SOL    HW265868   5.175   3.191   6.493
21948SOL     OW65869   5.391   3.576   6.158
21948SOL    HW165870   5.350   3.553   6.070
21948SOL    HW265871   5.373   3.502   6.223
21949SOL     OW65872   4.322   2.591   5.856
21949SOL    HW165873   4.346   2.660   5.788
21949SOL    HW265874   4.244   2.624   5.910
21950SOL     OW65875   5.005   2.207   6.530
21950SOL    HW165876   4.919   2.157   6.517
21950SOL    HW265877   5.067   2.153   6.586
21951SOL     OW65878   5.300   3.524   5.893
21951SOL    HW165879   5.389   3.570   5.896
21951SOL    HW265880   5.279   3.500   5.798
21952SOL     OW65881   4.531   2.467   7.051
21952SOL    HW165882   4.484   2.464   7.140
21952SOL    HW265883   4.480   2.412   6.985
21953SOL     OW65884   5.118   2.331   7.260
21953SOL    HW165885   5.098   2.374   7.348
21953SOL    HW265886   5.196   2.269   7.269
21954SOL     OW65887   4.697   2.752   7.158
21954SOL    HW165888   4.743   2.668   7.129
21954SOL    HW265889   4.641   2.786   7.083
21955SOL     OW65890   4.715   2.272   6.828
21955SOL    HW165891   4.638   2.306   6.882
21955SOL    HW265892   4.681   2.221   6.749
21956SOL     OW65893   4.765   2.563   6.015
21956SOL    HW165894   4.791   2.559   6.111
21956SOL    HW265895   4.680   2.512   6.001
21957SOL     OW65896   3.800   2.673   6.375
21957SOL    HW165897   3.899   2.661   6.384
21957SOL    HW265898   3.776   2.768   6.396
21958SOL     OW65899   3.854   3.683   7.157
21958SOL    HW165900   3.844   3.668   7.256
21958SOL    HW265901   3.768   3.719   7.121
21959SOL     OW65902   4.589   2.210   5.781
21959SOL    HW165903   4.648   2.273   5.732
21959SOL    HW265904   4.608   2.116   5.752
21960SOL     OW65905   5.443   2.447   7.417
21960SOL    HW165906   5.417   2.536   7.381
21960SOL    HW265907   5.441   2.379   7.344
21961SOL     OW65908   5.086   3.006   6.131
21961SOL    HW165909   5.169   2.977   6.083
21961SOL    HW265910   5.037   3.073   6.075
21962SOL     OW65911   4.274   2.058   6.471
21962SOL    HW165912   4.269   2.053   6.571
21962SOL    HW265913   4.276   2.154   6.442
21963SOL     OW65914   4.732   3.318   6.063
21963SOL    HW165915   4.686   3.390   6.011
21963SOL    HW265916   4.728   3.338   6.161
21964SOL     OW65917   4.075   3.663   6.439
21964SOL    HW165918   4.125   3.577   6.445
21964SOL    HW265919   4.140   3.740   6.436
21965SOL     OW65920   5.519   2.928   6.459
21965SOL    HW165921   5.457   2.913   6.383
21965SOL    HW265922   5.467   2.939   6.544
21966SOL     OW65923   4.951   3.412   7.092
21966SOL    HW165924   4.957   3.335   7.156
21966SOL    HW265925   4.899   3.386   7.012
21967SOL     OW65926   4.045   2.805   5.828
21967SOL    HW165927   4.127   2.844   5.786
21967SOL    HW265928   4.018   2.723   5.779
21968SOL     OW65929   5.182   2.597   6.314
21968SOL    HW165930   5.177   2.532   6.389
21968SOL    HW265931   5.262   2.656   6.327
21969SOL     OW65932   4.185   3.128   7.313
21969SOL    HW165933   4.135   3.129   7.227
21969SOL    HW265934   4.122   3.110   7.389
21970SOL     OW65935   4.835   3.638   5.823
21970SOL    HW165936   4.775   3.576   5.873
21970SOL    HW265937   4.866   3.594   5.738
21971SOL     OW65938   3.926   2.147   7.084
21971SOL    HW165939   3.846   2.207   7.071
21971SOL    HW265940   3.916   2.098   7.170
21972SOL     OW65941   5.356   3.239   5.667
21972SOL    HW165942   5.324   3.333   5.657
21972SOL    HW265943   5.280   3.176   5.655
21973SOL     OW65944   4.188   3.605   5.909
21973SOL    HW165945   4.221   3.644   5.995
21973SOL    HW265946   4.264   3.598   5.844
21974SOL     OW65947   5.124   1.969   6.012
21974SOL    HW165948   5.100   1.932   5.922
21974SOL    HW265949   5.223   1.985   6.016
21975SOL     OW65950   3.973   3.647   6.827
21975SOL    HW165951   4.030   3.582   6.877
21975SOL    HW265952   3.957   3.614   6.734
21976SOL     OW65953   4.664   3.560   6.490
21976SOL    HW165954   4.744   3.503   6.511
21976SOL    HW265955   4.615   3.520   6.413
21977SOL     OW65956   4.106   2.562   6.066
21977SOL    HW165957   4.151   2.472   6.063
21977SOL    HW265958   4.012   2.551   6.099
21978SOL     OW65959   5.271   2.084   7.315
21978SOL    HW165960   5.266   2.121   7.407
21978SOL    HW265961   5.199   2.015   7.303
21979SOL     OW65962   4.338   1.984   5.703
21979SOL    HW165963   4.436   1.962   5.710
21979SOL    HW265964   4.307   1.967   5.610
21980SOL     OW65965   4.505   2.126   7.335
21980SOL    HW165966   4.572   2.065   7.378
21980SOL    HW265967   4.432   2.145   7.400
21981SOL     OW65968   4.612   3.376   6.781
21981SOL    HW165969   4.589   3.351   6.687
21981SOL    HW265970   4.673   3.307   6.820
21982SOL     OW65971   5.075   2.452   7.019
21982SOL    HW165972   5.103   2.409   7.104
21982SOL    HW265973   5.100   2.548   7.020
21983SOL     OW65974   4.527   3.264   6.510
21983SOL    HW165975   4.617   3.278   6.468
21983SOL    HW265976   4.456   3.266   6.439
21984SOL     OW65977   4.646   2.365   6.485
21984SOL    HW165978   4.621   2.356   6.389
21984SOL    HW265979   4.694   2.283   6.516
21985SOL     OW65980   4.263   1.926   6.098
21985SOL    HW165981   4.182   1.927   6.156
21985SOL    HW265982   4.266   2.009   6.043
21986SOL     OW65983   5.158   3.050   5.627
21986SOL    HW165984   5.190   2.974   5.684
21986SOL    HW265985   5.066   3.077   5.657
21987SOL     OW65986   4.021   1.897   5.757
21987SOL    HW165987   4.070   1.981   5.736
21987SOL    HW265988   4.083   1.832   5.802
21988SOL     OW65989   4.659   2.098   6.066
21988SOL    HW165990   4.611   2.139   5.988
21988SOL    HW265991   4.758   2.096   6.047
21989SOL     OW65992   4.800   2.545   7.050
21989SOL    HW165993   4.720   2.484   7.053
21989SOL    HW265994   4.881   2.492   7.026
21990SOL     OW65995   4.951   3.432   6.379
21990SOL    HW165996   4.972   3.506   6.314
21990SOL    HW265997   5.019   3.432   6.452
21991SOL     OW65998   4.183   3.014   6.327
21991SOL    HW165999   4.112   2.987   6.392
21991SOL    HW266000   4.157   2.986   6.234
21992SOL     OW66001   4.995   3.659   6.177
21992SOL    HW166002   5.039   3.723   6.113
21992SOL    HW266003   4.945   3.711   6.247
21993SOL     OW66004   4.756   2.411   5.602
21993SOL    HW166005   4.715   2.493   5.563
21993SOL    HW266006   4.820   2.437   5.675
21994SOL     OW66007   3.802   2.418   6.972
21994SOL    HW166008   3.894   2.417   6.931
21994SOL    HW266009   3.796   2.492   7.039
21995SOL     OW66010   4.285   2.084   6.733
21995SOL    HW166011   4.323   2.000   6.770
21995SOL    HW266012   4.197   2.103   6.777
21996SOL     OW66013   4.590   2.316   6.228
21996SOL    HW166014   4.558   2.388   6.166
21996SOL    HW266015   4.614   2.235   6.175
21997SOL     OW66016   4.741   1.901   6.339
21997SOL    HW166017   4.669   1.906   6.270
21997SOL    HW266018   4.717   1.832   6.408
21998SOL     OW66019   5.153   3.035   6.453
21998SOL    HW166020   5.098   2.951   6.446
21998SOL    HW266021   5.179   3.064   6.361
21999SOL     OW66022   5.190   2.452   6.578
21999SOL    HW166023   5.160   2.357   6.585
21999SOL    HW266024   5.263   2.468   6.644
22000SOL     OW66025   5.581   2.695   5.963
22000SOL    HW166026   5.623   2.631   6.027
22000SOL    HW266027   5.543   2.644   5.885
22001SOL     OW66028   4.212   3.247   5.760
22001SOL    HW166029   4.125   3.232   5.807
22001SOL    HW266030   4.195   3.273   5.665
22002SOL     OW66031   5.388   3.142   6.243
22002SOL    HW166032   5.487   3.150   6.257
22002SOL    HW266033   5.343   3.226   6.274
22003SOL     OW66034   5.114   2.437   5.664
22003SOL    HW166035   5.060   2.416   5.745
22003SOL    HW266036   5.205   2.396   5.673
22004SOL     OW66037   4.251   2.118   5.914
22004SOL    HW166038   4.278   2.059   5.839
22004SOL    HW266039   4.251   2.213   5.883
22005SOL     OW66040   5.478   3.085   7.174
22005SOL    HW166041   5.569   3.046   7.161
22005SOL    HW266042   5.486   3.181   7.198
22006SOL     OW66043   4.788   3.209   6.926
22006SOL    HW166044   4.708   3.186   6.981
22006SOL    HW266045   4.871   3.183   6.975
22007SOL     OW66046   5.316   3.491   7.211
22007SOL    HW166047   5.343   3.525   7.121
22007SOL    HW266048   5.395   3.453   7.257
22008SOL     OW66049   4.835   3.057   6.686
22008SOL    HW166050   4.795   3.101   6.767
22008SOL    HW266051   4.794   3.094   6.603
22009SOL     OW66052   5.362   2.961   6.665
22009SOL    HW166053   5.367   3.042   6.724
22009SOL    HW266054   5.276   2.963   6.614
22010SOL     OW66055   4.639   1.951   6.988
22010SOL    HW166056   4.664   1.931   6.893
22010SOL    HW266057   4.711   2.007   7.030
22011SOL     OW66058   4.704   2.978   7.305
22011SOL    HW166059   4.605   2.984   7.315
22011SOL    HW266060   4.727   2.898   7.249
22012SOL     OW66061   4.429   2.912   5.954
22012SOL    HW166062   4.415   2.919   6.053
22012SOL    HW266063   4.513   2.861   5.936
22013SOL     OW66064   4.134   2.675   6.837
22013SOL    HW166065   4.220   2.687   6.887
22013SOL    HW266066   4.092   2.588   6.864
22014SOL     OW66067   4.998   2.248   6.848
22014SOL    HW166068   5.019   2.322   6.912
22014SOL    HW266069   4.909   2.265   6.805
22015SOL     OW66070   3.788   3.426   6.917
22015SOL    HW166071   3.742   3.508   6.883
22015SOL    HW266072   3.886   3.445   6.926
22016SOL     OW66073   4.091   2.962   6.087
22016SOL    HW166074   4.084   3.045   6.031
22016SOL    HW266075   4.095   2.882   6.027
22017SOL     OW66076   4.290   2.399   6.451
22017SOL    HW166077   4.302   2.465   6.377
22017SOL    HW266078   4.336   2.433   6.534
22018SOL     OW66079   4.976   3.210   5.974
22018SOL    HW166080   5.026   3.287   6.014
22018SOL    HW266081   4.881   3.212   6.006
22019SOL     OW66082   4.996   3.307   6.728
22019SOL    HW166083   5.043   3.320   6.815
22019SOL    HW266084   4.930   3.233   6.737
22020SOL     OW66085   5.306   2.501   6.058
22020SOL    HW166086   5.275   2.562   6.131
22020SOL    HW266087   5.356   2.553   5.989
22021SOL     OW66088   4.078   3.372   6.915
22021SOL    HW166089   4.057   3.328   6.828
22021SOL    HW266090   4.175   3.398   6.918
22022SOL     OW66091   4.126   2.613   7.184
22022SOL    HW166092   4.194   2.668   7.137
22022SOL    HW266093   4.166   2.525   7.211
22023SOL     OW66094   5.311   2.641   7.256
22023SOL    HW166095   5.219   2.679   7.251
22023SOL    HW266096   5.371   2.688   7.191
22024SOL     OW66097   4.737   1.967   7.356
22024SOL    HW166098   4.743   2.052   7.304
22024SOL    HW266099   4.769   1.891   7.299
22025SOL     OW66100   4.228   1.912   7.326
22025SOL    HW166101   4.186   1.855   7.256
22025SOL    HW266102   4.162   1.981   7.358
22026SOL     OW66103   4.297   2.732   6.615
22026SOL    HW166104   4.341   2.821   6.606
22026SOL    HW266105   4.234   2.732   6.692
22027SOL     OW66106   5.084   2.724   6.631
22027SOL    HW166107   5.009   2.724   6.565
22027SOL    HW266108   5.121   2.632   6.640
22028SOL     OW66109   4.933   2.387   5.861
22028SOL    HW166110   4.946   2.303   5.915
22028SOL    HW266111   4.904   2.461   5.921
22029SOL     OW66112   4.031   2.075   6.817
22029SOL    HW166113   4.008   2.112   6.907
22029SOL    HW266114   4.001   1.980   6.811
22030SOL     OW66115   3.761   3.172   6.868
22030SOL    HW166116   3.814   3.123   6.936
22030SOL    HW266117   3.783   3.270   6.873
22031SOL     OW66118   4.456   2.496   6.650
22031SOL    HW166119   4.515   2.470   6.574
22031SOL    HW266120   4.428   2.592   6.639
22032SOL     OW66121   5.452   2.797   7.440
22032SOL    HW166122   5.406   2.790   7.351
22032SOL    HW266123   5.390   2.841   7.506
22033SOL     OW66124   4.031   1.925   6.204
22033SOL    HW166125   4.020   2.019   6.237
22033SOL    HW266126   4.026   1.862   6.281
22034SOL     OW66127   5.346   2.229   5.960
22034SOL    HW166128   5.348   2.153   6.024
22034SOL    HW266129   5.298   2.306   6.000
22035SOL     OW66130   4.747   2.628   6.552
22035SOL    HW166131   4.762   2.649   6.648
22035SOL    HW266132   4.717   2.533   6.543
22036SOL     OW66133   4.704   3.435   7.286
22036SOL    HW166134   4.684   3.479   7.198
22036SOL    HW266135   4.743   3.344   7.270
22037SOL     OW66136   5.583   3.380   7.191
22037SOL    HW166137   5.597   3.407   7.096
22037SOL    HW266138   5.666   3.402   7.244
22038SOL     OW66139   4.074   2.760   7.390
22038SOL    HW166140   4.150   2.804   7.438
22038SOL    HW266141   4.109   2.713   7.308
22039SOL     OW66142   5.264   2.136   5.711
22039SOL    HW166143   5.203   2.061   5.734
22039SOL    HW266144   5.286   2.188   5.794
22040SOL     OW66145   5.027   2.700   5.628
22040SOL    HW166146   5.061   2.607   5.643
22040SOL    HW266147   5.045   2.727   5.533
22041SOL     OW66148   4.792   3.195   6.435
22041SOL    HW166149   4.799   3.111   6.380
22041SOL    HW266150   4.854   3.264   6.399
22042SOL     OW66151   4.043   2.672   6.535
22042SOL    HW166152   4.136   2.708   6.540
22042SOL    HW266153   4.037   2.587   6.587
22043SOL     OW66154   4.063   2.371   6.592
22043SOL    HW166155   4.011   2.288   6.575
22043SOL    HW266156   4.140   2.376   6.528
22044SOL     OW66157   4.862   2.242   7.264
22044SOL    HW166158   4.817   2.305   7.328
22044SOL    HW266159   4.955   2.273   7.247
22045SOL     OW66160   4.884   2.069   7.063
22045SOL    HW166161   4.884   2.133   7.140
22045SOL    HW266162   4.912   2.117   6.980
22046SOL     OW66163   3.732   3.188   5.786
22046SOL    HW166164   3.639   3.209   5.755
22046SOL    HW266165   3.742   3.089   5.799
22047SOL     OW66166   3.812   3.663   6.513
22047SOL    HW166167   3.770   3.577   6.486
22047SOL    HW266168   3.906   3.666   6.479
22048SOL     OW66169   4.228   3.430   6.496
22048SOL    HW166170   4.294   3.504   6.505
22048SOL    HW266171   4.272   3.351   6.454
22049SOL     OW66172   4.726   2.658   6.824
22049SOL    HW166173   4.767   2.626   6.910
22049SOL    HW266174   4.630   2.631   6.821
22050SOL     OW66175   3.764   2.406   6.700
22050SOL    HW166176   3.849   2.373   6.659
22050SOL    HW266177   3.777   2.421   6.798
22051SOL     OW66178   3.913   2.382   7.308
22051SOL    HW166179   3.972   2.342   7.238
22051SOL    HW266180   3.855   2.453   7.267
22052SOL     OW66181   5.093   2.812   7.246
22052SOL    HW166182   5.132   2.901   7.266
22052SOL    HW266183   5.103   2.792   7.149
22053SOL     OW66184   4.539   2.434   5.911
22053SOL    HW166185   4.546   2.345   5.865
22053SOL    HW266186   4.445   2.468   5.903
22054SOL     OW66187   5.381   2.466   6.792
22054SOL    HW166188   5.343   2.397   6.854
22054SOL    HW266189   5.463   2.430   6.748
22055SOL     OW66190   3.976   3.426   7.330
22055SOL    HW166191   3.946   3.483   7.406
22055SOL    HW266192   3.969   3.329   7.356
22056SOL     OW66193   4.395   2.326   6.855
22056SOL    HW166194   4.361   2.237   6.825
22056SOL    HW266195   4.421   2.380   6.775
22057SOL     OW66196   4.654   3.540   7.051
22057SOL    HW166197   4.630   3.522   6.956
22057SOL    HW266198   4.684   3.634   7.061
22058SOL     OW66199   4.197   2.362   5.777
22058SOL    HW166200   4.258   2.442   5.781
22058SOL    HW266201   4.102   2.393   5.784
22059SOL     OW66202   3.883   2.999   7.052
22059SOL    HW166203   3.905   2.938   7.128
22059SOL    HW266204   3.893   2.950   6.966
22060SOL     OW66205   5.071   2.921   6.820
22060SOL    HW166206   5.095   2.858   6.746
22060SOL    HW266207   4.981   2.961   6.802
22061SOL     OW66208   5.026   2.717   5.895
22061SOL    HW166209   4.940   2.686   5.937
22061SOL    HW266210   5.022   2.703   5.796
22062SOL     OW66211   5.483   3.609   6.740
22062SOL    HW166212   5.544   3.639   6.667
22062SOL    HW266213   5.445   3.520   6.718
22063SOL     OW66214   4.976   3.593   6.714
22063SOL    HW166215   5.060   3.598   6.660
22063SOL    HW266216   4.953   3.497   6.732
22064SOL     OW66217   3.807   3.120   6.608
22064SOL    HW166218   3.802   3.119   6.708
22064SOL    HW266219   3.724   3.079   6.570
22065SOL     OW66220   4.412   3.524   7.302
22065SOL    HW166221   4.356   3.605   7.311
22065SOL    HW266222   4.464   3.528   7.216
22066SOL     OW66223   5.450   1.997   6.109
22066SOL    HW166224   5.523   1.980   6.042
22066SOL    HW266225   5.419   1.910   6.147
22067SOL     OW66226   5.112   3.435   6.063
22067SOL    HW166227   5.179   3.447   5.989
22067SOL    HW266228   5.072   3.524   6.086
22068SOL     OW66229   3.854   3.656   7.437
22068SOL    HW166230   3.813   3.582   7.490
22068SOL    HW266231   3.918   3.707   7.495
22069SOL     OW66232   5.004   2.789   6.258
22069SOL    HW166233   5.064   2.708   6.260
22069SOL    HW266234   5.044   2.858   6.198
22070SOL     OW66235   4.554   3.135   7.008
22070SOL    HW166236   4.549   3.168   7.103
22070SOL    HW266237   4.468   3.154   6.962
22071SOL     OW66238   4.396   3.478   5.740
22071SOL    HW166239   4.405   3.488   5.641
22071SOL    HW266240   4.356   3.389   5.761
22072SOL     OW66241   5.374   3.582   6.980
22072SOL    HW166242   5.427   3.592   6.896
22072SOL    HW266243   5.347   3.672   7.014
22073SOL     OW66244   5.565   2.037   6.549
22073SOL    HW166245   5.604   1.952   6.513
22073SOL    HW266246   5.467   2.039   6.530
22074SOL     OW66247   3.987   2.188   6.306
22074SOL    HW166248   3.908   2.239   6.272
22074SOL    HW266249   3.978   2.173   6.404
22075SOL     OW66250   4.918   3.474   5.617
22075SOL    HW166251   4.924   3.381   5.654
22075SOL    HW266252   4.859   3.474   5.537
22076SOL     OW66253   4.546   2.864   6.958
22076SOL    HW166254   4.586   2.863   6.866
22076SOL    HW266255   4.556   2.956   6.998
22077SOL     OW66256   4.640   2.772   5.877
22077SOL    HW166257   4.703   2.810   5.809
22077SOL    HW266258   4.680   2.689   5.916
22078SOL     OW66259   5.228   3.469   5.630
22078SOL    HW166260   5.136   3.506   5.637
22078SOL    HW266261   5.266   3.489   5.540
22079SOL     OW66262   4.096   3.150   7.076
22079SOL    HW166263   4.083   3.243   7.042
22079SOL    HW266264   4.012   3.098   7.063
22080SOL     OW66265   5.338   3.154   6.875
22080SOL    HW166266   5.398   3.157   6.955
22080SOL    HW266267   5.263   3.218   6.888
22081SOL     OW66268   4.763   2.960   6.282
22081SOL    HW166269   4.693   2.913   6.336
22081SOL    HW266270   4.822   2.892   6.239
22082SOL     OW66271   4.738   2.098   6.557
22082SOL    HW166272   4.730   2.062   6.464
22082SOL    HW266273   4.736   2.022   6.622
22083SOL     OW66274   4.314   3.349   6.077
22083SOL    HW166275   4.356   3.291   6.007
22083SOL    HW266276   4.270   3.428   6.033
22084SOL     OW66277   5.433   2.247   6.967
22084SOL    HW166278   5.506   2.316   6.971
22084SOL    HW266279   5.461   2.172   6.908
22085SOL     OW66280   3.979   3.210   5.876
22085SOL    HW166281   3.883   3.211   5.849
22085SOL    HW266282   3.991   3.263   5.960
22086SOL     OW66283   3.829   2.875   7.312
22086SOL    HW166284   3.752   2.842   7.366
22086SOL    HW266285   3.914   2.845   7.354
22087SOL     OW66286   4.396   2.065   7.075
22087SOL    HW166287   4.486   2.049   7.035
22087SOL    HW266288   4.404   2.070   7.174
22088SOL     OW66289   3.799   2.207   5.619
22088SOL    HW166290   3.707   2.179   5.590
22088SOL    HW266291   3.830   2.284   5.563
22089SOL     OW66292   5.164   2.718   6.984
22089SOL    HW166293   5.107   2.770   6.921
22089SOL    HW266294   5.260   2.730   6.960
22090SOL     OW66295   3.796   2.028   5.904
22090SOL    HW166296   3.779   2.111   5.850
22090SOL    HW266297   3.886   1.991   5.882
22091SOL     OW66298   4.907   3.197   5.705
22091SOL    HW166299   4.808   3.186   5.707
22091SOL    HW266300   4.941   3.212   5.798
22092SOL     OW66301   4.337   2.704   7.017
22092SOL    HW166302   4.393   2.785   7.000
22092SOL    HW266303   4.396   2.624   7.020
22093SOL     OW66304   5.217   3.629   6.545
22093SOL    HW166305   5.250   3.693   6.476
22093SOL    HW266306   5.283   3.623   6.620
22094SOL     OW66307   4.440   2.427   7.294
22094SOL    HW166308   4.459   2.492   7.368
22094SOL    HW266309   4.500   2.347   7.303
22095SOL     OW66310   5.174   3.082   7.219
22095SOL    HW166311   5.165   3.072   7.318
22095SOL    HW266312   5.270   3.075   7.193
22096SOL     OW66313   4.114   3.603   7.146
22096SOL    HW166314   4.023   3.644   7.144
22096SOL    HW266315   4.107   3.509   7.178
22097SOL     OW66316   5.398   2.745   6.840
22097SOL    HW166317   5.371   2.656   6.803
22097SOL    HW266318   5.399   2.813   6.767
22098SOL     OW66319   4.949   2.187   6.035
22098SOL    HW166320   5.014   2.113   6.024
22098SOL    HW266321   4.969   2.237   6.119
22099SOL     OW66322   4.318   2.607   6.238
22099SOL    HW166323   4.368   2.692   6.219
22099SOL    HW266324   4.230   2.609   6.190
22100SOL     OW66325   5.501   2.204   7.228
22100SOL    HW166326   5.484   2.235   7.134
22100SOL    HW266327   5.417   2.167   7.266
22101SOL     OW66328   5.454   2.796   7.103
22101SOL    HW166329   5.492   2.887   7.118
22101SOL    HW266330   5.446   2.779   7.004
22102SOL     OW66331   4.583   3.236   5.602
22102SOL    HW166332   4.537   3.251   5.690
22102SOL    HW266333   4.627   3.321   5.572
22103SOL     OW66334   4.385   3.652   6.539
22103SOL    HW166335   4.339   3.740   6.526
22103SOL    HW266336   4.484   3.664   6.532
22104SOL     OW66337   4.583   2.818   6.447
22104SOL    HW166338   4.637   2.749   6.495
22104SOL    HW266339   4.551   2.887   6.513
22105SOL     OW66340   4.807   2.846   5.673
22105SOL    HW166341   4.784   2.899   5.591
22105SOL    HW266342   4.888   2.790   5.654
22106SOL     OW66343   5.585   3.431   6.437
22106SOL    HW166344   5.514   3.419   6.367
22106SOL    HW266345   5.586   3.352   6.497
22107SOL     OW66346   3.945   3.176   7.430
22107SOL    HW166347   3.880   3.103   7.409
22107SOL    HW266348   3.949   3.190   7.528
22108SOL     OW66349   3.803   3.102   6.239
22108SOL    HW166350   3.802   3.055   6.327
22108SOL    HW266351   3.885   3.074   6.188
22109SOL     OW66352   4.396   3.253   7.210
22109SOL    HW166353   4.318   3.203   7.248
22109SOL    HW266354   4.393   3.348   7.241
22110SOL     OW66355   5.548   2.054   6.813
22110SOL    HW166356   5.544   1.964   6.857
22110SOL    HW266357   5.551   2.043   6.714
22111SOL     OW66358   4.152   2.286   6.106
22111SOL    HW166359   4.182   2.214   6.044
22111SOL    HW266360   4.113   2.246   6.189
22112SOL     OW66361   5.429   3.349   6.690
22112SOL    HW166362   5.336   3.324   6.663
22112SOL    HW266363   5.455   3.299   6.772
22113SOL     OW66364   4.041   2.409   6.866
22113SOL    HW166365   4.079   2.350   6.938
22113SOL    HW266366   4.081   2.383   6.778
22114SOL     OW66367   4.536   3.448   6.273
22114SOL    HW166368   4.568   3.458   6.179
22114SOL    HW266369   4.457   3.386   6.275
22115SOL     OW66370   5.148   2.076   6.698
22115SOL    HW166371   5.200   2.011   6.753
22115SOL    HW266372   5.099   2.139   6.759
22116SOL     OW66373   4.725   1.896   6.740
22116SOL    HW166374   4.662   1.824   6.709
22116SOL    HW266375   4.818   1.860   6.740
22117SOL     OW66376   4.494   3.192   5.887
22117SOL    HW166377   4.448   3.105   5.904
22117SOL    HW266378   4.585   3.189   5.928
22118SOL     OW66379   4.342   3.429   6.870
22118SOL    HW166380   4.337   3.511   6.927
22118SOL    HW266381   4.431   3.426   6.825
22119SOL     OW66382   5.076   1.914   5.754
22119SOL    HW166383   5.111   1.873   5.670
22119SOL    HW266384   4.986   1.876   5.774
22120SOL     OW66385   5.024   2.315   6.277
22120SOL    HW166386   4.965   2.395   6.281
22120SOL    HW266387   5.039   2.280   6.370
22121SOL     OW66388   5.317   2.083   6.468
22121SOL    HW166389   5.233   2.082   6.522
22121SOL    HW266390   5.319   2.166   6.412
22122SOL     OW66391   3.763   2.939   5.886
22122SOL    HW166392   3.862   2.928   5.877
22122SOL    HW266393   3.723   2.853   5.918
22123SOL     OW66394   4.599   3.508   5.923
22123SOL    HW166395   4.522   3.473   5.869
22123SOL    HW266396   4.567   3.579   5.985
22124SOL     OW66397   3.954   2.490   7.561
22124SOL    HW166398   3.861   2.488   7.598
22124SOL    HW266399   3.955   2.451   7.469
22125SOL     OW66400   3.949   2.137   8.444
22125SOL    HW166401   3.984   2.120   8.536
22125SOL    HW266402   3.861   2.092   8.432
22126SOL     OW66403   3.743   2.230   8.095
22126SOL    HW166404   3.661   2.273   8.134
22126SOL    HW266405   3.715   2.157   8.032
22127SOL     OW66406   4.293   3.137   8.613
22127SOL    HW166407   4.200   3.130   8.576
22127SOL    HW266408   4.304   3.226   8.657
22128SOL     OW66409   5.279   3.373   8.151
22128SOL    HW166410   5.222   3.357   8.232
22128SOL    HW266411   5.220   3.383   8.071
22129SOL     OW66412   4.859   2.565   8.165
22129SOL    HW166413   4.916   2.643   8.140
22129SOL    HW266414   4.799   2.591   8.241
22130SOL     OW66415   5.479   2.469   7.679
22130SOL    HW166416   5.467   2.456   7.580
22130SOL    HW266417   5.449   2.388   7.728
22131SOL     OW66418   4.492   3.006   8.471
22131SOL    HW166419   4.414   3.023   8.531
22131SOL    HW266420   4.526   3.093   8.435
22132SOL     OW66421   4.574   2.660   9.271
22132SOL    HW166422   4.570   2.736   9.336
22132SOL    HW266423   4.596   2.696   9.180
22133SOL     OW66424   4.409   2.874   8.113
22133SOL    HW166425   4.478   2.858   8.183
22133SOL    HW266426   4.336   2.931   8.151
22134SOL     OW66427   4.410   3.023   9.251
22134SOL    HW166428   4.470   3.102   9.265
22134SOL    HW266429   4.324   3.054   9.210
22135SOL     OW66430   4.059   3.297   8.509
22135SOL    HW166431   3.981   3.266   8.456
22135SOL    HW266432   4.117   3.355   8.452
22136SOL     OW66433   5.184   3.367   8.787
22136SOL    HW166434   5.208   3.461   8.813
22136SOL    HW266435   5.168   3.313   8.869
22137SOL     OW66436   4.162   2.254   8.947
22137SOL    HW166437   4.244   2.198   8.956
22137SOL    HW266438   4.081   2.196   8.951
22138SOL     OW66439   5.327   2.309   8.185
22138SOL    HW166440   5.253   2.355   8.135
22138SOL    HW266441   5.378   2.377   8.238
22139SOL     OW66442   3.955   3.575   7.931
22139SOL    HW166443   3.989   3.652   7.985
22139SOL    HW266444   3.999   3.575   7.841
22140SOL     OW66445   4.851   3.203   9.138
22140SOL    HW166446   4.898   3.203   9.226
22140SOL    HW266447   4.803   3.116   9.127
22141SOL     OW66448   3.954   3.296   7.986
22141SOL    HW166449   3.928   3.392   7.986
22141SOL    HW266450   3.883   3.242   8.031
22142SOL     OW66451   3.964   2.953   8.334
22142SOL    HW166452   3.978   2.869   8.386
22142SOL    HW266453   3.909   3.017   8.389
22143SOL     OW66454   4.344   3.648   8.887
22143SOL    HW166455   4.252   3.631   8.922
22143SOL    HW266456   4.372   3.740   8.913
22144SOL     OW66457   4.330   2.826   7.571
22144SOL    HW166458   4.337   2.910   7.517
22144SOL    HW266459   4.376   2.839   7.659
22145SOL     OW66460   5.318   1.976   8.928
22145SOL    HW166461   5.300   2.043   8.856
22145SOL    HW266462   5.315   2.022   9.017
22146SOL     OW66463   3.846   2.505   8.011
22146SOL    HW166464   3.801   2.417   8.028
22146SOL    HW266465   3.845   2.559   8.095
22147SOL     OW66466   5.566   3.629   7.807
22147SOL    HW166467   5.620   3.600   7.887
22147SOL    HW266468   5.596   3.719   7.778
22148SOL     OW66469   3.751   3.458   7.565
22148SOL    HW166470   3.732   3.362   7.586
22148SOL    HW266471   3.718   3.516   7.640
22149SOL     OW66472   5.413   2.784   8.060
22149SOL    HW166473   5.508   2.755   8.068
22149SOL    HW266474   5.405   2.849   7.985
22150SOL     OW66475   5.365   2.970   7.880
22150SOL    HW166476   5.451   2.972   7.828
22150SOL    HW266477   5.379   3.017   7.968
22151SOL     OW66478   3.837   2.599   9.045
22151SOL    HW166479   3.925   2.586   9.090
22151SOL    HW266480   3.824   2.696   9.023
22152SOL     OW66481   4.337   3.227   8.174
22152SOL    HW166482   4.288   3.140   8.183
22152SOL    HW266483   4.314   3.270   8.087
22153SOL     OW66484   5.017   3.090   8.871
22153SOL    HW166485   5.054   3.017   8.813
22153SOL    HW266486   5.069   3.095   8.956
22154SOL     OW66487   4.533   1.866   7.950
22154SOL    HW166488   4.573   1.957   7.941
22154SOL    HW266489   4.433   1.874   7.956
22155SOL     OW66490   3.921   2.838   8.712
22155SOL    HW166491   4.010   2.793   8.698
22155SOL    HW266492   3.848   2.773   8.693
22156SOL     OW66493   5.249   2.861   7.638
22156SOL    HW166494   5.186   2.785   7.651
22156SOL    HW266495   5.297   2.879   7.724
22157SOL     OW66496   4.911   3.654   9.064
22157SOL    HW166497   4.935   3.714   8.988
22157SOL    HW266498   4.918   3.559   9.034
22158SOL     OW66499   4.041   2.113   9.249
22158SOL    HW166500   4.112   2.184   9.255
22158SOL    HW266501   3.953   2.152   9.277
22159SOL     OW66502   5.190   3.279   8.401
22159SOL    HW166503   5.131   3.285   8.481
22159SOL    HW266504   5.175   3.191   8.355
22160SOL     OW66505   5.391   3.576   8.020
22160SOL    HW166506   5.350   3.553   7.932
22160SOL    HW266507   5.373   3.502   8.085
22161SOL     OW66508   4.322   2.591   7.718
22161SOL    HW166509   4.346   2.660   7.650
22161SOL    HW266510   4.244   2.624   7.772
22162SOL     OW66511   5.005   2.207   8.392
22162SOL    HW166512   4.919   2.157   8.379
22162SOL    HW266513   5.067   2.153   8.448
22163SOL     OW66514   5.300   3.524   7.755
22163SOL    HW166515   5.389   3.570   7.758
22163SOL    HW266516   5.279   3.500   7.660
22164SOL     OW66517   4.531   2.467   8.913
22164SOL    HW166518   4.484   2.464   9.002
22164SOL    HW266519   4.480   2.412   8.847
22165SOL     OW66520   5.118   2.331   9.122
22165SOL    HW166521   5.098   2.374   9.210
22165SOL    HW266522   5.196   2.269   9.131
22166SOL     OW66523   4.697   2.752   9.020
22166SOL    HW166524   4.743   2.668   8.991
22166SOL    HW266525   4.641   2.786   8.945
22167SOL     OW66526   4.715   2.272   8.690
22167SOL    HW166527   4.638   2.306   8.744
22167SOL    HW266528   4.681   2.221   8.611
22168SOL     OW66529   4.765   2.563   7.877
22168SOL    HW166530   4.791   2.559   7.973
22168SOL    HW266531   4.680   2.512   7.863
22169SOL     OW66532   3.800   2.673   8.237
22169SOL    HW166533   3.899   2.661   8.246
22169SOL    HW266534   3.776   2.768   8.258
22170SOL     OW66535   3.854   3.683   9.019
22170SOL    HW166536   3.844   3.668   9.118
22170SOL    HW266537   3.768   3.719   8.983
22171SOL     OW66538   4.589   2.210   7.643
22171SOL    HW166539   4.648   2.273   7.594
22171SOL    HW266540   4.608   2.116   7.614
22172SOL     OW66541   5.443   2.447   9.279
22172SOL    HW166542   5.417   2.536   9.243
22172SOL    HW266543   5.441   2.379   9.206
22173SOL     OW66544   5.086   3.006   7.993
22173SOL    HW166545   5.169   2.977   7.945
22173SOL    HW266546   5.037   3.073   7.937
22174SOL     OW66547   4.274   2.058   8.333
22174SOL    HW166548   4.269   2.053   8.433
22174SOL    HW266549   4.276   2.154   8.304
22175SOL     OW66550   4.732   3.318   7.925
22175SOL    HW166551   4.686   3.390   7.873
22175SOL    HW266552   4.728   3.338   8.023
22176SOL     OW66553   4.075   3.663   8.301
22176SOL    HW166554   4.125   3.577   8.307
22176SOL    HW266555   4.140   3.740   8.298
22177SOL     OW66556   5.519   2.928   8.321
22177SOL    HW166557   5.457   2.913   8.245
22177SOL    HW266558   5.467   2.939   8.406
22178SOL     OW66559   4.951   3.412   8.954
22178SOL    HW166560   4.957   3.335   9.018
22178SOL    HW266561   4.899   3.386   8.874
22179SOL     OW66562   4.045   2.805   7.690
22179SOL    HW166563   4.127   2.844   7.648
22179SOL    HW266564   4.018   2.723   7.641
22180SOL     OW66565   5.182   2.597   8.176
22180SOL    HW166566   5.177   2.532   8.251
22180SOL    HW266567   5.262   2.656   8.189
22181SOL     OW66568   4.185   3.128   9.175
22181SOL    HW166569   4.135   3.129   9.089
22181SOL    HW266570   4.122   3.110   9.251
22182SOL     OW66571   4.835   3.638   7.685
22182SOL    HW166572   4.775   3.576   7.735
22182SOL    HW266573   4.866   3.594   7.600
22183SOL     OW66574   3.926   2.147   8.946
22183SOL    HW166575   3.846   2.207   8.933
22183SOL    HW266576   3.916   2.098   9.032
22184SOL     OW66577   5.356   3.239   7.529
22184SOL    HW166578   5.324   3.333   7.519
22184SOL    HW266579   5.280   3.176   7.517
22185SOL     OW66580   4.188   3.605   7.771
22185SOL    HW166581   4.221   3.644   7.857
22185SOL    HW266582   4.264   3.598   7.706
22186SOL     OW66583   5.124   1.969   7.874
22186SOL    HW166584   5.100   1.932   7.784
22186SOL    HW266585   5.223   1.985   7.878
22187SOL     OW66586   3.973   3.647   8.689
22187SOL    HW166587   4.030   3.582   8.739
22187SOL    HW266588   3.957   3.614   8.596
22188SOL     OW66589   4.664   3.560   8.352
22188SOL    HW166590   4.744   3.503   8.373
22188SOL    HW266591   4.615   3.520   8.275
22189SOL     OW66592   4.106   2.562   7.928
22189SOL    HW166593   4.151   2.472   7.925
22189SOL    HW266594   4.012   2.551   7.961
22190SOL     OW66595   5.271   2.084   9.177
22190SOL    HW166596   5.266   2.121   9.269
22190SOL    HW266597   5.199   2.015   9.165
22191SOL     OW66598   4.338   1.984   7.565
22191SOL    HW166599   4.436   1.962   7.572
22191SOL    HW266600   4.307   1.967   7.472
22192SOL     OW66601   4.505   2.126   9.197
22192SOL    HW166602   4.572   2.065   9.240
22192SOL    HW266603   4.432   2.145   9.262
22193SOL     OW66604   4.612   3.376   8.643
22193SOL    HW166605   4.589   3.351   8.549
22193SOL    HW266606   4.673   3.307   8.682
22194SOL     OW66607   5.075   2.452   8.881
22194SOL    HW166608   5.103   2.409   8.966
22194SOL    HW266609   5.100   2.548   8.882
22195SOL     OW66610   4.527   3.264   8.372
22195SOL    HW166611   4.617   3.278   8.330
22195SOL    HW266612   4.456   3.266   8.301
22196SOL     OW66613   4.646   2.365   8.347
22196SOL    HW166614   4.621   2.356   8.251
22196SOL    HW266615   4.694   2.283   8.378
22197SOL     OW66616   4.263   1.926   7.960
22197SOL    HW166617   4.182   1.927   8.018
22197SOL    HW266618   4.266   2.009   7.905
22198SOL     OW66619   5.158   3.050   7.489
22198SOL    HW166620   5.190   2.974   7.546
22198SOL    HW266621   5.066   3.077   7.519
22199SOL     OW66622   4.021   1.897   7.619
22199SOL    HW166623   4.070   1.981   7.598
22199SOL    HW266624   4.083   1.832   7.664
22200SOL     OW66625   4.659   2.098   7.928
22200SOL    HW166626   4.611   2.139   7.850
22200SOL    HW266627   4.758   2.096   7.909
22201SOL     OW66628   4.800   2.545   8.912
22201SOL    HW166629   4.720   2.484   8.915
22201SOL    HW266630   4.881   2.492   8.888
22202SOL     OW66631   4.951   3.432   8.241
22202SOL    HW166632   4.972   3.506   8.176
22202SOL    HW266633   5.019   3.432   8.314
22203SOL     OW66634   4.183   3.014   8.189
22203SOL    HW166635   4.112   2.987   8.254
22203SOL    HW266636   4.157   2.986   8.096
22204SOL     OW66637   4.995   3.659   8.039
22204SOL    HW166638   5.039   3.723   7.975
22204SOL    HW266639   4.945   3.711   8.109
22205SOL     OW66640   4.756   2.411   7.464
22205SOL    HW166641   4.715   2.493   7.425
22205SOL    HW266642   4.820   2.437   7.537
22206SOL     OW66643   3.802   2.418   8.834
22206SOL    HW166644   3.894   2.417   8.793
22206SOL    HW266645   3.796   2.492   8.901
22207SOL     OW66646   4.285   2.084   8.595
22207SOL    HW166647   4.323   2.000   8.632
22207SOL    HW266648   4.197   2.103   8.639
22208SOL     OW66649   4.590   2.316   8.090
22208SOL    HW166650   4.558   2.388   8.028
22208SOL    HW266651   4.614   2.235   8.037
22209SOL     OW66652   4.741   1.901   8.201
22209SOL    HW166653   4.669   1.906   8.132
22209SOL    HW266654   4.717   1.832   8.270
22210SOL     OW66655   5.153   3.035   8.315
22210SOL    HW166656   5.098   2.951   8.308
22210SOL    HW266657   5.179   3.064   8.223
22211SOL     OW66658   5.190   2.452   8.440
22211SOL    HW166659   5.160   2.357   8.447
22211SOL    HW266660   5.263   2.468   8.506
22212SOL     OW66661   5.581   2.695   7.825
22212SOL    HW166662   5.623   2.631   7.889
22212SOL    HW266663   5.543   2.644   7.747
22213SOL     OW66664   4.212   3.247   7.622
22213SOL    HW166665   4.125   3.232   7.669
22213SOL    HW266666   4.195   3.273   7.527
22214SOL     OW66667   5.388   3.142   8.105
22214SOL    HW166668   5.487   3.150   8.119
22214SOL    HW266669   5.343   3.226   8.136
22215SOL     OW66670   5.114   2.437   7.526
22215SOL    HW166671   5.060   2.416   7.607
22215SOL    HW266672   5.205   2.396   7.535
22216SOL     OW66673   4.251   2.118   7.776
22216SOL    HW166674   4.278   2.059   7.701
22216SOL    HW266675   4.251   2.213   7.745
22217SOL     OW66676   5.478   3.085   9.036
22217SOL    HW166677   5.569   3.046   9.023
22217SOL    HW266678   5.486   3.181   9.060
22218SOL     OW66679   4.788   3.209   8.788
22218SOL    HW166680   4.708   3.186   8.843
22218SOL    HW266681   4.871   3.183   8.837
22219SOL     OW66682   5.316   3.491   9.073
22219SOL    HW166683   5.343   3.525   8.983
22219SOL    HW266684   5.395   3.453   9.119
22220SOL     OW66685   4.835   3.057   8.548
22220SOL    HW166686   4.795   3.101   8.629
22220SOL    HW266687   4.794   3.094   8.465
22221SOL     OW66688   5.362   2.961   8.527
22221SOL    HW166689   5.367   3.042   8.586
22221SOL    HW266690   5.276   2.963   8.476
22222SOL     OW66691   4.639   1.951   8.850
22222SOL    HW166692   4.664   1.931   8.755
22222SOL    HW266693   4.711   2.007   8.892
22223SOL     OW66694   4.704   2.978   9.167
22223SOL    HW166695   4.605   2.984   9.177
22223SOL    HW266696   4.727   2.898   9.111
22224SOL     OW66697   4.429   2.912   7.816
22224SOL    HW166698   4.415   2.919   7.915
22224SOL    HW266699   4.513   2.861   7.798
22225SOL     OW66700   4.134   2.675   8.699
22225SOL    HW166701   4.220   2.687   8.749
22225SOL    HW266702   4.092   2.588   8.726
22226SOL     OW66703   4.998   2.248   8.710
22226SOL    HW166704   5.019   2.322   8.774
22226SOL    HW266705   4.909   2.265   8.667
22227SOL     OW66706   3.788   3.426   8.779
22227SOL    HW166707   3.742   3.508   8.745
22227SOL    HW266708   3.886   3.445   8.788
22228SOL     OW66709   4.091   2.962   7.949
22228SOL    HW166710   4.084   3.045   7.893
22228SOL    HW266711   4.095   2.882   7.889
22229SOL     OW66712   4.290   2.399   8.313
22229SOL    HW166713   4.302   2.465   8.239
22229SOL    HW266714   4.336   2.433   8.396
22230SOL     OW66715   4.976   3.210   7.836
22230SOL    HW166716   5.026   3.287   7.876
22230SOL    HW266717   4.881   3.212   7.868
22231SOL     OW66718   4.996   3.307   8.590
22231SOL    HW166719   5.043   3.320   8.677
22231SOL    HW266720   4.930   3.233   8.599
22232SOL     OW66721   5.306   2.501   7.920
22232SOL    HW166722   5.275   2.562   7.993
22232SOL    HW266723   5.356   2.553   7.851
22233SOL     OW66724   4.078   3.372   8.777
22233SOL    HW166725   4.057   3.328   8.690
22233SOL    HW266726   4.175   3.398   8.780
22234SOL     OW66727   4.126   2.613   9.046
22234SOL    HW166728   4.194   2.668   8.999
22234SOL    HW266729   4.166   2.525   9.073
22235SOL     OW66730   5.311   2.641   9.118
22235SOL    HW166731   5.219   2.679   9.113
22235SOL    HW266732   5.371   2.688   9.053
22236SOL     OW66733   4.737   1.967   9.218
22236SOL    HW166734   4.743   2.052   9.166
22236SOL    HW266735   4.769   1.891   9.161
22237SOL     OW66736   4.228   1.912   9.188
22237SOL    HW166737   4.186   1.855   9.118
22237SOL    HW266738   4.162   1.981   9.220
22238SOL     OW66739   4.297   2.732   8.477
22238SOL    HW166740   4.341   2.821   8.468
22238SOL    HW266741   4.234   2.732   8.554
22239SOL     OW66742   5.084   2.724   8.493
22239SOL    HW166743   5.009   2.724   8.427
22239SOL    HW266744   5.121   2.632   8.502
22240SOL     OW66745   4.933   2.387   7.723
22240SOL    HW166746   4.946   2.303   7.777
22240SOL    HW266747   4.904   2.461   7.783
22241SOL     OW66748   4.031   2.075   8.679
22241SOL    HW166749   4.008   2.112   8.769
22241SOL    HW266750   4.001   1.980   8.673
22242SOL     OW66751   3.761   3.172   8.730
22242SOL    HW166752   3.814   3.123   8.798
22242SOL    HW266753   3.783   3.270   8.735
22243SOL     OW66754   4.456   2.496   8.512
22243SOL    HW166755   4.515   2.470   8.436
22243SOL    HW266756   4.428   2.592   8.501
22244SOL     OW66757   5.452   2.797   9.302
22244SOL    HW166758   5.406   2.790   9.213
22244SOL    HW266759   5.390   2.841   9.368
22245SOL     OW66760   4.031   1.925   8.066
22245SOL    HW166761   4.020   2.019   8.099
22245SOL    HW266762   4.026   1.862   8.143
22246SOL     OW66763   5.346   2.229   7.822
22246SOL    HW166764   5.348   2.153   7.886
22246SOL    HW266765   5.298   2.306   7.862
22247SOL     OW66766   4.747   2.628   8.414
22247SOL    HW166767   4.762   2.649   8.510
22247SOL    HW266768   4.717   2.533   8.405
22248SOL     OW66769   4.704   3.435   9.148
22248SOL    HW166770   4.684   3.479   9.060
22248SOL    HW266771   4.743   3.344   9.132
22249SOL     OW66772   5.583   3.380   9.053
22249SOL    HW166773   5.597   3.407   8.958
22249SOL    HW266774   5.666   3.402   9.106
22250SOL     OW66775   4.074   2.760   9.252
22250SOL    HW166776   4.150   2.804   9.300
22250SOL    HW266777   4.109   2.713   9.170
22251SOL     OW66778   5.264   2.136   7.573
22251SOL    HW166779   5.203   2.061   7.596
22251SOL    HW266780   5.286   2.188   7.656
22252SOL     OW66781   5.027   2.700   7.490
22252SOL    HW166782   5.061   2.607   7.505
22252SOL    HW266783   5.045   2.727   7.395
22253SOL     OW66784   4.792   3.195   8.297
22253SOL    HW166785   4.799   3.111   8.242
22253SOL    HW266786   4.854   3.264   8.261
22254SOL     OW66787   4.043   2.672   8.397
22254SOL    HW166788   4.136   2.708   8.402
22254SOL    HW266789   4.037   2.587   8.449
22255SOL     OW66790   4.063   2.371   8.454
22255SOL    HW166791   4.011   2.288   8.437
22255SOL    HW266792   4.140   2.376   8.390
22256SOL     OW66793   4.862   2.242   9.126
22256SOL    HW166794   4.817   2.305   9.190
22256SOL    HW266795   4.955   2.273   9.109
22257SOL     OW66796   4.884   2.069   8.925
22257SOL    HW166797   4.884   2.133   9.002
22257SOL    HW266798   4.912   2.117   8.842
22258SOL     OW66799   3.732   3.188   7.648
22258SOL    HW166800   3.639   3.209   7.617
22258SOL    HW266801   3.742   3.089   7.661
22259SOL     OW66802   3.812   3.663   8.375
22259SOL    HW166803   3.770   3.577   8.348
22259SOL    HW266804   3.906   3.666   8.341
22260SOL     OW66805   4.228   3.430   8.358
22260SOL    HW166806   4.294   3.504   8.367
22260SOL    HW266807   4.272   3.351   8.316
22261SOL     OW66808   4.726   2.658   8.686
22261SOL    HW166809   4.767   2.626   8.772
22261SOL    HW266810   4.630   2.631   8.683
22262SOL     OW66811   3.764   2.406   8.562
22262SOL    HW166812   3.849   2.373   8.521
22262SOL    HW266813   3.777   2.421   8.660
22263SOL     OW66814   3.913   2.382   9.170
22263SOL    HW166815   3.972   2.342   9.100
22263SOL    HW266816   3.855   2.453   9.129
22264SOL     OW66817   5.093   2.812   9.108
22264SOL    HW166818   5.132   2.901   9.128
22264SOL    HW266819   5.103   2.792   9.011
22265SOL     OW66820   4.539   2.434   7.773
22265SOL    HW166821   4.546   2.345   7.727
22265SOL    HW266822   4.445   2.468   7.765
22266SOL     OW66823   5.381   2.466   8.654
22266SOL    HW166824   5.343   2.397   8.716
22266SOL    HW266825   5.463   2.430   8.610
22267SOL     OW66826   3.976   3.426   9.192
22267SOL    HW166827   3.946   3.483   9.268
22267SOL    HW266828   3.969   3.329   9.218
22268SOL     OW66829   4.395   2.326   8.717
22268SOL    HW166830   4.361   2.237   8.687
22268SOL    HW266831   4.421   2.380   8.637
22269SOL     OW66832   4.654   3.540   8.913
22269SOL    HW166833   4.630   3.522   8.818
22269SOL    HW266834   4.684   3.634   8.923
22270SOL     OW66835   4.197   2.362   7.639
22270SOL    HW166836   4.258   2.442   7.643
22270SOL    HW266837   4.102   2.393   7.646
22271SOL     OW66838   3.883   2.999   8.914
22271SOL    HW166839   3.905   2.938   8.990
22271SOL    HW266840   3.893   2.950   8.828
22272SOL     OW66841   5.071   2.921   8.682
22272SOL    HW166842   5.095   2.858   8.608
22272SOL    HW266843   4.981   2.961   8.664
22273SOL     OW66844   5.026   2.717   7.757
22273SOL    HW166845   4.940   2.686   7.799
22273SOL    HW266846   5.022   2.703   7.658
22274SOL     OW66847   5.483   3.609   8.602
22274SOL    HW166848   5.544   3.639   8.529
22274SOL    HW266849   5.445   3.520   8.580
22275SOL     OW66850   4.976   3.593   8.576
22275SOL    HW166851   5.060   3.598   8.522
22275SOL    HW266852   4.953   3.497   8.594
22276SOL     OW66853   3.807   3.120   8.470
22276SOL    HW166854   3.802   3.119   8.570
22276SOL    HW266855   3.724   3.079   8.432
22277SOL     OW66856   4.412   3.524   9.164
22277SOL    HW166857   4.356   3.605   9.173
22277SOL    HW266858   4.464   3.528   9.078
22278SOL     OW66859   5.450   1.997   7.971
22278SOL    HW166860   5.523   1.980   7.904
22278SOL    HW266861   5.419   1.910   8.009
22279SOL     OW66862   5.112   3.435   7.925
22279SOL    HW166863   5.179   3.447   7.851
22279SOL    HW266864   5.072   3.524   7.948
22280SOL     OW66865   3.854   3.656   9.299
22280SOL    HW166866   3.813   3.582   9.352
22280SOL    HW266867   3.918   3.707   9.357
22281SOL     OW66868   5.004   2.789   8.120
22281SOL    HW166869   5.064   2.708   8.122
22281SOL    HW266870   5.044   2.858   8.060
22282SOL     OW66871   4.554   3.135   8.870
22282SOL    HW166872   4.549   3.168   8.965
22282SOL    HW266873   4.468   3.154   8.824
22283SOL     OW66874   4.396   3.478   7.602
22283SOL    HW166875   4.405   3.488   7.503
22283SOL    HW266876   4.356   3.389   7.623
22284SOL     OW66877   5.374   3.582   8.842
22284SOL    HW166878   5.427   3.592   8.758
22284SOL    HW266879   5.347   3.672   8.876
22285SOL     OW66880   5.565   2.037   8.411
22285SOL    HW166881   5.604   1.952   8.375
22285SOL    HW266882   5.467   2.039   8.392
22286SOL     OW66883   3.987   2.188   8.168
22286SOL    HW166884   3.908   2.239   8.134
22286SOL    HW266885   3.978   2.173   8.266
22287SOL     OW66886   4.918   3.474   7.479
22287SOL    HW166887   4.924   3.381   7.516
22287SOL    HW266888   4.859   3.474   7.399
22288SOL     OW66889   4.546   2.864   8.820
22288SOL    HW166890   4.586   2.863   8.728
22288SOL    HW266891   4.556   2.956   8.860
22289SOL     OW66892   4.640   2.772   7.739
22289SOL    HW166893   4.703   2.810   7.671
22289SOL    HW266894   4.680   2.689   7.778
22290SOL     OW66895   5.228   3.469   7.492
22290SOL    HW166896   5.136   3.506   7.499
22290SOL    HW266897   5.266   3.489   7.402
22291SOL     OW66898   4.096   3.150   8.938
22291SOL    HW166899   4.083   3.243   8.904
22291SOL    HW266900   4.012   3.098   8.925
22292SOL     OW66901   5.338   3.154   8.737
22292SOL    HW166902   5.398   3.157   8.817
22292SOL    HW266903   5.263   3.218   8.750
22293SOL     OW66904   4.763   2.960   8.144
22293SOL    HW166905   4.693   2.913   8.198
22293SOL    HW266906   4.822   2.892   8.101
22294SOL     OW66907   4.738   2.098   8.419
22294SOL    HW166908   4.730   2.062   8.326
22294SOL    HW266909   4.736   2.022   8.484
22295SOL     OW66910   4.314   3.349   7.939
22295SOL    HW166911   4.356   3.291   7.869
22295SOL    HW266912   4.270   3.428   7.895
22296SOL     OW66913   5.433   2.247   8.829
22296SOL    HW166914   5.506   2.316   8.833
22296SOL    HW266915   5.461   2.172   8.770
22297SOL     OW66916   3.979   3.210   7.738
22297SOL    HW166917   3.883   3.211   7.711
22297SOL    HW266918   3.991   3.263   7.822
22298SOL     OW66919   3.829   2.875   9.174
22298SOL    HW166920   3.752   2.842   9.228
22298SOL    HW266921   3.914   2.845   9.216
22299SOL     OW66922   4.396   2.065   8.937
22299SOL    HW166923   4.486   2.049   8.897
22299SOL    HW266924   4.404   2.070   9.036
22300SOL     OW66925   3.799   2.207   7.481
22300SOL    HW166926   3.707   2.179   7.452
22300SOL    HW266927   3.830   2.284   7.425
22301SOL     OW66928   5.164   2.718   8.846
22301SOL    HW166929   5.107   2.770   8.783
22301SOL    HW266930   5.260   2.730   8.822
22302SOL     OW66931   3.796   2.028   7.766
22302SOL    HW166932   3.779   2.111   7.712
22302SOL    HW266933   3.886   1.991   7.744
22303SOL     OW66934   4.907   3.197   7.567
22303SOL    HW166935   4.808   3.186   7.569
22303SOL    HW266936   4.941   3.212   7.660
22304SOL     OW66937   4.337   2.704   8.879
22304SOL    HW166938   4.393   2.785   8.862
22304SOL    HW266939   4.396   2.624   8.882
22305SOL     OW66940   5.217   3.629   8.407
22305SOL    HW166941   5.250   3.693   8.338
22305SOL    HW266942   5.283   3.623   8.482
22306SOL     OW66943   4.440   2.427   9.156
22306SOL    HW166944   4.459   2.492   9.230
22306SOL    HW266945   4.500   2.347   9.165
22307SOL     OW66946   5.174   3.082   9.081
22307SOL    HW166947   5.165   3.072   9.180
22307SOL    HW266948   5.270   3.075   9.055
22308SOL     OW66949   4.114   3.603   9.008
22308SOL    HW166950   4.023   3.644   9.006
22308SOL    HW266951   4.107   3.509   9.040
22309SOL     OW66952   5.398   2.745   8.702
22309SOL    HW166953   5.371   2.656   8.665
22309SOL    HW266954   5.399   2.813   8.629
22310SOL     OW66955   4.949   2.187   7.897
22310SOL    HW166956   5.014   2.113   7.886
22310SOL    HW266957   4.969   2.237   7.981
22311SOL     OW66958   4.318   2.607   8.100
22311SOL    HW166959   4.368   2.692   8.081
22311SOL    HW266960   4.230   2.609   8.052
22312SOL     OW66961   5.501   2.204   9.090
22312SOL    HW166962   5.484   2.235   8.996
22312SOL    HW266963   5.417   2.167   9.128
22313SOL     OW66964   5.454   2.796   8.965
22313SOL    HW166965   5.492   2.887   8.980
22313SOL    HW266966   5.446   2.779   8.866
22314SOL     OW66967   4.583   3.236   7.464
22314SOL    HW166968   4.537   3.251   7.552
22314SOL    HW266969   4.627   3.321   7.434
22315SOL     OW66970   4.385   3.652   8.401
22315SOL    HW166971   4.339   3.740   8.388
22315SOL    HW266972   4.484   3.664   8.394
22316SOL     OW66973   4.583   2.818   8.309
22316SOL    HW166974   4.637   2.749   8.357
22316SOL    HW266975   4.551   2.887   8.375
22317SOL     OW66976   4.807   2.846   7.535
22317SOL    HW166977   4.784   2.899   7.453
22317SOL    HW266978   4.888   2.790   7.516
22318SOL     OW66979   5.585   3.431   8.299
22318SOL    HW166980   5.514   3.419   8.229
22318SOL    HW266981   5.586   3.352   8.359
22319SOL     OW66982   3.945   3.176   9.292
22319SOL    HW166983   3.880   3.103   9.271
22319SOL    HW266984   3.949   3.190   9.390
22320SOL     OW66985   3.803   3.102   8.101
22320SOL    HW166986   3.802   3.055   8.189
22320SOL    HW266987   3.885   3.074   8.050
22321SOL     OW66988   4.396   3.253   9.072
22321SOL    HW166989   4.318   3.203   9.110
22321SOL    HW266990   4.393   3.348   9.103
22322SOL     OW66991   5.548   2.054   8.675
22322SOL    HW166992   5.544   1.964   8.719
22322SOL    HW266993   5.551   2.043   8.576
22323SOL     OW66994   4.152   2.286   7.968
22323SOL    HW166995   4.182   2.214   7.906
22323SOL    HW266996   4.113   2.246   8.051
22324SOL     OW66997   5.429   3.349   8.552
22324SOL    HW166998   5.336   3.324   8.525
22324SOL    HW266999   5.455   3.299   8.634
22325SOL     OW67000   4.041   2.409   8.728
22325SOL    HW167001   4.079   2.350   8.800
22325SOL    HW267002   4.081   2.383   8.640
22326SOL     OW67003   4.536   3.448   8.135
22326SOL    HW167004   4.568   3.458   8.041
22326SOL    HW267005   4.457   3.386   8.137
22327SOL     OW67006   5.148   2.076   8.560
22327SOL    HW167007   5.200   2.011   8.615
22327SOL    HW267008   5.099   2.139   8.621
22328SOL     OW67009   4.725   1.896   8.602
22328SOL    HW167010   4.662   1.824   8.571
22328SOL    HW267011   4.818   1.860   8.602
22329SOL     OW67012   4.494   3.192   7.749
22329SOL    HW167013   4.448   3.105   7.766
22329SOL    HW267014   4.585   3.189   7.790
22330SOL     OW67015   4.342   3.429   8.732
22330SOL    HW167016   4.337   3.511   8.789
22330SOL    HW267017   4.431   3.426   8.687
22331SOL     OW67018   5.076   1.914   7.616
22331SOL    HW167019   5.111   1.873   7.532
22331SOL    HW267020   4.986   1.876   7.636
22332SOL     OW67021   5.024   2.315   8.139
22332SOL    HW167022   4.965   2.395   8.143
22332SOL    HW267023   5.039   2.280   8.232
22333SOL     OW67024   5.317   2.083   8.330
22333SOL    HW167025   5.233   2.082   8.384
22333SOL    HW267026   5.319   2.166   8.274
22334SOL     OW67027   3.763   2.939   7.748
22334SOL    HW167028   3.862   2.928   7.739
22334SOL    HW267029   3.723   2.853   7.780
22335SOL     OW67030   4.599   3.508   7.785
22335SOL    HW167031   4.522   3.473   7.731
22335SOL    HW267032   4.567   3.579   7.847
22336SOL     OW67033   3.954   2.490   9.423
22336SOL    HW167034   3.861   2.488   9.460
22336SOL    HW267035   3.955   2.451   9.331
22337SOL     OW67036   3.949   2.137  10.306
22337SOL    HW167037   3.984   2.120  10.398
22337SOL    HW267038   3.861   2.092  10.294
22338SOL     OW67039   3.743   2.230   9.957
22338SOL    HW167040   3.661   2.273   9.996
22338SOL    HW267041   3.715   2.157   9.894
22339SOL     OW67042   4.293   3.137  10.475
22339SOL    HW167043   4.200   3.130  10.438
22339SOL    HW267044   4.304   3.226  10.519
22340SOL     OW67045   5.279   3.373  10.013
22340SOL    HW167046   5.222   3.357  10.094
22340SOL    HW267047   5.220   3.383   9.933
22341SOL     OW67048   4.859   2.565  10.027
22341SOL    HW167049   4.916   2.643  10.002
22341SOL    HW267050   4.799   2.591  10.103
22342SOL     OW67051   5.479   2.469   9.541
22342SOL    HW167052   5.467   2.456   9.442
22342SOL    HW267053   5.449   2.388   9.590
22343SOL     OW67054   4.492   3.006  10.333
22343SOL    HW167055   4.414   3.023  10.393
22343SOL    HW267056   4.526   3.093  10.297
22344SOL     OW67057   4.574   2.660  11.133
22344SOL    HW167058   4.570   2.736  11.198
22344SOL    HW267059   4.596   2.696  11.042
22345SOL     OW67060   4.409   2.874   9.975
22345SOL    HW167061   4.478   2.858  10.045
22345SOL    HW267062   4.336   2.931  10.013
22346SOL     OW67063   4.410   3.023  11.113
22346SOL    HW167064   4.470   3.102  11.127
22346SOL    HW267065   4.324   3.054  11.072
22347SOL     OW67066   4.059   3.297  10.371
22347SOL    HW167067   3.981   3.266  10.318
22347SOL    HW267068   4.117   3.355  10.314
22348SOL     OW67069   5.184   3.367  10.649
22348SOL    HW167070   5.208   3.461  10.675
22348SOL    HW267071   5.168   3.313  10.731
22349SOL     OW67072   4.162   2.254  10.809
22349SOL    HW167073   4.244   2.198  10.818
22349SOL    HW267074   4.081   2.196  10.813
22350SOL     OW67075   5.327   2.309  10.047
22350SOL    HW167076   5.253   2.355   9.997
22350SOL    HW267077   5.378   2.377  10.100
22351SOL     OW67078   3.955   3.575   9.793
22351SOL    HW167079   3.989   3.652   9.847
22351SOL    HW267080   3.999   3.575   9.703
22352SOL     OW67081   4.851   3.203  11.000
22352SOL    HW167082   4.898   3.203  11.088
22352SOL    HW267083   4.803   3.116  10.989
22353SOL     OW67084   3.954   3.296   9.848
22353SOL    HW167085   3.928   3.392   9.848
22353SOL    HW267086   3.883   3.242   9.893
22354SOL     OW67087   3.964   2.953  10.196
22354SOL    HW167088   3.978   2.869  10.248
22354SOL    HW267089   3.909   3.017  10.251
22355SOL     OW67090   4.344   3.648  10.749
22355SOL    HW167091   4.252   3.631  10.784
22355SOL    HW267092   4.372   3.740  10.775
22356SOL     OW67093   4.330   2.826   9.433
22356SOL    HW167094   4.337   2.910   9.379
22356SOL    HW267095   4.376   2.839   9.521
22357SOL     OW67096   5.318   1.976  10.790
22357SOL    HW167097   5.300   2.043  10.718
22357SOL    HW267098   5.315   2.022  10.879
22358SOL     OW67099   3.846   2.505   9.873
22358SOL    HW167100   3.801   2.417   9.890
22358SOL    HW267101   3.845   2.559   9.957
22359SOL     OW67102   5.566   3.629   9.669
22359SOL    HW167103   5.620   3.600   9.749
22359SOL    HW267104   5.596   3.719   9.640
22360SOL     OW67105   3.751   3.458   9.427
22360SOL    HW167106   3.732   3.362   9.448
22360SOL    HW267107   3.718   3.516   9.502
22361SOL     OW67108   5.413   2.784   9.922
22361SOL    HW167109   5.508   2.755   9.930
22361SOL    HW267110   5.405   2.849   9.847
22362SOL     OW67111   5.365   2.970   9.742
22362SOL    HW167112   5.451   2.972   9.690
22362SOL    HW267113   5.379   3.017   9.830
22363SOL     OW67114   3.837   2.599  10.907
22363SOL    HW167115   3.925   2.586  10.952
22363SOL    HW267116   3.824   2.696  10.885
22364SOL     OW67117   4.337   3.227  10.036
22364SOL    HW167118   4.288   3.140  10.045
22364SOL    HW267119   4.314   3.270   9.949
22365SOL     OW67120   5.017   3.090  10.733
22365SOL    HW167121   5.054   3.017  10.675
22365SOL    HW267122   5.069   3.095  10.818
22366SOL     OW67123   4.533   1.866   9.812
22366SOL    HW167124   4.573   1.957   9.803
22366SOL    HW267125   4.433   1.874   9.818
22367SOL     OW67126   3.921   2.838  10.574
22367SOL    HW167127   4.010   2.793  10.560
22367SOL    HW267128   3.848   2.773  10.555
22368SOL     OW67129   5.249   2.861   9.500
22368SOL    HW167130   5.186   2.785   9.513
22368SOL    HW267131   5.297   2.879   9.586
22369SOL     OW67132   4.911   3.654  10.926
22369SOL    HW167133   4.935   3.714  10.850
22369SOL    HW267134   4.918   3.559  10.896
22370SOL     OW67135   4.041   2.113  11.111
22370SOL    HW167136   4.112   2.184  11.117
22370SOL    HW267137   3.953   2.152  11.139
22371SOL     OW67138   5.190   3.279  10.263
22371SOL    HW167139   5.131   3.285  10.343
22371SOL    HW267140   5.175   3.191  10.217
22372SOL     OW67141   5.391   3.576   9.882
22372SOL    HW167142   5.350   3.553   9.794
22372SOL    HW267143   5.373   3.502   9.947
22373SOL     OW67144   4.322   2.591   9.580
22373SOL    HW167145   4.346   2.660   9.512
22373SOL    HW267146   4.244   2.624   9.634
22374SOL     OW67147   5.005   2.207  10.254
22374SOL    HW167148   4.919   2.157  10.241
22374SOL    HW267149   5.067   2.153  10.310
22375SOL     OW67150   5.300   3.524   9.617
22375SOL    HW167151   5.389   3.570   9.620
22375SOL    HW267152   5.279   3.500   9.522
22376SOL     OW67153   4.531   2.467  10.775
22376SOL    HW167154   4.484   2.464  10.864
22376SOL    HW267155   4.480   2.412  10.709
22377SOL     OW67156   5.118   2.331  10.984
22377SOL    HW167157   5.098   2.374  11.072
22377SOL    HW267158   5.196   2.269  10.993
22378SOL     OW67159   4.697   2.752  10.882
22378SOL    HW167160   4.743   2.668  10.853
22378SOL    HW267161   4.641   2.786  10.807
22379SOL     OW67162   4.715   2.272  10.552
22379SOL    HW167163   4.638   2.306  10.606
22379SOL    HW267164   4.681   2.221  10.473
22380SOL     OW67165   4.765   2.563   9.739
22380SOL    HW167166   4.791   2.559   9.835
22380SOL    HW267167   4.680   2.512   9.725
22381SOL     OW67168   3.800   2.673  10.099
22381SOL    HW167169   3.899   2.661  10.108
22381SOL    HW267170   3.776   2.768  10.120
22382SOL     OW67171   3.854   3.683  10.881
22382SOL    HW167172   3.844   3.668  10.980
22382SOL    HW267173   3.768   3.719  10.845
22383SOL     OW67174   4.589   2.210   9.505
22383SOL    HW167175   4.648   2.273   9.456
22383SOL    HW267176   4.608   2.116   9.476
22384SOL     OW67177   5.443   2.447  11.141
22384SOL    HW167178   5.417   2.536  11.105
22384SOL    HW267179   5.441   2.379  11.068
22385SOL     OW67180   5.086   3.006   9.855
22385SOL    HW167181   5.169   2.977   9.807
22385SOL    HW267182   5.037   3.073   9.799
22386SOL     OW67183   4.274   2.058  10.195
22386SOL    HW167184   4.269   2.053  10.295
22386SOL    HW267185   4.276   2.154  10.166
22387SOL     OW67186   4.732   3.318   9.787
22387SOL    HW167187   4.686   3.390   9.735
22387SOL    HW267188   4.728   3.338   9.885
22388SOL     OW67189   4.075   3.663  10.163
22388SOL    HW167190   4.125   3.577  10.169
22388SOL    HW267191   4.140   3.740  10.160
22389SOL     OW67192   5.519   2.928  10.183
22389SOL    HW167193   5.457   2.913  10.107
22389SOL    HW267194   5.467   2.939  10.268
22390SOL     OW67195   4.951   3.412  10.816
22390SOL    HW167196   4.957   3.335  10.880
22390SOL    HW267197   4.899   3.386  10.736
22391SOL     OW67198   4.045   2.805   9.552
22391SOL    HW167199   4.127   2.844   9.510
22391SOL    HW267200   4.018   2.723   9.503
22392SOL     OW67201   5.182   2.597  10.038
22392SOL    HW167202   5.177   2.532  10.113
22392SOL    HW267203   5.262   2.656  10.051
22393SOL     OW67204   4.185   3.128  11.037
22393SOL    HW167205   4.135   3.129  10.951
22393SOL    HW267206   4.122   3.110  11.113
22394SOL     OW67207   4.835   3.638   9.547
22394SOL    HW167208   4.775   3.576   9.597
22394SOL    HW267209   4.866   3.594   9.462
22395SOL     OW67210   3.926   2.147  10.808
22395SOL    HW167211   3.846   2.207  10.795
22395SOL    HW267212   3.916   2.098  10.894
22396SOL     OW67213   5.356   3.239   9.391
22396SOL    HW167214   5.324   3.333   9.381
22396SOL    HW267215   5.280   3.176   9.379
22397SOL     OW67216   4.188   3.605   9.633
22397SOL    HW167217   4.221   3.644   9.719
22397SOL    HW267218   4.264   3.598   9.568
22398SOL     OW67219   5.124   1.969   9.736
22398SOL    HW167220   5.100   1.932   9.646
22398SOL    HW267221   5.223   1.985   9.740
22399SOL     OW67222   3.973   3.647  10.551
22399SOL    HW167223   4.030   3.582  10.601
22399SOL    HW267224   3.957   3.614  10.458
22400SOL     OW67225   4.664   3.560  10.214
22400SOL    HW167226   4.744   3.503  10.235
22400SOL    HW267227   4.615   3.520  10.137
22401SOL     OW67228   4.106   2.562   9.790
22401SOL    HW167229   4.151   2.472   9.787
22401SOL    HW267230   4.012   2.551   9.823
22402SOL     OW67231   5.271   2.084  11.039
22402SOL    HW167232   5.266   2.121  11.131
22402SOL    HW267233   5.199   2.015  11.027
22403SOL     OW67234   4.338   1.984   9.427
22403SOL    HW167235   4.436   1.962   9.434
22403SOL    HW267236   4.307   1.967   9.334
22404SOL     OW67237   4.505   2.126  11.059
22404SOL    HW167238   4.572   2.065  11.102
22404SOL    HW267239   4.432   2.145  11.124
22405SOL     OW67240   4.612   3.376  10.505
22405SOL    HW167241   4.589   3.351  10.411
22405SOL    HW267242   4.673   3.307  10.544
22406SOL     OW67243   5.075   2.452  10.743
22406SOL    HW167244   5.103   2.409  10.828
22406SOL    HW267245   5.100   2.548  10.744
22407SOL     OW67246   4.527   3.264  10.234
22407SOL    HW167247   4.617   3.278  10.192
22407SOL    HW267248   4.456   3.266  10.163
22408SOL     OW67249   4.646   2.365  10.209
22408SOL    HW167250   4.621   2.356  10.113
22408SOL    HW267251   4.694   2.283  10.240
22409SOL     OW67252   4.263   1.926   9.822
22409SOL    HW167253   4.182   1.927   9.880
22409SOL    HW267254   4.266   2.009   9.767
22410SOL     OW67255   5.158   3.050   9.351
22410SOL    HW167256   5.190   2.974   9.408
22410SOL    HW267257   5.066   3.077   9.381
22411SOL     OW67258   4.021   1.897   9.481
22411SOL    HW167259   4.070   1.981   9.460
22411SOL    HW267260   4.083   1.832   9.526
22412SOL     OW67261   4.659   2.098   9.790
22412SOL    HW167262   4.611   2.139   9.712
22412SOL    HW267263   4.758   2.096   9.771
22413SOL     OW67264   4.800   2.545  10.774
22413SOL    HW167265   4.720   2.484  10.777
22413SOL    HW267266   4.881   2.492  10.750
22414SOL     OW67267   4.951   3.432  10.103
22414SOL    HW167268   4.972   3.506  10.038
22414SOL    HW267269   5.019   3.432  10.176
22415SOL     OW67270   4.183   3.014  10.051
22415SOL    HW167271   4.112   2.987  10.116
22415SOL    HW267272   4.157   2.986   9.958
22416SOL     OW67273   4.995   3.659   9.901
22416SOL    HW167274   5.039   3.723   9.837
22416SOL    HW267275   4.945   3.711   9.971
22417SOL     OW67276   4.756   2.411   9.326
22417SOL    HW167277   4.715   2.493   9.287
22417SOL    HW267278   4.820   2.437   9.399
22418SOL     OW67279   3.802   2.418  10.696
22418SOL    HW167280   3.894   2.417  10.655
22418SOL    HW267281   3.796   2.492  10.763
22419SOL     OW67282   4.285   2.084  10.457
22419SOL    HW167283   4.323   2.000  10.494
22419SOL    HW267284   4.197   2.103  10.501
22420SOL     OW67285   4.590   2.316   9.952
22420SOL    HW167286   4.558   2.388   9.890
22420SOL    HW267287   4.614   2.235   9.899
22421SOL     OW67288   4.741   1.901  10.063
22421SOL    HW167289   4.669   1.906   9.994
22421SOL    HW267290   4.717   1.832  10.132
22422SOL     OW67291   5.153   3.035  10.177
22422SOL    HW167292   5.098   2.951  10.170
22422SOL    HW267293   5.179   3.064  10.085
22423SOL     OW67294   5.190   2.452  10.302
22423SOL    HW167295   5.160   2.357  10.309
22423SOL    HW267296   5.263   2.468  10.368
22424SOL     OW67297   5.581   2.695   9.687
22424SOL    HW167298   5.623   2.631   9.751
22424SOL    HW267299   5.543   2.644   9.609
22425SOL     OW67300   4.212   3.247   9.484
22425SOL    HW167301   4.125   3.232   9.531
22425SOL    HW267302   4.195   3.273   9.389
22426SOL     OW67303   5.388   3.142   9.967
22426SOL    HW167304   5.487   3.150   9.981
22426SOL    HW267305   5.343   3.226   9.998
22427SOL     OW67306   5.114   2.437   9.388
22427SOL    HW167307   5.060   2.416   9.469
22427SOL    HW267308   5.205   2.396   9.397
22428SOL     OW67309   4.251   2.118   9.638
22428SOL    HW167310   4.278   2.059   9.563
22428SOL    HW267311   4.251   2.213   9.607
22429SOL     OW67312   5.478   3.085  10.898
22429SOL    HW167313   5.569   3.046  10.885
22429SOL    HW267314   5.486   3.181  10.922
22430SOL     OW67315   4.788   3.209  10.650
22430SOL    HW167316   4.708   3.186  10.705
22430SOL    HW267317   4.871   3.183  10.699
22431SOL     OW67318   5.316   3.491  10.935
22431SOL    HW167319   5.343   3.525  10.845
22431SOL    HW267320   5.395   3.453  10.981
22432SOL     OW67321   4.835   3.057  10.410
22432SOL    HW167322   4.795   3.101  10.491
22432SOL    HW267323   4.794   3.094  10.327
22433SOL     OW67324   5.362   2.961  10.389
22433SOL    HW167325   5.367   3.042  10.448
22433SOL    HW267326   5.276   2.963  10.338
22434SOL     OW67327   4.639   1.951  10.712
22434SOL    HW167328   4.664   1.931  10.617
22434SOL    HW267329   4.711   2.007  10.754
22435SOL     OW67330   4.704   2.978  11.029
22435SOL    HW167331   4.605   2.984  11.039
22435SOL    HW267332   4.727   2.898  10.973
22436SOL     OW67333   4.429   2.912   9.678
22436SOL    HW167334   4.415   2.919   9.777
22436SOL    HW267335   4.513   2.861   9.660
22437SOL     OW67336   4.134   2.675  10.561
22437SOL    HW167337   4.220   2.687  10.611
22437SOL    HW267338   4.092   2.588  10.588
22438SOL     OW67339   4.998   2.248  10.572
22438SOL    HW167340   5.019   2.322  10.636
22438SOL    HW267341   4.909   2.265  10.529
22439SOL     OW67342   3.788   3.426  10.641
22439SOL    HW167343   3.742   3.508  10.607
22439SOL    HW267344   3.886   3.445  10.650
22440SOL     OW67345   4.091   2.962   9.811
22440SOL    HW167346   4.084   3.045   9.755
22440SOL    HW267347   4.095   2.882   9.751
22441SOL     OW67348   4.290   2.399  10.175
22441SOL    HW167349   4.302   2.465  10.101
22441SOL    HW267350   4.336   2.433  10.258
22442SOL     OW67351   4.976   3.210   9.698
22442SOL    HW167352   5.026   3.287   9.738
22442SOL    HW267353   4.881   3.212   9.730
22443SOL     OW67354   4.996   3.307  10.452
22443SOL    HW167355   5.043   3.320  10.539
22443SOL    HW267356   4.930   3.233  10.461
22444SOL     OW67357   5.306   2.501   9.782
22444SOL    HW167358   5.275   2.562   9.855
22444SOL    HW267359   5.356   2.553   9.713
22445SOL     OW67360   4.078   3.372  10.639
22445SOL    HW167361   4.057   3.328  10.552
22445SOL    HW267362   4.175   3.398  10.642
22446SOL     OW67363   4.126   2.613  10.908
22446SOL    HW167364   4.194   2.668  10.861
22446SOL    HW267365   4.166   2.525  10.935
22447SOL     OW67366   5.311   2.641  10.980
22447SOL    HW167367   5.219   2.679  10.975
22447SOL    HW267368   5.371   2.688  10.915
22448SOL     OW67369   4.737   1.967  11.080
22448SOL    HW167370   4.743   2.052  11.028
22448SOL    HW267371   4.769   1.891  11.023
22449SOL     OW67372   4.228   1.912  11.050
22449SOL    HW167373   4.186   1.855  10.980
22449SOL    HW267374   4.162   1.981  11.082
22450SOL     OW67375   4.297   2.732  10.339
22450SOL    HW167376   4.341   2.821  10.330
22450SOL    HW267377   4.234   2.732  10.416
22451SOL     OW67378   5.084   2.724  10.355
22451SOL    HW167379   5.009   2.724  10.289
22451SOL    HW267380   5.121   2.632  10.364
22452SOL     OW67381   4.933   2.387   9.585
22452SOL    HW167382   4.946   2.303   9.639
22452SOL    HW267383   4.904   2.461   9.645
22453SOL     OW67384   4.031   2.075  10.541
22453SOL    HW167385   4.008   2.112  10.631
22453SOL    HW267386   4.001   1.980  10.535
22454SOL     OW67387   3.761   3.172  10.592
22454SOL    HW167388   3.814   3.123  10.660
22454SOL    HW267389   3.783   3.270  10.597
22455SOL     OW67390   4.456   2.496  10.374
22455SOL    HW167391   4.515   2.470  10.298
22455SOL    HW267392   4.428   2.592  10.363
22456SOL     OW67393   5.452   2.797  11.164
22456SOL    HW167394   5.406   2.790  11.075
22456SOL    HW267395   5.390   2.841  11.230
22457SOL     OW67396   4.031   1.925   9.928
22457SOL    HW167397   4.020   2.019   9.961
22457SOL    HW267398   4.026   1.862  10.005
22458SOL     OW67399   5.346   2.229   9.684
22458SOL    HW167400   5.348   2.153   9.748
22458SOL    HW267401   5.298   2.306   9.724
22459SOL     OW67402   4.747   2.628  10.276
22459SOL    HW167403   4.762   2.649  10.372
22459SOL    HW267404   4.717   2.533  10.267
22460SOL     OW67405   4.704   3.435  11.010
22460SOL    HW167406   4.684   3.479  10.922
22460SOL    HW267407   4.743   3.344  10.994
22461SOL     OW67408   5.583   3.380  10.915
22461SOL    HW167409   5.597   3.407  10.820
22461SOL    HW267410   5.666   3.402  10.968
22462SOL     OW67411   4.074   2.760  11.114
22462SOL    HW167412   4.150   2.804  11.162
22462SOL    HW267413   4.109   2.713  11.032
22463SOL     OW67414   5.264   2.136   9.435
22463SOL    HW167415   5.203   2.061   9.458
22463SOL    HW267416   5.286   2.188   9.518
22464SOL     OW67417   5.027   2.700   9.352
22464SOL    HW167418   5.061   2.607   9.367
22464SOL    HW267419   5.045   2.727   9.257
22465SOL     OW67420   4.792   3.195  10.159
22465SOL    HW167421   4.799   3.111  10.104
22465SOL    HW267422   4.854   3.264  10.123
22466SOL     OW67423   4.043   2.672  10.259
22466SOL    HW167424   4.136   2.708  10.264
22466SOL    HW267425   4.037   2.587  10.311
22467SOL     OW67426   4.063   2.371  10.316
22467SOL    HW167427   4.011   2.288  10.299
22467SOL    HW267428   4.140   2.376  10.252
22468SOL     OW67429   4.862   2.242  10.988
22468SOL    HW167430   4.817   2.305  11.052
22468SOL    HW267431   4.955   2.273  10.971
22469SOL     OW67432   4.884   2.069  10.787
22469SOL    HW167433   4.884   2.133  10.864
22469SOL    HW267434   4.912   2.117  10.704
22470SOL     OW67435   3.732   3.188   9.510
22470SOL    HW167436   3.639   3.209   9.479
22470SOL    HW267437   3.742   3.089   9.523
22471SOL     OW67438   3.812   3.663  10.237
22471SOL    HW167439   3.770   3.577  10.210
22471SOL    HW267440   3.906   3.666  10.203
22472SOL     OW67441   4.228   3.430  10.220
22472SOL    HW167442   4.294   3.504  10.229
22472SOL    HW267443   4.272   3.351  10.178
22473SOL     OW67444   4.726   2.658  10.548
22473SOL    HW167445   4.767   2.626  10.634
22473SOL    HW267446   4.630   2.631  10.545
22474SOL     OW67447   3.764   2.406  10.424
22474SOL    HW167448   3.849   2.373  10.383
22474SOL    HW267449   3.777   2.421  10.522
22475SOL     OW67450   3.913   2.382  11.032
22475SOL    HW167451   3.972   2.342  10.962
22475SOL    HW267452   3.855   2.453  10.991
22476SOL     OW67453   5.093   2.812  10.970
22476SOL    HW167454   5.132   2.901  10.990
22476SOL    HW267455   5.103   2.792  10.873
22477SOL     OW67456   4.539   2.434   9.635
22477SOL    HW167457   4.546   2.345   9.589
22477SOL    HW267458   4.445   2.468   9.627
22478SOL     OW67459   5.381   2.466  10.516
22478SOL    HW167460   5.343   2.397  10.578
22478SOL    HW267461   5.463   2.430  10.472
22479SOL     OW67462   3.976   3.426  11.054
22479SOL    HW167463   3.946   3.483  11.130
22479SOL    HW267464   3.969   3.329  11.080
22480SOL     OW67465   4.395   2.326  10.579
22480SOL    HW167466   4.361   2.237  10.549
22480SOL    HW267467   4.421   2.380  10.499
22481SOL     OW67468   4.654   3.540  10.775
22481SOL    HW167469   4.630   3.522  10.680
22481SOL    HW267470   4.684   3.634  10.785
22482SOL     OW67471   4.197   2.362   9.501
22482SOL    HW167472   4.258   2.442   9.505
22482SOL    HW267473   4.102   2.393   9.508
22483SOL     OW67474   3.883   2.999  10.776
22483SOL    HW167475   3.905   2.938  10.852
22483SOL    HW267476   3.893   2.950  10.690
22484SOL     OW67477   5.071   2.921  10.544
22484SOL    HW167478   5.095   2.858  10.470
22484SOL    HW267479   4.981   2.961  10.526
22485SOL     OW67480   5.026   2.717   9.619
22485SOL    HW167481   4.940   2.686   9.661
22485SOL    HW267482   5.022   2.703   9.520
22486SOL     OW67483   5.483   3.609  10.464
22486SOL    HW167484   5.544   3.639  10.391
22486SOL    HW267485   5.445   3.520  10.442
22487SOL     OW67486   4.976   3.593  10.438
22487SOL    HW167487   5.060   3.598  10.384
22487SOL    HW267488   4.953   3.497  10.456
22488SOL     OW67489   3.807   3.120  10.332
22488SOL    HW167490   3.802   3.119  10.432
22488SOL    HW267491   3.724   3.079  10.294
22489SOL     OW67492   4.412   3.524  11.026
22489SOL    HW167493   4.356   3.605  11.035
22489SOL    HW267494   4.464   3.528  10.940
22490SOL     OW67495   5.450   1.997   9.833
22490SOL    HW167496   5.523   1.980   9.766
22490SOL    HW267497   5.419   1.910   9.871
22491SOL     OW67498   5.112   3.435   9.787
22491SOL    HW167499   5.179   3.447   9.713
22491SOL    HW267500   5.072   3.524   9.810
22492SOL     OW67501   3.854   3.656  11.161
22492SOL    HW167502   3.813   3.582  11.214
22492SOL    HW267503   3.918   3.707  11.219
22493SOL     OW67504   5.004   2.789   9.982
22493SOL    HW167505   5.064   2.708   9.984
22493SOL    HW267506   5.044   2.858   9.922
22494SOL     OW67507   4.554   3.135  10.732
22494SOL    HW167508   4.549   3.168  10.827
22494SOL    HW267509   4.468   3.154  10.686
22495SOL     OW67510   4.396   3.478   9.464
22495SOL    HW167511   4.405   3.488   9.365
22495SOL    HW267512   4.356   3.389   9.485
22496SOL     OW67513   5.374   3.582  10.704
22496SOL    HW167514   5.427   3.592  10.620
22496SOL    HW267515   5.347   3.672  10.738
22497SOL     OW67516   5.565   2.037  10.273
22497SOL    HW167517   5.604   1.952  10.237
22497SOL    HW267518   5.467   2.039  10.254
22498SOL     OW67519   3.987   2.188  10.030
22498SOL    HW167520   3.908   2.239   9.996
22498SOL    HW267521   3.978   2.173  10.128
22499SOL     OW67522   4.918   3.474   9.341
22499SOL    HW167523   4.924   3.381   9.378
22499SOL    HW267524   4.859   3.474   9.261
22500SOL     OW67525   4.546   2.864  10.682
22500SOL    HW167526   4.586   2.863  10.590
22500SOL    HW267527   4.556   2.956  10.722
22501SOL     OW67528   4.640   2.772   9.601
22501SOL    HW167529   4.703   2.810   9.533
22501SOL    HW267530   4.680   2.689   9.640
22502SOL     OW67531   5.228   3.469   9.354
22502SOL    HW167532   5.136   3.506   9.361
22502SOL    HW267533   5.266   3.489   9.264
22503SOL     OW67534   4.096   3.150  10.800
22503SOL    HW167535   4.083   3.243  10.766
22503SOL    HW267536   4.012   3.098  10.787
22504SOL     OW67537   5.338   3.154  10.599
22504SOL    HW167538   5.398   3.157  10.679
22504SOL    HW267539   5.263   3.218  10.612
22505SOL     OW67540   4.763   2.960  10.006
22505SOL    HW167541   4.693   2.913  10.060
22505SOL    HW267542   4.822   2.892   9.963
22506SOL     OW67543   4.738   2.098  10.281
22506SOL    HW167544   4.730   2.062  10.188
22506SOL    HW267545   4.736   2.022  10.346
22507SOL     OW67546   4.314   3.349   9.801
22507SOL    HW167547   4.356   3.291   9.731
22507SOL    HW267548   4.270   3.428   9.757
22508SOL     OW67549   5.433   2.247  10.691
22508SOL    HW167550   5.506   2.316  10.695
22508SOL    HW267551   5.461   2.172  10.632
22509SOL     OW67552   3.979   3.210   9.600
22509SOL    HW167553   3.883   3.211   9.573
22509SOL    HW267554   3.991   3.263   9.684
22510SOL     OW67555   3.829   2.875  11.036
22510SOL    HW167556   3.752   2.842  11.090
22510SOL    HW267557   3.914   2.845  11.078
22511SOL     OW67558   4.396   2.065  10.799
22511SOL    HW167559   4.486   2.049  10.759
22511SOL    HW267560   4.404   2.070  10.898
22512SOL     OW67561   3.799   2.207   9.343
22512SOL    HW167562   3.707   2.179   9.314
22512SOL    HW267563   3.830   2.284   9.287
22513SOL     OW67564   5.164   2.718  10.708
22513SOL    HW167565   5.107   2.770  10.645
22513SOL    HW267566   5.260   2.730  10.684
22514SOL     OW67567   3.796   2.028   9.628
22514SOL    HW167568   3.779   2.111   9.574
22514SOL    HW267569   3.886   1.991   9.606
22515SOL     OW67570   4.907   3.197   9.429
22515SOL    HW167571   4.808   3.186   9.431
22515SOL    HW267572   4.941   3.212   9.522
22516SOL     OW67573   4.337   2.704  10.741
22516SOL    HW167574   4.393   2.785  10.724
22516SOL    HW267575   4.396   2.624  10.744
22517SOL     OW67576   5.217   3.629  10.269
22517SOL    HW167577   5.250   3.693  10.200
22517SOL    HW267578   5.283   3.623  10.344
22518SOL     OW67579   4.440   2.427  11.018
22518SOL    HW167580   4.459   2.492  11.092
22518SOL    HW267581   4.500   2.347  11.027
22519SOL     OW67582   5.174   3.082  10.943
22519SOL    HW167583   5.165   3.072  11.042
22519SOL    HW267584   5.270   3.075  10.917
22520SOL     OW67585   4.114   3.603  10.870
22520SOL    HW167586   4.023   3.644  10.868
22520SOL    HW267587   4.107   3.509  10.902
22521SOL     OW67588   5.398   2.745  10.564
22521SOL    HW167589   5.371   2.656  10.527
22521SOL    HW267590   5.399   2.813  10.491
22522SOL     OW67591   4.949   2.187   9.759
22522SOL    HW167592   5.014   2.113   9.748
22522SOL    HW267593   4.969   2.237   9.843
22523SOL     OW67594   4.318   2.607   9.962
22523SOL    HW167595   4.368   2.692   9.943
22523SOL    HW267596   4.230   2.609   9.914
22524SOL     OW67597   5.501   2.204  10.952
22524SOL    HW167598   5.484   2.235  10.858
22524SOL    HW267599   5.417   2.167  10.990
22525SOL     OW67600   5.454   2.796  10.827
22525SOL    HW167601   5.492   2.887  10.842
22525SOL    HW267602   5.446   2.779  10.728
22526SOL     OW67603   4.583   3.236   9.326
22526SOL    HW167604   4.537   3.251   9.414
22526SOL    HW267605   4.627   3.321   9.296
22527SOL     OW67606   4.385   3.652  10.263
22527SOL    HW167607   4.339   3.740  10.250
22527SOL    HW267608   4.484   3.664  10.256
22528SOL     OW67609   4.583   2.818  10.171
22528SOL    HW167610   4.637   2.749  10.219
22528SOL    HW267611   4.551   2.887  10.237
22529SOL     OW67612   4.807   2.846   9.397
22529SOL    HW167613   4.784   2.899   9.315
22529SOL    HW267614   4.888   2.790   9.378
22530SOL     OW67615   5.585   3.431  10.161
22530SOL    HW167616   5.514   3.419  10.091
22530SOL    HW267617   5.586   3.352  10.221
22531SOL     OW67618   3.945   3.176  11.154
22531SOL    HW167619   3.880   3.103  11.133
22531SOL    HW267620   3.949   3.190  11.252
22532SOL     OW67621   3.803   3.102   9.963
22532SOL    HW167622   3.802   3.055  10.051
22532SOL    HW267623   3.885   3.074   9.912
22533SOL     OW67624   4.396   3.253  10.934
22533SOL    HW167625   4.318   3.203  10.972
22533SOL    HW267626   4.393   3.348  10.965
22534SOL     OW67627   5.548   2.054  10.537
22534SOL    HW167628   5.544   1.964  10.581
22534SOL    HW267629   5.551   2.043  10.438
22535SOL     OW67630   4.152   2.286   9.830
22535SOL    HW167631   4.182   2.214   9.768
22535SOL    HW267632   4.113   2.246   9.913
22536SOL     OW67633   5.429   3.349  10.414
22536SOL    HW167634   5.336   3.324  10.387
22536SOL    HW267635   5.455   3.299  10.496
22537SOL     OW67636   4.041   2.409  10.590
22537SOL    HW167637   4.079   2.350  10.662
22537SOL    HW267638   4.081   2.383  10.502
22538SOL     OW67639   4.536   3.448   9.997
22538SOL    HW167640   4.568   3.458   9.903
22538SOL    HW267641   4.457   3.386   9.999
22539SOL     OW67642   5.148   2.076  10.422
22539SOL    HW167643   5.200   2.011  10.477
22539SOL    HW267644   5.099   2.139  10.483
22540SOL     OW67645   4.725   1.896  10.464
22540SOL    HW167646   4.662   1.824  10.433
22540SOL    HW267647   4.818   1.860  10.464
22541SOL     OW67648   4.494   3.192   9.611
22541SOL    HW167649   4.448   3.105   9.628
22541SOL    HW267650   4.585   3.189   9.652
22542SOL     OW67651   4.342   3.429  10.594
22542SOL    HW167652   4.337   3.511  10.651
22542SOL    HW267653   4.431   3.426  10.549
22543SOL     OW67654   5.076   1.914   9.478
22543SOL    HW167655   5.111   1.873   9.394
22543SOL    HW267656   4.986   1.876   9.498
22544SOL     OW67657   5.024   2.315  10.001
22544SOL    HW167658   4.965   2.395  10.005
22544SOL    HW267659   5.039   2.280  10.094
22545SOL     OW67660   5.317   2.083  10.192
22545SOL    HW167661   5.233   2.082  10.246
22545SOL    HW267662   5.319   2.166  10.136
22546SOL     OW67663   3.763   2.939   9.610
22546SOL    HW167664   3.862   2.928   9.601
22546SOL    HW267665   3.723   2.853   9.642
22547SOL     OW67666   4.599   3.508   9.647
22547SOL    HW167667   4.522   3.473   9.593
22547SOL    HW267668   4.567   3.579   9.709
22548SOL     OW67669   3.954   2.490  11.285
22548SOL    HW167670   3.861   2.488  11.322
22548SOL    HW267671   3.955   2.451  11.193
22549SOL     OW67672   3.949   2.137  12.168
22549SOL    HW167673   3.984   2.120  12.260
22549SOL    HW267674   3.861   2.092  12.156
22550SOL     OW67675   3.743   2.230  11.819
22550SOL    HW167676   3.661   2.273  11.858
22550SOL    HW267677   3.715   2.157  11.756
22551SOL     OW67678   4.293   3.137  12.337
22551SOL    HW167679   4.200   3.130  12.300
22551SOL    HW267680   4.304   3.226  12.381
22552SOL     OW67681   5.279   3.373  11.875
22552SOL    HW167682   5.222   3.357  11.956
22552SOL    HW267683   5.220   3.383  11.795
22553SOL     OW67684   4.859   2.565  11.889
22553SOL    HW167685   4.916   2.643  11.864
22553SOL    HW267686   4.799   2.591  11.965
22554SOL     OW67687   5.479   2.469  11.403
22554SOL    HW167688   5.467   2.456  11.304
22554SOL    HW267689   5.449   2.388  11.452
22555SOL     OW67690   4.492   3.006  12.195
22555SOL    HW167691   4.414   3.023  12.255
22555SOL    HW267692   4.526   3.093  12.159
22556SOL     OW67693   4.409   2.874  11.837
22556SOL    HW167694   4.478   2.858  11.907
22556SOL    HW267695   4.336   2.931  11.875
22557SOL     OW67696   4.059   3.297  12.233
22557SOL    HW167697   3.981   3.266  12.180
22557SOL    HW267698   4.117   3.355  12.176
22558SOL     OW67699   5.184   3.367  12.511
22558SOL    HW167700   5.208   3.461  12.537
22558SOL    HW267701   5.168   3.313  12.593
22559SOL     OW67702   4.162   2.254  12.671
22559SOL    HW167703   4.244   2.198  12.680
22559SOL    HW267704   4.081   2.196  12.675
22560SOL     OW67705   5.327   2.309  11.909
22560SOL    HW167706   5.253   2.355  11.859
22560SOL    HW267707   5.378   2.377  11.962
22561SOL     OW67708   3.955   3.575  11.655
22561SOL    HW167709   3.989   3.652  11.709
22561SOL    HW267710   3.999   3.575  11.565
22562SOL     OW67711   3.954   3.296  11.710
22562SOL    HW167712   3.928   3.392  11.710
22562SOL    HW267713   3.883   3.242  11.755
22563SOL     OW67714   3.964   2.953  12.058
22563SOL    HW167715   3.978   2.869  12.110
22563SOL    HW267716   3.909   3.017  12.113
22564SOL     OW67717   4.344   3.648  12.611
22564SOL    HW167718   4.252   3.631  12.646
22564SOL    HW267719   4.372   3.740  12.637
22565SOL     OW67720   4.330   2.826  11.295
22565SOL    HW167721   4.337   2.910  11.241
22565SOL    HW267722   4.376   2.839  11.383
22566SOL     OW67723   5.318   1.976  12.652
22566SOL    HW167724   5.300   2.043  12.580
22566SOL    HW267725   5.315   2.022  12.741
22567SOL     OW67726   3.846   2.505  11.735
22567SOL    HW167727   3.801   2.417  11.752
22567SOL    HW267728   3.845   2.559  11.819
22568SOL     OW67729   5.566   3.629  11.531
22568SOL    HW167730   5.620   3.600  11.611
22568SOL    HW267731   5.596   3.719  11.502
22569SOL     OW67732   3.751   3.458  11.289
22569SOL    HW167733   3.732   3.362  11.310
22569SOL    HW267734   3.718   3.516  11.364
22570SOL     OW67735   5.413   2.784  11.784
22570SOL    HW167736   5.508   2.755  11.792
22570SOL    HW267737   5.405   2.849  11.709
22571SOL     OW67738   5.365   2.970  11.604
22571SOL    HW167739   5.451   2.972  11.552
22571SOL    HW267740   5.379   3.017  11.692
22572SOL     OW67741   4.337   3.227  11.898
22572SOL    HW167742   4.288   3.140  11.907
22572SOL    HW267743   4.314   3.270  11.811
22573SOL     OW67744   4.533   1.866  11.674
22573SOL    HW167745   4.573   1.957  11.665
22573SOL    HW267746   4.433   1.874  11.680
22574SOL     OW67747   3.921   2.838  12.436
22574SOL    HW167748   4.010   2.793  12.422
22574SOL    HW267749   3.848   2.773  12.417
22575SOL     OW67750   5.249   2.861  11.362
22575SOL    HW167751   5.186   2.785  11.375
22575SOL    HW267752   5.297   2.879  11.448
22576SOL     OW67753   4.041   2.113  12.973
22576SOL    HW167754   4.112   2.184  12.979
22576SOL    HW267755   3.953   2.152  13.001
22577SOL     OW67756   5.190   3.279  12.125
22577SOL    HW167757   5.131   3.285  12.205
22577SOL    HW267758   5.175   3.191  12.079
22578SOL     OW67759   5.391   3.576  11.744
22578SOL    HW167760   5.350   3.553  11.656
22578SOL    HW267761   5.373   3.502  11.809
22579SOL     OW67762   4.322   2.591  11.442
22579SOL    HW167763   4.346   2.660  11.374
22579SOL    HW267764   4.244   2.624  11.496
22580SOL     OW67765   5.005   2.207  12.116
22580SOL    HW167766   4.919   2.157  12.103
22580SOL    HW267767   5.067   2.153  12.172
22581SOL     OW67768   5.300   3.524  11.479
22581SOL    HW167769   5.389   3.570  11.482
22581SOL    HW267770   5.279   3.500  11.384
22582SOL     OW67771   4.531   2.467  12.637
22582SOL    HW167772   4.484   2.464  12.726
22582SOL    HW267773   4.480   2.412  12.571
22583SOL     OW67774   4.715   2.272  12.414
22583SOL    HW167775   4.638   2.306  12.468
22583SOL    HW267776   4.681   2.221  12.335
22584SOL     OW67777   4.765   2.563  11.601
22584SOL    HW167778   4.791   2.559  11.697
22584SOL    HW267779   4.680   2.512  11.587
22585SOL     OW67780   3.800   2.673  11.961
22585SOL    HW167781   3.899   2.661  11.970
22585SOL    HW267782   3.776   2.768  11.982
22586SOL     OW67783   3.854   3.683  12.743
22586SOL    HW167784   3.844   3.668  12.842
22586SOL    HW267785   3.768   3.719  12.707
22587SOL     OW67786   4.589   2.210  11.367
22587SOL    HW167787   4.648   2.273  11.318
22587SOL    HW267788   4.608   2.116  11.338
22588SOL     OW67789   5.086   3.006  11.717
22588SOL    HW167790   5.169   2.977  11.669
22588SOL    HW267791   5.037   3.073  11.661
22589SOL     OW67792   4.274   2.058  12.057
22589SOL    HW167793   4.269   2.053  12.157
22589SOL    HW267794   4.276   2.154  12.028
22590SOL     OW67795   4.732   3.318  11.649
22590SOL    HW167796   4.686   3.390  11.597
22590SOL    HW267797   4.728   3.338  11.747
22591SOL     OW67798   4.075   3.663  12.025
22591SOL    HW167799   4.125   3.577  12.031
22591SOL    HW267800   4.140   3.740  12.022
22592SOL     OW67801   5.519   2.928  12.045
22592SOL    HW167802   5.457   2.913  11.969
22592SOL    HW267803   5.467   2.939  12.130
22593SOL     OW67804   4.045   2.805  11.414
22593SOL    HW167805   4.127   2.844  11.372
22593SOL    HW267806   4.018   2.723  11.365
22594SOL     OW67807   5.182   2.597  11.900
22594SOL    HW167808   5.177   2.532  11.975
22594SOL    HW267809   5.262   2.656  11.913
22595SOL     OW67810   4.835   3.638  11.409
22595SOL    HW167811   4.775   3.576  11.459
22595SOL    HW267812   4.866   3.594  11.324
22596SOL     OW67813   3.926   2.147  12.670
22596SOL    HW167814   3.846   2.207  12.657
22596SOL    HW267815   3.916   2.098  12.756
22597SOL     OW67816   5.356   3.239  11.253
22597SOL    HW167817   5.324   3.333  11.243
22597SOL    HW267818   5.280   3.176  11.241
22598SOL     OW67819   4.188   3.605  11.495
22598SOL    HW167820   4.221   3.644  11.581
22598SOL    HW267821   4.264   3.598  11.430
22599SOL     OW67822   5.124   1.969  11.598
22599SOL    HW167823   5.100   1.932  11.508
22599SOL    HW267824   5.223   1.985  11.602
22600SOL     OW67825   3.973   3.647  12.413
22600SOL    HW167826   4.030   3.582  12.463
22600SOL    HW267827   3.957   3.614  12.320
22601SOL     OW67828   4.664   3.560  12.076
22601SOL    HW167829   4.744   3.503  12.097
22601SOL    HW267830   4.615   3.520  11.999
22602SOL     OW67831   4.106   2.562  11.652
22602SOL    HW167832   4.151   2.472  11.649
22602SOL    HW267833   4.012   2.551  11.685
22603SOL     OW67834   4.338   1.984  11.289
22603SOL    HW167835   4.436   1.962  11.296
22603SOL    HW267836   4.307   1.967  11.196
22604SOL     OW67837   4.612   3.376  12.367
22604SOL    HW167838   4.589   3.351  12.273
22604SOL    HW267839   4.673   3.307  12.406
22605SOL     OW67840   4.527   3.264  12.096
22605SOL    HW167841   4.617   3.278  12.054
22605SOL    HW267842   4.456   3.266  12.025
22606SOL     OW67843   4.646   2.365  12.071
22606SOL    HW167844   4.621   2.356  11.975
22606SOL    HW267845   4.694   2.283  12.102
22607SOL     OW67846   4.263   1.926  11.684
22607SOL    HW167847   4.182   1.927  11.742
22607SOL    HW267848   4.266   2.009  11.629
22608SOL     OW67849   5.158   3.050  11.213
22608SOL    HW167850   5.190   2.974  11.270
22608SOL    HW267851   5.066   3.077  11.243
22609SOL     OW67852   4.021   1.897  11.343
22609SOL    HW167853   4.070   1.981  11.322
22609SOL    HW267854   4.083   1.832  11.388
22610SOL     OW67855   4.659   2.098  11.652
22610SOL    HW167856   4.611   2.139  11.574
22610SOL    HW267857   4.758   2.096  11.633
22611SOL     OW67858   4.951   3.432  11.965
22611SOL    HW167859   4.972   3.506  11.900
22611SOL    HW267860   5.019   3.432  12.038
22612SOL     OW67861   4.183   3.014  11.913
22612SOL    HW167862   4.112   2.987  11.978
22612SOL    HW267863   4.157   2.986  11.820
22613SOL     OW67864   4.995   3.659  11.763
22613SOL    HW167865   5.039   3.723  11.699
22613SOL    HW267866   4.945   3.711  11.833
22614SOL     OW67867   4.756   2.411  11.188
22614SOL    HW167868   4.715   2.493  11.149
22614SOL    HW267869   4.820   2.437  11.261
22615SOL     OW67870   3.802   2.418  12.558
22615SOL    HW167871   3.894   2.417  12.517
22615SOL    HW267872   3.796   2.492  12.625
22616SOL     OW67873   4.285   2.084  12.319
22616SOL    HW167874   4.323   2.000  12.356
22616SOL    HW267875   4.197   2.103  12.363
22617SOL     OW67876   4.590   2.316  11.814
22617SOL    HW167877   4.558   2.388  11.752
22617SOL    HW267878   4.614   2.235  11.761
22618SOL     OW67879   4.741   1.901  11.925
22618SOL    HW167880   4.669   1.906  11.856
22618SOL    HW267881   4.717   1.832  11.994
22619SOL     OW67882   5.153   3.035  12.039
22619SOL    HW167883   5.098   2.951  12.032
22619SOL    HW267884   5.179   3.064  11.947
22620SOL     OW67885   5.190   2.452  12.164
22620SOL    HW167886   5.160   2.357  12.171
22620SOL    HW267887   5.263   2.468  12.230
22621SOL     OW67888   5.581   2.695  11.549
22621SOL    HW167889   5.623   2.631  11.613
22621SOL    HW267890   5.543   2.644  11.471
22622SOL     OW67891   4.212   3.247  11.346
22622SOL    HW167892   4.125   3.232  11.393
22622SOL    HW267893   4.195   3.273  11.251
22623SOL     OW67894   5.388   3.142  11.829
22623SOL    HW167895   5.487   3.150  11.843
22623SOL    HW267896   5.343   3.226  11.860
22624SOL     OW67897   5.114   2.437  11.250
22624SOL    HW167898   5.060   2.416  11.331
22624SOL    HW267899   5.205   2.396  11.259
22625SOL     OW67900   4.251   2.118  11.500
22625SOL    HW167901   4.278   2.059  11.425
22625SOL    HW267902   4.251   2.213  11.469
22626SOL     OW67903   4.788   3.209  12.512
22626SOL    HW167904   4.708   3.186  12.567
22626SOL    HW267905   4.871   3.183  12.561
22627SOL     OW67906   4.835   3.057  12.272
22627SOL    HW167907   4.795   3.101  12.353
22627SOL    HW267908   4.794   3.094  12.189
22628SOL     OW67909   5.362   2.961  12.251
22628SOL    HW167910   5.367   3.042  12.310
22628SOL    HW267911   5.276   2.963  12.200
22629SOL     OW67912   4.639   1.951  12.574
22629SOL    HW167913   4.664   1.931  12.479
22629SOL    HW267914   4.711   2.007  12.616
22630SOL     OW67915   4.429   2.912  11.540
22630SOL    HW167916   4.415   2.919  11.639
22630SOL    HW267917   4.513   2.861  11.522
22631SOL     OW67918   4.134   2.675  12.423
22631SOL    HW167919   4.220   2.687  12.473
22631SOL    HW267920   4.092   2.588  12.450
22632SOL     OW67921   4.998   2.248  12.434
22632SOL    HW167922   5.019   2.322  12.498
22632SOL    HW267923   4.909   2.265  12.391
22633SOL     OW67924   3.788   3.426  12.503
22633SOL    HW167925   3.742   3.508  12.469
22633SOL    HW267926   3.886   3.445  12.512
22634SOL     OW67927   4.091   2.962  11.673
22634SOL    HW167928   4.084   3.045  11.617
22634SOL    HW267929   4.095   2.882  11.613
22635SOL     OW67930   4.290   2.399  12.037
22635SOL    HW167931   4.302   2.465  11.963
22635SOL    HW267932   4.336   2.433  12.120
22636SOL     OW67933   4.976   3.210  11.560
22636SOL    HW167934   5.026   3.287  11.600
22636SOL    HW267935   4.881   3.212  11.592
22637SOL     OW67936   4.996   3.307  12.314
22637SOL    HW167937   5.043   3.320  12.401
22637SOL    HW267938   4.930   3.233  12.323
22638SOL     OW67939   5.306   2.501  11.644
22638SOL    HW167940   5.275   2.562  11.717
22638SOL    HW267941   5.356   2.553  11.575
22639SOL     OW67942   4.078   3.372  12.501
22639SOL    HW167943   4.057   3.328  12.414
22639SOL    HW267944   4.175   3.398  12.504
22640SOL     OW67945   4.126   2.613  12.770
22640SOL    HW167946   4.194   2.668  12.723
22640SOL    HW267947   4.166   2.525  12.797
22641SOL     OW67948   5.311   2.641  12.842
22641SOL    HW167949   5.219   2.679  12.837
22641SOL    HW267950   5.371   2.688  12.777
22642SOL     OW67951   4.297   2.732  12.201
22642SOL    HW167952   4.341   2.821  12.192
22642SOL    HW267953   4.234   2.732  12.278
22643SOL     OW67954   5.084   2.724  12.217
22643SOL    HW167955   5.009   2.724  12.151
22643SOL    HW267956   5.121   2.632  12.226
22644SOL     OW67957   4.933   2.387  11.447
22644SOL    HW167958   4.946   2.303  11.501
22644SOL    HW267959   4.904   2.461  11.507
22645SOL     OW67960   4.031   2.075  12.403
22645SOL    HW167961   4.008   2.112  12.493
22645SOL    HW267962   4.001   1.980  12.397
22646SOL     OW67963   3.761   3.172  12.454
22646SOL    HW167964   3.814   3.123  12.522
22646SOL    HW267965   3.783   3.270  12.459
22647SOL     OW67966   4.456   2.496  12.236
22647SOL    HW167967   4.515   2.470  12.160
22647SOL    HW267968   4.428   2.592  12.225
22648SOL     OW67969   4.031   1.925  11.790
22648SOL    HW167970   4.020   2.019  11.823
22648SOL    HW267971   4.026   1.862  11.867
22649SOL     OW67972   5.346   2.229  11.546
22649SOL    HW167973   5.348   2.153  11.610
22649SOL    HW267974   5.298   2.306  11.586
22650SOL     OW67975   4.747   2.628  12.138
22650SOL    HW167976   4.762   2.649  12.234
22650SOL    HW267977   4.717   2.533  12.129
22651SOL     OW67978   4.704   3.435  12.872
22651SOL    HW167979   4.684   3.479  12.784
22651SOL    HW267980   4.743   3.344  12.856
22652SOL     OW67981   5.264   2.136  11.297
22652SOL    HW167982   5.203   2.061  11.320
22652SOL    HW267983   5.286   2.188  11.380
22653SOL     OW67984   5.027   2.700  11.214
22653SOL    HW167985   5.061   2.607  11.229
22653SOL    HW267986   5.045   2.727  11.119
22654SOL     OW67987   4.792   3.195  12.021
22654SOL    HW167988   4.799   3.111  11.966
22654SOL    HW267989   4.854   3.264  11.985
22655SOL     OW67990   4.043   2.672  12.121
22655SOL    HW167991   4.136   2.708  12.126
22655SOL    HW267992   4.037   2.587  12.173
22656SOL     OW67993   4.063   2.371  12.178
22656SOL    HW167994   4.011   2.288  12.161
22656SOL    HW267995   4.140   2.376  12.114
22657SOL     OW67996   4.862   2.242  12.850
22657SOL    HW167997   4.817   2.305  12.914
22657SOL    HW267998   4.955   2.273  12.833
22658SOL     OW67999   4.884   2.069  12.649
22658SOL    HW168000   4.884   2.133  12.726
22658SOL    HW268001   4.912   2.117  12.566
22659SOL     OW68002   3.732   3.188  11.372
22659SOL    HW168003   3.639   3.209  11.341
22659SOL    HW268004   3.742   3.089  11.385
22660SOL     OW68005   3.812   3.663  12.099
22660SOL    HW168006   3.770   3.577  12.072
22660SOL    HW268007   3.906   3.666  12.065
22661SOL     OW68008   4.228   3.430  12.082
22661SOL    HW168009   4.294   3.504  12.091
22661SOL    HW268010   4.272   3.351  12.040
22662SOL     OW68011   4.726   2.658  12.410
22662SOL    HW168012   4.767   2.626  12.496
22662SOL    HW268013   4.630   2.631  12.407
22663SOL     OW68014   3.764   2.406  12.286
22663SOL    HW168015   3.849   2.373  12.245
22663SOL    HW268016   3.777   2.421  12.384
22664SOL     OW68017   4.539   2.434  11.497
22664SOL    HW168018   4.546   2.345  11.451
22664SOL    HW268019   4.445   2.468  11.489
22665SOL     OW68020   5.381   2.466  12.378
22665SOL    HW168021   5.343   2.397  12.440
22665SOL    HW268022   5.463   2.430  12.334
22666SOL     OW68023   4.395   2.326  12.441
22666SOL    HW168024   4.361   2.237  12.411
22666SOL    HW268025   4.421   2.380  12.361
22667SOL     OW68026   4.654   3.540  12.637
22667SOL    HW168027   4.630   3.522  12.542
22667SOL    HW268028   4.684   3.634  12.647
22668SOL     OW68029   4.197   2.362  11.363
22668SOL    HW168030   4.258   2.442  11.367
22668SOL    HW268031   4.102   2.393  11.370
22669SOL     OW68032   3.883   2.999  12.638
22669SOL    HW168033   3.905   2.938  12.714
22669SOL    HW268034   3.893   2.950  12.552
22670SOL     OW68035   5.071   2.921  12.406
22670SOL    HW168036   5.095   2.858  12.332
22670SOL    HW268037   4.981   2.961  12.388
22671SOL     OW68038   5.026   2.717  11.481
22671SOL    HW168039   4.940   2.686  11.523
22671SOL    HW268040   5.022   2.703  11.382
22672SOL     OW68041   5.483   3.609  12.326
22672SOL    HW168042   5.544   3.639  12.253
22672SOL    HW268043   5.445   3.520  12.304
22673SOL     OW68044   4.976   3.593  12.300
22673SOL    HW168045   5.060   3.598  12.246
22673SOL    HW268046   4.953   3.497  12.318
22674SOL     OW68047   3.807   3.120  12.194
22674SOL    HW168048   3.802   3.119  12.294
22674SOL    HW268049   3.724   3.079  12.156
22675SOL     OW68050   5.450   1.997  11.695
22675SOL    HW168051   5.523   1.980  11.628
22675SOL    HW268052   5.419   1.910  11.733
22676SOL     OW68053   5.112   3.435  11.649
22676SOL    HW168054   5.179   3.447  11.575
22676SOL    HW268055   5.072   3.524  11.672
22677SOL     OW68056   5.004   2.789  11.844
22677SOL    HW168057   5.064   2.708  11.846
22677SOL    HW268058   5.044   2.858  11.784
22678SOL     OW68059   4.396   3.478  11.326
22678SOL    HW168060   4.405   3.488  11.227
22678SOL    HW268061   4.356   3.389  11.347
22679SOL     OW68062   5.374   3.582  12.566
22679SOL    HW168063   5.427   3.592  12.482
22679SOL    HW268064   5.347   3.672  12.600
22680SOL     OW68065   5.565   2.037  12.135
22680SOL    HW168066   5.604   1.952  12.099
22680SOL    HW268067   5.467   2.039  12.116
22681SOL     OW68068   3.987   2.188  11.892
22681SOL    HW168069   3.908   2.239  11.858
22681SOL    HW268070   3.978   2.173  11.990
22682SOL     OW68071   4.918   3.474  11.203
22682SOL    HW168072   4.924   3.381  11.240
22682SOL    HW268073   4.859   3.474  11.123
22683SOL     OW68074   4.546   2.864  12.544
22683SOL    HW168075   4.586   2.863  12.452
22683SOL    HW268076   4.556   2.956  12.584
22684SOL     OW68077   4.640   2.772  11.463
22684SOL    HW168078   4.703   2.810  11.395
22684SOL    HW268079   4.680   2.689  11.502
22685SOL     OW68080   5.228   3.469  11.216
22685SOL    HW168081   5.136   3.506  11.223
22685SOL    HW268082   5.266   3.489  11.126
22686SOL     OW68083   4.096   3.150  12.662
22686SOL    HW168084   4.083   3.243  12.628
22686SOL    HW268085   4.012   3.098  12.649
22687SOL     OW68086   5.338   3.154  12.461
22687SOL    HW168087   5.398   3.157  12.541
22687SOL    HW268088   5.263   3.218  12.474
22688SOL     OW68089   4.763   2.960  11.868
22688SOL    HW168090   4.693   2.913  11.922
22688SOL    HW268091   4.822   2.892  11.825
22689SOL     OW68092   4.738   2.098  12.143
22689SOL    HW168093   4.730   2.062  12.050
22689SOL    HW268094   4.736   2.022  12.208
22690SOL     OW68095   4.314   3.349  11.663
22690SOL    HW168096   4.356   3.291  11.593
22690SOL    HW268097   4.270   3.428  11.619
22691SOL     OW68098   5.433   2.247  12.553
22691SOL    HW168099   5.506   2.316  12.557
22691SOL    HW268100   5.461   2.172  12.494
22692SOL     OW68101   3.979   3.210  11.462
22692SOL    HW168102   3.883   3.211  11.435
22692SOL    HW268103   3.991   3.263  11.546
22693SOL     OW68104   3.799   2.207  11.205
22693SOL    HW168105   3.707   2.179  11.176
22693SOL    HW268106   3.830   2.284  11.149
22694SOL     OW68107   5.164   2.718  12.570
22694SOL    HW168108   5.107   2.770  12.507
22694SOL    HW268109   5.260   2.730  12.546
22695SOL     OW68110   3.796   2.028  11.490
22695SOL    HW168111   3.779   2.111  11.436
22695SOL    HW268112   3.886   1.991  11.468
22696SOL     OW68113   4.907   3.197  11.291
22696SOL    HW168114   4.808   3.186  11.293
22696SOL    HW268115   4.941   3.212  11.384
22697SOL     OW68116   4.337   2.704  12.603
22697SOL    HW168117   4.393   2.785  12.586
22697SOL    HW268118   4.396   2.624  12.606
22698SOL     OW68119   5.217   3.629  12.131
22698SOL    HW168120   5.250   3.693  12.062
22698SOL    HW268121   5.283   3.623  12.206
22699SOL     OW68122   4.114   3.603  12.732
22699SOL    HW168123   4.023   3.644  12.730
22699SOL    HW268124   4.107   3.509  12.764
22700SOL     OW68125   5.398   2.745  12.426
22700SOL    HW168126   5.371   2.656  12.389
22700SOL    HW268127   5.399   2.813  12.353
22701SOL     OW68128   4.949   2.187  11.621
22701SOL    HW168129   5.014   2.113  11.610
22701SOL    HW268130   4.969   2.237  11.705
22702SOL     OW68131   4.318   2.607  11.824
22702SOL    HW168132   4.368   2.692  11.805
22702SOL    HW268133   4.230   2.609  11.776
22703SOL     OW68134   5.501   2.204  12.814
22703SOL    HW168135   5.484   2.235  12.720
22703SOL    HW268136   5.417   2.167  12.852
22704SOL     OW68137   5.454   2.796  12.689
22704SOL    HW168138   5.492   2.887  12.704
22704SOL    HW268139   5.446   2.779  12.590
22705SOL     OW68140   4.583   3.236  11.188
22705SOL    HW168141   4.537   3.251  11.276
22705SOL    HW268142   4.627   3.321  11.158
22706SOL     OW68143   4.385   3.652  12.125
22706SOL    HW168144   4.339   3.740  12.112
22706SOL    HW268145   4.484   3.664  12.118
22707SOL     OW68146   4.583   2.818  12.033
22707SOL    HW168147   4.637   2.749  12.081
22707SOL    HW268148   4.551   2.887  12.099
22708SOL     OW68149   4.807   2.846  11.259
22708SOL    HW168150   4.784   2.899  11.177
22708SOL    HW268151   4.888   2.790  11.240
22709SOL     OW68152   5.585   3.431  12.023
22709SOL    HW168153   5.514   3.419  11.953
22709SOL    HW268154   5.586   3.352  12.083
22710SOL     OW68155   3.803   3.102  11.825
22710SOL    HW168156   3.802   3.055  11.913
22710SOL    HW268157   3.885   3.074  11.774
22711SOL     OW68158   5.548   2.054  12.399
22711SOL    HW168159   5.544   1.964  12.443
22711SOL    HW268160   5.551   2.043  12.300
22712SOL     OW68161   4.152   2.286  11.692
22712SOL    HW168162   4.182   2.214  11.630
22712SOL    HW268163   4.113   2.246  11.775
22713SOL     OW68164   5.429   3.349  12.276
22713SOL    HW168165   5.336   3.324  12.249
22713SOL    HW268166   5.455   3.299  12.358
22714SOL     OW68167   4.041   2.409  12.452
22714SOL    HW168168   4.079   2.350  12.524
22714SOL    HW268169   4.081   2.383  12.364
22715SOL     OW68170   4.536   3.448  11.859
22715SOL    HW168171   4.568   3.458  11.765
22715SOL    HW268172   4.457   3.386  11.861
22716SOL     OW68173   5.148   2.076  12.284
22716SOL    HW168174   5.200   2.011  12.339
22716SOL    HW268175   5.099   2.139  12.345
22717SOL     OW68176   4.725   1.896  12.326
22717SOL    HW168177   4.662   1.824  12.295
22717SOL    HW268178   4.818   1.860  12.326
22718SOL     OW68179   4.494   3.192  11.473
22718SOL    HW168180   4.448   3.105  11.490
22718SOL    HW268181   4.585   3.189  11.514
22719SOL     OW68182   4.342   3.429  12.456
22719SOL    HW168183   4.337   3.511  12.513
22719SOL    HW268184   4.431   3.426  12.411
22720SOL     OW68185   5.076   1.914  11.340
22720SOL    HW168186   5.111   1.873  11.256
22720SOL    HW268187   4.986   1.876  11.360
22721SOL     OW68188   5.024   2.315  11.863
22721SOL    HW168189   4.965   2.395  11.867
22721SOL    HW268190   5.039   2.280  11.956
22722SOL     OW68191   5.317   2.083  12.054
22722SOL    HW168192   5.233   2.082  12.108
22722SOL    HW268193   5.319   2.166  11.998
22723SOL     OW68194   3.763   2.939  11.472
22723SOL    HW168195   3.862   2.928  11.463
22723SOL    HW268196   3.723   2.853  11.504
22724SOL     OW68197   4.599   3.508  11.509
22724SOL    HW168198   4.522   3.473  11.455
22724SOL    HW268199   4.567   3.579  11.571
22725SOL     OW68200   3.954   4.352   0.113
22725SOL    HW168201   3.861   4.350   0.150
22725SOL    HW268202   3.955   4.313   0.021
22726SOL     OW68203   3.949   3.999   0.996
22726SOL    HW168204   3.984   3.982   1.088
22726SOL    HW268205   3.861   3.954   0.984
22727SOL     OW68206   3.743   4.092   0.647
22727SOL    HW168207   3.661   4.135   0.686
22727SOL    HW268208   3.715   4.019   0.584
22728SOL     OW68209   4.293   4.999   1.165
22728SOL    HW168210   4.200   4.992   1.128
22728SOL    HW268211   4.304   5.088   1.209
22729SOL     OW68212   5.279   5.235   0.703
22729SOL    HW168213   5.222   5.219   0.784
22729SOL    HW268214   5.220   5.245   0.623
22730SOL     OW68215   4.859   4.427   0.717
22730SOL    HW168216   4.916   4.505   0.692
22730SOL    HW268217   4.799   4.453   0.793
22731SOL     OW68218   5.479   4.331   0.231
22731SOL    HW168219   5.467   4.318   0.132
22731SOL    HW268220   5.449   4.250   0.280
22732SOL     OW68221   4.492   4.868   1.023
22732SOL    HW168222   4.414   4.885   1.083
22732SOL    HW268223   4.526   4.955   0.987
22733SOL     OW68224   4.574   4.522   1.823
22733SOL    HW168225   4.570   4.598   1.888
22733SOL    HW268226   4.596   4.558   1.732
22734SOL     OW68227   4.409   4.736   0.665
22734SOL    HW168228   4.478   4.720   0.735
22734SOL    HW268229   4.336   4.793   0.703
22735SOL     OW68230   4.410   4.885   1.803
22735SOL    HW168231   4.470   4.964   1.817
22735SOL    HW268232   4.324   4.916   1.762
22736SOL     OW68233   4.059   5.159   1.061
22736SOL    HW168234   3.981   5.128   1.008
22736SOL    HW268235   4.117   5.217   1.004
22737SOL     OW68236   5.184   5.229   1.339
22737SOL    HW168237   5.208   5.323   1.365
22737SOL    HW268238   5.168   5.175   1.421
22738SOL     OW68239   4.162   4.116   1.499
22738SOL    HW168240   4.244   4.060   1.508
22738SOL    HW268241   4.081   4.058   1.503
22739SOL     OW68242   5.327   4.171   0.737
22739SOL    HW168243   5.253   4.217   0.687
22739SOL    HW268244   5.378   4.239   0.790
22740SOL     OW68245   3.955   5.437   0.483
22740SOL    HW168246   3.989   5.514   0.537
22740SOL    HW268247   3.999   5.437   0.393
22741SOL     OW68248   4.851   5.065   1.690
22741SOL    HW168249   4.898   5.065   1.778
22741SOL    HW268250   4.803   4.978   1.679
22742SOL     OW68251   3.954   5.158   0.538
22742SOL    HW168252   3.928   5.254   0.538
22742SOL    HW268253   3.883   5.104   0.583
22743SOL     OW68254   3.964   4.815   0.886
22743SOL    HW168255   3.978   4.731   0.938
22743SOL    HW268256   3.909   4.879   0.941
22744SOL     OW68257   4.344   5.510   1.439
22744SOL    HW168258   4.252   5.493   1.474
22744SOL    HW268259   4.372   5.602   1.465
22745SOL     OW68260   4.330   4.688   0.123
22745SOL    HW168261   4.337   4.772   0.069
22745SOL    HW268262   4.376   4.701   0.211
22746SOL     OW68263   5.318   3.838   1.480
22746SOL    HW168264   5.300   3.905   1.408
22746SOL    HW268265   5.315   3.884   1.569
22747SOL     OW68266   3.846   4.367   0.563
22747SOL    HW168267   3.801   4.279   0.580
22747SOL    HW268268   3.845   4.421   0.647
22748SOL     OW68269   5.566   5.491   0.359
22748SOL    HW168270   5.620   5.462   0.439
22748SOL    HW268271   5.596   5.581   0.330
22749SOL     OW68272   3.751   5.320   0.117
22749SOL    HW168273   3.732   5.224   0.138
22749SOL    HW268274   3.718   5.378   0.192
22750SOL     OW68275   5.413   4.646   0.612
22750SOL    HW168276   5.508   4.617   0.620
22750SOL    HW268277   5.405   4.711   0.537
22751SOL     OW68278   5.365   4.832   0.432
22751SOL    HW168279   5.451   4.834   0.380
22751SOL    HW268280   5.379   4.879   0.520
22752SOL     OW68281   3.837   4.461   1.597
22752SOL    HW168282   3.925   4.448   1.642
22752SOL    HW268283   3.824   4.558   1.575
22753SOL     OW68284   4.337   5.089   0.726
22753SOL    HW168285   4.288   5.002   0.735
22753SOL    HW268286   4.314   5.132   0.639
22754SOL     OW68287   5.017   4.952   1.423
22754SOL    HW168288   5.054   4.879   1.365
22754SOL    HW268289   5.069   4.957   1.508
22755SOL     OW68290   4.533   3.728   0.502
22755SOL    HW168291   4.573   3.819   0.493
22755SOL    HW268292   4.433   3.736   0.508
22756SOL     OW68293   3.921   4.700   1.264
22756SOL    HW168294   4.010   4.655   1.250
22756SOL    HW268295   3.848   4.635   1.245
22757SOL     OW68296   5.249   4.723   0.190
22757SOL    HW168297   5.186   4.647   0.203
22757SOL    HW268298   5.297   4.741   0.276
22758SOL     OW68299   4.911   5.516   1.616
22758SOL    HW168300   4.935   5.576   1.540
22758SOL    HW268301   4.918   5.421   1.586
22759SOL     OW68302   4.041   3.975   1.801
22759SOL    HW168303   4.112   4.046   1.807
22759SOL    HW268304   3.953   4.014   1.829
22760SOL     OW68305   5.190   5.141   0.953
22760SOL    HW168306   5.131   5.147   1.033
22760SOL    HW268307   5.175   5.053   0.907
22761SOL     OW68308   5.391   5.438   0.572
22761SOL    HW168309   5.350   5.415   0.484
22761SOL    HW268310   5.373   5.364   0.637
22762SOL     OW68311   4.322   4.453   0.270
22762SOL    HW168312   4.346   4.522   0.202
22762SOL    HW268313   4.244   4.486   0.324
22763SOL     OW68314   5.005   4.069   0.944
22763SOL    HW168315   4.919   4.019   0.931
22763SOL    HW268316   5.067   4.015   1.000
22764SOL     OW68317   5.300   5.386   0.307
22764SOL    HW168318   5.389   5.432   0.310
22764SOL    HW268319   5.279   5.362   0.212
22765SOL     OW68320   4.531   4.329   1.465
22765SOL    HW168321   4.484   4.326   1.554
22765SOL    HW268322   4.480   4.274   1.399
22766SOL     OW68323   5.118   4.193   1.674
22766SOL    HW168324   5.098   4.236   1.762
22766SOL    HW268325   5.196   4.131   1.683
22767SOL     OW68326   4.697   4.614   1.572
22767SOL    HW168327   4.743   4.530   1.543
22767SOL    HW268328   4.641   4.648   1.497
22768SOL     OW68329   4.715   4.134   1.242
22768SOL    HW168330   4.638   4.168   1.296
22768SOL    HW268331   4.681   4.083   1.163
22769SOL     OW68332   4.765   4.425   0.429
22769SOL    HW168333   4.791   4.421   0.525
22769SOL    HW268334   4.680   4.374   0.415
22770SOL     OW68335   3.800   4.535   0.789
22770SOL    HW168336   3.899   4.523   0.798
22770SOL    HW268337   3.776   4.630   0.810
22771SOL     OW68338   3.854   5.545   1.571
22771SOL    HW168339   3.844   5.530   1.670
22771SOL    HW268340   3.768   5.581   1.535
22772SOL     OW68341   4.589   4.072   0.195
22772SOL    HW168342   4.648   4.135   0.146
22772SOL    HW268343   4.608   3.978   0.166
22773SOL     OW68344   5.443   4.309   1.831
22773SOL    HW168345   5.417   4.398   1.795
22773SOL    HW268346   5.441   4.241   1.758
22774SOL     OW68347   5.086   4.868   0.545
22774SOL    HW168348   5.169   4.839   0.497
22774SOL    HW268349   5.037   4.935   0.489
22775SOL     OW68350   4.274   3.920   0.885
22775SOL    HW168351   4.269   3.915   0.985
22775SOL    HW268352   4.276   4.016   0.856
22776SOL     OW68353   4.732   5.180   0.477
22776SOL    HW168354   4.686   5.252   0.425
22776SOL    HW268355   4.728   5.200   0.575
22777SOL     OW68356   4.075   5.525   0.853
22777SOL    HW168357   4.125   5.439   0.859
22777SOL    HW268358   4.140   5.602   0.850
22778SOL     OW68359   5.519   4.790   0.873
22778SOL    HW168360   5.457   4.775   0.797
22778SOL    HW268361   5.467   4.801   0.958
22779SOL     OW68362   4.951   5.274   1.506
22779SOL    HW168363   4.957   5.197   1.570
22779SOL    HW268364   4.899   5.248   1.426
22780SOL     OW68365   4.045   4.667   0.242
22780SOL    HW168366   4.127   4.706   0.200
22780SOL    HW268367   4.018   4.585   0.193
22781SOL     OW68368   5.182   4.459   0.728
22781SOL    HW168369   5.177   4.394   0.803
22781SOL    HW268370   5.262   4.518   0.741
22782SOL     OW68371   4.185   4.990   1.727
22782SOL    HW168372   4.135   4.991   1.641
22782SOL    HW268373   4.122   4.972   1.803
22783SOL     OW68374   4.835   5.500   0.237
22783SOL    HW168375   4.775   5.438   0.287
22783SOL    HW268376   4.866   5.456   0.152
22784SOL     OW68377   3.926   4.009   1.498
22784SOL    HW168378   3.846   4.069   1.485
22784SOL    HW268379   3.916   3.960   1.584
22785SOL     OW68380   5.356   5.101   0.081
22785SOL    HW168381   5.324   5.195   0.071
22785SOL    HW268382   5.280   5.038   0.069
22786SOL     OW68383   4.188   5.467   0.323
22786SOL    HW168384   4.221   5.506   0.409
22786SOL    HW268385   4.264   5.460   0.258
22787SOL     OW68386   5.124   3.831   0.426
22787SOL    HW168387   5.100   3.794   0.336
22787SOL    HW268388   5.223   3.847   0.430
22788SOL     OW68389   3.973   5.509   1.241
22788SOL    HW168390   4.030   5.444   1.291
22788SOL    HW268391   3.957   5.476   1.148
22789SOL     OW68392   4.664   5.422   0.904
22789SOL    HW168393   4.744   5.365   0.925
22789SOL    HW268394   4.615   5.382   0.827
22790SOL     OW68395   4.106   4.424   0.480
22790SOL    HW168396   4.151   4.334   0.477
22790SOL    HW268397   4.012   4.413   0.513
22791SOL     OW68398   5.271   3.946   1.729
22791SOL    HW168399   5.266   3.983   1.821
22791SOL    HW268400   5.199   3.877   1.717
22792SOL     OW68401   4.338   3.846   0.117
22792SOL    HW168402   4.436   3.824   0.124
22792SOL    HW268403   4.307   3.829   0.024
22793SOL     OW68404   4.505   3.988   1.749
22793SOL    HW168405   4.572   3.927   1.792
22793SOL    HW268406   4.432   4.007   1.814
22794SOL     OW68407   4.612   5.238   1.195
22794SOL    HW168408   4.589   5.213   1.101
22794SOL    HW268409   4.673   5.169   1.234
22795SOL     OW68410   5.075   4.314   1.433
22795SOL    HW168411   5.103   4.271   1.518
22795SOL    HW268412   5.100   4.410   1.434
22796SOL     OW68413   4.527   5.126   0.924
22796SOL    HW168414   4.617   5.140   0.882
22796SOL    HW268415   4.456   5.128   0.853
22797SOL     OW68416   4.646   4.227   0.899
22797SOL    HW168417   4.621   4.218   0.803
22797SOL    HW268418   4.694   4.145   0.930
22798SOL     OW68419   4.263   3.788   0.512
22798SOL    HW168420   4.182   3.789   0.570
22798SOL    HW268421   4.266   3.871   0.457
22799SOL     OW68422   5.158   4.912   0.041
22799SOL    HW168423   5.190   4.836   0.098
22799SOL    HW268424   5.066   4.939   0.071
22800SOL     OW68425   4.021   3.759   0.171
22800SOL    HW168426   4.070   3.843   0.150
22800SOL    HW268427   4.083   3.694   0.216
22801SOL     OW68428   4.659   3.960   0.480
22801SOL    HW168429   4.611   4.001   0.402
22801SOL    HW268430   4.758   3.958   0.461
22802SOL     OW68431   4.800   4.407   1.464
22802SOL    HW168432   4.720   4.346   1.467
22802SOL    HW268433   4.881   4.354   1.440
22803SOL     OW68434   4.951   5.294   0.793
22803SOL    HW168435   4.972   5.368   0.728
22803SOL    HW268436   5.019   5.294   0.866
22804SOL     OW68437   4.183   4.876   0.741
22804SOL    HW168438   4.112   4.849   0.806
22804SOL    HW268439   4.157   4.848   0.648
22805SOL     OW68440   4.995   5.521   0.591
22805SOL    HW168441   5.039   5.585   0.527
22805SOL    HW268442   4.945   5.573   0.661
22806SOL     OW68443   4.756   4.273   0.016
22806SOL    HW168444   4.715   4.355  -0.023
22806SOL    HW268445   4.820   4.299   0.089
22807SOL     OW68446   3.802   4.280   1.386
22807SOL    HW168447   3.894   4.279   1.345
22807SOL    HW268448   3.796   4.354   1.453
22808SOL     OW68449   4.285   3.946   1.147
22808SOL    HW168450   4.323   3.862   1.184
22808SOL    HW268451   4.197   3.965   1.191
22809SOL     OW68452   4.590   4.178   0.642
22809SOL    HW168453   4.558   4.250   0.580
22809SOL    HW268454   4.614   4.097   0.589
22810SOL     OW68455   4.741   3.763   0.753
22810SOL    HW168456   4.669   3.768   0.684
22810SOL    HW268457   4.717   3.694   0.822
22811SOL     OW68458   5.153   4.897   0.867
22811SOL    HW168459   5.098   4.813   0.860
22811SOL    HW268460   5.179   4.926   0.775
22812SOL     OW68461   5.190   4.314   0.992
22812SOL    HW168462   5.160   4.219   0.999
22812SOL    HW268463   5.263   4.330   1.058
22813SOL     OW68464   5.581   4.557   0.377
22813SOL    HW168465   5.623   4.493   0.441
22813SOL    HW268466   5.543   4.506   0.299
22814SOL     OW68467   4.212   5.109   0.174
22814SOL    HW168468   4.125   5.094   0.221
22814SOL    HW268469   4.195   5.135   0.079
22815SOL     OW68470   5.388   5.004   0.657
22815SOL    HW168471   5.487   5.012   0.671
22815SOL    HW268472   5.343   5.088   0.688
22816SOL     OW68473   5.114   4.299   0.078
22816SOL    HW168474   5.060   4.278   0.159
22816SOL    HW268475   5.205   4.258   0.087
22817SOL     OW68476   4.251   3.980   0.328
22817SOL    HW168477   4.278   3.921   0.253
22817SOL    HW268478   4.251   4.075   0.297
22818SOL     OW68479   5.478   4.947   1.588
22818SOL    HW168480   5.569   4.908   1.575
22818SOL    HW268481   5.486   5.043   1.612
22819SOL     OW68482   4.788   5.071   1.340
22819SOL    HW168483   4.708   5.048   1.395
22819SOL    HW268484   4.871   5.045   1.389
22820SOL     OW68485   5.316   5.353   1.625
22820SOL    HW168486   5.343   5.387   1.535
22820SOL    HW268487   5.395   5.315   1.671
22821SOL     OW68488   4.835   4.919   1.100
22821SOL    HW168489   4.795   4.963   1.181
22821SOL    HW268490   4.794   4.956   1.017
22822SOL     OW68491   5.362   4.823   1.079
22822SOL    HW168492   5.367   4.904   1.138
22822SOL    HW268493   5.276   4.825   1.028
22823SOL     OW68494   4.639   3.813   1.402
22823SOL    HW168495   4.664   3.793   1.307
22823SOL    HW268496   4.711   3.869   1.444
22824SOL     OW68497   4.704   4.840   1.719
22824SOL    HW168498   4.605   4.846   1.729
22824SOL    HW268499   4.727   4.760   1.663
22825SOL     OW68500   4.429   4.774   0.368
22825SOL    HW168501   4.415   4.781   0.467
22825SOL    HW268502   4.513   4.723   0.350
22826SOL     OW68503   4.134   4.537   1.251
22826SOL    HW168504   4.220   4.549   1.301
22826SOL    HW268505   4.092   4.450   1.278
22827SOL     OW68506   4.998   4.110   1.262
22827SOL    HW168507   5.019   4.184   1.326
22827SOL    HW268508   4.909   4.127   1.219
22828SOL     OW68509   3.788   5.288   1.331
22828SOL    HW168510   3.742   5.370   1.297
22828SOL    HW268511   3.886   5.307   1.340
22829SOL     OW68512   4.091   4.824   0.501
22829SOL    HW168513   4.084   4.907   0.445
22829SOL    HW268514   4.095   4.744   0.441
22830SOL     OW68515   4.290   4.261   0.865
22830SOL    HW168516   4.302   4.327   0.791
22830SOL    HW268517   4.336   4.295   0.948
22831SOL     OW68518   4.976   5.072   0.388
22831SOL    HW168519   5.026   5.149   0.428
22831SOL    HW268520   4.881   5.074   0.420
22832SOL     OW68521   4.996   5.169   1.142
22832SOL    HW168522   5.043   5.182   1.229
22832SOL    HW268523   4.930   5.095   1.151
22833SOL     OW68524   5.306   4.363   0.472
22833SOL    HW168525   5.275   4.424   0.545
22833SOL    HW268526   5.356   4.415   0.403
22834SOL     OW68527   4.078   5.234   1.329
22834SOL    HW168528   4.057   5.190   1.242
22834SOL    HW268529   4.175   5.260   1.332
22835SOL     OW68530   4.126   4.475   1.598
22835SOL    HW168531   4.194   4.530   1.551
22835SOL    HW268532   4.166   4.387   1.625
22836SOL     OW68533   5.311   4.503   1.670
22836SOL    HW168534   5.219   4.541   1.665
22836SOL    HW268535   5.371   4.550   1.605
22837SOL     OW68536   4.737   3.829   1.770
22837SOL    HW168537   4.743   3.914   1.718
22837SOL    HW268538   4.769   3.753   1.713
22838SOL     OW68539   4.228   3.774   1.740
22838SOL    HW168540   4.186   3.717   1.670
22838SOL    HW268541   4.162   3.843   1.772
22839SOL     OW68542   4.297   4.594   1.029
22839SOL    HW168543   4.341   4.683   1.020
22839SOL    HW268544   4.234   4.594   1.106
22840SOL     OW68545   5.084   4.586   1.045
22840SOL    HW168546   5.009   4.586   0.979
22840SOL    HW268547   5.121   4.494   1.054
22841SOL     OW68548   4.933   4.249   0.275
22841SOL    HW168549   4.946   4.165   0.329
22841SOL    HW268550   4.904   4.323   0.335
22842SOL     OW68551   4.031   3.937   1.231
22842SOL    HW168552   4.008   3.974   1.321
22842SOL    HW268553   4.001   3.842   1.225
22843SOL     OW68554   3.761   5.034   1.282
22843SOL    HW168555   3.814   4.985   1.350
22843SOL    HW268556   3.783   5.132   1.287
22844SOL     OW68557   4.456   4.358   1.064
22844SOL    HW168558   4.515   4.332   0.988
22844SOL    HW268559   4.428   4.454   1.053
22845SOL     OW68560   5.452   4.659   1.854
22845SOL    HW168561   5.406   4.652   1.765
22845SOL    HW268562   5.390   4.703   1.920
22846SOL     OW68563   4.031   3.787   0.618
22846SOL    HW168564   4.020   3.881   0.651
22846SOL    HW268565   4.026   3.724   0.695
22847SOL     OW68566   5.346   4.091   0.374
22847SOL    HW168567   5.348   4.015   0.438
22847SOL    HW268568   5.298   4.168   0.414
22848SOL     OW68569   4.747   4.490   0.966
22848SOL    HW168570   4.762   4.511   1.062
22848SOL    HW268571   4.717   4.395   0.957
22849SOL     OW68572   4.704   5.297   1.700
22849SOL    HW168573   4.684   5.341   1.612
22849SOL    HW268574   4.743   5.206   1.684
22850SOL     OW68575   5.583   5.242   1.605
22850SOL    HW168576   5.597   5.269   1.510
22850SOL    HW268577   5.666   5.264   1.658
22851SOL     OW68578   4.074   4.622   1.804
22851SOL    HW168579   4.150   4.666   1.852
22851SOL    HW268580   4.109   4.575   1.722
22852SOL     OW68581   5.264   3.998   0.125
22852SOL    HW168582   5.203   3.923   0.148
22852SOL    HW268583   5.286   4.050   0.208
22853SOL     OW68584   5.027   4.562   0.042
22853SOL    HW168585   5.061   4.469   0.057
22853SOL    HW268586   5.045   4.589  -0.053
22854SOL     OW68587   4.792   5.057   0.849
22854SOL    HW168588   4.799   4.973   0.794
22854SOL    HW268589   4.854   5.126   0.813
22855SOL     OW68590   4.043   4.534   0.949
22855SOL    HW168591   4.136   4.570   0.954
22855SOL    HW268592   4.037   4.449   1.001
22856SOL     OW68593   4.063   4.233   1.006
22856SOL    HW168594   4.011   4.150   0.989
22856SOL    HW268595   4.140   4.238   0.942
22857SOL     OW68596   4.862   4.104   1.678
22857SOL    HW168597   4.817   4.167   1.742
22857SOL    HW268598   4.955   4.135   1.661
22858SOL     OW68599   4.884   3.931   1.477
22858SOL    HW168600   4.884   3.995   1.554
22858SOL    HW268601   4.912   3.979   1.394
22859SOL     OW68602   3.732   5.050   0.200
22859SOL    HW168603   3.639   5.071   0.169
22859SOL    HW268604   3.742   4.951   0.213
22860SOL     OW68605   3.812   5.525   0.927
22860SOL    HW168606   3.770   5.439   0.900
22860SOL    HW268607   3.906   5.528   0.893
22861SOL     OW68608   4.228   5.292   0.910
22861SOL    HW168609   4.294   5.366   0.919
22861SOL    HW268610   4.272   5.213   0.868
22862SOL     OW68611   4.726   4.520   1.238
22862SOL    HW168612   4.767   4.488   1.324
22862SOL    HW268613   4.630   4.493   1.235
22863SOL     OW68614   3.764   4.268   1.114
22863SOL    HW168615   3.849   4.235   1.073
22863SOL    HW268616   3.777   4.283   1.212
22864SOL     OW68617   3.913   4.244   1.722
22864SOL    HW168618   3.972   4.204   1.652
22864SOL    HW268619   3.855   4.315   1.681
22865SOL     OW68620   5.093   4.674   1.660
22865SOL    HW168621   5.132   4.763   1.680
22865SOL    HW268622   5.103   4.654   1.563
22866SOL     OW68623   4.539   4.296   0.325
22866SOL    HW168624   4.546   4.207   0.279
22866SOL    HW268625   4.445   4.330   0.317
22867SOL     OW68626   5.381   4.328   1.206
22867SOL    HW168627   5.343   4.259   1.268
22867SOL    HW268628   5.463   4.292   1.162
22868SOL     OW68629   3.976   5.288   1.744
22868SOL    HW168630   3.946   5.345   1.820
22868SOL    HW268631   3.969   5.191   1.770
22869SOL     OW68632   4.395   4.188   1.269
22869SOL    HW168633   4.361   4.099   1.239
22869SOL    HW268634   4.421   4.242   1.189
22870SOL     OW68635   4.654   5.402   1.465
22870SOL    HW168636   4.630   5.384   1.370
22870SOL    HW268637   4.684   5.496   1.475
22871SOL     OW68638   4.197   4.224   0.191
22871SOL    HW168639   4.258   4.304   0.195
22871SOL    HW268640   4.102   4.255   0.198
22872SOL     OW68641   3.883   4.861   1.466
22872SOL    HW168642   3.905   4.800   1.542
22872SOL    HW268643   3.893   4.812   1.380
22873SOL     OW68644   5.071   4.783   1.234
22873SOL    HW168645   5.095   4.720   1.160
22873SOL    HW268646   4.981   4.823   1.216
22874SOL     OW68647   5.026   4.579   0.309
22874SOL    HW168648   4.940   4.548   0.351
22874SOL    HW268649   5.022   4.565   0.210
22875SOL     OW68650   5.483   5.471   1.154
22875SOL    HW168651   5.544   5.501   1.081
22875SOL    HW268652   5.445   5.382   1.132
22876SOL     OW68653   4.976   5.455   1.128
22876SOL    HW168654   5.060   5.460   1.074
22876SOL    HW268655   4.953   5.359   1.146
22877SOL     OW68656   3.807   4.982   1.022
22877SOL    HW168657   3.802   4.981   1.122
22877SOL    HW268658   3.724   4.941   0.984
22878SOL     OW68659   4.412   5.386   1.716
22878SOL    HW168660   4.356   5.467   1.725
22878SOL    HW268661   4.464   5.390   1.630
22879SOL     OW68662   4.627   3.810   0.133
22879SOL    HW168663   4.678   3.811   0.047
22879SOL    HW268664   4.683   3.768   0.204
22880SOL     OW68665   5.450   3.859   0.523
22880SOL    HW168666   5.523   3.842   0.456
22880SOL    HW268667   5.419   3.772   0.561
22881SOL     OW68668   5.112   5.297   0.477
22881SOL    HW168669   5.179   5.309   0.403
22881SOL    HW268670   5.072   5.386   0.500
22882SOL     OW68671   3.854   5.518   1.851
22882SOL    HW168672   3.813   5.444   1.904
22882SOL    HW268673   3.918   5.569   1.909
22883SOL     OW68674   5.004   4.651   0.672
22883SOL    HW168675   5.064   4.570   0.674
22883SOL    HW268676   5.044   4.720   0.612
22884SOL     OW68677   4.554   4.997   1.422
22884SOL    HW168678   4.549   5.030   1.517
22884SOL    HW268679   4.468   5.016   1.376
22885SOL     OW68680   4.396   5.340   0.154
22885SOL    HW168681   4.405   5.350   0.055
22885SOL    HW268682   4.356   5.251   0.175
22886SOL     OW68683   5.374   5.444   1.394
22886SOL    HW168684   5.427   5.454   1.310
22886SOL    HW268685   5.347   5.534   1.428
22887SOL     OW68686   5.565   3.899   0.963
22887SOL    HW168687   5.604   3.814   0.927
22887SOL    HW268688   5.467   3.901   0.944
22888SOL     OW68689   3.987   4.050   0.720
22888SOL    HW168690   3.908   4.101   0.686
22888SOL    HW268691   3.978   4.035   0.818
22889SOL     OW68692   4.918   5.336   0.031
22889SOL    HW168693   4.924   5.243   0.068
22889SOL    HW268694   4.859   5.336  -0.049
22890SOL     OW68695   4.546   4.726   1.372
22890SOL    HW168696   4.586   4.725   1.280
22890SOL    HW268697   4.556   4.818   1.412
22891SOL     OW68698   4.640   4.634   0.291
22891SOL    HW168699   4.703   4.672   0.223
22891SOL    HW268700   4.680   4.551   0.330
22892SOL     OW68701   5.228   5.331   0.044
22892SOL    HW168702   5.136   5.368   0.051
22892SOL    HW268703   5.266   5.351  -0.046
22893SOL     OW68704   4.096   5.012   1.490
22893SOL    HW168705   4.083   5.105   1.456
22893SOL    HW268706   4.012   4.960   1.477
22894SOL     OW68707   5.338   5.016   1.289
22894SOL    HW168708   5.398   5.019   1.369
22894SOL    HW268709   5.263   5.080   1.302
22895SOL     OW68710   4.763   4.822   0.696
22895SOL    HW168711   4.693   4.775   0.750
22895SOL    HW268712   4.822   4.754   0.653
22896SOL     OW68713   4.738   3.960   0.971
22896SOL    HW168714   4.730   3.924   0.878
22896SOL    HW268715   4.736   3.884   1.036
22897SOL     OW68716   4.314   5.211   0.491
22897SOL    HW168717   4.356   5.153   0.421
22897SOL    HW268718   4.270   5.290   0.447
22898SOL     OW68719   5.433   4.109   1.381
22898SOL    HW168720   5.506   4.178   1.385
22898SOL    HW268721   5.461   4.034   1.322
22899SOL     OW68722   3.979   5.072   0.290
22899SOL    HW168723   3.883   5.073   0.263
22899SOL    HW268724   3.991   5.125   0.374
22900SOL     OW68725   3.829   4.737   1.726
22900SOL    HW168726   3.752   4.704   1.780
22900SOL    HW268727   3.914   4.707   1.768
22901SOL     OW68728   4.396   3.927   1.489
22901SOL    HW168729   4.486   3.911   1.449
22901SOL    HW268730   4.404   3.932   1.588
22902SOL     OW68731   5.164   4.580   1.398
22902SOL    HW168732   5.107   4.632   1.335
22902SOL    HW268733   5.260   4.592   1.374
22903SOL     OW68734   3.796   3.890   0.318
22903SOL    HW168735   3.779   3.973   0.264
22903SOL    HW268736   3.886   3.853   0.296
22904SOL     OW68737   4.907   5.059   0.119
22904SOL    HW168738   4.808   5.048   0.121
22904SOL    HW268739   4.941   5.074   0.212
22905SOL     OW68740   4.337   4.566   1.431
22905SOL    HW168741   4.393   4.647   1.414
22905SOL    HW268742   4.396   4.486   1.434
22906SOL     OW68743   5.217   5.491   0.959
22906SOL    HW168744   5.250   5.555   0.890
22906SOL    HW268745   5.283   5.485   1.034
22907SOL     OW68746   4.440   4.289   1.708
22907SOL    HW168747   4.459   4.354   1.782
22907SOL    HW268748   4.500   4.209   1.717
22908SOL     OW68749   5.174   4.944   1.633
22908SOL    HW168750   5.165   4.934   1.732
22908SOL    HW268751   5.270   4.937   1.607
22909SOL     OW68752   4.114   5.465   1.560
22909SOL    HW168753   4.023   5.506   1.558
22909SOL    HW268754   4.107   5.371   1.592
22910SOL     OW68755   5.398   4.607   1.254
22910SOL    HW168756   5.371   4.518   1.217
22910SOL    HW268757   5.399   4.675   1.181
22911SOL     OW68758   4.949   4.049   0.449
22911SOL    HW168759   5.014   3.975   0.438
22911SOL    HW268760   4.969   4.099   0.533
22912SOL     OW68761   4.318   4.469   0.652
22912SOL    HW168762   4.368   4.554   0.633
22912SOL    HW268763   4.230   4.471   0.604
22913SOL     OW68764   5.501   4.066   1.642
22913SOL    HW168765   5.484   4.097   1.548
22913SOL    HW268766   5.417   4.029   1.680
22914SOL     OW68767   5.454   4.658   1.517
22914SOL    HW168768   5.492   4.749   1.532
22914SOL    HW268769   5.446   4.641   1.418
22915SOL     OW68770   4.583   5.098   0.016
22915SOL    HW168771   4.537   5.113   0.104
22915SOL    HW268772   4.627   5.183  -0.014
22916SOL     OW68773   4.385   5.514   0.953
22916SOL    HW168774   4.339   5.602   0.940
22916SOL    HW268775   4.484   5.526   0.946
22917SOL     OW68776   4.583   4.680   0.861
22917SOL    HW168777   4.637   4.611   0.909
22917SOL    HW268778   4.551   4.749   0.927
22918SOL     OW68779   4.807   4.708   0.087
22918SOL    HW168780   4.784   4.761   0.005
22918SOL    HW268781   4.888   4.652   0.068
22919SOL     OW68782   5.585   5.293   0.851
22919SOL    HW168783   5.514   5.281   0.781
22919SOL    HW268784   5.586   5.214   0.911
22920SOL     OW68785   3.945   5.038   1.844
22920SOL    HW168786   3.880   4.965   1.823
22920SOL    HW268787   3.949   5.052   1.942
22921SOL     OW68788   3.803   4.964   0.653
22921SOL    HW168789   3.802   4.917   0.741
22921SOL    HW268790   3.885   4.936   0.602
22922SOL     OW68791   4.396   5.115   1.624
22922SOL    HW168792   4.318   5.065   1.662
22922SOL    HW268793   4.393   5.210   1.655
22923SOL     OW68794   5.548   3.916   1.227
22923SOL    HW168795   5.544   3.826   1.271
22923SOL    HW268796   5.551   3.905   1.128
22924SOL     OW68797   4.152   4.148   0.520
22924SOL    HW168798   4.182   4.076   0.458
22924SOL    HW268799   4.113   4.108   0.603
22925SOL     OW68800   5.429   5.211   1.104
22925SOL    HW168801   5.336   5.186   1.077
22925SOL    HW268802   5.455   5.161   1.186
22926SOL     OW68803   4.041   4.271   1.280
22926SOL    HW168804   4.079   4.212   1.352
22926SOL    HW268805   4.081   4.245   1.192
22927SOL     OW68806   4.536   5.310   0.687
22927SOL    HW168807   4.568   5.320   0.593
22927SOL    HW268808   4.457   5.248   0.689
22928SOL     OW68809   5.148   3.938   1.112
22928SOL    HW168810   5.200   3.873   1.167
22928SOL    HW268811   5.099   4.001   1.173
22929SOL     OW68812   4.725   3.758   1.154
22929SOL    HW168813   4.662   3.686   1.123
22929SOL    HW268814   4.818   3.722   1.154
22930SOL     OW68815   4.494   5.054   0.301
22930SOL    HW168816   4.448   4.967   0.318
22930SOL    HW268817   4.585   5.051   0.342
22931SOL     OW68818   4.342   5.291   1.284
22931SOL    HW168819   4.337   5.373   1.341
22931SOL    HW268820   4.431   5.288   1.239
22932SOL     OW68821   5.076   3.776   0.168
22932SOL    HW168822   5.111   3.735   0.084
22932SOL    HW268823   4.986   3.738   0.188
22933SOL     OW68824   5.024   4.177   0.691
22933SOL    HW168825   4.965   4.257   0.695
22933SOL    HW268826   5.039   4.142   0.784
22934SOL     OW68827   5.317   3.945   0.882
22934SOL    HW168828   5.233   3.944   0.936
22934SOL    HW268829   5.319   4.028   0.826
22935SOL     OW68830   3.763   4.801   0.300
22935SOL    HW168831   3.862   4.790   0.291
22935SOL    HW268832   3.723   4.715   0.332
22936SOL     OW68833   4.599   5.370   0.337
22936SOL    HW168834   4.522   5.335   0.283
22936SOL    HW268835   4.567   5.441   0.399
22937SOL     OW68836   3.954   4.352   1.975
22937SOL    HW168837   3.861   4.350   2.012
22937SOL    HW268838   3.955   4.313   1.883
22938SOL     OW68839   3.949   3.999   2.858
22938SOL    HW168840   3.984   3.982   2.950
22938SOL    HW268841   3.861   3.954   2.846
22939SOL     OW68842   3.743   4.092   2.509
22939SOL    HW168843   3.661   4.135   2.548
22939SOL    HW268844   3.715   4.019   2.446
22940SOL     OW68845   4.293   4.999   3.027
22940SOL    HW168846   4.200   4.992   2.990
22940SOL    HW268847   4.304   5.088   3.071
22941SOL     OW68848   5.279   5.235   2.565
22941SOL    HW168849   5.222   5.219   2.646
22941SOL    HW268850   5.220   5.245   2.485
22942SOL     OW68851   4.859   4.427   2.579
22942SOL    HW168852   4.916   4.505   2.554
22942SOL    HW268853   4.799   4.453   2.655
22943SOL     OW68854   5.479   4.331   2.093
22943SOL    HW168855   5.467   4.318   1.994
22943SOL    HW268856   5.449   4.250   2.142
22944SOL     OW68857   4.492   4.868   2.885
22944SOL    HW168858   4.414   4.885   2.945
22944SOL    HW268859   4.526   4.955   2.849
22945SOL     OW68860   4.574   4.522   3.685
22945SOL    HW168861   4.570   4.598   3.750
22945SOL    HW268862   4.596   4.558   3.594
22946SOL     OW68863   4.409   4.736   2.527
22946SOL    HW168864   4.478   4.720   2.597
22946SOL    HW268865   4.336   4.793   2.565
22947SOL     OW68866   4.410   4.885   3.665
22947SOL    HW168867   4.470   4.964   3.679
22947SOL    HW268868   4.324   4.916   3.624
22948SOL     OW68869   4.059   5.159   2.923
22948SOL    HW168870   3.981   5.128   2.870
22948SOL    HW268871   4.117   5.217   2.866
22949SOL     OW68872   5.184   5.229   3.201
22949SOL    HW168873   5.208   5.323   3.227
22949SOL    HW268874   5.168   5.175   3.283
22950SOL     OW68875   4.162   4.116   3.361
22950SOL    HW168876   4.244   4.060   3.370
22950SOL    HW268877   4.081   4.058   3.365
22951SOL     OW68878   5.327   4.171   2.599
22951SOL    HW168879   5.253   4.217   2.549
22951SOL    HW268880   5.378   4.239   2.652
22952SOL     OW68881   3.955   5.437   2.345
22952SOL    HW168882   3.989   5.514   2.399
22952SOL    HW268883   3.999   5.437   2.255
22953SOL     OW68884   4.851   5.065   3.552
22953SOL    HW168885   4.898   5.065   3.640
22953SOL    HW268886   4.803   4.978   3.541
22954SOL     OW68887   3.954   5.158   2.400
22954SOL    HW168888   3.928   5.254   2.400
22954SOL    HW268889   3.883   5.104   2.445
22955SOL     OW68890   3.964   4.815   2.748
22955SOL    HW168891   3.978   4.731   2.800
22955SOL    HW268892   3.909   4.879   2.803
22956SOL     OW68893   4.344   5.510   3.301
22956SOL    HW168894   4.252   5.493   3.336
22956SOL    HW268895   4.372   5.602   3.327
22957SOL     OW68896   4.330   4.688   1.985
22957SOL    HW168897   4.337   4.772   1.931
22957SOL    HW268898   4.376   4.701   2.073
22958SOL     OW68899   5.318   3.838   3.342
22958SOL    HW168900   5.300   3.905   3.270
22958SOL    HW268901   5.315   3.884   3.431
22959SOL     OW68902   3.846   4.367   2.425
22959SOL    HW168903   3.801   4.279   2.442
22959SOL    HW268904   3.845   4.421   2.509
22960SOL     OW68905   5.566   5.491   2.221
22960SOL    HW168906   5.620   5.462   2.301
22960SOL    HW268907   5.596   5.581   2.192
22961SOL     OW68908   3.751   5.320   1.979
22961SOL    HW168909   3.732   5.224   2.000
22961SOL    HW268910   3.718   5.378   2.054
22962SOL     OW68911   5.413   4.646   2.474
22962SOL    HW168912   5.508   4.617   2.482
22962SOL    HW268913   5.405   4.711   2.399
22963SOL     OW68914   5.365   4.832   2.294
22963SOL    HW168915   5.451   4.834   2.242
22963SOL    HW268916   5.379   4.879   2.382
22964SOL     OW68917   3.837   4.461   3.459
22964SOL    HW168918   3.925   4.448   3.504
22964SOL    HW268919   3.824   4.558   3.437
22965SOL     OW68920   4.337   5.089   2.588
22965SOL    HW168921   4.288   5.002   2.597
22965SOL    HW268922   4.314   5.132   2.501
22966SOL     OW68923   5.017   4.952   3.285
22966SOL    HW168924   5.054   4.879   3.227
22966SOL    HW268925   5.069   4.957   3.370
22967SOL     OW68926   4.533   3.728   2.364
22967SOL    HW168927   4.573   3.819   2.355
22967SOL    HW268928   4.433   3.736   2.370
22968SOL     OW68929   3.921   4.700   3.126
22968SOL    HW168930   4.010   4.655   3.112
22968SOL    HW268931   3.848   4.635   3.107
22969SOL     OW68932   5.249   4.723   2.052
22969SOL    HW168933   5.186   4.647   2.065
22969SOL    HW268934   5.297   4.741   2.138
22970SOL     OW68935   4.911   5.516   3.478
22970SOL    HW168936   4.935   5.576   3.402
22970SOL    HW268937   4.918   5.421   3.448
22971SOL     OW68938   4.041   3.975   3.663
22971SOL    HW168939   4.112   4.046   3.669
22971SOL    HW268940   3.953   4.014   3.691
22972SOL     OW68941   5.190   5.141   2.815
22972SOL    HW168942   5.131   5.147   2.895
22972SOL    HW268943   5.175   5.053   2.769
22973SOL     OW68944   5.391   5.438   2.434
22973SOL    HW168945   5.350   5.415   2.346
22973SOL    HW268946   5.373   5.364   2.499
22974SOL     OW68947   4.322   4.453   2.132
22974SOL    HW168948   4.346   4.522   2.064
22974SOL    HW268949   4.244   4.486   2.186
22975SOL     OW68950   5.005   4.069   2.806
22975SOL    HW168951   4.919   4.019   2.793
22975SOL    HW268952   5.067   4.015   2.862
22976SOL     OW68953   5.300   5.386   2.169
22976SOL    HW168954   5.389   5.432   2.172
22976SOL    HW268955   5.279   5.362   2.074
22977SOL     OW68956   4.531   4.329   3.327
22977SOL    HW168957   4.484   4.326   3.416
22977SOL    HW268958   4.480   4.274   3.261
22978SOL     OW68959   5.118   4.193   3.536
22978SOL    HW168960   5.098   4.236   3.624
22978SOL    HW268961   5.196   4.131   3.545
22979SOL     OW68962   4.697   4.614   3.434
22979SOL    HW168963   4.743   4.530   3.405
22979SOL    HW268964   4.641   4.648   3.359
22980SOL     OW68965   4.715   4.134   3.104
22980SOL    HW168966   4.638   4.168   3.158
22980SOL    HW268967   4.681   4.083   3.025
22981SOL     OW68968   4.765   4.425   2.291
22981SOL    HW168969   4.791   4.421   2.387
22981SOL    HW268970   4.680   4.374   2.277
22982SOL     OW68971   3.800   4.535   2.651
22982SOL    HW168972   3.899   4.523   2.660
22982SOL    HW268973   3.776   4.630   2.672
22983SOL     OW68974   3.854   5.545   3.433
22983SOL    HW168975   3.844   5.530   3.532
22983SOL    HW268976   3.768   5.581   3.397
22984SOL     OW68977   4.589   4.072   2.057
22984SOL    HW168978   4.648   4.135   2.008
22984SOL    HW268979   4.608   3.978   2.028
22985SOL     OW68980   5.443   4.309   3.693
22985SOL    HW168981   5.417   4.398   3.657
22985SOL    HW268982   5.441   4.241   3.620
22986SOL     OW68983   5.086   4.868   2.407
22986SOL    HW168984   5.169   4.839   2.359
22986SOL    HW268985   5.037   4.935   2.351
22987SOL     OW68986   4.274   3.920   2.747
22987SOL    HW168987   4.269   3.915   2.847
22987SOL    HW268988   4.276   4.016   2.718
22988SOL     OW68989   4.732   5.180   2.339
22988SOL    HW168990   4.686   5.252   2.287
22988SOL    HW268991   4.728   5.200   2.437
22989SOL     OW68992   4.075   5.525   2.715
22989SOL    HW168993   4.125   5.439   2.721
22989SOL    HW268994   4.140   5.602   2.712
22990SOL     OW68995   5.519   4.790   2.735
22990SOL    HW168996   5.457   4.775   2.659
22990SOL    HW268997   5.467   4.801   2.820
22991SOL     OW68998   4.951   5.274   3.368
22991SOL    HW168999   4.957   5.197   3.432
22991SOL    HW269000   4.899   5.248   3.288
22992SOL     OW69001   4.045   4.667   2.104
22992SOL    HW169002   4.127   4.706   2.062
22992SOL    HW269003   4.018   4.585   2.055
22993SOL     OW69004   5.182   4.459   2.590
22993SOL    HW169005   5.177   4.394   2.665
22993SOL    HW269006   5.262   4.518   2.603
22994SOL     OW69007   4.185   4.990   3.589
22994SOL    HW169008   4.135   4.991   3.503
22994SOL    HW269009   4.122   4.972   3.665
22995SOL     OW69010   4.835   5.500   2.099
22995SOL    HW169011   4.775   5.438   2.149
22995SOL    HW269012   4.866   5.456   2.014
22996SOL     OW69013   3.926   4.009   3.360
22996SOL    HW169014   3.846   4.069   3.347
22996SOL    HW269015   3.916   3.960   3.446
22997SOL     OW69016   5.356   5.101   1.943
22997SOL    HW169017   5.324   5.195   1.933
22997SOL    HW269018   5.280   5.038   1.931
22998SOL     OW69019   4.188   5.467   2.185
22998SOL    HW169020   4.221   5.506   2.271
22998SOL    HW269021   4.264   5.460   2.120
22999SOL     OW69022   5.124   3.831   2.288
22999SOL    HW169023   5.100   3.794   2.198
22999SOL    HW269024   5.223   3.847   2.292
23000SOL     OW69025   3.973   5.509   3.103
23000SOL    HW169026   4.030   5.444   3.153
23000SOL    HW269027   3.957   5.476   3.010
23001SOL     OW69028   4.664   5.422   2.766
23001SOL    HW169029   4.744   5.365   2.787
23001SOL    HW269030   4.615   5.382   2.689
23002SOL     OW69031   4.106   4.424   2.342
23002SOL    HW169032   4.151   4.334   2.339
23002SOL    HW269033   4.012   4.413   2.375
23003SOL     OW69034   5.271   3.946   3.591
23003SOL    HW169035   5.266   3.983   3.683
23003SOL    HW269036   5.199   3.877   3.579
23004SOL     OW69037   4.338   3.846   1.979
23004SOL    HW169038   4.436   3.824   1.986
23004SOL    HW269039   4.307   3.829   1.886
23005SOL     OW69040   4.505   3.988   3.611
23005SOL    HW169041   4.572   3.927   3.654
23005SOL    HW269042   4.432   4.007   3.676
23006SOL     OW69043   4.612   5.238   3.057
23006SOL    HW169044   4.589   5.213   2.963
23006SOL    HW269045   4.673   5.169   3.096
23007SOL     OW69046   5.075   4.314   3.295
23007SOL    HW169047   5.103   4.271   3.380
23007SOL    HW269048   5.100   4.410   3.296
23008SOL     OW69049   4.527   5.126   2.786
23008SOL    HW169050   4.617   5.140   2.744
23008SOL    HW269051   4.456   5.128   2.715
23009SOL     OW69052   4.646   4.227   2.761
23009SOL    HW169053   4.621   4.218   2.665
23009SOL    HW269054   4.694   4.145   2.792
23010SOL     OW69055   4.263   3.788   2.374
23010SOL    HW169056   4.182   3.789   2.432
23010SOL    HW269057   4.266   3.871   2.319
23011SOL     OW69058   5.158   4.912   1.903
23011SOL    HW169059   5.190   4.836   1.960
23011SOL    HW269060   5.066   4.939   1.933
23012SOL     OW69061   4.021   3.759   2.033
23012SOL    HW169062   4.070   3.843   2.012
23012SOL    HW269063   4.083   3.694   2.078
23013SOL     OW69064   4.659   3.960   2.342
23013SOL    HW169065   4.611   4.001   2.264
23013SOL    HW269066   4.758   3.958   2.323
23014SOL     OW69067   4.800   4.407   3.326
23014SOL    HW169068   4.720   4.346   3.329
23014SOL    HW269069   4.881   4.354   3.302
23015SOL     OW69070   4.951   5.294   2.655
23015SOL    HW169071   4.972   5.368   2.590
23015SOL    HW269072   5.019   5.294   2.728
23016SOL     OW69073   4.183   4.876   2.603
23016SOL    HW169074   4.112   4.849   2.668
23016SOL    HW269075   4.157   4.848   2.510
23017SOL     OW69076   4.995   5.521   2.453
23017SOL    HW169077   5.039   5.585   2.389
23017SOL    HW269078   4.945   5.573   2.523
23018SOL     OW69079   4.756   4.273   1.878
23018SOL    HW169080   4.715   4.355   1.839
23018SOL    HW269081   4.820   4.299   1.951
23019SOL     OW69082   3.802   4.280   3.248
23019SOL    HW169083   3.894   4.279   3.207
23019SOL    HW269084   3.796   4.354   3.315
23020SOL     OW69085   4.285   3.946   3.009
23020SOL    HW169086   4.323   3.862   3.046
23020SOL    HW269087   4.197   3.965   3.053
23021SOL     OW69088   4.590   4.178   2.504
23021SOL    HW169089   4.558   4.250   2.442
23021SOL    HW269090   4.614   4.097   2.451
23022SOL     OW69091   4.741   3.763   2.615
23022SOL    HW169092   4.669   3.768   2.546
23022SOL    HW269093   4.717   3.694   2.684
23023SOL     OW69094   5.153   4.897   2.729
23023SOL    HW169095   5.098   4.813   2.722
23023SOL    HW269096   5.179   4.926   2.637
23024SOL     OW69097   5.190   4.314   2.854
23024SOL    HW169098   5.160   4.219   2.861
23024SOL    HW269099   5.263   4.330   2.920
23025SOL     OW69100   5.581   4.557   2.239
23025SOL    HW169101   5.623   4.493   2.303
23025SOL    HW269102   5.543   4.506   2.161
23026SOL     OW69103   4.212   5.109   2.036
23026SOL    HW169104   4.125   5.094   2.083
23026SOL    HW269105   4.195   5.135   1.941
23027SOL     OW69106   5.388   5.004   2.519
23027SOL    HW169107   5.487   5.012   2.533
23027SOL    HW269108   5.343   5.088   2.550
23028SOL     OW69109   5.114   4.299   1.940
23028SOL    HW169110   5.060   4.278   2.021
23028SOL    HW269111   5.205   4.258   1.949
23029SOL     OW69112   4.251   3.980   2.190
23029SOL    HW169113   4.278   3.921   2.115
23029SOL    HW269114   4.251   4.075   2.159
23030SOL     OW69115   5.478   4.947   3.450
23030SOL    HW169116   5.569   4.908   3.437
23030SOL    HW269117   5.486   5.043   3.474
23031SOL     OW69118   4.788   5.071   3.202
23031SOL    HW169119   4.708   5.048   3.257
23031SOL    HW269120   4.871   5.045   3.251
23032SOL     OW69121   5.316   5.353   3.487
23032SOL    HW169122   5.343   5.387   3.397
23032SOL    HW269123   5.395   5.315   3.533
23033SOL     OW69124   4.835   4.919   2.962
23033SOL    HW169125   4.795   4.963   3.043
23033SOL    HW269126   4.794   4.956   2.879
23034SOL     OW69127   5.362   4.823   2.941
23034SOL    HW169128   5.367   4.904   3.000
23034SOL    HW269129   5.276   4.825   2.890
23035SOL     OW69130   4.639   3.813   3.264
23035SOL    HW169131   4.664   3.793   3.169
23035SOL    HW269132   4.711   3.869   3.306
23036SOL     OW69133   4.704   4.840   3.581
23036SOL    HW169134   4.605   4.846   3.591
23036SOL    HW269135   4.727   4.760   3.525
23037SOL     OW69136   4.429   4.774   2.230
23037SOL    HW169137   4.415   4.781   2.329
23037SOL    HW269138   4.513   4.723   2.212
23038SOL     OW69139   4.134   4.537   3.113
23038SOL    HW169140   4.220   4.549   3.163
23038SOL    HW269141   4.092   4.450   3.140
23039SOL     OW69142   4.998   4.110   3.124
23039SOL    HW169143   5.019   4.184   3.188
23039SOL    HW269144   4.909   4.127   3.081
23040SOL     OW69145   3.788   5.288   3.193
23040SOL    HW169146   3.742   5.370   3.159
23040SOL    HW269147   3.886   5.307   3.202
23041SOL     OW69148   4.091   4.824   2.363
23041SOL    HW169149   4.084   4.907   2.307
23041SOL    HW269150   4.095   4.744   2.303
23042SOL     OW69151   4.290   4.261   2.727
23042SOL    HW169152   4.302   4.327   2.653
23042SOL    HW269153   4.336   4.295   2.810
23043SOL     OW69154   4.976   5.072   2.250
23043SOL    HW169155   5.026   5.149   2.290
23043SOL    HW269156   4.881   5.074   2.282
23044SOL     OW69157   4.996   5.169   3.004
23044SOL    HW169158   5.043   5.182   3.091
23044SOL    HW269159   4.930   5.095   3.013
23045SOL     OW69160   5.306   4.363   2.334
23045SOL    HW169161   5.275   4.424   2.407
23045SOL    HW269162   5.356   4.415   2.265
23046SOL     OW69163   4.078   5.234   3.191
23046SOL    HW169164   4.057   5.190   3.104
23046SOL    HW269165   4.175   5.260   3.194
23047SOL     OW69166   4.126   4.475   3.460
23047SOL    HW169167   4.194   4.530   3.413
23047SOL    HW269168   4.166   4.387   3.487
23048SOL     OW69169   5.311   4.503   3.532
23048SOL    HW169170   5.219   4.541   3.527
23048SOL    HW269171   5.371   4.550   3.467
23049SOL     OW69172   4.737   3.829   3.632
23049SOL    HW169173   4.743   3.914   3.580
23049SOL    HW269174   4.769   3.753   3.575
23050SOL     OW69175   4.228   3.774   3.602
23050SOL    HW169176   4.186   3.717   3.532
23050SOL    HW269177   4.162   3.843   3.634
23051SOL     OW69178   4.297   4.594   2.891
23051SOL    HW169179   4.341   4.683   2.882
23051SOL    HW269180   4.234   4.594   2.968
23052SOL     OW69181   5.084   4.586   2.907
23052SOL    HW169182   5.009   4.586   2.841
23052SOL    HW269183   5.121   4.494   2.916
23053SOL     OW69184   4.933   4.249   2.137
23053SOL    HW169185   4.946   4.165   2.191
23053SOL    HW269186   4.904   4.323   2.197
23054SOL     OW69187   4.031   3.937   3.093
23054SOL    HW169188   4.008   3.974   3.183
23054SOL    HW269189   4.001   3.842   3.087
23055SOL     OW69190   3.761   5.034   3.144
23055SOL    HW169191   3.814   4.985   3.212
23055SOL    HW269192   3.783   5.132   3.149
23056SOL     OW69193   4.456   4.358   2.926
23056SOL    HW169194   4.515   4.332   2.850
23056SOL    HW269195   4.428   4.454   2.915
23057SOL     OW69196   5.452   4.659   3.716
23057SOL    HW169197   5.406   4.652   3.627
23057SOL    HW269198   5.390   4.703   3.782
23058SOL     OW69199   4.031   3.787   2.480
23058SOL    HW169200   4.020   3.881   2.513
23058SOL    HW269201   4.026   3.724   2.557
23059SOL     OW69202   5.346   4.091   2.236
23059SOL    HW169203   5.348   4.015   2.300
23059SOL    HW269204   5.298   4.168   2.276
23060SOL     OW69205   4.747   4.490   2.828
23060SOL    HW169206   4.762   4.511   2.924
23060SOL    HW269207   4.717   4.395   2.819
23061SOL     OW69208   4.704   5.297   3.562
23061SOL    HW169209   4.684   5.341   3.474
23061SOL    HW269210   4.743   5.206   3.546
23062SOL     OW69211   5.583   5.242   3.467
23062SOL    HW169212   5.597   5.269   3.372
23062SOL    HW269213   5.666   5.264   3.520
23063SOL     OW69214   4.074   4.622   3.666
23063SOL    HW169215   4.150   4.666   3.714
23063SOL    HW269216   4.109   4.575   3.584
23064SOL     OW69217   5.264   3.998   1.987
23064SOL    HW169218   5.203   3.923   2.010
23064SOL    HW269219   5.286   4.050   2.070
23065SOL     OW69220   5.027   4.562   1.904
23065SOL    HW169221   5.061   4.469   1.919
23065SOL    HW269222   5.045   4.589   1.809
23066SOL     OW69223   4.792   5.057   2.711
23066SOL    HW169224   4.799   4.973   2.656
23066SOL    HW269225   4.854   5.126   2.675
23067SOL     OW69226   4.043   4.534   2.811
23067SOL    HW169227   4.136   4.570   2.816
23067SOL    HW269228   4.037   4.449   2.863
23068SOL     OW69229   4.063   4.233   2.868
23068SOL    HW169230   4.011   4.150   2.851
23068SOL    HW269231   4.140   4.238   2.804
23069SOL     OW69232   4.862   4.104   3.540
23069SOL    HW169233   4.817   4.167   3.604
23069SOL    HW269234   4.955   4.135   3.523
23070SOL     OW69235   4.884   3.931   3.339
23070SOL    HW169236   4.884   3.995   3.416
23070SOL    HW269237   4.912   3.979   3.256
23071SOL     OW69238   3.732   5.050   2.062
23071SOL    HW169239   3.639   5.071   2.031
23071SOL    HW269240   3.742   4.951   2.075
23072SOL     OW69241   3.812   5.525   2.789
23072SOL    HW169242   3.770   5.439   2.762
23072SOL    HW269243   3.906   5.528   2.755
23073SOL     OW69244   4.228   5.292   2.772
23073SOL    HW169245   4.294   5.366   2.781
23073SOL    HW269246   4.272   5.213   2.730
23074SOL     OW69247   4.726   4.520   3.100
23074SOL    HW169248   4.767   4.488   3.186
23074SOL    HW269249   4.630   4.493   3.097
23075SOL     OW69250   3.764   4.268   2.976
23075SOL    HW169251   3.849   4.235   2.935
23075SOL    HW269252   3.777   4.283   3.074
23076SOL     OW69253   3.913   4.244   3.584
23076SOL    HW169254   3.972   4.204   3.514
23076SOL    HW269255   3.855   4.315   3.543
23077SOL     OW69256   5.093   4.674   3.522
23077SOL    HW169257   5.132   4.763   3.542
23077SOL    HW269258   5.103   4.654   3.425
23078SOL     OW69259   4.539   4.296   2.187
23078SOL    HW169260   4.546   4.207   2.141
23078SOL    HW269261   4.445   4.330   2.179
23079SOL     OW69262   5.381   4.328   3.068
23079SOL    HW169263   5.343   4.259   3.130
23079SOL    HW269264   5.463   4.292   3.024
23080SOL     OW69265   3.976   5.288   3.606
23080SOL    HW169266   3.946   5.345   3.682
23080SOL    HW269267   3.969   5.191   3.632
23081SOL     OW69268   4.395   4.188   3.131
23081SOL    HW169269   4.361   4.099   3.101
23081SOL    HW269270   4.421   4.242   3.051
23082SOL     OW69271   4.654   5.402   3.327
23082SOL    HW169272   4.630   5.384   3.232
23082SOL    HW269273   4.684   5.496   3.337
23083SOL     OW69274   4.197   4.224   2.053
23083SOL    HW169275   4.258   4.304   2.057
23083SOL    HW269276   4.102   4.255   2.060
23084SOL     OW69277   3.883   4.861   3.328
23084SOL    HW169278   3.905   4.800   3.404
23084SOL    HW269279   3.893   4.812   3.242
23085SOL     OW69280   5.071   4.783   3.096
23085SOL    HW169281   5.095   4.720   3.022
23085SOL    HW269282   4.981   4.823   3.078
23086SOL     OW69283   5.026   4.579   2.171
23086SOL    HW169284   4.940   4.548   2.213
23086SOL    HW269285   5.022   4.565   2.072
23087SOL     OW69286   5.483   5.471   3.016
23087SOL    HW169287   5.544   5.501   2.943
23087SOL    HW269288   5.445   5.382   2.994
23088SOL     OW69289   4.976   5.455   2.990
23088SOL    HW169290   5.060   5.460   2.936
23088SOL    HW269291   4.953   5.359   3.008
23089SOL     OW69292   3.807   4.982   2.884
23089SOL    HW169293   3.802   4.981   2.984
23089SOL    HW269294   3.724   4.941   2.846
23090SOL     OW69295   4.412   5.386   3.578
23090SOL    HW169296   4.356   5.467   3.587
23090SOL    HW269297   4.464   5.390   3.492
23091SOL     OW69298   5.450   3.859   2.385
23091SOL    HW169299   5.523   3.842   2.318
23091SOL    HW269300   5.419   3.772   2.423
23092SOL     OW69301   5.112   5.297   2.339
23092SOL    HW169302   5.179   5.309   2.265
23092SOL    HW269303   5.072   5.386   2.362
23093SOL     OW69304   3.854   5.518   3.713
23093SOL    HW169305   3.813   5.444   3.766
23093SOL    HW269306   3.918   5.569   3.771
23094SOL     OW69307   5.004   4.651   2.534
23094SOL    HW169308   5.064   4.570   2.536
23094SOL    HW269309   5.044   4.720   2.474
23095SOL     OW69310   4.554   4.997   3.284
23095SOL    HW169311   4.549   5.030   3.379
23095SOL    HW269312   4.468   5.016   3.238
23096SOL     OW69313   4.396   5.340   2.016
23096SOL    HW169314   4.405   5.350   1.917
23096SOL    HW269315   4.356   5.251   2.037
23097SOL     OW69316   5.374   5.444   3.256
23097SOL    HW169317   5.427   5.454   3.172
23097SOL    HW269318   5.347   5.534   3.290
23098SOL     OW69319   5.565   3.899   2.825
23098SOL    HW169320   5.604   3.814   2.789
23098SOL    HW269321   5.467   3.901   2.806
23099SOL     OW69322   3.987   4.050   2.582
23099SOL    HW169323   3.908   4.101   2.548
23099SOL    HW269324   3.978   4.035   2.680
23100SOL     OW69325   4.918   5.336   1.893
23100SOL    HW169326   4.924   5.243   1.930
23100SOL    HW269327   4.859   5.336   1.813
23101SOL     OW69328   4.546   4.726   3.234
23101SOL    HW169329   4.586   4.725   3.142
23101SOL    HW269330   4.556   4.818   3.274
23102SOL     OW69331   4.640   4.634   2.153
23102SOL    HW169332   4.703   4.672   2.085
23102SOL    HW269333   4.680   4.551   2.192
23103SOL     OW69334   5.228   5.331   1.906
23103SOL    HW169335   5.136   5.368   1.913
23103SOL    HW269336   5.266   5.351   1.816
23104SOL     OW69337   4.096   5.012   3.352
23104SOL    HW169338   4.083   5.105   3.318
23104SOL    HW269339   4.012   4.960   3.339
23105SOL     OW69340   5.338   5.016   3.151
23105SOL    HW169341   5.398   5.019   3.231
23105SOL    HW269342   5.263   5.080   3.164
23106SOL     OW69343   4.763   4.822   2.558
23106SOL    HW169344   4.693   4.775   2.612
23106SOL    HW269345   4.822   4.754   2.515
23107SOL     OW69346   4.738   3.960   2.833
23107SOL    HW169347   4.730   3.924   2.740
23107SOL    HW269348   4.736   3.884   2.898
23108SOL     OW69349   4.314   5.211   2.353
23108SOL    HW169350   4.356   5.153   2.283
23108SOL    HW269351   4.270   5.290   2.309
23109SOL     OW69352   5.433   4.109   3.243
23109SOL    HW169353   5.506   4.178   3.247
23109SOL    HW269354   5.461   4.034   3.184
23110SOL     OW69355   3.979   5.072   2.152
23110SOL    HW169356   3.883   5.073   2.125
23110SOL    HW269357   3.991   5.125   2.236
23111SOL     OW69358   3.829   4.737   3.588
23111SOL    HW169359   3.752   4.704   3.642
23111SOL    HW269360   3.914   4.707   3.630
23112SOL     OW69361   4.396   3.927   3.351
23112SOL    HW169362   4.486   3.911   3.311
23112SOL    HW269363   4.404   3.932   3.450
23113SOL     OW69364   3.799   4.069   1.895
23113SOL    HW169365   3.707   4.041   1.866
23113SOL    HW269366   3.830   4.146   1.839
23114SOL     OW69367   5.164   4.580   3.260
23114SOL    HW169368   5.107   4.632   3.197
23114SOL    HW269369   5.260   4.592   3.236
23115SOL     OW69370   3.796   3.890   2.180
23115SOL    HW169371   3.779   3.973   2.126
23115SOL    HW269372   3.886   3.853   2.158
23116SOL     OW69373   4.907   5.059   1.981
23116SOL    HW169374   4.808   5.048   1.983
23116SOL    HW269375   4.941   5.074   2.074
23117SOL     OW69376   4.337   4.566   3.293
23117SOL    HW169377   4.393   4.647   3.276
23117SOL    HW269378   4.396   4.486   3.296
23118SOL     OW69379   5.217   5.491   2.821
23118SOL    HW169380   5.250   5.555   2.752
23118SOL    HW269381   5.283   5.485   2.896
23119SOL     OW69382   4.440   4.289   3.570
23119SOL    HW169383   4.459   4.354   3.644
23119SOL    HW269384   4.500   4.209   3.579
23120SOL     OW69385   5.174   4.944   3.495
23120SOL    HW169386   5.165   4.934   3.594
23120SOL    HW269387   5.270   4.937   3.469
23121SOL     OW69388   4.114   5.465   3.422
23121SOL    HW169389   4.023   5.506   3.420
23121SOL    HW269390   4.107   5.371   3.454
23122SOL     OW69391   5.398   4.607   3.116
23122SOL    HW169392   5.371   4.518   3.079
23122SOL    HW269393   5.399   4.675   3.043
23123SOL     OW69394   4.949   4.049   2.311
23123SOL    HW169395   5.014   3.975   2.300
23123SOL    HW269396   4.969   4.099   2.395
23124SOL     OW69397   4.318   4.469   2.514
23124SOL    HW169398   4.368   4.554   2.495
23124SOL    HW269399   4.230   4.471   2.466
23125SOL     OW69400   5.501   4.066   3.504
23125SOL    HW169401   5.484   4.097   3.410
23125SOL    HW269402   5.417   4.029   3.542
23126SOL     OW69403   5.454   4.658   3.379
23126SOL    HW169404   5.492   4.749   3.394
23126SOL    HW269405   5.446   4.641   3.280
23127SOL     OW69406   4.583   5.098   1.878
23127SOL    HW169407   4.537   5.113   1.966
23127SOL    HW269408   4.627   5.183   1.848
23128SOL     OW69409   4.385   5.514   2.815
23128SOL    HW169410   4.339   5.602   2.802
23128SOL    HW269411   4.484   5.526   2.808
23129SOL     OW69412   4.583   4.680   2.723
23129SOL    HW169413   4.637   4.611   2.771
23129SOL    HW269414   4.551   4.749   2.789
23130SOL     OW69415   4.807   4.708   1.949
23130SOL    HW169416   4.784   4.761   1.867
23130SOL    HW269417   4.888   4.652   1.930
23131SOL     OW69418   5.585   5.293   2.713
23131SOL    HW169419   5.514   5.281   2.643
23131SOL    HW269420   5.586   5.214   2.773
23132SOL     OW69421   3.945   5.038   3.706
23132SOL    HW169422   3.880   4.965   3.685
23132SOL    HW269423   3.949   5.052   3.804
23133SOL     OW69424   3.803   4.964   2.515
23133SOL    HW169425   3.802   4.917   2.603
23133SOL    HW269426   3.885   4.936   2.464
23134SOL     OW69427   4.396   5.115   3.486
23134SOL    HW169428   4.318   5.065   3.524
23134SOL    HW269429   4.393   5.210   3.517
23135SOL     OW69430   5.548   3.916   3.089
23135SOL    HW169431   5.544   3.826   3.133
23135SOL    HW269432   5.551   3.905   2.990
23136SOL     OW69433   4.152   4.148   2.382
23136SOL    HW169434   4.182   4.076   2.320
23136SOL    HW269435   4.113   4.108   2.465
23137SOL     OW69436   5.429   5.211   2.966
23137SOL    HW169437   5.336   5.186   2.939
23137SOL    HW269438   5.455   5.161   3.048
23138SOL     OW69439   4.041   4.271   3.142
23138SOL    HW169440   4.079   4.212   3.214
23138SOL    HW269441   4.081   4.245   3.054
23139SOL     OW69442   4.536   5.310   2.549
23139SOL    HW169443   4.568   5.320   2.455
23139SOL    HW269444   4.457   5.248   2.551
23140SOL     OW69445   5.148   3.938   2.974
23140SOL    HW169446   5.200   3.873   3.029
23140SOL    HW269447   5.099   4.001   3.035
23141SOL     OW69448   4.725   3.758   3.016
23141SOL    HW169449   4.662   3.686   2.985
23141SOL    HW269450   4.818   3.722   3.016
23142SOL     OW69451   4.494   5.054   2.163
23142SOL    HW169452   4.448   4.967   2.180
23142SOL    HW269453   4.585   5.051   2.204
23143SOL     OW69454   4.342   5.291   3.146
23143SOL    HW169455   4.337   5.373   3.203
23143SOL    HW269456   4.431   5.288   3.101
23144SOL     OW69457   5.076   3.776   2.030
23144SOL    HW169458   5.111   3.735   1.946
23144SOL    HW269459   4.986   3.738   2.050
23145SOL     OW69460   5.024   4.177   2.553
23145SOL    HW169461   4.965   4.257   2.557
23145SOL    HW269462   5.039   4.142   2.646
23146SOL     OW69463   5.317   3.945   2.744
23146SOL    HW169464   5.233   3.944   2.798
23146SOL    HW269465   5.319   4.028   2.688
23147SOL     OW69466   3.763   4.801   2.162
23147SOL    HW169467   3.862   4.790   2.153
23147SOL    HW269468   3.723   4.715   2.194
23148SOL     OW69469   4.599   5.370   2.199
23148SOL    HW169470   4.522   5.335   2.145
23148SOL    HW269471   4.567   5.441   2.261
23149SOL     OW69472   3.954   4.352   3.837
23149SOL    HW169473   3.861   4.350   3.874
23149SOL    HW269474   3.955   4.313   3.745
23150SOL     OW69475   3.949   3.999   4.720
23150SOL    HW169476   3.984   3.982   4.812
23150SOL    HW269477   3.861   3.954   4.708
23151SOL     OW69478   3.743   4.092   4.371
23151SOL    HW169479   3.661   4.135   4.410
23151SOL    HW269480   3.715   4.019   4.308
23152SOL     OW69481   4.293   4.999   4.889
23152SOL    HW169482   4.200   4.992   4.852
23152SOL    HW269483   4.304   5.088   4.933
23153SOL     OW69484   5.279   5.235   4.427
23153SOL    HW169485   5.222   5.219   4.508
23153SOL    HW269486   5.220   5.245   4.347
23154SOL     OW69487   4.859   4.427   4.441
23154SOL    HW169488   4.916   4.505   4.416
23154SOL    HW269489   4.799   4.453   4.517
23155SOL     OW69490   5.479   4.331   3.955
23155SOL    HW169491   5.467   4.318   3.856
23155SOL    HW269492   5.449   4.250   4.004
23156SOL     OW69493   4.492   4.868   4.747
23156SOL    HW169494   4.414   4.885   4.807
23156SOL    HW269495   4.526   4.955   4.711
23157SOL     OW69496   4.574   4.522   5.547
23157SOL    HW169497   4.570   4.598   5.612
23157SOL    HW269498   4.596   4.558   5.456
23158SOL     OW69499   4.409   4.736   4.389
23158SOL    HW169500   4.478   4.720   4.459
23158SOL    HW269501   4.336   4.793   4.427
23159SOL     OW69502   4.410   4.885   5.527
23159SOL    HW169503   4.470   4.964   5.541
23159SOL    HW269504   4.324   4.916   5.486
23160SOL     OW69505   4.059   5.159   4.785
23160SOL    HW169506   3.981   5.128   4.732
23160SOL    HW269507   4.117   5.217   4.728
23161SOL     OW69508   5.184   5.229   5.063
23161SOL    HW169509   5.208   5.323   5.089
23161SOL    HW269510   5.168   5.175   5.145
23162SOL     OW69511   4.162   4.116   5.223
23162SOL    HW169512   4.244   4.060   5.232
23162SOL    HW269513   4.081   4.058   5.227
23163SOL     OW69514   5.327   4.171   4.461
23163SOL    HW169515   5.253   4.217   4.411
23163SOL    HW269516   5.378   4.239   4.514
23164SOL     OW69517   3.955   5.437   4.207
23164SOL    HW169518   3.989   5.514   4.261
23164SOL    HW269519   3.999   5.437   4.117
23165SOL     OW69520   4.851   5.065   5.414
23165SOL    HW169521   4.898   5.065   5.502
23165SOL    HW269522   4.803   4.978   5.403
23166SOL     OW69523   3.954   5.158   4.262
23166SOL    HW169524   3.928   5.254   4.262
23166SOL    HW269525   3.883   5.104   4.307
23167SOL     OW69526   3.964   4.815   4.610
23167SOL    HW169527   3.978   4.731   4.662
23167SOL    HW269528   3.909   4.879   4.665
23168SOL     OW69529   4.344   5.510   5.163
23168SOL    HW169530   4.252   5.493   5.198
23168SOL    HW269531   4.372   5.602   5.189
23169SOL     OW69532   4.330   4.688   3.847
23169SOL    HW169533   4.337   4.772   3.793
23169SOL    HW269534   4.376   4.701   3.935
23170SOL     OW69535   5.318   3.838   5.204
23170SOL    HW169536   5.300   3.905   5.132
23170SOL    HW269537   5.315   3.884   5.293
23171SOL     OW69538   3.846   4.367   4.287
23171SOL    HW169539   3.801   4.279   4.304
23171SOL    HW269540   3.845   4.421   4.371
23172SOL     OW69541   5.566   5.491   4.083
23172SOL    HW169542   5.620   5.462   4.163
23172SOL    HW269543   5.596   5.581   4.054
23173SOL     OW69544   3.751   5.320   3.841
23173SOL    HW169545   3.732   5.224   3.862
23173SOL    HW269546   3.718   5.378   3.916
23174SOL     OW69547   5.413   4.646   4.336
23174SOL    HW169548   5.508   4.617   4.344
23174SOL    HW269549   5.405   4.711   4.261
23175SOL     OW69550   5.365   4.832   4.156
23175SOL    HW169551   5.451   4.834   4.104
23175SOL    HW269552   5.379   4.879   4.244
23176SOL     OW69553   3.837   4.461   5.321
23176SOL    HW169554   3.925   4.448   5.366
23176SOL    HW269555   3.824   4.558   5.299
23177SOL     OW69556   4.337   5.089   4.450
23177SOL    HW169557   4.288   5.002   4.459
23177SOL    HW269558   4.314   5.132   4.363
23178SOL     OW69559   5.017   4.952   5.147
23178SOL    HW169560   5.054   4.879   5.089
23178SOL    HW269561   5.069   4.957   5.232
23179SOL     OW69562   4.533   3.728   4.226
23179SOL    HW169563   4.573   3.819   4.217
23179SOL    HW269564   4.433   3.736   4.232
23180SOL     OW69565   3.921   4.700   4.988
23180SOL    HW169566   4.010   4.655   4.974
23180SOL    HW269567   3.848   4.635   4.969
23181SOL     OW69568   5.249   4.723   3.914
23181SOL    HW169569   5.186   4.647   3.927
23181SOL    HW269570   5.297   4.741   4.000
23182SOL     OW69571   4.911   5.516   5.340
23182SOL    HW169572   4.935   5.576   5.264
23182SOL    HW269573   4.918   5.421   5.310
23183SOL     OW69574   4.041   3.975   5.525
23183SOL    HW169575   4.112   4.046   5.531
23183SOL    HW269576   3.953   4.014   5.553
23184SOL     OW69577   5.190   5.141   4.677
23184SOL    HW169578   5.131   5.147   4.757
23184SOL    HW269579   5.175   5.053   4.631
23185SOL     OW69580   5.391   5.438   4.296
23185SOL    HW169581   5.350   5.415   4.208
23185SOL    HW269582   5.373   5.364   4.361
23186SOL     OW69583   4.322   4.453   3.994
23186SOL    HW169584   4.346   4.522   3.926
23186SOL    HW269585   4.244   4.486   4.048
23187SOL     OW69586   5.005   4.069   4.668
23187SOL    HW169587   4.919   4.019   4.655
23187SOL    HW269588   5.067   4.015   4.724
23188SOL     OW69589   5.300   5.386   4.031
23188SOL    HW169590   5.389   5.432   4.034
23188SOL    HW269591   5.279   5.362   3.936
23189SOL     OW69592   4.531   4.329   5.189
23189SOL    HW169593   4.484   4.326   5.278
23189SOL    HW269594   4.480   4.274   5.123
23190SOL     OW69595   5.118   4.193   5.398
23190SOL    HW169596   5.098   4.236   5.486
23190SOL    HW269597   5.196   4.131   5.407
23191SOL     OW69598   4.697   4.614   5.296
23191SOL    HW169599   4.743   4.530   5.267
23191SOL    HW269600   4.641   4.648   5.221
23192SOL     OW69601   4.715   4.134   4.966
23192SOL    HW169602   4.638   4.168   5.020
23192SOL    HW269603   4.681   4.083   4.887
23193SOL     OW69604   4.765   4.425   4.153
23193SOL    HW169605   4.791   4.421   4.249
23193SOL    HW269606   4.680   4.374   4.139
23194SOL     OW69607   3.800   4.535   4.513
23194SOL    HW169608   3.899   4.523   4.522
23194SOL    HW269609   3.776   4.630   4.534
23195SOL     OW69610   3.854   5.545   5.295
23195SOL    HW169611   3.844   5.530   5.394
23195SOL    HW269612   3.768   5.581   5.259
23196SOL     OW69613   4.589   4.072   3.919
23196SOL    HW169614   4.648   4.135   3.870
23196SOL    HW269615   4.608   3.978   3.890
23197SOL     OW69616   5.443   4.309   5.555
23197SOL    HW169617   5.417   4.398   5.519
23197SOL    HW269618   5.441   4.241   5.482
23198SOL     OW69619   5.086   4.868   4.269
23198SOL    HW169620   5.169   4.839   4.221
23198SOL    HW269621   5.037   4.935   4.213
23199SOL     OW69622   4.274   3.920   4.609
23199SOL    HW169623   4.269   3.915   4.709
23199SOL    HW269624   4.276   4.016   4.580
23200SOL     OW69625   4.732   5.180   4.201
23200SOL    HW169626   4.686   5.252   4.149
23200SOL    HW269627   4.728   5.200   4.299
23201SOL     OW69628   4.075   5.525   4.577
23201SOL    HW169629   4.125   5.439   4.583
23201SOL    HW269630   4.140   5.602   4.574
23202SOL     OW69631   5.519   4.790   4.597
23202SOL    HW169632   5.457   4.775   4.521
23202SOL    HW269633   5.467   4.801   4.682
23203SOL     OW69634   4.951   5.274   5.230
23203SOL    HW169635   4.957   5.197   5.294
23203SOL    HW269636   4.899   5.248   5.150
23204SOL     OW69637   4.045   4.667   3.966
23204SOL    HW169638   4.127   4.706   3.924
23204SOL    HW269639   4.018   4.585   3.917
23205SOL     OW69640   5.182   4.459   4.452
23205SOL    HW169641   5.177   4.394   4.527
23205SOL    HW269642   5.262   4.518   4.465
23206SOL     OW69643   4.185   4.990   5.451
23206SOL    HW169644   4.135   4.991   5.365
23206SOL    HW269645   4.122   4.972   5.527
23207SOL     OW69646   4.835   5.500   3.961
23207SOL    HW169647   4.775   5.438   4.011
23207SOL    HW269648   4.866   5.456   3.876
23208SOL     OW69649   3.926   4.009   5.222
23208SOL    HW169650   3.846   4.069   5.209
23208SOL    HW269651   3.916   3.960   5.308
23209SOL     OW69652   5.356   5.101   3.805
23209SOL    HW169653   5.324   5.195   3.795
23209SOL    HW269654   5.280   5.038   3.793
23210SOL     OW69655   4.188   5.467   4.047
23210SOL    HW169656   4.221   5.506   4.133
23210SOL    HW269657   4.264   5.460   3.982
23211SOL     OW69658   5.124   3.831   4.150
23211SOL    HW169659   5.100   3.794   4.060
23211SOL    HW269660   5.223   3.847   4.154
23212SOL     OW69661   3.973   5.509   4.965
23212SOL    HW169662   4.030   5.444   5.015
23212SOL    HW269663   3.957   5.476   4.872
23213SOL     OW69664   4.664   5.422   4.628
23213SOL    HW169665   4.744   5.365   4.649
23213SOL    HW269666   4.615   5.382   4.551
23214SOL     OW69667   4.106   4.424   4.204
23214SOL    HW169668   4.151   4.334   4.201
23214SOL    HW269669   4.012   4.413   4.237
23215SOL     OW69670   5.271   3.946   5.453
23215SOL    HW169671   5.266   3.983   5.545
23215SOL    HW269672   5.199   3.877   5.441
23216SOL     OW69673   4.338   3.846   3.841
23216SOL    HW169674   4.436   3.824   3.848
23216SOL    HW269675   4.307   3.829   3.748
23217SOL     OW69676   4.505   3.988   5.473
23217SOL    HW169677   4.572   3.927   5.516
23217SOL    HW269678   4.432   4.007   5.538
23218SOL     OW69679   4.612   5.238   4.919
23218SOL    HW169680   4.589   5.213   4.825
23218SOL    HW269681   4.673   5.169   4.958
23219SOL     OW69682   5.075   4.314   5.157
23219SOL    HW169683   5.103   4.271   5.242
23219SOL    HW269684   5.100   4.410   5.158
23220SOL     OW69685   4.527   5.126   4.648
23220SOL    HW169686   4.617   5.140   4.606
23220SOL    HW269687   4.456   5.128   4.577
23221SOL     OW69688   4.646   4.227   4.623
23221SOL    HW169689   4.621   4.218   4.527
23221SOL    HW269690   4.694   4.145   4.654
23222SOL     OW69691   4.263   3.788   4.236
23222SOL    HW169692   4.182   3.789   4.294
23222SOL    HW269693   4.266   3.871   4.181
23223SOL     OW69694   5.158   4.912   3.765
23223SOL    HW169695   5.190   4.836   3.822
23223SOL    HW269696   5.066   4.939   3.795
23224SOL     OW69697   4.021   3.759   3.895
23224SOL    HW169698   4.070   3.843   3.874
23224SOL    HW269699   4.083   3.694   3.940
23225SOL     OW69700   4.659   3.960   4.204
23225SOL    HW169701   4.611   4.001   4.126
23225SOL    HW269702   4.758   3.958   4.185
23226SOL     OW69703   4.800   4.407   5.188
23226SOL    HW169704   4.720   4.346   5.191
23226SOL    HW269705   4.881   4.354   5.164
23227SOL     OW69706   4.951   5.294   4.517
23227SOL    HW169707   4.972   5.368   4.452
23227SOL    HW269708   5.019   5.294   4.590
23228SOL     OW69709   4.183   4.876   4.465
23228SOL    HW169710   4.112   4.849   4.530
23228SOL    HW269711   4.157   4.848   4.372
23229SOL     OW69712   4.995   5.521   4.315
23229SOL    HW169713   5.039   5.585   4.251
23229SOL    HW269714   4.945   5.573   4.385
23230SOL     OW69715   4.756   4.273   3.740
23230SOL    HW169716   4.715   4.355   3.701
23230SOL    HW269717   4.820   4.299   3.813
23231SOL     OW69718   3.802   4.280   5.110
23231SOL    HW169719   3.894   4.279   5.069
23231SOL    HW269720   3.796   4.354   5.177
23232SOL     OW69721   4.285   3.946   4.871
23232SOL    HW169722   4.323   3.862   4.908
23232SOL    HW269723   4.197   3.965   4.915
23233SOL     OW69724   4.590   4.178   4.366
23233SOL    HW169725   4.558   4.250   4.304
23233SOL    HW269726   4.614   4.097   4.313
23234SOL     OW69727   4.741   3.763   4.477
23234SOL    HW169728   4.669   3.768   4.408
23234SOL    HW269729   4.717   3.694   4.546
23235SOL     OW69730   5.153   4.897   4.591
23235SOL    HW169731   5.098   4.813   4.584
23235SOL    HW269732   5.179   4.926   4.499
23236SOL     OW69733   5.190   4.314   4.716
23236SOL    HW169734   5.160   4.219   4.723
23236SOL    HW269735   5.263   4.330   4.782
23237SOL     OW69736   5.581   4.557   4.101
23237SOL    HW169737   5.623   4.493   4.165
23237SOL    HW269738   5.543   4.506   4.023
23238SOL     OW69739   4.212   5.109   3.898
23238SOL    HW169740   4.125   5.094   3.945
23238SOL    HW269741   4.195   5.135   3.803
23239SOL     OW69742   5.388   5.004   4.381
23239SOL    HW169743   5.487   5.012   4.395
23239SOL    HW269744   5.343   5.088   4.412
23240SOL     OW69745   5.114   4.299   3.802
23240SOL    HW169746   5.060   4.278   3.883
23240SOL    HW269747   5.205   4.258   3.811
23241SOL     OW69748   4.251   3.980   4.052
23241SOL    HW169749   4.278   3.921   3.977
23241SOL    HW269750   4.251   4.075   4.021
23242SOL     OW69751   5.478   4.947   5.312
23242SOL    HW169752   5.569   4.908   5.299
23242SOL    HW269753   5.486   5.043   5.336
23243SOL     OW69754   4.788   5.071   5.064
23243SOL    HW169755   4.708   5.048   5.119
23243SOL    HW269756   4.871   5.045   5.113
23244SOL     OW69757   5.316   5.353   5.349
23244SOL    HW169758   5.343   5.387   5.259
23244SOL    HW269759   5.395   5.315   5.395
23245SOL     OW69760   4.835   4.919   4.824
23245SOL    HW169761   4.795   4.963   4.905
23245SOL    HW269762   4.794   4.956   4.741
23246SOL     OW69763   5.362   4.823   4.803
23246SOL    HW169764   5.367   4.904   4.862
23246SOL    HW269765   5.276   4.825   4.752
23247SOL     OW69766   4.639   3.813   5.126
23247SOL    HW169767   4.664   3.793   5.031
23247SOL    HW269768   4.711   3.869   5.168
23248SOL     OW69769   4.704   4.840   5.443
23248SOL    HW169770   4.605   4.846   5.453
23248SOL    HW269771   4.727   4.760   5.387
23249SOL     OW69772   4.429   4.774   4.092
23249SOL    HW169773   4.415   4.781   4.191
23249SOL    HW269774   4.513   4.723   4.074
23250SOL     OW69775   4.134   4.537   4.975
23250SOL    HW169776   4.220   4.549   5.025
23250SOL    HW269777   4.092   4.450   5.002
23251SOL     OW69778   4.998   4.110   4.986
23251SOL    HW169779   5.019   4.184   5.050
23251SOL    HW269780   4.909   4.127   4.943
23252SOL     OW69781   3.788   5.288   5.055
23252SOL    HW169782   3.742   5.370   5.021
23252SOL    HW269783   3.886   5.307   5.064
23253SOL     OW69784   4.091   4.824   4.225
23253SOL    HW169785   4.084   4.907   4.169
23253SOL    HW269786   4.095   4.744   4.165
23254SOL     OW69787   4.290   4.261   4.589
23254SOL    HW169788   4.302   4.327   4.515
23254SOL    HW269789   4.336   4.295   4.672
23255SOL     OW69790   4.976   5.072   4.112
23255SOL    HW169791   5.026   5.149   4.152
23255SOL    HW269792   4.881   5.074   4.144
23256SOL     OW69793   4.996   5.169   4.866
23256SOL    HW169794   5.043   5.182   4.953
23256SOL    HW269795   4.930   5.095   4.875
23257SOL     OW69796   5.306   4.363   4.196
23257SOL    HW169797   5.275   4.424   4.269
23257SOL    HW269798   5.356   4.415   4.127
23258SOL     OW69799   4.078   5.234   5.053
23258SOL    HW169800   4.057   5.190   4.966
23258SOL    HW269801   4.175   5.260   5.056
23259SOL     OW69802   4.126   4.475   5.322
23259SOL    HW169803   4.194   4.530   5.275
23259SOL    HW269804   4.166   4.387   5.349
23260SOL     OW69805   5.311   4.503   5.394
23260SOL    HW169806   5.219   4.541   5.389
23260SOL    HW269807   5.371   4.550   5.329
23261SOL     OW69808   4.737   3.829   5.494
23261SOL    HW169809   4.743   3.914   5.442
23261SOL    HW269810   4.769   3.753   5.437
23262SOL     OW69811   4.228   3.774   5.464
23262SOL    HW169812   4.186   3.717   5.394
23262SOL    HW269813   4.162   3.843   5.496
23263SOL     OW69814   4.297   4.594   4.753
23263SOL    HW169815   4.341   4.683   4.744
23263SOL    HW269816   4.234   4.594   4.830
23264SOL     OW69817   5.084   4.586   4.769
23264SOL    HW169818   5.009   4.586   4.703
23264SOL    HW269819   5.121   4.494   4.778
23265SOL     OW69820   4.933   4.249   3.999
23265SOL    HW169821   4.946   4.165   4.053
23265SOL    HW269822   4.904   4.323   4.059
23266SOL     OW69823   4.031   3.937   4.955
23266SOL    HW169824   4.008   3.974   5.045
23266SOL    HW269825   4.001   3.842   4.949
23267SOL     OW69826   3.761   5.034   5.006
23267SOL    HW169827   3.814   4.985   5.074
23267SOL    HW269828   3.783   5.132   5.011
23268SOL     OW69829   4.456   4.358   4.788
23268SOL    HW169830   4.515   4.332   4.712
23268SOL    HW269831   4.428   4.454   4.777
23269SOL     OW69832   5.452   4.659   5.578
23269SOL    HW169833   5.406   4.652   5.489
23269SOL    HW269834   5.390   4.703   5.644
23270SOL     OW69835   4.031   3.787   4.342
23270SOL    HW169836   4.020   3.881   4.375
23270SOL    HW269837   4.026   3.724   4.419
23271SOL     OW69838   5.346   4.091   4.098
23271SOL    HW169839   5.348   4.015   4.162
23271SOL    HW269840   5.298   4.168   4.138
23272SOL     OW69841   4.747   4.490   4.690
23272SOL    HW169842   4.762   4.511   4.786
23272SOL    HW269843   4.717   4.395   4.681
23273SOL     OW69844   4.704   5.297   5.424
23273SOL    HW169845   4.684   5.341   5.336
23273SOL    HW269846   4.743   5.206   5.408
23274SOL     OW69847   5.583   5.242   5.329
23274SOL    HW169848   5.597   5.269   5.234
23274SOL    HW269849   5.666   5.264   5.382
23275SOL     OW69850   4.074   4.622   5.528
23275SOL    HW169851   4.150   4.666   5.576
23275SOL    HW269852   4.109   4.575   5.446
23276SOL     OW69853   5.264   3.998   3.849
23276SOL    HW169854   5.203   3.923   3.872
23276SOL    HW269855   5.286   4.050   3.932
23277SOL     OW69856   5.027   4.562   3.766
23277SOL    HW169857   5.061   4.469   3.781
23277SOL    HW269858   5.045   4.589   3.671
23278SOL     OW69859   4.792   5.057   4.573
23278SOL    HW169860   4.799   4.973   4.518
23278SOL    HW269861   4.854   5.126   4.537
23279SOL     OW69862   4.043   4.534   4.673
23279SOL    HW169863   4.136   4.570   4.678
23279SOL    HW269864   4.037   4.449   4.725
23280SOL     OW69865   4.063   4.233   4.730
23280SOL    HW169866   4.011   4.150   4.713
23280SOL    HW269867   4.140   4.238   4.666
23281SOL     OW69868   4.862   4.104   5.402
23281SOL    HW169869   4.817   4.167   5.466
23281SOL    HW269870   4.955   4.135   5.385
23282SOL     OW69871   4.884   3.931   5.201
23282SOL    HW169872   4.884   3.995   5.278
23282SOL    HW269873   4.912   3.979   5.118
23283SOL     OW69874   3.732   5.050   3.924
23283SOL    HW169875   3.639   5.071   3.893
23283SOL    HW269876   3.742   4.951   3.937
23284SOL     OW69877   3.812   5.525   4.651
23284SOL    HW169878   3.770   5.439   4.624
23284SOL    HW269879   3.906   5.528   4.617
23285SOL     OW69880   4.228   5.292   4.634
23285SOL    HW169881   4.294   5.366   4.643
23285SOL    HW269882   4.272   5.213   4.592
23286SOL     OW69883   4.726   4.520   4.962
23286SOL    HW169884   4.767   4.488   5.048
23286SOL    HW269885   4.630   4.493   4.959
23287SOL     OW69886   3.764   4.268   4.838
23287SOL    HW169887   3.849   4.235   4.797
23287SOL    HW269888   3.777   4.283   4.936
23288SOL     OW69889   3.913   4.244   5.446
23288SOL    HW169890   3.972   4.204   5.376
23288SOL    HW269891   3.855   4.315   5.405
23289SOL     OW69892   5.093   4.674   5.384
23289SOL    HW169893   5.132   4.763   5.404
23289SOL    HW269894   5.103   4.654   5.287
23290SOL     OW69895   4.539   4.296   4.049
23290SOL    HW169896   4.546   4.207   4.003
23290SOL    HW269897   4.445   4.330   4.041
23291SOL     OW69898   5.381   4.328   4.930
23291SOL    HW169899   5.343   4.259   4.992
23291SOL    HW269900   5.463   4.292   4.886
23292SOL     OW69901   3.976   5.288   5.468
23292SOL    HW169902   3.946   5.345   5.544
23292SOL    HW269903   3.969   5.191   5.494
23293SOL     OW69904   4.395   4.188   4.993
23293SOL    HW169905   4.361   4.099   4.963
23293SOL    HW269906   4.421   4.242   4.913
23294SOL     OW69907   4.654   5.402   5.189
23294SOL    HW169908   4.630   5.384   5.094
23294SOL    HW269909   4.684   5.496   5.199
23295SOL     OW69910   4.197   4.224   3.915
23295SOL    HW169911   4.258   4.304   3.919
23295SOL    HW269912   4.102   4.255   3.922
23296SOL     OW69913   3.883   4.861   5.190
23296SOL    HW169914   3.905   4.800   5.266
23296SOL    HW269915   3.893   4.812   5.104
23297SOL     OW69916   5.071   4.783   4.958
23297SOL    HW169917   5.095   4.720   4.884
23297SOL    HW269918   4.981   4.823   4.940
23298SOL     OW69919   5.026   4.579   4.033
23298SOL    HW169920   4.940   4.548   4.075
23298SOL    HW269921   5.022   4.565   3.934
23299SOL     OW69922   5.483   5.471   4.878
23299SOL    HW169923   5.544   5.501   4.805
23299SOL    HW269924   5.445   5.382   4.856
23300SOL     OW69925   4.976   5.455   4.852
23300SOL    HW169926   5.060   5.460   4.798
23300SOL    HW269927   4.953   5.359   4.870
23301SOL     OW69928   3.807   4.982   4.746
23301SOL    HW169929   3.802   4.981   4.846
23301SOL    HW269930   3.724   4.941   4.708
23302SOL     OW69931   4.412   5.386   5.440
23302SOL    HW169932   4.356   5.467   5.449
23302SOL    HW269933   4.464   5.390   5.354
23303SOL     OW69934   5.450   3.859   4.247
23303SOL    HW169935   5.523   3.842   4.180
23303SOL    HW269936   5.419   3.772   4.285
23304SOL     OW69937   5.112   5.297   4.201
23304SOL    HW169938   5.179   5.309   4.127
23304SOL    HW269939   5.072   5.386   4.224
23305SOL     OW69940   3.854   5.518   5.575
23305SOL    HW169941   3.813   5.444   5.628
23305SOL    HW269942   3.918   5.569   5.633
23306SOL     OW69943   5.004   4.651   4.396
23306SOL    HW169944   5.064   4.570   4.398
23306SOL    HW269945   5.044   4.720   4.336
23307SOL     OW69946   4.554   4.997   5.146
23307SOL    HW169947   4.549   5.030   5.241
23307SOL    HW269948   4.468   5.016   5.100
23308SOL     OW69949   4.396   5.340   3.878
23308SOL    HW169950   4.405   5.350   3.779
23308SOL    HW269951   4.356   5.251   3.899
23309SOL     OW69952   5.374   5.444   5.118
23309SOL    HW169953   5.427   5.454   5.034
23309SOL    HW269954   5.347   5.534   5.152
23310SOL     OW69955   5.565   3.899   4.687
23310SOL    HW169956   5.604   3.814   4.651
23310SOL    HW269957   5.467   3.901   4.668
23311SOL     OW69958   3.987   4.050   4.444
23311SOL    HW169959   3.908   4.101   4.410
23311SOL    HW269960   3.978   4.035   4.542
23312SOL     OW69961   4.918   5.336   3.755
23312SOL    HW169962   4.924   5.243   3.792
23312SOL    HW269963   4.859   5.336   3.675
23313SOL     OW69964   4.546   4.726   5.096
23313SOL    HW169965   4.586   4.725   5.004
23313SOL    HW269966   4.556   4.818   5.136
23314SOL     OW69967   4.640   4.634   4.015
23314SOL    HW169968   4.703   4.672   3.947
23314SOL    HW269969   4.680   4.551   4.054
23315SOL     OW69970   5.228   5.331   3.768
23315SOL    HW169971   5.136   5.368   3.775
23315SOL    HW269972   5.266   5.351   3.678
23316SOL     OW69973   4.096   5.012   5.214
23316SOL    HW169974   4.083   5.105   5.180
23316SOL    HW269975   4.012   4.960   5.201
23317SOL     OW69976   5.338   5.016   5.013
23317SOL    HW169977   5.398   5.019   5.093
23317SOL    HW269978   5.263   5.080   5.026
23318SOL     OW69979   4.763   4.822   4.420
23318SOL    HW169980   4.693   4.775   4.474
23318SOL    HW269981   4.822   4.754   4.377
23319SOL     OW69982   4.738   3.960   4.695
23319SOL    HW169983   4.730   3.924   4.602
23319SOL    HW269984   4.736   3.884   4.760
23320SOL     OW69985   4.314   5.211   4.215
23320SOL    HW169986   4.356   5.153   4.145
23320SOL    HW269987   4.270   5.290   4.171
23321SOL     OW69988   5.433   4.109   5.105
23321SOL    HW169989   5.506   4.178   5.109
23321SOL    HW269990   5.461   4.034   5.046
23322SOL     OW69991   3.979   5.072   4.014
23322SOL    HW169992   3.883   5.073   3.987
23322SOL    HW269993   3.991   5.125   4.098
23323SOL     OW69994   3.829   4.737   5.450
23323SOL    HW169995   3.752   4.704   5.504
23323SOL    HW269996   3.914   4.707   5.492
23324SOL     OW69997   4.396   3.927   5.213
23324SOL    HW169998   4.486   3.911   5.173
23324SOL    HW269999   4.404   3.932   5.312
23325SOL     OW70000   3.799   4.069   3.757
23325SOL    HW170001   3.707   4.041   3.728
23325SOL    HW270002   3.830   4.146   3.701
23326SOL     OW70003   5.164   4.580   5.122
23326SOL    HW170004   5.107   4.632   5.059
23326SOL    HW270005   5.260   4.592   5.098
23327SOL     OW70006   3.796   3.890   4.042
23327SOL    HW170007   3.779   3.973   3.988
23327SOL    HW270008   3.886   3.853   4.020
23328SOL     OW70009   4.907   5.059   3.843
23328SOL    HW170010   4.808   5.048   3.845
23328SOL    HW270011   4.941   5.074   3.936
23329SOL     OW70012   4.337   4.566   5.155
23329SOL    HW170013   4.393   4.647   5.138
23329SOL    HW270014   4.396   4.486   5.158
23330SOL     OW70015   5.217   5.491   4.683
23330SOL    HW170016   5.250   5.555   4.614
23330SOL    HW270017   5.283   5.485   4.758
23331SOL     OW70018   4.440   4.289   5.432
23331SOL    HW170019   4.459   4.354   5.506
23331SOL    HW270020   4.500   4.209   5.441
23332SOL     OW70021   5.174   4.944   5.357
23332SOL    HW170022   5.165   4.934   5.456
23332SOL    HW270023   5.270   4.937   5.331
23333SOL     OW70024   4.114   5.465   5.284
23333SOL    HW170025   4.023   5.506   5.282
23333SOL    HW270026   4.107   5.371   5.316
23334SOL     OW70027   5.398   4.607   4.978
23334SOL    HW170028   5.371   4.518   4.941
23334SOL    HW270029   5.399   4.675   4.905
23335SOL     OW70030   4.949   4.049   4.173
23335SOL    HW170031   5.014   3.975   4.162
23335SOL    HW270032   4.969   4.099   4.257
23336SOL     OW70033   4.318   4.469   4.376
23336SOL    HW170034   4.368   4.554   4.357
23336SOL    HW270035   4.230   4.471   4.328
23337SOL     OW70036   5.501   4.066   5.366
23337SOL    HW170037   5.484   4.097   5.272
23337SOL    HW270038   5.417   4.029   5.404
23338SOL     OW70039   5.454   4.658   5.241
23338SOL    HW170040   5.492   4.749   5.256
23338SOL    HW270041   5.446   4.641   5.142
23339SOL     OW70042   4.583   5.098   3.740
23339SOL    HW170043   4.537   5.113   3.828
23339SOL    HW270044   4.627   5.183   3.710
23340SOL     OW70045   4.385   5.514   4.677
23340SOL    HW170046   4.339   5.602   4.664
23340SOL    HW270047   4.484   5.526   4.670
23341SOL     OW70048   4.583   4.680   4.585
23341SOL    HW170049   4.637   4.611   4.633
23341SOL    HW270050   4.551   4.749   4.651
23342SOL     OW70051   4.807   4.708   3.811
23342SOL    HW170052   4.784   4.761   3.729
23342SOL    HW270053   4.888   4.652   3.792
23343SOL     OW70054   5.585   5.293   4.575
23343SOL    HW170055   5.514   5.281   4.505
23343SOL    HW270056   5.586   5.214   4.635
23344SOL     OW70057   3.945   5.038   5.568
23344SOL    HW170058   3.880   4.965   5.547
23344SOL    HW270059   3.949   5.052   5.666
23345SOL     OW70060   3.803   4.964   4.377
23345SOL    HW170061   3.802   4.917   4.465
23345SOL    HW270062   3.885   4.936   4.326
23346SOL     OW70063   4.396   5.115   5.348
23346SOL    HW170064   4.318   5.065   5.386
23346SOL    HW270065   4.393   5.210   5.379
23347SOL     OW70066   5.548   3.916   4.951
23347SOL    HW170067   5.544   3.826   4.995
23347SOL    HW270068   5.551   3.905   4.852
23348SOL     OW70069   4.152   4.148   4.244
23348SOL    HW170070   4.182   4.076   4.182
23348SOL    HW270071   4.113   4.108   4.327
23349SOL     OW70072   5.429   5.211   4.828
23349SOL    HW170073   5.336   5.186   4.801
23349SOL    HW270074   5.455   5.161   4.910
23350SOL     OW70075   4.041   4.271   5.004
23350SOL    HW170076   4.079   4.212   5.076
23350SOL    HW270077   4.081   4.245   4.916
23351SOL     OW70078   4.536   5.310   4.411
23351SOL    HW170079   4.568   5.320   4.317
23351SOL    HW270080   4.457   5.248   4.413
23352SOL     OW70081   5.148   3.938   4.836
23352SOL    HW170082   5.200   3.873   4.891
23352SOL    HW270083   5.099   4.001   4.897
23353SOL     OW70084   4.725   3.758   4.878
23353SOL    HW170085   4.662   3.686   4.847
23353SOL    HW270086   4.818   3.722   4.878
23354SOL     OW70087   4.494   5.054   4.025
23354SOL    HW170088   4.448   4.967   4.042
23354SOL    HW270089   4.585   5.051   4.066
23355SOL     OW70090   4.342   5.291   5.008
23355SOL    HW170091   4.337   5.373   5.065
23355SOL    HW270092   4.431   5.288   4.963
23356SOL     OW70093   5.076   3.776   3.892
23356SOL    HW170094   5.111   3.735   3.808
23356SOL    HW270095   4.986   3.738   3.912
23357SOL     OW70096   5.024   4.177   4.415
23357SOL    HW170097   4.965   4.257   4.419
23357SOL    HW270098   5.039   4.142   4.508
23358SOL     OW70099   5.317   3.945   4.606
23358SOL    HW170100   5.233   3.944   4.660
23358SOL    HW270101   5.319   4.028   4.550
23359SOL     OW70102   3.763   4.801   4.024
23359SOL    HW170103   3.862   4.790   4.015
23359SOL    HW270104   3.723   4.715   4.056
23360SOL     OW70105   4.599   5.370   4.061
23360SOL    HW170106   4.522   5.335   4.007
23360SOL    HW270107   4.567   5.441   4.123
23361SOL     OW70108   3.954   4.352   5.699
23361SOL    HW170109   3.861   4.350   5.736
23361SOL    HW270110   3.955   4.313   5.607
23362SOL     OW70111   3.949   3.999   6.582
23362SOL    HW170112   3.984   3.982   6.674
23362SOL    HW270113   3.861   3.954   6.570
23363SOL     OW70114   3.743   4.092   6.233
23363SOL    HW170115   3.661   4.135   6.272
23363SOL    HW270116   3.715   4.019   6.170
23364SOL     OW70117   4.293   4.999   6.751
23364SOL    HW170118   4.200   4.992   6.714
23364SOL    HW270119   4.304   5.088   6.795
23365SOL     OW70120   5.279   5.235   6.289
23365SOL    HW170121   5.222   5.219   6.370
23365SOL    HW270122   5.220   5.245   6.209
23366SOL     OW70123   4.859   4.427   6.303
23366SOL    HW170124   4.916   4.505   6.278
23366SOL    HW270125   4.799   4.453   6.379
23367SOL     OW70126   5.479   4.331   5.817
23367SOL    HW170127   5.467   4.318   5.718
23367SOL    HW270128   5.449   4.250   5.866
23368SOL     OW70129   4.492   4.868   6.609
23368SOL    HW170130   4.414   4.885   6.669
23368SOL    HW270131   4.526   4.955   6.573
23369SOL     OW70132   4.574   4.522   7.409
23369SOL    HW170133   4.570   4.598   7.474
23369SOL    HW270134   4.596   4.558   7.318
23370SOL     OW70135   4.409   4.736   6.251
23370SOL    HW170136   4.478   4.720   6.321
23370SOL    HW270137   4.336   4.793   6.289
23371SOL     OW70138   4.410   4.885   7.389
23371SOL    HW170139   4.470   4.964   7.403
23371SOL    HW270140   4.324   4.916   7.348
23372SOL     OW70141   4.059   5.159   6.647
23372SOL    HW170142   3.981   5.128   6.594
23372SOL    HW270143   4.117   5.217   6.590
23373SOL     OW70144   5.184   5.229   6.925
23373SOL    HW170145   5.208   5.323   6.951
23373SOL    HW270146   5.168   5.175   7.007
23374SOL     OW70147   4.162   4.116   7.085
23374SOL    HW170148   4.244   4.060   7.094
23374SOL    HW270149   4.081   4.058   7.089
23375SOL     OW70150   5.327   4.171   6.323
23375SOL    HW170151   5.253   4.217   6.273
23375SOL    HW270152   5.378   4.239   6.376
23376SOL     OW70153   3.955   5.437   6.069
23376SOL    HW170154   3.989   5.514   6.123
23376SOL    HW270155   3.999   5.437   5.979
23377SOL     OW70156   4.851   5.065   7.276
23377SOL    HW170157   4.898   5.065   7.364
23377SOL    HW270158   4.803   4.978   7.265
23378SOL     OW70159   3.954   5.158   6.124
23378SOL    HW170160   3.928   5.254   6.124
23378SOL    HW270161   3.883   5.104   6.169
23379SOL     OW70162   3.964   4.815   6.472
23379SOL    HW170163   3.978   4.731   6.524
23379SOL    HW270164   3.909   4.879   6.527
23380SOL     OW70165   4.344   5.510   7.025
23380SOL    HW170166   4.252   5.493   7.060
23380SOL    HW270167   4.372   5.602   7.051
23381SOL     OW70168   4.330   4.688   5.709
23381SOL    HW170169   4.337   4.772   5.655
23381SOL    HW270170   4.376   4.701   5.797
23382SOL     OW70171   5.318   3.838   7.066
23382SOL    HW170172   5.300   3.905   6.994
23382SOL    HW270173   5.315   3.884   7.155
23383SOL     OW70174   3.846   4.367   6.149
23383SOL    HW170175   3.801   4.279   6.166
23383SOL    HW270176   3.845   4.421   6.233
23384SOL     OW70177   5.566   5.491   5.945
23384SOL    HW170178   5.620   5.462   6.025
23384SOL    HW270179   5.596   5.581   5.916
23385SOL     OW70180   3.751   5.320   5.703
23385SOL    HW170181   3.732   5.224   5.724
23385SOL    HW270182   3.718   5.378   5.778
23386SOL     OW70183   5.413   4.646   6.198
23386SOL    HW170184   5.508   4.617   6.206
23386SOL    HW270185   5.405   4.711   6.123
23387SOL     OW70186   5.365   4.832   6.018
23387SOL    HW170187   5.451   4.834   5.966
23387SOL    HW270188   5.379   4.879   6.106
23388SOL     OW70189   3.837   4.461   7.183
23388SOL    HW170190   3.925   4.448   7.228
23388SOL    HW270191   3.824   4.558   7.161
23389SOL     OW70192   4.337   5.089   6.312
23389SOL    HW170193   4.288   5.002   6.321
23389SOL    HW270194   4.314   5.132   6.225
23390SOL     OW70195   5.017   4.952   7.009
23390SOL    HW170196   5.054   4.879   6.951
23390SOL    HW270197   5.069   4.957   7.094
23391SOL     OW70198   4.533   3.728   6.088
23391SOL    HW170199   4.573   3.819   6.079
23391SOL    HW270200   4.433   3.736   6.094
23392SOL     OW70201   3.921   4.700   6.850
23392SOL    HW170202   4.010   4.655   6.836
23392SOL    HW270203   3.848   4.635   6.831
23393SOL     OW70204   5.249   4.723   5.776
23393SOL    HW170205   5.186   4.647   5.789
23393SOL    HW270206   5.297   4.741   5.862
23394SOL     OW70207   4.911   5.516   7.202
23394SOL    HW170208   4.935   5.576   7.126
23394SOL    HW270209   4.918   5.421   7.172
23395SOL     OW70210   4.041   3.975   7.387
23395SOL    HW170211   4.112   4.046   7.393
23395SOL    HW270212   3.953   4.014   7.415
23396SOL     OW70213   5.190   5.141   6.539
23396SOL    HW170214   5.131   5.147   6.619
23396SOL    HW270215   5.175   5.053   6.493
23397SOL     OW70216   5.391   5.438   6.158
23397SOL    HW170217   5.350   5.415   6.070
23397SOL    HW270218   5.373   5.364   6.223
23398SOL     OW70219   4.322   4.453   5.856
23398SOL    HW170220   4.346   4.522   5.788
23398SOL    HW270221   4.244   4.486   5.910
23399SOL     OW70222   5.005   4.069   6.530
23399SOL    HW170223   4.919   4.019   6.517
23399SOL    HW270224   5.067   4.015   6.586
23400SOL     OW70225   5.300   5.386   5.893
23400SOL    HW170226   5.389   5.432   5.896
23400SOL    HW270227   5.279   5.362   5.798
23401SOL     OW70228   4.531   4.329   7.051
23401SOL    HW170229   4.484   4.326   7.140
23401SOL    HW270230   4.480   4.274   6.985
23402SOL     OW70231   5.118   4.193   7.260
23402SOL    HW170232   5.098   4.236   7.348
23402SOL    HW270233   5.196   4.131   7.269
23403SOL     OW70234   4.697   4.614   7.158
23403SOL    HW170235   4.743   4.530   7.129
23403SOL    HW270236   4.641   4.648   7.083
23404SOL     OW70237   4.715   4.134   6.828
23404SOL    HW170238   4.638   4.168   6.882
23404SOL    HW270239   4.681   4.083   6.749
23405SOL     OW70240   4.765   4.425   6.015
23405SOL    HW170241   4.791   4.421   6.111
23405SOL    HW270242   4.680   4.374   6.001
23406SOL     OW70243   3.800   4.535   6.375
23406SOL    HW170244   3.899   4.523   6.384
23406SOL    HW270245   3.776   4.630   6.396
23407SOL     OW70246   3.854   5.545   7.157
23407SOL    HW170247   3.844   5.530   7.256
23407SOL    HW270248   3.768   5.581   7.121
23408SOL     OW70249   4.589   4.072   5.781
23408SOL    HW170250   4.648   4.135   5.732
23408SOL    HW270251   4.608   3.978   5.752
23409SOL     OW70252   5.443   4.309   7.417
23409SOL    HW170253   5.417   4.398   7.381
23409SOL    HW270254   5.441   4.241   7.344
23410SOL     OW70255   5.086   4.868   6.131
23410SOL    HW170256   5.169   4.839   6.083
23410SOL    HW270257   5.037   4.935   6.075
23411SOL     OW70258   4.274   3.920   6.471
23411SOL    HW170259   4.269   3.915   6.571
23411SOL    HW270260   4.276   4.016   6.442
23412SOL     OW70261   4.732   5.180   6.063
23412SOL    HW170262   4.686   5.252   6.011
23412SOL    HW270263   4.728   5.200   6.161
23413SOL     OW70264   4.075   5.525   6.439
23413SOL    HW170265   4.125   5.439   6.445
23413SOL    HW270266   4.140   5.602   6.436
23414SOL     OW70267   5.519   4.790   6.459
23414SOL    HW170268   5.457   4.775   6.383
23414SOL    HW270269   5.467   4.801   6.544
23415SOL     OW70270   4.951   5.274   7.092
23415SOL    HW170271   4.957   5.197   7.156
23415SOL    HW270272   4.899   5.248   7.012
23416SOL     OW70273   4.045   4.667   5.828
23416SOL    HW170274   4.127   4.706   5.786
23416SOL    HW270275   4.018   4.585   5.779
23417SOL     OW70276   5.182   4.459   6.314
23417SOL    HW170277   5.177   4.394   6.389
23417SOL    HW270278   5.262   4.518   6.327
23418SOL     OW70279   4.185   4.990   7.313
23418SOL    HW170280   4.135   4.991   7.227
23418SOL    HW270281   4.122   4.972   7.389
23419SOL     OW70282   4.835   5.500   5.823
23419SOL    HW170283   4.775   5.438   5.873
23419SOL    HW270284   4.866   5.456   5.738
23420SOL     OW70285   3.926   4.009   7.084
23420SOL    HW170286   3.846   4.069   7.071
23420SOL    HW270287   3.916   3.960   7.170
23421SOL     OW70288   5.356   5.101   5.667
23421SOL    HW170289   5.324   5.195   5.657
23421SOL    HW270290   5.280   5.038   5.655
23422SOL     OW70291   4.188   5.467   5.909
23422SOL    HW170292   4.221   5.506   5.995
23422SOL    HW270293   4.264   5.460   5.844
23423SOL     OW70294   5.124   3.831   6.012
23423SOL    HW170295   5.100   3.794   5.922
23423SOL    HW270296   5.223   3.847   6.016
23424SOL     OW70297   3.973   5.509   6.827
23424SOL    HW170298   4.030   5.444   6.877
23424SOL    HW270299   3.957   5.476   6.734
23425SOL     OW70300   4.664   5.422   6.490
23425SOL    HW170301   4.744   5.365   6.511
23425SOL    HW270302   4.615   5.382   6.413
23426SOL     OW70303   4.106   4.424   6.066
23426SOL    HW170304   4.151   4.334   6.063
23426SOL    HW270305   4.012   4.413   6.099
23427SOL     OW70306   5.271   3.946   7.315
23427SOL    HW170307   5.266   3.983   7.407
23427SOL    HW270308   5.199   3.877   7.303
23428SOL     OW70309   4.338   3.846   5.703
23428SOL    HW170310   4.436   3.824   5.710
23428SOL    HW270311   4.307   3.829   5.610
23429SOL     OW70312   4.505   3.988   7.335
23429SOL    HW170313   4.572   3.927   7.378
23429SOL    HW270314   4.432   4.007   7.400
23430SOL     OW70315   4.612   5.238   6.781
23430SOL    HW170316   4.589   5.213   6.687
23430SOL    HW270317   4.673   5.169   6.820
23431SOL     OW70318   5.075   4.314   7.019
23431SOL    HW170319   5.103   4.271   7.104
23431SOL    HW270320   5.100   4.410   7.020
23432SOL     OW70321   4.527   5.126   6.510
23432SOL    HW170322   4.617   5.140   6.468
23432SOL    HW270323   4.456   5.128   6.439
23433SOL     OW70324   4.646   4.227   6.485
23433SOL    HW170325   4.621   4.218   6.389
23433SOL    HW270326   4.694   4.145   6.516
23434SOL     OW70327   4.263   3.788   6.098
23434SOL    HW170328   4.182   3.789   6.156
23434SOL    HW270329   4.266   3.871   6.043
23435SOL     OW70330   5.158   4.912   5.627
23435SOL    HW170331   5.190   4.836   5.684
23435SOL    HW270332   5.066   4.939   5.657
23436SOL     OW70333   4.021   3.759   5.757
23436SOL    HW170334   4.070   3.843   5.736
23436SOL    HW270335   4.083   3.694   5.802
23437SOL     OW70336   4.659   3.960   6.066
23437SOL    HW170337   4.611   4.001   5.988
23437SOL    HW270338   4.758   3.958   6.047
23438SOL     OW70339   4.800   4.407   7.050
23438SOL    HW170340   4.720   4.346   7.053
23438SOL    HW270341   4.881   4.354   7.026
23439SOL     OW70342   4.951   5.294   6.379
23439SOL    HW170343   4.972   5.368   6.314
23439SOL    HW270344   5.019   5.294   6.452
23440SOL     OW70345   4.183   4.876   6.327
23440SOL    HW170346   4.112   4.849   6.392
23440SOL    HW270347   4.157   4.848   6.234
23441SOL     OW70348   4.995   5.521   6.177
23441SOL    HW170349   5.039   5.585   6.113
23441SOL    HW270350   4.945   5.573   6.247
23442SOL     OW70351   4.756   4.273   5.602
23442SOL    HW170352   4.715   4.355   5.563
23442SOL    HW270353   4.820   4.299   5.675
23443SOL     OW70354   3.802   4.280   6.972
23443SOL    HW170355   3.894   4.279   6.931
23443SOL    HW270356   3.796   4.354   7.039
23444SOL     OW70357   4.285   3.946   6.733
23444SOL    HW170358   4.323   3.862   6.770
23444SOL    HW270359   4.197   3.965   6.777
23445SOL     OW70360   4.590   4.178   6.228
23445SOL    HW170361   4.558   4.250   6.166
23445SOL    HW270362   4.614   4.097   6.175
23446SOL     OW70363   4.741   3.763   6.339
23446SOL    HW170364   4.669   3.768   6.270
23446SOL    HW270365   4.717   3.694   6.408
23447SOL     OW70366   5.153   4.897   6.453
23447SOL    HW170367   5.098   4.813   6.446
23447SOL    HW270368   5.179   4.926   6.361
23448SOL     OW70369   5.190   4.314   6.578
23448SOL    HW170370   5.160   4.219   6.585
23448SOL    HW270371   5.263   4.330   6.644
23449SOL     OW70372   5.581   4.557   5.963
23449SOL    HW170373   5.623   4.493   6.027
23449SOL    HW270374   5.543   4.506   5.885
23450SOL     OW70375   4.212   5.109   5.760
23450SOL    HW170376   4.125   5.094   5.807
23450SOL    HW270377   4.195   5.135   5.665
23451SOL     OW70378   5.388   5.004   6.243
23451SOL    HW170379   5.487   5.012   6.257
23451SOL    HW270380   5.343   5.088   6.274
23452SOL     OW70381   5.114   4.299   5.664
23452SOL    HW170382   5.060   4.278   5.745
23452SOL    HW270383   5.205   4.258   5.673
23453SOL     OW70384   4.251   3.980   5.914
23453SOL    HW170385   4.278   3.921   5.839
23453SOL    HW270386   4.251   4.075   5.883
23454SOL     OW70387   5.478   4.947   7.174
23454SOL    HW170388   5.569   4.908   7.161
23454SOL    HW270389   5.486   5.043   7.198
23455SOL     OW70390   4.788   5.071   6.926
23455SOL    HW170391   4.708   5.048   6.981
23455SOL    HW270392   4.871   5.045   6.975
23456SOL     OW70393   5.316   5.353   7.211
23456SOL    HW170394   5.343   5.387   7.121
23456SOL    HW270395   5.395   5.315   7.257
23457SOL     OW70396   4.835   4.919   6.686
23457SOL    HW170397   4.795   4.963   6.767
23457SOL    HW270398   4.794   4.956   6.603
23458SOL     OW70399   5.362   4.823   6.665
23458SOL    HW170400   5.367   4.904   6.724
23458SOL    HW270401   5.276   4.825   6.614
23459SOL     OW70402   4.639   3.813   6.988
23459SOL    HW170403   4.664   3.793   6.893
23459SOL    HW270404   4.711   3.869   7.030
23460SOL     OW70405   4.704   4.840   7.305
23460SOL    HW170406   4.605   4.846   7.315
23460SOL    HW270407   4.727   4.760   7.249
23461SOL     OW70408   4.429   4.774   5.954
23461SOL    HW170409   4.415   4.781   6.053
23461SOL    HW270410   4.513   4.723   5.936
23462SOL     OW70411   4.134   4.537   6.837
23462SOL    HW170412   4.220   4.549   6.887
23462SOL    HW270413   4.092   4.450   6.864
23463SOL     OW70414   4.998   4.110   6.848
23463SOL    HW170415   5.019   4.184   6.912
23463SOL    HW270416   4.909   4.127   6.805
23464SOL     OW70417   3.788   5.288   6.917
23464SOL    HW170418   3.742   5.370   6.883
23464SOL    HW270419   3.886   5.307   6.926
23465SOL     OW70420   4.091   4.824   6.087
23465SOL    HW170421   4.084   4.907   6.031
23465SOL    HW270422   4.095   4.744   6.027
23466SOL     OW70423   4.290   4.261   6.451
23466SOL    HW170424   4.302   4.327   6.377
23466SOL    HW270425   4.336   4.295   6.534
23467SOL     OW70426   4.976   5.072   5.974
23467SOL    HW170427   5.026   5.149   6.014
23467SOL    HW270428   4.881   5.074   6.006
23468SOL     OW70429   4.996   5.169   6.728
23468SOL    HW170430   5.043   5.182   6.815
23468SOL    HW270431   4.930   5.095   6.737
23469SOL     OW70432   5.306   4.363   6.058
23469SOL    HW170433   5.275   4.424   6.131
23469SOL    HW270434   5.356   4.415   5.989
23470SOL     OW70435   4.078   5.234   6.915
23470SOL    HW170436   4.057   5.190   6.828
23470SOL    HW270437   4.175   5.260   6.918
23471SOL     OW70438   4.126   4.475   7.184
23471SOL    HW170439   4.194   4.530   7.137
23471SOL    HW270440   4.166   4.387   7.211
23472SOL     OW70441   5.311   4.503   7.256
23472SOL    HW170442   5.219   4.541   7.251
23472SOL    HW270443   5.371   4.550   7.191
23473SOL     OW70444   4.737   3.829   7.356
23473SOL    HW170445   4.743   3.914   7.304
23473SOL    HW270446   4.769   3.753   7.299
23474SOL     OW70447   4.228   3.774   7.326
23474SOL    HW170448   4.186   3.717   7.256
23474SOL    HW270449   4.162   3.843   7.358
23475SOL     OW70450   4.297   4.594   6.615
23475SOL    HW170451   4.341   4.683   6.606
23475SOL    HW270452   4.234   4.594   6.692
23476SOL     OW70453   5.084   4.586   6.631
23476SOL    HW170454   5.009   4.586   6.565
23476SOL    HW270455   5.121   4.494   6.640
23477SOL     OW70456   4.933   4.249   5.861
23477SOL    HW170457   4.946   4.165   5.915
23477SOL    HW270458   4.904   4.323   5.921
23478SOL     OW70459   4.031   3.937   6.817
23478SOL    HW170460   4.008   3.974   6.907
23478SOL    HW270461   4.001   3.842   6.811
23479SOL     OW70462   3.761   5.034   6.868
23479SOL    HW170463   3.814   4.985   6.936
23479SOL    HW270464   3.783   5.132   6.873
23480SOL     OW70465   4.456   4.358   6.650
23480SOL    HW170466   4.515   4.332   6.574
23480SOL    HW270467   4.428   4.454   6.639
23481SOL     OW70468   5.452   4.659   7.440
23481SOL    HW170469   5.406   4.652   7.351
23481SOL    HW270470   5.390   4.703   7.506
23482SOL     OW70471   4.031   3.787   6.204
23482SOL    HW170472   4.020   3.881   6.237
23482SOL    HW270473   4.026   3.724   6.281
23483SOL     OW70474   5.346   4.091   5.960
23483SOL    HW170475   5.348   4.015   6.024
23483SOL    HW270476   5.298   4.168   6.000
23484SOL     OW70477   4.747   4.490   6.552
23484SOL    HW170478   4.762   4.511   6.648
23484SOL    HW270479   4.717   4.395   6.543
23485SOL     OW70480   4.704   5.297   7.286
23485SOL    HW170481   4.684   5.341   7.198
23485SOL    HW270482   4.743   5.206   7.270
23486SOL     OW70483   5.583   5.242   7.191
23486SOL    HW170484   5.597   5.269   7.096
23486SOL    HW270485   5.666   5.264   7.244
23487SOL     OW70486   4.074   4.622   7.390
23487SOL    HW170487   4.150   4.666   7.438
23487SOL    HW270488   4.109   4.575   7.308
23488SOL     OW70489   5.264   3.998   5.711
23488SOL    HW170490   5.203   3.923   5.734
23488SOL    HW270491   5.286   4.050   5.794
23489SOL     OW70492   5.027   4.562   5.628
23489SOL    HW170493   5.061   4.469   5.643
23489SOL    HW270494   5.045   4.589   5.533
23490SOL     OW70495   4.792   5.057   6.435
23490SOL    HW170496   4.799   4.973   6.380
23490SOL    HW270497   4.854   5.126   6.399
23491SOL     OW70498   4.043   4.534   6.535
23491SOL    HW170499   4.136   4.570   6.540
23491SOL    HW270500   4.037   4.449   6.587
23492SOL     OW70501   4.063   4.233   6.592
23492SOL    HW170502   4.011   4.150   6.575
23492SOL    HW270503   4.140   4.238   6.528
23493SOL     OW70504   4.862   4.104   7.264
23493SOL    HW170505   4.817   4.167   7.328
23493SOL    HW270506   4.955   4.135   7.247
23494SOL     OW70507   4.884   3.931   7.063
23494SOL    HW170508   4.884   3.995   7.140
23494SOL    HW270509   4.912   3.979   6.980
23495SOL     OW70510   3.732   5.050   5.786
23495SOL    HW170511   3.639   5.071   5.755
23495SOL    HW270512   3.742   4.951   5.799
23496SOL     OW70513   3.812   5.525   6.513
23496SOL    HW170514   3.770   5.439   6.486
23496SOL    HW270515   3.906   5.528   6.479
23497SOL     OW70516   4.228   5.292   6.496
23497SOL    HW170517   4.294   5.366   6.505
23497SOL    HW270518   4.272   5.213   6.454
23498SOL     OW70519   4.726   4.520   6.824
23498SOL    HW170520   4.767   4.488   6.910
23498SOL    HW270521   4.630   4.493   6.821
23499SOL     OW70522   3.764   4.268   6.700
23499SOL    HW170523   3.849   4.235   6.659
23499SOL    HW270524   3.777   4.283   6.798
23500SOL     OW70525   3.913   4.244   7.308
23500SOL    HW170526   3.972   4.204   7.238
23500SOL    HW270527   3.855   4.315   7.267
23501SOL     OW70528   5.093   4.674   7.246
23501SOL    HW170529   5.132   4.763   7.266
23501SOL    HW270530   5.103   4.654   7.149
23502SOL     OW70531   4.539   4.296   5.911
23502SOL    HW170532   4.546   4.207   5.865
23502SOL    HW270533   4.445   4.330   5.903
23503SOL     OW70534   5.381   4.328   6.792
23503SOL    HW170535   5.343   4.259   6.854
23503SOL    HW270536   5.463   4.292   6.748
23504SOL     OW70537   3.976   5.288   7.330
23504SOL    HW170538   3.946   5.345   7.406
23504SOL    HW270539   3.969   5.191   7.356
23505SOL     OW70540   4.395   4.188   6.855
23505SOL    HW170541   4.361   4.099   6.825
23505SOL    HW270542   4.421   4.242   6.775
23506SOL     OW70543   4.654   5.402   7.051
23506SOL    HW170544   4.630   5.384   6.956
23506SOL    HW270545   4.684   5.496   7.061
23507SOL     OW70546   4.197   4.224   5.777
23507SOL    HW170547   4.258   4.304   5.781
23507SOL    HW270548   4.102   4.255   5.784
23508SOL     OW70549   3.883   4.861   7.052
23508SOL    HW170550   3.905   4.800   7.128
23508SOL    HW270551   3.893   4.812   6.966
23509SOL     OW70552   5.071   4.783   6.820
23509SOL    HW170553   5.095   4.720   6.746
23509SOL    HW270554   4.981   4.823   6.802
23510SOL     OW70555   5.026   4.579   5.895
23510SOL    HW170556   4.940   4.548   5.937
23510SOL    HW270557   5.022   4.565   5.796
23511SOL     OW70558   5.483   5.471   6.740
23511SOL    HW170559   5.544   5.501   6.667
23511SOL    HW270560   5.445   5.382   6.718
23512SOL     OW70561   4.976   5.455   6.714
23512SOL    HW170562   5.060   5.460   6.660
23512SOL    HW270563   4.953   5.359   6.732
23513SOL     OW70564   3.807   4.982   6.608
23513SOL    HW170565   3.802   4.981   6.708
23513SOL    HW270566   3.724   4.941   6.570
23514SOL     OW70567   4.412   5.386   7.302
23514SOL    HW170568   4.356   5.467   7.311
23514SOL    HW270569   4.464   5.390   7.216
23515SOL     OW70570   5.450   3.859   6.109
23515SOL    HW170571   5.523   3.842   6.042
23515SOL    HW270572   5.419   3.772   6.147
23516SOL     OW70573   5.112   5.297   6.063
23516SOL    HW170574   5.179   5.309   5.989
23516SOL    HW270575   5.072   5.386   6.086
23517SOL     OW70576   3.854   5.518   7.437
23517SOL    HW170577   3.813   5.444   7.490
23517SOL    HW270578   3.918   5.569   7.495
23518SOL     OW70579   5.004   4.651   6.258
23518SOL    HW170580   5.064   4.570   6.260
23518SOL    HW270581   5.044   4.720   6.198
23519SOL     OW70582   4.554   4.997   7.008
23519SOL    HW170583   4.549   5.030   7.103
23519SOL    HW270584   4.468   5.016   6.962
23520SOL     OW70585   4.396   5.340   5.740
23520SOL    HW170586   4.405   5.350   5.641
23520SOL    HW270587   4.356   5.251   5.761
23521SOL     OW70588   5.374   5.444   6.980
23521SOL    HW170589   5.427   5.454   6.896
23521SOL    HW270590   5.347   5.534   7.014
23522SOL     OW70591   5.565   3.899   6.549
23522SOL    HW170592   5.604   3.814   6.513
23522SOL    HW270593   5.467   3.901   6.530
23523SOL     OW70594   3.987   4.050   6.306
23523SOL    HW170595   3.908   4.101   6.272
23523SOL    HW270596   3.978   4.035   6.404
23524SOL     OW70597   4.918   5.336   5.617
23524SOL    HW170598   4.924   5.243   5.654
23524SOL    HW270599   4.859   5.336   5.537
23525SOL     OW70600   4.546   4.726   6.958
23525SOL    HW170601   4.586   4.725   6.866
23525SOL    HW270602   4.556   4.818   6.998
23526SOL     OW70603   4.640   4.634   5.877
23526SOL    HW170604   4.703   4.672   5.809
23526SOL    HW270605   4.680   4.551   5.916
23527SOL     OW70606   5.228   5.331   5.630
23527SOL    HW170607   5.136   5.368   5.637
23527SOL    HW270608   5.266   5.351   5.540
23528SOL     OW70609   4.096   5.012   7.076
23528SOL    HW170610   4.083   5.105   7.042
23528SOL    HW270611   4.012   4.960   7.063
23529SOL     OW70612   5.338   5.016   6.875
23529SOL    HW170613   5.398   5.019   6.955
23529SOL    HW270614   5.263   5.080   6.888
23530SOL     OW70615   4.763   4.822   6.282
23530SOL    HW170616   4.693   4.775   6.336
23530SOL    HW270617   4.822   4.754   6.239
23531SOL     OW70618   4.738   3.960   6.557
23531SOL    HW170619   4.730   3.924   6.464
23531SOL    HW270620   4.736   3.884   6.622
23532SOL     OW70621   4.314   5.211   6.077
23532SOL    HW170622   4.356   5.153   6.007
23532SOL    HW270623   4.270   5.290   6.033
23533SOL     OW70624   5.433   4.109   6.967
23533SOL    HW170625   5.506   4.178   6.971
23533SOL    HW270626   5.461   4.034   6.908
23534SOL     OW70627   3.979   5.072   5.876
23534SOL    HW170628   3.883   5.073   5.849
23534SOL    HW270629   3.991   5.125   5.960
23535SOL     OW70630   3.829   4.737   7.312
23535SOL    HW170631   3.752   4.704   7.366
23535SOL    HW270632   3.914   4.707   7.354
23536SOL     OW70633   4.396   3.927   7.075
23536SOL    HW170634   4.486   3.911   7.035
23536SOL    HW270635   4.404   3.932   7.174
23537SOL     OW70636   3.799   4.069   5.619
23537SOL    HW170637   3.707   4.041   5.590
23537SOL    HW270638   3.830   4.146   5.563
23538SOL     OW70639   5.164   4.580   6.984
23538SOL    HW170640   5.107   4.632   6.921
23538SOL    HW270641   5.260   4.592   6.960
23539SOL     OW70642   3.796   3.890   5.904
23539SOL    HW170643   3.779   3.973   5.850
23539SOL    HW270644   3.886   3.853   5.882
23540SOL     OW70645   4.907   5.059   5.705
23540SOL    HW170646   4.808   5.048   5.707
23540SOL    HW270647   4.941   5.074   5.798
23541SOL     OW70648   4.337   4.566   7.017
23541SOL    HW170649   4.393   4.647   7.000
23541SOL    HW270650   4.396   4.486   7.020
23542SOL     OW70651   5.217   5.491   6.545
23542SOL    HW170652   5.250   5.555   6.476
23542SOL    HW270653   5.283   5.485   6.620
23543SOL     OW70654   4.440   4.289   7.294
23543SOL    HW170655   4.459   4.354   7.368
23543SOL    HW270656   4.500   4.209   7.303
23544SOL     OW70657   5.174   4.944   7.219
23544SOL    HW170658   5.165   4.934   7.318
23544SOL    HW270659   5.270   4.937   7.193
23545SOL     OW70660   4.114   5.465   7.146
23545SOL    HW170661   4.023   5.506   7.144
23545SOL    HW270662   4.107   5.371   7.178
23546SOL     OW70663   5.398   4.607   6.840
23546SOL    HW170664   5.371   4.518   6.803
23546SOL    HW270665   5.399   4.675   6.767
23547SOL     OW70666   4.949   4.049   6.035
23547SOL    HW170667   5.014   3.975   6.024
23547SOL    HW270668   4.969   4.099   6.119
23548SOL     OW70669   4.318   4.469   6.238
23548SOL    HW170670   4.368   4.554   6.219
23548SOL    HW270671   4.230   4.471   6.190
23549SOL     OW70672   5.501   4.066   7.228
23549SOL    HW170673   5.484   4.097   7.134
23549SOL    HW270674   5.417   4.029   7.266
23550SOL     OW70675   5.454   4.658   7.103
23550SOL    HW170676   5.492   4.749   7.118
23550SOL    HW270677   5.446   4.641   7.004
23551SOL     OW70678   4.583   5.098   5.602
23551SOL    HW170679   4.537   5.113   5.690
23551SOL    HW270680   4.627   5.183   5.572
23552SOL     OW70681   4.385   5.514   6.539
23552SOL    HW170682   4.339   5.602   6.526
23552SOL    HW270683   4.484   5.526   6.532
23553SOL     OW70684   4.583   4.680   6.447
23553SOL    HW170685   4.637   4.611   6.495
23553SOL    HW270686   4.551   4.749   6.513
23554SOL     OW70687   4.807   4.708   5.673
23554SOL    HW170688   4.784   4.761   5.591
23554SOL    HW270689   4.888   4.652   5.654
23555SOL     OW70690   5.585   5.293   6.437
23555SOL    HW170691   5.514   5.281   6.367
23555SOL    HW270692   5.586   5.214   6.497
23556SOL     OW70693   3.945   5.038   7.430
23556SOL    HW170694   3.880   4.965   7.409
23556SOL    HW270695   3.949   5.052   7.528
23557SOL     OW70696   3.803   4.964   6.239
23557SOL    HW170697   3.802   4.917   6.327
23557SOL    HW270698   3.885   4.936   6.188
23558SOL     OW70699   4.396   5.115   7.210
23558SOL    HW170700   4.318   5.065   7.248
23558SOL    HW270701   4.393   5.210   7.241
23559SOL     OW70702   5.548   3.916   6.813
23559SOL    HW170703   5.544   3.826   6.857
23559SOL    HW270704   5.551   3.905   6.714
23560SOL     OW70705   4.152   4.148   6.106
23560SOL    HW170706   4.182   4.076   6.044
23560SOL    HW270707   4.113   4.108   6.189
23561SOL     OW70708   5.429   5.211   6.690
23561SOL    HW170709   5.336   5.186   6.663
23561SOL    HW270710   5.455   5.161   6.772
23562SOL     OW70711   4.041   4.271   6.866
23562SOL    HW170712   4.079   4.212   6.938
23562SOL    HW270713   4.081   4.245   6.778
23563SOL     OW70714   4.536   5.310   6.273
23563SOL    HW170715   4.568   5.320   6.179
23563SOL    HW270716   4.457   5.248   6.275
23564SOL     OW70717   5.148   3.938   6.698
23564SOL    HW170718   5.200   3.873   6.753
23564SOL    HW270719   5.099   4.001   6.759
23565SOL     OW70720   4.725   3.758   6.740
23565SOL    HW170721   4.662   3.686   6.709
23565SOL    HW270722   4.818   3.722   6.740
23566SOL     OW70723   4.494   5.054   5.887
23566SOL    HW170724   4.448   4.967   5.904
23566SOL    HW270725   4.585   5.051   5.928
23567SOL     OW70726   4.342   5.291   6.870
23567SOL    HW170727   4.337   5.373   6.927
23567SOL    HW270728   4.431   5.288   6.825
23568SOL     OW70729   5.076   3.776   5.754
23568SOL    HW170730   5.111   3.735   5.670
23568SOL    HW270731   4.986   3.738   5.774
23569SOL     OW70732   5.024   4.177   6.277
23569SOL    HW170733   4.965   4.257   6.281
23569SOL    HW270734   5.039   4.142   6.370
23570SOL     OW70735   5.317   3.945   6.468
23570SOL    HW170736   5.233   3.944   6.522
23570SOL    HW270737   5.319   4.028   6.412
23571SOL     OW70738   3.763   4.801   5.886
23571SOL    HW170739   3.862   4.790   5.877
23571SOL    HW270740   3.723   4.715   5.918
23572SOL     OW70741   4.599   5.370   5.923
23572SOL    HW170742   4.522   5.335   5.869
23572SOL    HW270743   4.567   5.441   5.985
23573SOL     OW70744   3.954   4.352   7.561
23573SOL    HW170745   3.861   4.350   7.598
23573SOL    HW270746   3.955   4.313   7.469
23574SOL     OW70747   3.949   3.999   8.444
23574SOL    HW170748   3.984   3.982   8.536
23574SOL    HW270749   3.861   3.954   8.432
23575SOL     OW70750   3.743   4.092   8.095
23575SOL    HW170751   3.661   4.135   8.134
23575SOL    HW270752   3.715   4.019   8.032
23576SOL     OW70753   4.293   4.999   8.613
23576SOL    HW170754   4.200   4.992   8.576
23576SOL    HW270755   4.304   5.088   8.657
23577SOL     OW70756   5.279   5.235   8.151
23577SOL    HW170757   5.222   5.219   8.232
23577SOL    HW270758   5.220   5.245   8.071
23578SOL     OW70759   4.859   4.427   8.165
23578SOL    HW170760   4.916   4.505   8.140
23578SOL    HW270761   4.799   4.453   8.241
23579SOL     OW70762   5.479   4.331   7.679
23579SOL    HW170763   5.467   4.318   7.580
23579SOL    HW270764   5.449   4.250   7.728
23580SOL     OW70765   4.492   4.868   8.471
23580SOL    HW170766   4.414   4.885   8.531
23580SOL    HW270767   4.526   4.955   8.435
23581SOL     OW70768   4.574   4.522   9.271
23581SOL    HW170769   4.570   4.598   9.336
23581SOL    HW270770   4.596   4.558   9.180
23582SOL     OW70771   4.409   4.736   8.113
23582SOL    HW170772   4.478   4.720   8.183
23582SOL    HW270773   4.336   4.793   8.151
23583SOL     OW70774   4.410   4.885   9.251
23583SOL    HW170775   4.470   4.964   9.265
23583SOL    HW270776   4.324   4.916   9.210
23584SOL     OW70777   4.059   5.159   8.509
23584SOL    HW170778   3.981   5.128   8.456
23584SOL    HW270779   4.117   5.217   8.452
23585SOL     OW70780   5.184   5.229   8.787
23585SOL    HW170781   5.208   5.323   8.813
23585SOL    HW270782   5.168   5.175   8.869
23586SOL     OW70783   4.162   4.116   8.947
23586SOL    HW170784   4.244   4.060   8.956
23586SOL    HW270785   4.081   4.058   8.951
23587SOL     OW70786   5.327   4.171   8.185
23587SOL    HW170787   5.253   4.217   8.135
23587SOL    HW270788   5.378   4.239   8.238
23588SOL     OW70789   3.955   5.437   7.931
23588SOL    HW170790   3.989   5.514   7.985
23588SOL    HW270791   3.999   5.437   7.841
23589SOL     OW70792   4.851   5.065   9.138
23589SOL    HW170793   4.898   5.065   9.226
23589SOL    HW270794   4.803   4.978   9.127
23590SOL     OW70795   3.954   5.158   7.986
23590SOL    HW170796   3.928   5.254   7.986
23590SOL    HW270797   3.883   5.104   8.031
23591SOL     OW70798   3.964   4.815   8.334
23591SOL    HW170799   3.978   4.731   8.386
23591SOL    HW270800   3.909   4.879   8.389
23592SOL     OW70801   4.344   5.510   8.887
23592SOL    HW170802   4.252   5.493   8.922
23592SOL    HW270803   4.372   5.602   8.913
23593SOL     OW70804   4.330   4.688   7.571
23593SOL    HW170805   4.337   4.772   7.517
23593SOL    HW270806   4.376   4.701   7.659
23594SOL     OW70807   5.318   3.838   8.928
23594SOL    HW170808   5.300   3.905   8.856
23594SOL    HW270809   5.315   3.884   9.017
23595SOL     OW70810   3.846   4.367   8.011
23595SOL    HW170811   3.801   4.279   8.028
23595SOL    HW270812   3.845   4.421   8.095
23596SOL     OW70813   5.566   5.491   7.807
23596SOL    HW170814   5.620   5.462   7.887
23596SOL    HW270815   5.596   5.581   7.778
23597SOL     OW70816   3.751   5.320   7.565
23597SOL    HW170817   3.732   5.224   7.586
23597SOL    HW270818   3.718   5.378   7.640
23598SOL     OW70819   5.413   4.646   8.060
23598SOL    HW170820   5.508   4.617   8.068
23598SOL    HW270821   5.405   4.711   7.985
23599SOL     OW70822   5.365   4.832   7.880
23599SOL    HW170823   5.451   4.834   7.828
23599SOL    HW270824   5.379   4.879   7.968
23600SOL     OW70825   3.837   4.461   9.045
23600SOL    HW170826   3.925   4.448   9.090
23600SOL    HW270827   3.824   4.558   9.023
23601SOL     OW70828   4.337   5.089   8.174
23601SOL    HW170829   4.288   5.002   8.183
23601SOL    HW270830   4.314   5.132   8.087
23602SOL     OW70831   5.017   4.952   8.871
23602SOL    HW170832   5.054   4.879   8.813
23602SOL    HW270833   5.069   4.957   8.956
23603SOL     OW70834   4.533   3.728   7.950
23603SOL    HW170835   4.573   3.819   7.941
23603SOL    HW270836   4.433   3.736   7.956
23604SOL     OW70837   3.921   4.700   8.712
23604SOL    HW170838   4.010   4.655   8.698
23604SOL    HW270839   3.848   4.635   8.693
23605SOL     OW70840   5.249   4.723   7.638
23605SOL    HW170841   5.186   4.647   7.651
23605SOL    HW270842   5.297   4.741   7.724
23606SOL     OW70843   4.911   5.516   9.064
23606SOL    HW170844   4.935   5.576   8.988
23606SOL    HW270845   4.918   5.421   9.034
23607SOL     OW70846   4.041   3.975   9.249
23607SOL    HW170847   4.112   4.046   9.255
23607SOL    HW270848   3.953   4.014   9.277
23608SOL     OW70849   5.190   5.141   8.401
23608SOL    HW170850   5.131   5.147   8.481
23608SOL    HW270851   5.175   5.053   8.355
23609SOL     OW70852   5.391   5.438   8.020
23609SOL    HW170853   5.350   5.415   7.932
23609SOL    HW270854   5.373   5.364   8.085
23610SOL     OW70855   4.322   4.453   7.718
23610SOL    HW170856   4.346   4.522   7.650
23610SOL    HW270857   4.244   4.486   7.772
23611SOL     OW70858   5.005   4.069   8.392
23611SOL    HW170859   4.919   4.019   8.379
23611SOL    HW270860   5.067   4.015   8.448
23612SOL     OW70861   5.300   5.386   7.755
23612SOL    HW170862   5.389   5.432   7.758
23612SOL    HW270863   5.279   5.362   7.660
23613SOL     OW70864   4.531   4.329   8.913
23613SOL    HW170865   4.484   4.326   9.002
23613SOL    HW270866   4.480   4.274   8.847
23614SOL     OW70867   5.118   4.193   9.122
23614SOL    HW170868   5.098   4.236   9.210
23614SOL    HW270869   5.196   4.131   9.131
23615SOL     OW70870   4.697   4.614   9.020
23615SOL    HW170871   4.743   4.530   8.991
23615SOL    HW270872   4.641   4.648   8.945
23616SOL     OW70873   4.715   4.134   8.690
23616SOL    HW170874   4.638   4.168   8.744
23616SOL    HW270875   4.681   4.083   8.611
23617SOL     OW70876   4.765   4.425   7.877
23617SOL    HW170877   4.791   4.421   7.973
23617SOL    HW270878   4.680   4.374   7.863
23618SOL     OW70879   3.800   4.535   8.237
23618SOL    HW170880   3.899   4.523   8.246
23618SOL    HW270881   3.776   4.630   8.258
23619SOL     OW70882   3.854   5.545   9.019
23619SOL    HW170883   3.844   5.530   9.118
23619SOL    HW270884   3.768   5.581   8.983
23620SOL     OW70885   4.589   4.072   7.643
23620SOL    HW170886   4.648   4.135   7.594
23620SOL    HW270887   4.608   3.978   7.614
23621SOL     OW70888   5.443   4.309   9.279
23621SOL    HW170889   5.417   4.398   9.243
23621SOL    HW270890   5.441   4.241   9.206
23622SOL     OW70891   5.086   4.868   7.993
23622SOL    HW170892   5.169   4.839   7.945
23622SOL    HW270893   5.037   4.935   7.937
23623SOL     OW70894   4.274   3.920   8.333
23623SOL    HW170895   4.269   3.915   8.433
23623SOL    HW270896   4.276   4.016   8.304
23624SOL     OW70897   4.732   5.180   7.925
23624SOL    HW170898   4.686   5.252   7.873
23624SOL    HW270899   4.728   5.200   8.023
23625SOL     OW70900   4.075   5.525   8.301
23625SOL    HW170901   4.125   5.439   8.307
23625SOL    HW270902   4.140   5.602   8.298
23626SOL     OW70903   5.519   4.790   8.321
23626SOL    HW170904   5.457   4.775   8.245
23626SOL    HW270905   5.467   4.801   8.406
23627SOL     OW70906   4.951   5.274   8.954
23627SOL    HW170907   4.957   5.197   9.018
23627SOL    HW270908   4.899   5.248   8.874
23628SOL     OW70909   4.045   4.667   7.690
23628SOL    HW170910   4.127   4.706   7.648
23628SOL    HW270911   4.018   4.585   7.641
23629SOL     OW70912   5.182   4.459   8.176
23629SOL    HW170913   5.177   4.394   8.251
23629SOL    HW270914   5.262   4.518   8.189
23630SOL     OW70915   4.185   4.990   9.175
23630SOL    HW170916   4.135   4.991   9.089
23630SOL    HW270917   4.122   4.972   9.251
23631SOL     OW70918   4.835   5.500   7.685
23631SOL    HW170919   4.775   5.438   7.735
23631SOL    HW270920   4.866   5.456   7.600
23632SOL     OW70921   3.926   4.009   8.946
23632SOL    HW170922   3.846   4.069   8.933
23632SOL    HW270923   3.916   3.960   9.032
23633SOL     OW70924   5.356   5.101   7.529
23633SOL    HW170925   5.324   5.195   7.519
23633SOL    HW270926   5.280   5.038   7.517
23634SOL     OW70927   4.188   5.467   7.771
23634SOL    HW170928   4.221   5.506   7.857
23634SOL    HW270929   4.264   5.460   7.706
23635SOL     OW70930   5.124   3.831   7.874
23635SOL    HW170931   5.100   3.794   7.784
23635SOL    HW270932   5.223   3.847   7.878
23636SOL     OW70933   3.973   5.509   8.689
23636SOL    HW170934   4.030   5.444   8.739
23636SOL    HW270935   3.957   5.476   8.596
23637SOL     OW70936   4.664   5.422   8.352
23637SOL    HW170937   4.744   5.365   8.373
23637SOL    HW270938   4.615   5.382   8.275
23638SOL     OW70939   4.106   4.424   7.928
23638SOL    HW170940   4.151   4.334   7.925
23638SOL    HW270941   4.012   4.413   7.961
23639SOL     OW70942   5.271   3.946   9.177
23639SOL    HW170943   5.266   3.983   9.269
23639SOL    HW270944   5.199   3.877   9.165
23640SOL     OW70945   4.338   3.846   7.565
23640SOL    HW170946   4.436   3.824   7.572
23640SOL    HW270947   4.307   3.829   7.472
23641SOL     OW70948   4.505   3.988   9.197
23641SOL    HW170949   4.572   3.927   9.240
23641SOL    HW270950   4.432   4.007   9.262
23642SOL     OW70951   4.612   5.238   8.643
23642SOL    HW170952   4.589   5.213   8.549
23642SOL    HW270953   4.673   5.169   8.682
23643SOL     OW70954   5.075   4.314   8.881
23643SOL    HW170955   5.103   4.271   8.966
23643SOL    HW270956   5.100   4.410   8.882
23644SOL     OW70957   4.527   5.126   8.372
23644SOL    HW170958   4.617   5.140   8.330
23644SOL    HW270959   4.456   5.128   8.301
23645SOL     OW70960   4.646   4.227   8.347
23645SOL    HW170961   4.621   4.218   8.251
23645SOL    HW270962   4.694   4.145   8.378
23646SOL     OW70963   4.263   3.788   7.960
23646SOL    HW170964   4.182   3.789   8.018
23646SOL    HW270965   4.266   3.871   7.905
23647SOL     OW70966   5.158   4.912   7.489
23647SOL    HW170967   5.190   4.836   7.546
23647SOL    HW270968   5.066   4.939   7.519
23648SOL     OW70969   4.021   3.759   7.619
23648SOL    HW170970   4.070   3.843   7.598
23648SOL    HW270971   4.083   3.694   7.664
23649SOL     OW70972   4.659   3.960   7.928
23649SOL    HW170973   4.611   4.001   7.850
23649SOL    HW270974   4.758   3.958   7.909
23650SOL     OW70975   4.800   4.407   8.912
23650SOL    HW170976   4.720   4.346   8.915
23650SOL    HW270977   4.881   4.354   8.888
23651SOL     OW70978   4.951   5.294   8.241
23651SOL    HW170979   4.972   5.368   8.176
23651SOL    HW270980   5.019   5.294   8.314
23652SOL     OW70981   4.183   4.876   8.189
23652SOL    HW170982   4.112   4.849   8.254
23652SOL    HW270983   4.157   4.848   8.096
23653SOL     OW70984   4.995   5.521   8.039
23653SOL    HW170985   5.039   5.585   7.975
23653SOL    HW270986   4.945   5.573   8.109
23654SOL     OW70987   4.756   4.273   7.464
23654SOL    HW170988   4.715   4.355   7.425
23654SOL    HW270989   4.820   4.299   7.537
23655SOL     OW70990   3.802   4.280   8.834
23655SOL    HW170991   3.894   4.279   8.793
23655SOL    HW270992   3.796   4.354   8.901
23656SOL     OW70993   4.285   3.946   8.595
23656SOL    HW170994   4.323   3.862   8.632
23656SOL    HW270995   4.197   3.965   8.639
23657SOL     OW70996   4.590   4.178   8.090
23657SOL    HW170997   4.558   4.250   8.028
23657SOL    HW270998   4.614   4.097   8.037
23658SOL     OW70999   4.741   3.763   8.201
23658SOL    HW171000   4.669   3.768   8.132
23658SOL    HW271001   4.717   3.694   8.270
23659SOL     OW71002   5.153   4.897   8.315
23659SOL    HW171003   5.098   4.813   8.308
23659SOL    HW271004   5.179   4.926   8.223
23660SOL     OW71005   5.190   4.314   8.440
23660SOL    HW171006   5.160   4.219   8.447
23660SOL    HW271007   5.263   4.330   8.506
23661SOL     OW71008   5.581   4.557   7.825
23661SOL    HW171009   5.623   4.493   7.889
23661SOL    HW271010   5.543   4.506   7.747
23662SOL     OW71011   4.212   5.109   7.622
23662SOL    HW171012   4.125   5.094   7.669
23662SOL    HW271013   4.195   5.135   7.527
23663SOL     OW71014   5.388   5.004   8.105
23663SOL    HW171015   5.487   5.012   8.119
23663SOL    HW271016   5.343   5.088   8.136
23664SOL     OW71017   5.114   4.299   7.526
23664SOL    HW171018   5.060   4.278   7.607
23664SOL    HW271019   5.205   4.258   7.535
23665SOL     OW71020   4.251   3.980   7.776
23665SOL    HW171021   4.278   3.921   7.701
23665SOL    HW271022   4.251   4.075   7.745
23666SOL     OW71023   5.478   4.947   9.036
23666SOL    HW171024   5.569   4.908   9.023
23666SOL    HW271025   5.486   5.043   9.060
23667SOL     OW71026   4.788   5.071   8.788
23667SOL    HW171027   4.708   5.048   8.843
23667SOL    HW271028   4.871   5.045   8.837
23668SOL     OW71029   5.316   5.353   9.073
23668SOL    HW171030   5.343   5.387   8.983
23668SOL    HW271031   5.395   5.315   9.119
23669SOL     OW71032   4.835   4.919   8.548
23669SOL    HW171033   4.795   4.963   8.629
23669SOL    HW271034   4.794   4.956   8.465
23670SOL     OW71035   5.362   4.823   8.527
23670SOL    HW171036   5.367   4.904   8.586
23670SOL    HW271037   5.276   4.825   8.476
23671SOL     OW71038   4.639   3.813   8.850
23671SOL    HW171039   4.664   3.793   8.755
23671SOL    HW271040   4.711   3.869   8.892
23672SOL     OW71041   4.704   4.840   9.167
23672SOL    HW171042   4.605   4.846   9.177
23672SOL    HW271043   4.727   4.760   9.111
23673SOL     OW71044   4.429   4.774   7.816
23673SOL    HW171045   4.415   4.781   7.915
23673SOL    HW271046   4.513   4.723   7.798
23674SOL     OW71047   4.134   4.537   8.699
23674SOL    HW171048   4.220   4.549   8.749
23674SOL    HW271049   4.092   4.450   8.726
23675SOL     OW71050   4.998   4.110   8.710
23675SOL    HW171051   5.019   4.184   8.774
23675SOL    HW271052   4.909   4.127   8.667
23676SOL     OW71053   3.788   5.288   8.779
23676SOL    HW171054   3.742   5.370   8.745
23676SOL    HW271055   3.886   5.307   8.788
23677SOL     OW71056   4.091   4.824   7.949
23677SOL    HW171057   4.084   4.907   7.893
23677SOL    HW271058   4.095   4.744   7.889
23678SOL     OW71059   4.290   4.261   8.313
23678SOL    HW171060   4.302   4.327   8.239
23678SOL    HW271061   4.336   4.295   8.396
23679SOL     OW71062   4.976   5.072   7.836
23679SOL    HW171063   5.026   5.149   7.876
23679SOL    HW271064   4.881   5.074   7.868
23680SOL     OW71065   4.996   5.169   8.590
23680SOL    HW171066   5.043   5.182   8.677
23680SOL    HW271067   4.930   5.095   8.599
23681SOL     OW71068   5.306   4.363   7.920
23681SOL    HW171069   5.275   4.424   7.993
23681SOL    HW271070   5.356   4.415   7.851
23682SOL     OW71071   4.078   5.234   8.777
23682SOL    HW171072   4.057   5.190   8.690
23682SOL    HW271073   4.175   5.260   8.780
23683SOL     OW71074   4.126   4.475   9.046
23683SOL    HW171075   4.194   4.530   8.999
23683SOL    HW271076   4.166   4.387   9.073
23684SOL     OW71077   5.311   4.503   9.118
23684SOL    HW171078   5.219   4.541   9.113
23684SOL    HW271079   5.371   4.550   9.053
23685SOL     OW71080   4.737   3.829   9.218
23685SOL    HW171081   4.743   3.914   9.166
23685SOL    HW271082   4.769   3.753   9.161
23686SOL     OW71083   4.228   3.774   9.188
23686SOL    HW171084   4.186   3.717   9.118
23686SOL    HW271085   4.162   3.843   9.220
23687SOL     OW71086   4.297   4.594   8.477
23687SOL    HW171087   4.341   4.683   8.468
23687SOL    HW271088   4.234   4.594   8.554
23688SOL     OW71089   5.084   4.586   8.493
23688SOL    HW171090   5.009   4.586   8.427
23688SOL    HW271091   5.121   4.494   8.502
23689SOL     OW71092   4.933   4.249   7.723
23689SOL    HW171093   4.946   4.165   7.777
23689SOL    HW271094   4.904   4.323   7.783
23690SOL     OW71095   4.031   3.937   8.679
23690SOL    HW171096   4.008   3.974   8.769
23690SOL    HW271097   4.001   3.842   8.673
23691SOL     OW71098   3.761   5.034   8.730
23691SOL    HW171099   3.814   4.985   8.798
23691SOL    HW271100   3.783   5.132   8.735
23692SOL     OW71101   4.456   4.358   8.512
23692SOL    HW171102   4.515   4.332   8.436
23692SOL    HW271103   4.428   4.454   8.501
23693SOL     OW71104   5.452   4.659   9.302
23693SOL    HW171105   5.406   4.652   9.213
23693SOL    HW271106   5.390   4.703   9.368
23694SOL     OW71107   4.031   3.787   8.066
23694SOL    HW171108   4.020   3.881   8.099
23694SOL    HW271109   4.026   3.724   8.143
23695SOL     OW71110   5.346   4.091   7.822
23695SOL    HW171111   5.348   4.015   7.886
23695SOL    HW271112   5.298   4.168   7.862
23696SOL     OW71113   4.747   4.490   8.414
23696SOL    HW171114   4.762   4.511   8.510
23696SOL    HW271115   4.717   4.395   8.405
23697SOL     OW71116   4.704   5.297   9.148
23697SOL    HW171117   4.684   5.341   9.060
23697SOL    HW271118   4.743   5.206   9.132
23698SOL     OW71119   5.583   5.242   9.053
23698SOL    HW171120   5.597   5.269   8.958
23698SOL    HW271121   5.666   5.264   9.106
23699SOL     OW71122   4.074   4.622   9.252
23699SOL    HW171123   4.150   4.666   9.300
23699SOL    HW271124   4.109   4.575   9.170
23700SOL     OW71125   5.264   3.998   7.573
23700SOL    HW171126   5.203   3.923   7.596
23700SOL    HW271127   5.286   4.050   7.656
23701SOL     OW71128   5.027   4.562   7.490
23701SOL    HW171129   5.061   4.469   7.505
23701SOL    HW271130   5.045   4.589   7.395
23702SOL     OW71131   4.792   5.057   8.297
23702SOL    HW171132   4.799   4.973   8.242
23702SOL    HW271133   4.854   5.126   8.261
23703SOL     OW71134   4.043   4.534   8.397
23703SOL    HW171135   4.136   4.570   8.402
23703SOL    HW271136   4.037   4.449   8.449
23704SOL     OW71137   4.063   4.233   8.454
23704SOL    HW171138   4.011   4.150   8.437
23704SOL    HW271139   4.140   4.238   8.390
23705SOL     OW71140   4.862   4.104   9.126
23705SOL    HW171141   4.817   4.167   9.190
23705SOL    HW271142   4.955   4.135   9.109
23706SOL     OW71143   4.884   3.931   8.925
23706SOL    HW171144   4.884   3.995   9.002
23706SOL    HW271145   4.912   3.979   8.842
23707SOL     OW71146   3.732   5.050   7.648
23707SOL    HW171147   3.639   5.071   7.617
23707SOL    HW271148   3.742   4.951   7.661
23708SOL     OW71149   3.812   5.525   8.375
23708SOL    HW171150   3.770   5.439   8.348
23708SOL    HW271151   3.906   5.528   8.341
23709SOL     OW71152   4.228   5.292   8.358
23709SOL    HW171153   4.294   5.366   8.367
23709SOL    HW271154   4.272   5.213   8.316
23710SOL     OW71155   4.726   4.520   8.686
23710SOL    HW171156   4.767   4.488   8.772
23710SOL    HW271157   4.630   4.493   8.683
23711SOL     OW71158   3.764   4.268   8.562
23711SOL    HW171159   3.849   4.235   8.521
23711SOL    HW271160   3.777   4.283   8.660
23712SOL     OW71161   3.913   4.244   9.170
23712SOL    HW171162   3.972   4.204   9.100
23712SOL    HW271163   3.855   4.315   9.129
23713SOL     OW71164   5.093   4.674   9.108
23713SOL    HW171165   5.132   4.763   9.128
23713SOL    HW271166   5.103   4.654   9.011
23714SOL     OW71167   4.539   4.296   7.773
23714SOL    HW171168   4.546   4.207   7.727
23714SOL    HW271169   4.445   4.330   7.765
23715SOL     OW71170   5.381   4.328   8.654
23715SOL    HW171171   5.343   4.259   8.716
23715SOL    HW271172   5.463   4.292   8.610
23716SOL     OW71173   3.976   5.288   9.192
23716SOL    HW171174   3.946   5.345   9.268
23716SOL    HW271175   3.969   5.191   9.218
23717SOL     OW71176   4.395   4.188   8.717
23717SOL    HW171177   4.361   4.099   8.687
23717SOL    HW271178   4.421   4.242   8.637
23718SOL     OW71179   4.654   5.402   8.913
23718SOL    HW171180   4.630   5.384   8.818
23718SOL    HW271181   4.684   5.496   8.923
23719SOL     OW71182   4.197   4.224   7.639
23719SOL    HW171183   4.258   4.304   7.643
23719SOL    HW271184   4.102   4.255   7.646
23720SOL     OW71185   3.883   4.861   8.914
23720SOL    HW171186   3.905   4.800   8.990
23720SOL    HW271187   3.893   4.812   8.828
23721SOL     OW71188   5.071   4.783   8.682
23721SOL    HW171189   5.095   4.720   8.608
23721SOL    HW271190   4.981   4.823   8.664
23722SOL     OW71191   5.026   4.579   7.757
23722SOL    HW171192   4.940   4.548   7.799
23722SOL    HW271193   5.022   4.565   7.658
23723SOL     OW71194   5.483   5.471   8.602
23723SOL    HW171195   5.544   5.501   8.529
23723SOL    HW271196   5.445   5.382   8.580
23724SOL     OW71197   4.976   5.455   8.576
23724SOL    HW171198   5.060   5.460   8.522
23724SOL    HW271199   4.953   5.359   8.594
23725SOL     OW71200   3.807   4.982   8.470
23725SOL    HW171201   3.802   4.981   8.570
23725SOL    HW271202   3.724   4.941   8.432
23726SOL     OW71203   4.412   5.386   9.164
23726SOL    HW171204   4.356   5.467   9.173
23726SOL    HW271205   4.464   5.390   9.078
23727SOL     OW71206   5.450   3.859   7.971
23727SOL    HW171207   5.523   3.842   7.904
23727SOL    HW271208   5.419   3.772   8.009
23728SOL     OW71209   5.112   5.297   7.925
23728SOL    HW171210   5.179   5.309   7.851
23728SOL    HW271211   5.072   5.386   7.948
23729SOL     OW71212   3.854   5.518   9.299
23729SOL    HW171213   3.813   5.444   9.352
23729SOL    HW271214   3.918   5.569   9.357
23730SOL     OW71215   5.004   4.651   8.120
23730SOL    HW171216   5.064   4.570   8.122
23730SOL    HW271217   5.044   4.720   8.060
23731SOL     OW71218   4.554   4.997   8.870
23731SOL    HW171219   4.549   5.030   8.965
23731SOL    HW271220   4.468   5.016   8.824
23732SOL     OW71221   4.396   5.340   7.602
23732SOL    HW171222   4.405   5.350   7.503
23732SOL    HW271223   4.356   5.251   7.623
23733SOL     OW71224   5.374   5.444   8.842
23733SOL    HW171225   5.427   5.454   8.758
23733SOL    HW271226   5.347   5.534   8.876
23734SOL     OW71227   5.565   3.899   8.411
23734SOL    HW171228   5.604   3.814   8.375
23734SOL    HW271229   5.467   3.901   8.392
23735SOL     OW71230   3.987   4.050   8.168
23735SOL    HW171231   3.908   4.101   8.134
23735SOL    HW271232   3.978   4.035   8.266
23736SOL     OW71233   4.918   5.336   7.479
23736SOL    HW171234   4.924   5.243   7.516
23736SOL    HW271235   4.859   5.336   7.399
23737SOL     OW71236   4.546   4.726   8.820
23737SOL    HW171237   4.586   4.725   8.728
23737SOL    HW271238   4.556   4.818   8.860
23738SOL     OW71239   4.640   4.634   7.739
23738SOL    HW171240   4.703   4.672   7.671
23738SOL    HW271241   4.680   4.551   7.778
23739SOL     OW71242   5.228   5.331   7.492
23739SOL    HW171243   5.136   5.368   7.499
23739SOL    HW271244   5.266   5.351   7.402
23740SOL     OW71245   4.096   5.012   8.938
23740SOL    HW171246   4.083   5.105   8.904
23740SOL    HW271247   4.012   4.960   8.925
23741SOL     OW71248   5.338   5.016   8.737
23741SOL    HW171249   5.398   5.019   8.817
23741SOL    HW271250   5.263   5.080   8.750
23742SOL     OW71251   4.763   4.822   8.144
23742SOL    HW171252   4.693   4.775   8.198
23742SOL    HW271253   4.822   4.754   8.101
23743SOL     OW71254   4.738   3.960   8.419
23743SOL    HW171255   4.730   3.924   8.326
23743SOL    HW271256   4.736   3.884   8.484
23744SOL     OW71257   4.314   5.211   7.939
23744SOL    HW171258   4.356   5.153   7.869
23744SOL    HW271259   4.270   5.290   7.895
23745SOL     OW71260   5.433   4.109   8.829
23745SOL    HW171261   5.506   4.178   8.833
23745SOL    HW271262   5.461   4.034   8.770
23746SOL     OW71263   3.979   5.072   7.738
23746SOL    HW171264   3.883   5.073   7.711
23746SOL    HW271265   3.991   5.125   7.822
23747SOL     OW71266   3.829   4.737   9.174
23747SOL    HW171267   3.752   4.704   9.228
23747SOL    HW271268   3.914   4.707   9.216
23748SOL     OW71269   4.396   3.927   8.937
23748SOL    HW171270   4.486   3.911   8.897
23748SOL    HW271271   4.404   3.932   9.036
23749SOL     OW71272   3.799   4.069   7.481
23749SOL    HW171273   3.707   4.041   7.452
23749SOL    HW271274   3.830   4.146   7.425
23750SOL     OW71275   5.164   4.580   8.846
23750SOL    HW171276   5.107   4.632   8.783
23750SOL    HW271277   5.260   4.592   8.822
23751SOL     OW71278   3.796   3.890   7.766
23751SOL    HW171279   3.779   3.973   7.712
23751SOL    HW271280   3.886   3.853   7.744
23752SOL     OW71281   4.907   5.059   7.567
23752SOL    HW171282   4.808   5.048   7.569
23752SOL    HW271283   4.941   5.074   7.660
23753SOL     OW71284   4.337   4.566   8.879
23753SOL    HW171285   4.393   4.647   8.862
23753SOL    HW271286   4.396   4.486   8.882
23754SOL     OW71287   5.217   5.491   8.407
23754SOL    HW171288   5.250   5.555   8.338
23754SOL    HW271289   5.283   5.485   8.482
23755SOL     OW71290   4.440   4.289   9.156
23755SOL    HW171291   4.459   4.354   9.230
23755SOL    HW271292   4.500   4.209   9.165
23756SOL     OW71293   5.174   4.944   9.081
23756SOL    HW171294   5.165   4.934   9.180
23756SOL    HW271295   5.270   4.937   9.055
23757SOL     OW71296   4.114   5.465   9.008
23757SOL    HW171297   4.023   5.506   9.006
23757SOL    HW271298   4.107   5.371   9.040
23758SOL     OW71299   5.398   4.607   8.702
23758SOL    HW171300   5.371   4.518   8.665
23758SOL    HW271301   5.399   4.675   8.629
23759SOL     OW71302   4.949   4.049   7.897
23759SOL    HW171303   5.014   3.975   7.886
23759SOL    HW271304   4.969   4.099   7.981
23760SOL     OW71305   4.318   4.469   8.100
23760SOL    HW171306   4.368   4.554   8.081
23760SOL    HW271307   4.230   4.471   8.052
23761SOL     OW71308   5.501   4.066   9.090
23761SOL    HW171309   5.484   4.097   8.996
23761SOL    HW271310   5.417   4.029   9.128
23762SOL     OW71311   5.454   4.658   8.965
23762SOL    HW171312   5.492   4.749   8.980
23762SOL    HW271313   5.446   4.641   8.866
23763SOL     OW71314   4.583   5.098   7.464
23763SOL    HW171315   4.537   5.113   7.552
23763SOL    HW271316   4.627   5.183   7.434
23764SOL     OW71317   4.385   5.514   8.401
23764SOL    HW171318   4.339   5.602   8.388
23764SOL    HW271319   4.484   5.526   8.394
23765SOL     OW71320   4.583   4.680   8.309
23765SOL    HW171321   4.637   4.611   8.357
23765SOL    HW271322   4.551   4.749   8.375
23766SOL     OW71323   4.807   4.708   7.535
23766SOL    HW171324   4.784   4.761   7.453
23766SOL    HW271325   4.888   4.652   7.516
23767SOL     OW71326   5.585   5.293   8.299
23767SOL    HW171327   5.514   5.281   8.229
23767SOL    HW271328   5.586   5.214   8.359
23768SOL     OW71329   3.945   5.038   9.292
23768SOL    HW171330   3.880   4.965   9.271
23768SOL    HW271331   3.949   5.052   9.390
23769SOL     OW71332   3.803   4.964   8.101
23769SOL    HW171333   3.802   4.917   8.189
23769SOL    HW271334   3.885   4.936   8.050
23770SOL     OW71335   4.396   5.115   9.072
23770SOL    HW171336   4.318   5.065   9.110
23770SOL    HW271337   4.393   5.210   9.103
23771SOL     OW71338   5.548   3.916   8.675
23771SOL    HW171339   5.544   3.826   8.719
23771SOL    HW271340   5.551   3.905   8.576
23772SOL     OW71341   4.152   4.148   7.968
23772SOL    HW171342   4.182   4.076   7.906
23772SOL    HW271343   4.113   4.108   8.051
23773SOL     OW71344   5.429   5.211   8.552
23773SOL    HW171345   5.336   5.186   8.525
23773SOL    HW271346   5.455   5.161   8.634
23774SOL     OW71347   4.041   4.271   8.728
23774SOL    HW171348   4.079   4.212   8.800
23774SOL    HW271349   4.081   4.245   8.640
23775SOL     OW71350   4.536   5.310   8.135
23775SOL    HW171351   4.568   5.320   8.041
23775SOL    HW271352   4.457   5.248   8.137
23776SOL     OW71353   5.148   3.938   8.560
23776SOL    HW171354   5.200   3.873   8.615
23776SOL    HW271355   5.099   4.001   8.621
23777SOL     OW71356   4.725   3.758   8.602
23777SOL    HW171357   4.662   3.686   8.571
23777SOL    HW271358   4.818   3.722   8.602
23778SOL     OW71359   4.494   5.054   7.749
23778SOL    HW171360   4.448   4.967   7.766
23778SOL    HW271361   4.585   5.051   7.790
23779SOL     OW71362   4.342   5.291   8.732
23779SOL    HW171363   4.337   5.373   8.789
23779SOL    HW271364   4.431   5.288   8.687
23780SOL     OW71365   5.076   3.776   7.616
23780SOL    HW171366   5.111   3.735   7.532
23780SOL    HW271367   4.986   3.738   7.636
23781SOL     OW71368   5.024   4.177   8.139
23781SOL    HW171369   4.965   4.257   8.143
23781SOL    HW271370   5.039   4.142   8.232
23782SOL     OW71371   5.317   3.945   8.330
23782SOL    HW171372   5.233   3.944   8.384
23782SOL    HW271373   5.319   4.028   8.274
23783SOL     OW71374   3.763   4.801   7.748
23783SOL    HW171375   3.862   4.790   7.739
23783SOL    HW271376   3.723   4.715   7.780
23784SOL     OW71377   4.599   5.370   7.785
23784SOL    HW171378   4.522   5.335   7.731
23784SOL    HW271379   4.567   5.441   7.847
23785SOL     OW71380   3.954   4.352   9.423
23785SOL    HW171381   3.861   4.350   9.460
23785SOL    HW271382   3.955   4.313   9.331
23786SOL     OW71383   3.949   3.999  10.306
23786SOL    HW171384   3.984   3.982  10.398
23786SOL    HW271385   3.861   3.954  10.294
23787SOL     OW71386   3.743   4.092   9.957
23787SOL    HW171387   3.661   4.135   9.996
23787SOL    HW271388   3.715   4.019   9.894
23788SOL     OW71389   4.293   4.999  10.475
23788SOL    HW171390   4.200   4.992  10.438
23788SOL    HW271391   4.304   5.088  10.519
23789SOL     OW71392   5.279   5.235  10.013
23789SOL    HW171393   5.222   5.219  10.094
23789SOL    HW271394   5.220   5.245   9.933
23790SOL     OW71395   4.859   4.427  10.027
23790SOL    HW171396   4.916   4.505  10.002
23790SOL    HW271397   4.799   4.453  10.103
23791SOL     OW71398   5.479   4.331   9.541
23791SOL    HW171399   5.467   4.318   9.442
23791SOL    HW271400   5.449   4.250   9.590
23792SOL     OW71401   4.492   4.868  10.333
23792SOL    HW171402   4.414   4.885  10.393
23792SOL    HW271403   4.526   4.955  10.297
23793SOL     OW71404   4.574   4.522  11.133
23793SOL    HW171405   4.570   4.598  11.198
23793SOL    HW271406   4.596   4.558  11.042
23794SOL     OW71407   4.409   4.736   9.975
23794SOL    HW171408   4.478   4.720  10.045
23794SOL    HW271409   4.336   4.793  10.013
23795SOL     OW71410   4.410   4.885  11.113
23795SOL    HW171411   4.470   4.964  11.127
23795SOL    HW271412   4.324   4.916  11.072
23796SOL     OW71413   4.059   5.159  10.371
23796SOL    HW171414   3.981   5.128  10.318
23796SOL    HW271415   4.117   5.217  10.314
23797SOL     OW71416   5.184   5.229  10.649
23797SOL    HW171417   5.208   5.323  10.675
23797SOL    HW271418   5.168   5.175  10.731
23798SOL     OW71419   4.162   4.116  10.809
23798SOL    HW171420   4.244   4.060  10.818
23798SOL    HW271421   4.081   4.058  10.813
23799SOL     OW71422   5.327   4.171  10.047
23799SOL    HW171423   5.253   4.217   9.997
23799SOL    HW271424   5.378   4.239  10.100
23800SOL     OW71425   3.955   5.437   9.793
23800SOL    HW171426   3.989   5.514   9.847
23800SOL    HW271427   3.999   5.437   9.703
23801SOL     OW71428   4.851   5.065  11.000
23801SOL    HW171429   4.898   5.065  11.088
23801SOL    HW271430   4.803   4.978  10.989
23802SOL     OW71431   3.954   5.158   9.848
23802SOL    HW171432   3.928   5.254   9.848
23802SOL    HW271433   3.883   5.104   9.893
23803SOL     OW71434   3.964   4.815  10.196
23803SOL    HW171435   3.978   4.731  10.248
23803SOL    HW271436   3.909   4.879  10.251
23804SOL     OW71437   4.344   5.510  10.749
23804SOL    HW171438   4.252   5.493  10.784
23804SOL    HW271439   4.372   5.602  10.775
23805SOL     OW71440   4.330   4.688   9.433
23805SOL    HW171441   4.337   4.772   9.379
23805SOL    HW271442   4.376   4.701   9.521
23806SOL     OW71443   5.318   3.838  10.790
23806SOL    HW171444   5.300   3.905  10.718
23806SOL    HW271445   5.315   3.884  10.879
23807SOL     OW71446   3.846   4.367   9.873
23807SOL    HW171447   3.801   4.279   9.890
23807SOL    HW271448   3.845   4.421   9.957
23808SOL     OW71449   5.566   5.491   9.669
23808SOL    HW171450   5.620   5.462   9.749
23808SOL    HW271451   5.596   5.581   9.640
23809SOL     OW71452   3.751   5.320   9.427
23809SOL    HW171453   3.732   5.224   9.448
23809SOL    HW271454   3.718   5.378   9.502
23810SOL     OW71455   5.413   4.646   9.922
23810SOL    HW171456   5.508   4.617   9.930
23810SOL    HW271457   5.405   4.711   9.847
23811SOL     OW71458   5.365   4.832   9.742
23811SOL    HW171459   5.451   4.834   9.690
23811SOL    HW271460   5.379   4.879   9.830
23812SOL     OW71461   3.837   4.461  10.907
23812SOL    HW171462   3.925   4.448  10.952
23812SOL    HW271463   3.824   4.558  10.885
23813SOL     OW71464   4.337   5.089  10.036
23813SOL    HW171465   4.288   5.002  10.045
23813SOL    HW271466   4.314   5.132   9.949
23814SOL     OW71467   5.017   4.952  10.733
23814SOL    HW171468   5.054   4.879  10.675
23814SOL    HW271469   5.069   4.957  10.818
23815SOL     OW71470   4.533   3.728   9.812
23815SOL    HW171471   4.573   3.819   9.803
23815SOL    HW271472   4.433   3.736   9.818
23816SOL     OW71473   3.921   4.700  10.574
23816SOL    HW171474   4.010   4.655  10.560
23816SOL    HW271475   3.848   4.635  10.555
23817SOL     OW71476   5.249   4.723   9.500
23817SOL    HW171477   5.186   4.647   9.513
23817SOL    HW271478   5.297   4.741   9.586
23818SOL     OW71479   4.911   5.516  10.926
23818SOL    HW171480   4.935   5.576  10.850
23818SOL    HW271481   4.918   5.421  10.896
23819SOL     OW71482   4.041   3.975  11.111
23819SOL    HW171483   4.112   4.046  11.117
23819SOL    HW271484   3.953   4.014  11.139
23820SOL     OW71485   5.190   5.141  10.263
23820SOL    HW171486   5.131   5.147  10.343
23820SOL    HW271487   5.175   5.053  10.217
23821SOL     OW71488   5.391   5.438   9.882
23821SOL    HW171489   5.350   5.415   9.794
23821SOL    HW271490   5.373   5.364   9.947
23822SOL     OW71491   4.322   4.453   9.580
23822SOL    HW171492   4.346   4.522   9.512
23822SOL    HW271493   4.244   4.486   9.634
23823SOL     OW71494   5.005   4.069  10.254
23823SOL    HW171495   4.919   4.019  10.241
23823SOL    HW271496   5.067   4.015  10.310
23824SOL     OW71497   5.300   5.386   9.617
23824SOL    HW171498   5.389   5.432   9.620
23824SOL    HW271499   5.279   5.362   9.522
23825SOL     OW71500   4.531   4.329  10.775
23825SOL    HW171501   4.484   4.326  10.864
23825SOL    HW271502   4.480   4.274  10.709
23826SOL     OW71503   5.118   4.193  10.984
23826SOL    HW171504   5.098   4.236  11.072
23826SOL    HW271505   5.196   4.131  10.993
23827SOL     OW71506   4.697   4.614  10.882
23827SOL    HW171507   4.743   4.530  10.853
23827SOL    HW271508   4.641   4.648  10.807
23828SOL     OW71509   4.715   4.134  10.552
23828SOL    HW171510   4.638   4.168  10.606
23828SOL    HW271511   4.681   4.083  10.473
23829SOL     OW71512   4.765   4.425   9.739
23829SOL    HW171513   4.791   4.421   9.835
23829SOL    HW271514   4.680   4.374   9.725
23830SOL     OW71515   3.800   4.535  10.099
23830SOL    HW171516   3.899   4.523  10.108
23830SOL    HW271517   3.776   4.630  10.120
23831SOL     OW71518   3.854   5.545  10.881
23831SOL    HW171519   3.844   5.530  10.980
23831SOL    HW271520   3.768   5.581  10.845
23832SOL     OW71521   4.589   4.072   9.505
23832SOL    HW171522   4.648   4.135   9.456
23832SOL    HW271523   4.608   3.978   9.476
23833SOL     OW71524   5.443   4.309  11.141
23833SOL    HW171525   5.417   4.398  11.105
23833SOL    HW271526   5.441   4.241  11.068
23834SOL     OW71527   5.086   4.868   9.855
23834SOL    HW171528   5.169   4.839   9.807
23834SOL    HW271529   5.037   4.935   9.799
23835SOL     OW71530   4.274   3.920  10.195
23835SOL    HW171531   4.269   3.915  10.295
23835SOL    HW271532   4.276   4.016  10.166
23836SOL     OW71533   4.732   5.180   9.787
23836SOL    HW171534   4.686   5.252   9.735
23836SOL    HW271535   4.728   5.200   9.885
23837SOL     OW71536   4.075   5.525  10.163
23837SOL    HW171537   4.125   5.439  10.169
23837SOL    HW271538   4.140   5.602  10.160
23838SOL     OW71539   5.519   4.790  10.183
23838SOL    HW171540   5.457   4.775  10.107
23838SOL    HW271541   5.467   4.801  10.268
23839SOL     OW71542   4.951   5.274  10.816
23839SOL    HW171543   4.957   5.197  10.880
23839SOL    HW271544   4.899   5.248  10.736
23840SOL     OW71545   4.045   4.667   9.552
23840SOL    HW171546   4.127   4.706   9.510
23840SOL    HW271547   4.018   4.585   9.503
23841SOL     OW71548   5.182   4.459  10.038
23841SOL    HW171549   5.177   4.394  10.113
23841SOL    HW271550   5.262   4.518  10.051
23842SOL     OW71551   4.185   4.990  11.037
23842SOL    HW171552   4.135   4.991  10.951
23842SOL    HW271553   4.122   4.972  11.113
23843SOL     OW71554   4.835   5.500   9.547
23843SOL    HW171555   4.775   5.438   9.597
23843SOL    HW271556   4.866   5.456   9.462
23844SOL     OW71557   3.926   4.009  10.808
23844SOL    HW171558   3.846   4.069  10.795
23844SOL    HW271559   3.916   3.960  10.894
23845SOL     OW71560   5.356   5.101   9.391
23845SOL    HW171561   5.324   5.195   9.381
23845SOL    HW271562   5.280   5.038   9.379
23846SOL     OW71563   4.188   5.467   9.633
23846SOL    HW171564   4.221   5.506   9.719
23846SOL    HW271565   4.264   5.460   9.568
23847SOL     OW71566   5.124   3.831   9.736
23847SOL    HW171567   5.100   3.794   9.646
23847SOL    HW271568   5.223   3.847   9.740
23848SOL     OW71569   3.973   5.509  10.551
23848SOL    HW171570   4.030   5.444  10.601
23848SOL    HW271571   3.957   5.476  10.458
23849SOL     OW71572   4.664   5.422  10.214
23849SOL    HW171573   4.744   5.365  10.235
23849SOL    HW271574   4.615   5.382  10.137
23850SOL     OW71575   4.106   4.424   9.790
23850SOL    HW171576   4.151   4.334   9.787
23850SOL    HW271577   4.012   4.413   9.823
23851SOL     OW71578   5.271   3.946  11.039
23851SOL    HW171579   5.266   3.983  11.131
23851SOL    HW271580   5.199   3.877  11.027
23852SOL     OW71581   4.338   3.846   9.427
23852SOL    HW171582   4.436   3.824   9.434
23852SOL    HW271583   4.307   3.829   9.334
23853SOL     OW71584   4.505   3.988  11.059
23853SOL    HW171585   4.572   3.927  11.102
23853SOL    HW271586   4.432   4.007  11.124
23854SOL     OW71587   4.612   5.238  10.505
23854SOL    HW171588   4.589   5.213  10.411
23854SOL    HW271589   4.673   5.169  10.544
23855SOL     OW71590   5.075   4.314  10.743
23855SOL    HW171591   5.103   4.271  10.828
23855SOL    HW271592   5.100   4.410  10.744
23856SOL     OW71593   4.527   5.126  10.234
23856SOL    HW171594   4.617   5.140  10.192
23856SOL    HW271595   4.456   5.128  10.163
23857SOL     OW71596   4.646   4.227  10.209
23857SOL    HW171597   4.621   4.218  10.113
23857SOL    HW271598   4.694   4.145  10.240
23858SOL     OW71599   4.263   3.788   9.822
23858SOL    HW171600   4.182   3.789   9.880
23858SOL    HW271601   4.266   3.871   9.767
23859SOL     OW71602   5.158   4.912   9.351
23859SOL    HW171603   5.190   4.836   9.408
23859SOL    HW271604   5.066   4.939   9.381
23860SOL     OW71605   4.021   3.759   9.481
23860SOL    HW171606   4.070   3.843   9.460
23860SOL    HW271607   4.083   3.694   9.526
23861SOL     OW71608   4.659   3.960   9.790
23861SOL    HW171609   4.611   4.001   9.712
23861SOL    HW271610   4.758   3.958   9.771
23862SOL     OW71611   4.800   4.407  10.774
23862SOL    HW171612   4.720   4.346  10.777
23862SOL    HW271613   4.881   4.354  10.750
23863SOL     OW71614   4.951   5.294  10.103
23863SOL    HW171615   4.972   5.368  10.038
23863SOL    HW271616   5.019   5.294  10.176
23864SOL     OW71617   4.183   4.876  10.051
23864SOL    HW171618   4.112   4.849  10.116
23864SOL    HW271619   4.157   4.848   9.958
23865SOL     OW71620   4.995   5.521   9.901
23865SOL    HW171621   5.039   5.585   9.837
23865SOL    HW271622   4.945   5.573   9.971
23866SOL     OW71623   4.756   4.273   9.326
23866SOL    HW171624   4.715   4.355   9.287
23866SOL    HW271625   4.820   4.299   9.399
23867SOL     OW71626   3.802   4.280  10.696
23867SOL    HW171627   3.894   4.279  10.655
23867SOL    HW271628   3.796   4.354  10.763
23868SOL     OW71629   4.285   3.946  10.457
23868SOL    HW171630   4.323   3.862  10.494
23868SOL    HW271631   4.197   3.965  10.501
23869SOL     OW71632   4.590   4.178   9.952
23869SOL    HW171633   4.558   4.250   9.890
23869SOL    HW271634   4.614   4.097   9.899
23870SOL     OW71635   4.741   3.763  10.063
23870SOL    HW171636   4.669   3.768   9.994
23870SOL    HW271637   4.717   3.694  10.132
23871SOL     OW71638   5.153   4.897  10.177
23871SOL    HW171639   5.098   4.813  10.170
23871SOL    HW271640   5.179   4.926  10.085
23872SOL     OW71641   5.190   4.314  10.302
23872SOL    HW171642   5.160   4.219  10.309
23872SOL    HW271643   5.263   4.330  10.368
23873SOL     OW71644   5.581   4.557   9.687
23873SOL    HW171645   5.623   4.493   9.751
23873SOL    HW271646   5.543   4.506   9.609
23874SOL     OW71647   4.212   5.109   9.484
23874SOL    HW171648   4.125   5.094   9.531
23874SOL    HW271649   4.195   5.135   9.389
23875SOL     OW71650   5.388   5.004   9.967
23875SOL    HW171651   5.487   5.012   9.981
23875SOL    HW271652   5.343   5.088   9.998
23876SOL     OW71653   5.114   4.299   9.388
23876SOL    HW171654   5.060   4.278   9.469
23876SOL    HW271655   5.205   4.258   9.397
23877SOL     OW71656   4.251   3.980   9.638
23877SOL    HW171657   4.278   3.921   9.563
23877SOL    HW271658   4.251   4.075   9.607
23878SOL     OW71659   5.478   4.947  10.898
23878SOL    HW171660   5.569   4.908  10.885
23878SOL    HW271661   5.486   5.043  10.922
23879SOL     OW71662   4.788   5.071  10.650
23879SOL    HW171663   4.708   5.048  10.705
23879SOL    HW271664   4.871   5.045  10.699
23880SOL     OW71665   5.316   5.353  10.935
23880SOL    HW171666   5.343   5.387  10.845
23880SOL    HW271667   5.395   5.315  10.981
23881SOL     OW71668   4.835   4.919  10.410
23881SOL    HW171669   4.795   4.963  10.491
23881SOL    HW271670   4.794   4.956  10.327
23882SOL     OW71671   5.362   4.823  10.389
23882SOL    HW171672   5.367   4.904  10.448
23882SOL    HW271673   5.276   4.825  10.338
23883SOL     OW71674   4.639   3.813  10.712
23883SOL    HW171675   4.664   3.793  10.617
23883SOL    HW271676   4.711   3.869  10.754
23884SOL     OW71677   4.704   4.840  11.029
23884SOL    HW171678   4.605   4.846  11.039
23884SOL    HW271679   4.727   4.760  10.973
23885SOL     OW71680   4.429   4.774   9.678
23885SOL    HW171681   4.415   4.781   9.777
23885SOL    HW271682   4.513   4.723   9.660
23886SOL     OW71683   4.134   4.537  10.561
23886SOL    HW171684   4.220   4.549  10.611
23886SOL    HW271685   4.092   4.450  10.588
23887SOL     OW71686   4.998   4.110  10.572
23887SOL    HW171687   5.019   4.184  10.636
23887SOL    HW271688   4.909   4.127  10.529
23888SOL     OW71689   3.788   5.288  10.641
23888SOL    HW171690   3.742   5.370  10.607
23888SOL    HW271691   3.886   5.307  10.650
23889SOL     OW71692   4.091   4.824   9.811
23889SOL    HW171693   4.084   4.907   9.755
23889SOL    HW271694   4.095   4.744   9.751
23890SOL     OW71695   4.290   4.261  10.175
23890SOL    HW171696   4.302   4.327  10.101
23890SOL    HW271697   4.336   4.295  10.258
23891SOL     OW71698   4.976   5.072   9.698
23891SOL    HW171699   5.026   5.149   9.738
23891SOL    HW271700   4.881   5.074   9.730
23892SOL     OW71701   4.996   5.169  10.452
23892SOL    HW171702   5.043   5.182  10.539
23892SOL    HW271703   4.930   5.095  10.461
23893SOL     OW71704   5.306   4.363   9.782
23893SOL    HW171705   5.275   4.424   9.855
23893SOL    HW271706   5.356   4.415   9.713
23894SOL     OW71707   4.078   5.234  10.639
23894SOL    HW171708   4.057   5.190  10.552
23894SOL    HW271709   4.175   5.260  10.642
23895SOL     OW71710   4.126   4.475  10.908
23895SOL    HW171711   4.194   4.530  10.861
23895SOL    HW271712   4.166   4.387  10.935
23896SOL     OW71713   5.311   4.503  10.980
23896SOL    HW171714   5.219   4.541  10.975
23896SOL    HW271715   5.371   4.550  10.915
23897SOL     OW71716   4.737   3.829  11.080
23897SOL    HW171717   4.743   3.914  11.028
23897SOL    HW271718   4.769   3.753  11.023
23898SOL     OW71719   4.228   3.774  11.050
23898SOL    HW171720   4.186   3.717  10.980
23898SOL    HW271721   4.162   3.843  11.082
23899SOL     OW71722   4.297   4.594  10.339
23899SOL    HW171723   4.341   4.683  10.330
23899SOL    HW271724   4.234   4.594  10.416
23900SOL     OW71725   5.084   4.586  10.355
23900SOL    HW171726   5.009   4.586  10.289
23900SOL    HW271727   5.121   4.494  10.364
23901SOL     OW71728   4.933   4.249   9.585
23901SOL    HW171729   4.946   4.165   9.639
23901SOL    HW271730   4.904   4.323   9.645
23902SOL     OW71731   4.031   3.937  10.541
23902SOL    HW171732   4.008   3.974  10.631
23902SOL    HW271733   4.001   3.842  10.535
23903SOL     OW71734   3.761   5.034  10.592
23903SOL    HW171735   3.814   4.985  10.660
23903SOL    HW271736   3.783   5.132  10.597
23904SOL     OW71737   4.456   4.358  10.374
23904SOL    HW171738   4.515   4.332  10.298
23904SOL    HW271739   4.428   4.454  10.363
23905SOL     OW71740   5.452   4.659  11.164
23905SOL    HW171741   5.406   4.652  11.075
23905SOL    HW271742   5.390   4.703  11.230
23906SOL     OW71743   4.031   3.787   9.928
23906SOL    HW171744   4.020   3.881   9.961
23906SOL    HW271745   4.026   3.724  10.005
23907SOL     OW71746   5.346   4.091   9.684
23907SOL    HW171747   5.348   4.015   9.748
23907SOL    HW271748   5.298   4.168   9.724
23908SOL     OW71749   4.747   4.490  10.276
23908SOL    HW171750   4.762   4.511  10.372
23908SOL    HW271751   4.717   4.395  10.267
23909SOL     OW71752   4.704   5.297  11.010
23909SOL    HW171753   4.684   5.341  10.922
23909SOL    HW271754   4.743   5.206  10.994
23910SOL     OW71755   5.583   5.242  10.915
23910SOL    HW171756   5.597   5.269  10.820
23910SOL    HW271757   5.666   5.264  10.968
23911SOL     OW71758   4.074   4.622  11.114
23911SOL    HW171759   4.150   4.666  11.162
23911SOL    HW271760   4.109   4.575  11.032
23912SOL     OW71761   5.264   3.998   9.435
23912SOL    HW171762   5.203   3.923   9.458
23912SOL    HW271763   5.286   4.050   9.518
23913SOL     OW71764   5.027   4.562   9.352
23913SOL    HW171765   5.061   4.469   9.367
23913SOL    HW271766   5.045   4.589   9.257
23914SOL     OW71767   4.792   5.057  10.159
23914SOL    HW171768   4.799   4.973  10.104
23914SOL    HW271769   4.854   5.126  10.123
23915SOL     OW71770   4.043   4.534  10.259
23915SOL    HW171771   4.136   4.570  10.264
23915SOL    HW271772   4.037   4.449  10.311
23916SOL     OW71773   4.063   4.233  10.316
23916SOL    HW171774   4.011   4.150  10.299
23916SOL    HW271775   4.140   4.238  10.252
23917SOL     OW71776   4.862   4.104  10.988
23917SOL    HW171777   4.817   4.167  11.052
23917SOL    HW271778   4.955   4.135  10.971
23918SOL     OW71779   4.884   3.931  10.787
23918SOL    HW171780   4.884   3.995  10.864
23918SOL    HW271781   4.912   3.979  10.704
23919SOL     OW71782   3.732   5.050   9.510
23919SOL    HW171783   3.639   5.071   9.479
23919SOL    HW271784   3.742   4.951   9.523
23920SOL     OW71785   3.812   5.525  10.237
23920SOL    HW171786   3.770   5.439  10.210
23920SOL    HW271787   3.906   5.528  10.203
23921SOL     OW71788   4.228   5.292  10.220
23921SOL    HW171789   4.294   5.366  10.229
23921SOL    HW271790   4.272   5.213  10.178
23922SOL     OW71791   4.726   4.520  10.548
23922SOL    HW171792   4.767   4.488  10.634
23922SOL    HW271793   4.630   4.493  10.545
23923SOL     OW71794   3.764   4.268  10.424
23923SOL    HW171795   3.849   4.235  10.383
23923SOL    HW271796   3.777   4.283  10.522
23924SOL     OW71797   3.913   4.244  11.032
23924SOL    HW171798   3.972   4.204  10.962
23924SOL    HW271799   3.855   4.315  10.991
23925SOL     OW71800   5.093   4.674  10.970
23925SOL    HW171801   5.132   4.763  10.990
23925SOL    HW271802   5.103   4.654  10.873
23926SOL     OW71803   4.539   4.296   9.635
23926SOL    HW171804   4.546   4.207   9.589
23926SOL    HW271805   4.445   4.330   9.627
23927SOL     OW71806   5.381   4.328  10.516
23927SOL    HW171807   5.343   4.259  10.578
23927SOL    HW271808   5.463   4.292  10.472
23928SOL     OW71809   3.976   5.288  11.054
23928SOL    HW171810   3.946   5.345  11.130
23928SOL    HW271811   3.969   5.191  11.080
23929SOL     OW71812   4.395   4.188  10.579
23929SOL    HW171813   4.361   4.099  10.549
23929SOL    HW271814   4.421   4.242  10.499
23930SOL     OW71815   4.654   5.402  10.775
23930SOL    HW171816   4.630   5.384  10.680
23930SOL    HW271817   4.684   5.496  10.785
23931SOL     OW71818   4.197   4.224   9.501
23931SOL    HW171819   4.258   4.304   9.505
23931SOL    HW271820   4.102   4.255   9.508
23932SOL     OW71821   3.883   4.861  10.776
23932SOL    HW171822   3.905   4.800  10.852
23932SOL    HW271823   3.893   4.812  10.690
23933SOL     OW71824   5.071   4.783  10.544
23933SOL    HW171825   5.095   4.720  10.470
23933SOL    HW271826   4.981   4.823  10.526
23934SOL     OW71827   5.026   4.579   9.619
23934SOL    HW171828   4.940   4.548   9.661
23934SOL    HW271829   5.022   4.565   9.520
23935SOL     OW71830   5.483   5.471  10.464
23935SOL    HW171831   5.544   5.501  10.391
23935SOL    HW271832   5.445   5.382  10.442
23936SOL     OW71833   4.976   5.455  10.438
23936SOL    HW171834   5.060   5.460  10.384
23936SOL    HW271835   4.953   5.359  10.456
23937SOL     OW71836   3.807   4.982  10.332
23937SOL    HW171837   3.802   4.981  10.432
23937SOL    HW271838   3.724   4.941  10.294
23938SOL     OW71839   4.412   5.386  11.026
23938SOL    HW171840   4.356   5.467  11.035
23938SOL    HW271841   4.464   5.390  10.940
23939SOL     OW71842   5.450   3.859   9.833
23939SOL    HW171843   5.523   3.842   9.766
23939SOL    HW271844   5.419   3.772   9.871
23940SOL     OW71845   5.112   5.297   9.787
23940SOL    HW171846   5.179   5.309   9.713
23940SOL    HW271847   5.072   5.386   9.810
23941SOL     OW71848   3.854   5.518  11.161
23941SOL    HW171849   3.813   5.444  11.214
23941SOL    HW271850   3.918   5.569  11.219
23942SOL     OW71851   5.004   4.651   9.982
23942SOL    HW171852   5.064   4.570   9.984
23942SOL    HW271853   5.044   4.720   9.922
23943SOL     OW71854   4.554   4.997  10.732
23943SOL    HW171855   4.549   5.030  10.827
23943SOL    HW271856   4.468   5.016  10.686
23944SOL     OW71857   4.396   5.340   9.464
23944SOL    HW171858   4.405   5.350   9.365
23944SOL    HW271859   4.356   5.251   9.485
23945SOL     OW71860   5.374   5.444  10.704
23945SOL    HW171861   5.427   5.454  10.620
23945SOL    HW271862   5.347   5.534  10.738
23946SOL     OW71863   5.565   3.899  10.273
23946SOL    HW171864   5.604   3.814  10.237
23946SOL    HW271865   5.467   3.901  10.254
23947SOL     OW71866   3.987   4.050  10.030
23947SOL    HW171867   3.908   4.101   9.996
23947SOL    HW271868   3.978   4.035  10.128
23948SOL     OW71869   4.918   5.336   9.341
23948SOL    HW171870   4.924   5.243   9.378
23948SOL    HW271871   4.859   5.336   9.261
23949SOL     OW71872   4.546   4.726  10.682
23949SOL    HW171873   4.586   4.725  10.590
23949SOL    HW271874   4.556   4.818  10.722
23950SOL     OW71875   4.640   4.634   9.601
23950SOL    HW171876   4.703   4.672   9.533
23950SOL    HW271877   4.680   4.551   9.640
23951SOL     OW71878   5.228   5.331   9.354
23951SOL    HW171879   5.136   5.368   9.361
23951SOL    HW271880   5.266   5.351   9.264
23952SOL     OW71881   4.096   5.012  10.800
23952SOL    HW171882   4.083   5.105  10.766
23952SOL    HW271883   4.012   4.960  10.787
23953SOL     OW71884   5.338   5.016  10.599
23953SOL    HW171885   5.398   5.019  10.679
23953SOL    HW271886   5.263   5.080  10.612
23954SOL     OW71887   4.763   4.822  10.006
23954SOL    HW171888   4.693   4.775  10.060
23954SOL    HW271889   4.822   4.754   9.963
23955SOL     OW71890   4.738   3.960  10.281
23955SOL    HW171891   4.730   3.924  10.188
23955SOL    HW271892   4.736   3.884  10.346
23956SOL     OW71893   4.314   5.211   9.801
23956SOL    HW171894   4.356   5.153   9.731
23956SOL    HW271895   4.270   5.290   9.757
23957SOL     OW71896   5.433   4.109  10.691
23957SOL    HW171897   5.506   4.178  10.695
23957SOL    HW271898   5.461   4.034  10.632
23958SOL     OW71899   3.979   5.072   9.600
23958SOL    HW171900   3.883   5.073   9.573
23958SOL    HW271901   3.991   5.125   9.684
23959SOL     OW71902   3.829   4.737  11.036
23959SOL    HW171903   3.752   4.704  11.090
23959SOL    HW271904   3.914   4.707  11.078
23960SOL     OW71905   4.396   3.927  10.799
23960SOL    HW171906   4.486   3.911  10.759
23960SOL    HW271907   4.404   3.932  10.898
23961SOL     OW71908   3.799   4.069   9.343
23961SOL    HW171909   3.707   4.041   9.314
23961SOL    HW271910   3.830   4.146   9.287
23962SOL     OW71911   5.164   4.580  10.708
23962SOL    HW171912   5.107   4.632  10.645
23962SOL    HW271913   5.260   4.592  10.684
23963SOL     OW71914   3.796   3.890   9.628
23963SOL    HW171915   3.779   3.973   9.574
23963SOL    HW271916   3.886   3.853   9.606
23964SOL     OW71917   4.907   5.059   9.429
23964SOL    HW171918   4.808   5.048   9.431
23964SOL    HW271919   4.941   5.074   9.522
23965SOL     OW71920   4.337   4.566  10.741
23965SOL    HW171921   4.393   4.647  10.724
23965SOL    HW271922   4.396   4.486  10.744
23966SOL     OW71923   5.217   5.491  10.269
23966SOL    HW171924   5.250   5.555  10.200
23966SOL    HW271925   5.283   5.485  10.344
23967SOL     OW71926   4.440   4.289  11.018
23967SOL    HW171927   4.459   4.354  11.092
23967SOL    HW271928   4.500   4.209  11.027
23968SOL     OW71929   5.174   4.944  10.943
23968SOL    HW171930   5.165   4.934  11.042
23968SOL    HW271931   5.270   4.937  10.917
23969SOL     OW71932   4.114   5.465  10.870
23969SOL    HW171933   4.023   5.506  10.868
23969SOL    HW271934   4.107   5.371  10.902
23970SOL     OW71935   5.398   4.607  10.564
23970SOL    HW171936   5.371   4.518  10.527
23970SOL    HW271937   5.399   4.675  10.491
23971SOL     OW71938   4.949   4.049   9.759
23971SOL    HW171939   5.014   3.975   9.748
23971SOL    HW271940   4.969   4.099   9.843
23972SOL     OW71941   4.318   4.469   9.962
23972SOL    HW171942   4.368   4.554   9.943
23972SOL    HW271943   4.230   4.471   9.914
23973SOL     OW71944   5.501   4.066  10.952
23973SOL    HW171945   5.484   4.097  10.858
23973SOL    HW271946   5.417   4.029  10.990
23974SOL     OW71947   5.454   4.658  10.827
23974SOL    HW171948   5.492   4.749  10.842
23974SOL    HW271949   5.446   4.641  10.728
23975SOL     OW71950   4.583   5.098   9.326
23975SOL    HW171951   4.537   5.113   9.414
23975SOL    HW271952   4.627   5.183   9.296
23976SOL     OW71953   4.385   5.514  10.263
23976SOL    HW171954   4.339   5.602  10.250
23976SOL    HW271955   4.484   5.526  10.256
23977SOL     OW71956   4.583   4.680  10.171
23977SOL    HW171957   4.637   4.611  10.219
23977SOL    HW271958   4.551   4.749  10.237
23978SOL     OW71959   4.807   4.708   9.397
23978SOL    HW171960   4.784   4.761   9.315
23978SOL    HW271961   4.888   4.652   9.378
23979SOL     OW71962   5.585   5.293  10.161
23979SOL    HW171963   5.514   5.281  10.091
23979SOL    HW271964   5.586   5.214  10.221
23980SOL     OW71965   3.945   5.038  11.154
23980SOL    HW171966   3.880   4.965  11.133
23980SOL    HW271967   3.949   5.052  11.252
23981SOL     OW71968   3.803   4.964   9.963
23981SOL    HW171969   3.802   4.917  10.051
23981SOL    HW271970   3.885   4.936   9.912
23982SOL     OW71971   4.396   5.115  10.934
23982SOL    HW171972   4.318   5.065  10.972
23982SOL    HW271973   4.393   5.210  10.965
23983SOL     OW71974   5.548   3.916  10.537
23983SOL    HW171975   5.544   3.826  10.581
23983SOL    HW271976   5.551   3.905  10.438
23984SOL     OW71977   4.152   4.148   9.830
23984SOL    HW171978   4.182   4.076   9.768
23984SOL    HW271979   4.113   4.108   9.913
23985SOL     OW71980   5.429   5.211  10.414
23985SOL    HW171981   5.336   5.186  10.387
23985SOL    HW271982   5.455   5.161  10.496
23986SOL     OW71983   4.041   4.271  10.590
23986SOL    HW171984   4.079   4.212  10.662
23986SOL    HW271985   4.081   4.245  10.502
23987SOL     OW71986   4.536   5.310   9.997
23987SOL    HW171987   4.568   5.320   9.903
23987SOL    HW271988   4.457   5.248   9.999
23988SOL     OW71989   5.148   3.938  10.422
23988SOL    HW171990   5.200   3.873  10.477
23988SOL    HW271991   5.099   4.001  10.483
23989SOL     OW71992   4.725   3.758  10.464
23989SOL    HW171993   4.662   3.686  10.433
23989SOL    HW271994   4.818   3.722  10.464
23990SOL     OW71995   4.494   5.054   9.611
23990SOL    HW171996   4.448   4.967   9.628
23990SOL    HW271997   4.585   5.051   9.652
23991SOL     OW71998   4.342   5.291  10.594
23991SOL    HW171999   4.337   5.373  10.651
23991SOL    HW272000   4.431   5.288  10.549
23992SOL     OW72001   5.076   3.776   9.478
23992SOL    HW172002   5.111   3.735   9.394
23992SOL    HW272003   4.986   3.738   9.498
23993SOL     OW72004   5.024   4.177  10.001
23993SOL    HW172005   4.965   4.257  10.005
23993SOL    HW272006   5.039   4.142  10.094
23994SOL     OW72007   5.317   3.945  10.192
23994SOL    HW172008   5.233   3.944  10.246
23994SOL    HW272009   5.319   4.028  10.136
23995SOL     OW72010   3.763   4.801   9.610
23995SOL    HW172011   3.862   4.790   9.601
23995SOL    HW272012   3.723   4.715   9.642
23996SOL     OW72013   4.599   5.370   9.647
23996SOL    HW172014   4.522   5.335   9.593
23996SOL    HW272015   4.567   5.441   9.709
23997SOL     OW72016   3.954   4.352  11.285
23997SOL    HW172017   3.861   4.350  11.322
23997SOL    HW272018   3.955   4.313  11.193
23998SOL     OW72019   3.949   3.999  12.168
23998SOL    HW172020   3.984   3.982  12.260
23998SOL    HW272021   3.861   3.954  12.156
23999SOL     OW72022   3.743   4.092  11.819
23999SOL    HW172023   3.661   4.135  11.858
23999SOL    HW272024   3.715   4.019  11.756
24000SOL     OW72025   4.293   4.999  12.337
24000SOL    HW172026   4.200   4.992  12.300
24000SOL    HW272027   4.304   5.088  12.381
24001SOL     OW72028   5.279   5.235  11.875
24001SOL    HW172029   5.222   5.219  11.956
24001SOL    HW272030   5.220   5.245  11.795
24002SOL     OW72031   4.859   4.427  11.889
24002SOL    HW172032   4.916   4.505  11.864
24002SOL    HW272033   4.799   4.453  11.965
24003SOL     OW72034   5.479   4.331  11.403
24003SOL    HW172035   5.467   4.318  11.304
24003SOL    HW272036   5.449   4.250  11.452
24004SOL     OW72037   4.492   4.868  12.195
24004SOL    HW172038   4.414   4.885  12.255
24004SOL    HW272039   4.526   4.955  12.159
24005SOL     OW72040   4.409   4.736  11.837
24005SOL    HW172041   4.478   4.720  11.907
24005SOL    HW272042   4.336   4.793  11.875
24006SOL     OW72043   4.059   5.159  12.233
24006SOL    HW172044   3.981   5.128  12.180
24006SOL    HW272045   4.117   5.217  12.176
24007SOL     OW72046   5.184   5.229  12.511
24007SOL    HW172047   5.208   5.323  12.537
24007SOL    HW272048   5.168   5.175  12.593
24008SOL     OW72049   4.162   4.116  12.671
24008SOL    HW172050   4.244   4.060  12.680
24008SOL    HW272051   4.081   4.058  12.675
24009SOL     OW72052   5.327   4.171  11.909
24009SOL    HW172053   5.253   4.217  11.859
24009SOL    HW272054   5.378   4.239  11.962
24010SOL     OW72055   3.955   5.437  11.655
24010SOL    HW172056   3.989   5.514  11.709
24010SOL    HW272057   3.999   5.437  11.565
24011SOL     OW72058   3.954   5.158  11.710
24011SOL    HW172059   3.928   5.254  11.710
24011SOL    HW272060   3.883   5.104  11.755
24012SOL     OW72061   3.964   4.815  12.058
24012SOL    HW172062   3.978   4.731  12.110
24012SOL    HW272063   3.909   4.879  12.113
24013SOL     OW72064   4.344   5.510  12.611
24013SOL    HW172065   4.252   5.493  12.646
24013SOL    HW272066   4.372   5.602  12.637
24014SOL     OW72067   4.330   4.688  11.295
24014SOL    HW172068   4.337   4.772  11.241
24014SOL    HW272069   4.376   4.701  11.383
24015SOL     OW72070   5.318   3.838  12.652
24015SOL    HW172071   5.300   3.905  12.580
24015SOL    HW272072   5.315   3.884  12.741
24016SOL     OW72073   3.846   4.367  11.735
24016SOL    HW172074   3.801   4.279  11.752
24016SOL    HW272075   3.845   4.421  11.819
24017SOL     OW72076   5.566   5.491  11.531
24017SOL    HW172077   5.620   5.462  11.611
24017SOL    HW272078   5.596   5.581  11.502
24018SOL     OW72079   3.751   5.320  11.289
24018SOL    HW172080   3.732   5.224  11.310
24018SOL    HW272081   3.718   5.378  11.364
24019SOL     OW72082   5.413   4.646  11.784
24019SOL    HW172083   5.508   4.617  11.792
24019SOL    HW272084   5.405   4.711  11.709
24020SOL     OW72085   5.365   4.832  11.604
24020SOL    HW172086   5.451   4.834  11.552
24020SOL    HW272087   5.379   4.879  11.692
24021SOL     OW72088   4.337   5.089  11.898
24021SOL    HW172089   4.288   5.002  11.907
24021SOL    HW272090   4.314   5.132  11.811
24022SOL     OW72091   4.533   3.728  11.674
24022SOL    HW172092   4.573   3.819  11.665
24022SOL    HW272093   4.433   3.736  11.680
24023SOL     OW72094   3.921   4.700  12.436
24023SOL    HW172095   4.010   4.655  12.422
24023SOL    HW272096   3.848   4.635  12.417
24024SOL     OW72097   5.249   4.723  11.362
24024SOL    HW172098   5.186   4.647  11.375
24024SOL    HW272099   5.297   4.741  11.448
24025SOL     OW72100   4.041   3.975  12.973
24025SOL    HW172101   4.112   4.046  12.979
24025SOL    HW272102   3.953   4.014  13.001
24026SOL     OW72103   5.190   5.141  12.125
24026SOL    HW172104   5.131   5.147  12.205
24026SOL    HW272105   5.175   5.053  12.079
24027SOL     OW72106   5.391   5.438  11.744
24027SOL    HW172107   5.350   5.415  11.656
24027SOL    HW272108   5.373   5.364  11.809
24028SOL     OW72109   4.322   4.453  11.442
24028SOL    HW172110   4.346   4.522  11.374
24028SOL    HW272111   4.244   4.486  11.496
24029SOL     OW72112   5.005   4.069  12.116
24029SOL    HW172113   4.919   4.019  12.103
24029SOL    HW272114   5.067   4.015  12.172
24030SOL     OW72115   5.300   5.386  11.479
24030SOL    HW172116   5.389   5.432  11.482
24030SOL    HW272117   5.279   5.362  11.384
24031SOL     OW72118   4.531   4.329  12.637
24031SOL    HW172119   4.484   4.326  12.726
24031SOL    HW272120   4.480   4.274  12.571
24032SOL     OW72121   4.715   4.134  12.414
24032SOL    HW172122   4.638   4.168  12.468
24032SOL    HW272123   4.681   4.083  12.335
24033SOL     OW72124   4.765   4.425  11.601
24033SOL    HW172125   4.791   4.421  11.697
24033SOL    HW272126   4.680   4.374  11.587
24034SOL     OW72127   3.800   4.535  11.961
24034SOL    HW172128   3.899   4.523  11.970
24034SOL    HW272129   3.776   4.630  11.982
24035SOL     OW72130   3.854   5.545  12.743
24035SOL    HW172131   3.844   5.530  12.842
24035SOL    HW272132   3.768   5.581  12.707
24036SOL     OW72133   4.589   4.072  11.367
24036SOL    HW172134   4.648   4.135  11.318
24036SOL    HW272135   4.608   3.978  11.338
24037SOL     OW72136   5.086   4.868  11.717
24037SOL    HW172137   5.169   4.839  11.669
24037SOL    HW272138   5.037   4.935  11.661
24038SOL     OW72139   4.274   3.920  12.057
24038SOL    HW172140   4.269   3.915  12.157
24038SOL    HW272141   4.276   4.016  12.028
24039SOL     OW72142   4.732   5.180  11.649
24039SOL    HW172143   4.686   5.252  11.597
24039SOL    HW272144   4.728   5.200  11.747
24040SOL     OW72145   4.075   5.525  12.025
24040SOL    HW172146   4.125   5.439  12.031
24040SOL    HW272147   4.140   5.602  12.022
24041SOL     OW72148   5.519   4.790  12.045
24041SOL    HW172149   5.457   4.775  11.969
24041SOL    HW272150   5.467   4.801  12.130
24042SOL     OW72151   4.045   4.667  11.414
24042SOL    HW172152   4.127   4.706  11.372
24042SOL    HW272153   4.018   4.585  11.365
24043SOL     OW72154   5.182   4.459  11.900
24043SOL    HW172155   5.177   4.394  11.975
24043SOL    HW272156   5.262   4.518  11.913
24044SOL     OW72157   4.835   5.500  11.409
24044SOL    HW172158   4.775   5.438  11.459
24044SOL    HW272159   4.866   5.456  11.324
24045SOL     OW72160   3.926   4.009  12.670
24045SOL    HW172161   3.846   4.069  12.657
24045SOL    HW272162   3.916   3.960  12.756
24046SOL     OW72163   5.356   5.101  11.253
24046SOL    HW172164   5.324   5.195  11.243
24046SOL    HW272165   5.280   5.038  11.241
24047SOL     OW72166   4.188   5.467  11.495
24047SOL    HW172167   4.221   5.506  11.581
24047SOL    HW272168   4.264   5.460  11.430
24048SOL     OW72169   5.124   3.831  11.598
24048SOL    HW172170   5.100   3.794  11.508
24048SOL    HW272171   5.223   3.847  11.602
24049SOL     OW72172   3.973   5.509  12.413
24049SOL    HW172173   4.030   5.444  12.463
24049SOL    HW272174   3.957   5.476  12.320
24050SOL     OW72175   4.664   5.422  12.076
24050SOL    HW172176   4.744   5.365  12.097
24050SOL    HW272177   4.615   5.382  11.999
24051SOL     OW72178   4.106   4.424  11.652
24051SOL    HW172179   4.151   4.334  11.649
24051SOL    HW272180   4.012   4.413  11.685
24052SOL     OW72181   4.338   3.846  11.289
24052SOL    HW172182   4.436   3.824  11.296
24052SOL    HW272183   4.307   3.829  11.196
24053SOL     OW72184   4.612   5.238  12.367
24053SOL    HW172185   4.589   5.213  12.273
24053SOL    HW272186   4.673   5.169  12.406
24054SOL     OW72187   4.527   5.126  12.096
24054SOL    HW172188   4.617   5.140  12.054
24054SOL    HW272189   4.456   5.128  12.025
24055SOL     OW72190   4.646   4.227  12.071
24055SOL    HW172191   4.621   4.218  11.975
24055SOL    HW272192   4.694   4.145  12.102
24056SOL     OW72193   4.263   3.788  11.684
24056SOL    HW172194   4.182   3.789  11.742
24056SOL    HW272195   4.266   3.871  11.629
24057SOL     OW72196   5.158   4.912  11.213
24057SOL    HW172197   5.190   4.836  11.270
24057SOL    HW272198   5.066   4.939  11.243
24058SOL     OW72199   4.021   3.759  11.343
24058SOL    HW172200   4.070   3.843  11.322
24058SOL    HW272201   4.083   3.694  11.388
24059SOL     OW72202   4.659   3.960  11.652
24059SOL    HW172203   4.611   4.001  11.574
24059SOL    HW272204   4.758   3.958  11.633
24060SOL     OW72205   4.951   5.294  11.965
24060SOL    HW172206   4.972   5.368  11.900
24060SOL    HW272207   5.019   5.294  12.038
24061SOL     OW72208   4.183   4.876  11.913
24061SOL    HW172209   4.112   4.849  11.978
24061SOL    HW272210   4.157   4.848  11.820
24062SOL     OW72211   4.995   5.521  11.763
24062SOL    HW172212   5.039   5.585  11.699
24062SOL    HW272213   4.945   5.573  11.833
24063SOL     OW72214   4.756   4.273  11.188
24063SOL    HW172215   4.715   4.355  11.149
24063SOL    HW272216   4.820   4.299  11.261
24064SOL     OW72217   3.802   4.280  12.558
24064SOL    HW172218   3.894   4.279  12.517
24064SOL    HW272219   3.796   4.354  12.625
24065SOL     OW72220   4.285   3.946  12.319
24065SOL    HW172221   4.323   3.862  12.356
24065SOL    HW272222   4.197   3.965  12.363
24066SOL     OW72223   4.590   4.178  11.814
24066SOL    HW172224   4.558   4.250  11.752
24066SOL    HW272225   4.614   4.097  11.761
24067SOL     OW72226   4.741   3.763  11.925
24067SOL    HW172227   4.669   3.768  11.856
24067SOL    HW272228   4.717   3.694  11.994
24068SOL     OW72229   5.153   4.897  12.039
24068SOL    HW172230   5.098   4.813  12.032
24068SOL    HW272231   5.179   4.926  11.947
24069SOL     OW72232   5.190   4.314  12.164
24069SOL    HW172233   5.160   4.219  12.171
24069SOL    HW272234   5.263   4.330  12.230
24070SOL     OW72235   5.581   4.557  11.549
24070SOL    HW172236   5.623   4.493  11.613
24070SOL    HW272237   5.543   4.506  11.471
24071SOL     OW72238   4.212   5.109  11.346
24071SOL    HW172239   4.125   5.094  11.393
24071SOL    HW272240   4.195   5.135  11.251
24072SOL     OW72241   5.388   5.004  11.829
24072SOL    HW172242   5.487   5.012  11.843
24072SOL    HW272243   5.343   5.088  11.860
24073SOL     OW72244   5.114   4.299  11.250
24073SOL    HW172245   5.060   4.278  11.331
24073SOL    HW272246   5.205   4.258  11.259
24074SOL     OW72247   4.251   3.980  11.500
24074SOL    HW172248   4.278   3.921  11.425
24074SOL    HW272249   4.251   4.075  11.469
24075SOL     OW72250   4.788   5.071  12.512
24075SOL    HW172251   4.708   5.048  12.567
24075SOL    HW272252   4.871   5.045  12.561
24076SOL     OW72253   4.835   4.919  12.272
24076SOL    HW172254   4.795   4.963  12.353
24076SOL    HW272255   4.794   4.956  12.189
24077SOL     OW72256   5.362   4.823  12.251
24077SOL    HW172257   5.367   4.904  12.310
24077SOL    HW272258   5.276   4.825  12.200
24078SOL     OW72259   4.639   3.813  12.574
24078SOL    HW172260   4.664   3.793  12.479
24078SOL    HW272261   4.711   3.869  12.616
24079SOL     OW72262   4.429   4.774  11.540
24079SOL    HW172263   4.415   4.781  11.639
24079SOL    HW272264   4.513   4.723  11.522
24080SOL     OW72265   4.134   4.537  12.423
24080SOL    HW172266   4.220   4.549  12.473
24080SOL    HW272267   4.092   4.450  12.450
24081SOL     OW72268   4.998   4.110  12.434
24081SOL    HW172269   5.019   4.184  12.498
24081SOL    HW272270   4.909   4.127  12.391
24082SOL     OW72271   3.788   5.288  12.503
24082SOL    HW172272   3.742   5.370  12.469
24082SOL    HW272273   3.886   5.307  12.512
24083SOL     OW72274   4.091   4.824  11.673
24083SOL    HW172275   4.084   4.907  11.617
24083SOL    HW272276   4.095   4.744  11.613
24084SOL     OW72277   4.290   4.261  12.037
24084SOL    HW172278   4.302   4.327  11.963
24084SOL    HW272279   4.336   4.295  12.120
24085SOL     OW72280   4.976   5.072  11.560
24085SOL    HW172281   5.026   5.149  11.600
24085SOL    HW272282   4.881   5.074  11.592
24086SOL     OW72283   4.996   5.169  12.314
24086SOL    HW172284   5.043   5.182  12.401
24086SOL    HW272285   4.930   5.095  12.323
24087SOL     OW72286   5.306   4.363  11.644
24087SOL    HW172287   5.275   4.424  11.717
24087SOL    HW272288   5.356   4.415  11.575
24088SOL     OW72289   4.078   5.234  12.501
24088SOL    HW172290   4.057   5.190  12.414
24088SOL    HW272291   4.175   5.260  12.504
24089SOL     OW72292   4.126   4.475  12.770
24089SOL    HW172293   4.194   4.530  12.723
24089SOL    HW272294   4.166   4.387  12.797
24090SOL     OW72295   5.311   4.503  12.842
24090SOL    HW172296   5.219   4.541  12.837
24090SOL    HW272297   5.371   4.550  12.777
24091SOL     OW72298   4.297   4.594  12.201
24091SOL    HW172299   4.341   4.683  12.192
24091SOL    HW272300   4.234   4.594  12.278
24092SOL     OW72301   5.084   4.586  12.217
24092SOL    HW172302   5.009   4.586  12.151
24092SOL    HW272303   5.121   4.494  12.226
24093SOL     OW72304   4.933   4.249  11.447
24093SOL    HW172305   4.946   4.165  11.501
24093SOL    HW272306   4.904   4.323  11.507
24094SOL     OW72307   4.031   3.937  12.403
24094SOL    HW172308   4.008   3.974  12.493
24094SOL    HW272309   4.001   3.842  12.397
24095SOL     OW72310   3.761   5.034  12.454
24095SOL    HW172311   3.814   4.985  12.522
24095SOL    HW272312   3.783   5.132  12.459
24096SOL     OW72313   4.456   4.358  12.236
24096SOL    HW172314   4.515   4.332  12.160
24096SOL    HW272315   4.428   4.454  12.225
24097SOL     OW72316   4.031   3.787  11.790
24097SOL    HW172317   4.020   3.881  11.823
24097SOL    HW272318   4.026   3.724  11.867
24098SOL     OW72319   5.346   4.091  11.546
24098SOL    HW172320   5.348   4.015  11.610
24098SOL    HW272321   5.298   4.168  11.586
24099SOL     OW72322   4.747   4.490  12.138
24099SOL    HW172323   4.762   4.511  12.234
24099SOL    HW272324   4.717   4.395  12.129
24100SOL     OW72325   4.704   5.297  12.872
24100SOL    HW172326   4.684   5.341  12.784
24100SOL    HW272327   4.743   5.206  12.856
24101SOL     OW72328   5.264   3.998  11.297
24101SOL    HW172329   5.203   3.923  11.320
24101SOL    HW272330   5.286   4.050  11.380
24102SOL     OW72331   5.027   4.562  11.214
24102SOL    HW172332   5.061   4.469  11.229
24102SOL    HW272333   5.045   4.589  11.119
24103SOL     OW72334   4.792   5.057  12.021
24103SOL    HW172335   4.799   4.973  11.966
24103SOL    HW272336   4.854   5.126  11.985
24104SOL     OW72337   4.043   4.534  12.121
24104SOL    HW172338   4.136   4.570  12.126
24104SOL    HW272339   4.037   4.449  12.173
24105SOL     OW72340   4.063   4.233  12.178
24105SOL    HW172341   4.011   4.150  12.161
24105SOL    HW272342   4.140   4.238  12.114
24106SOL     OW72343   4.862   4.104  12.850
24106SOL    HW172344   4.817   4.167  12.914
24106SOL    HW272345   4.955   4.135  12.833
24107SOL     OW72346   4.884   3.931  12.649
24107SOL    HW172347   4.884   3.995  12.726
24107SOL    HW272348   4.912   3.979  12.566
24108SOL     OW72349   3.732   5.050  11.372
24108SOL    HW172350   3.639   5.071  11.341
24108SOL    HW272351   3.742   4.951  11.385
24109SOL     OW72352   3.812   5.525  12.099
24109SOL    HW172353   3.770   5.439  12.072
24109SOL    HW272354   3.906   5.528  12.065
24110SOL     OW72355   4.228   5.292  12.082
24110SOL    HW172356   4.294   5.366  12.091
24110SOL    HW272357   4.272   5.213  12.040
24111SOL     OW72358   4.726   4.520  12.410
24111SOL    HW172359   4.767   4.488  12.496
24111SOL    HW272360   4.630   4.493  12.407
24112SOL     OW72361   3.764   4.268  12.286
24112SOL    HW172362   3.849   4.235  12.245
24112SOL    HW272363   3.777   4.283  12.384
24113SOL     OW72364   4.539   4.296  11.497
24113SOL    HW172365   4.546   4.207  11.451
24113SOL    HW272366   4.445   4.330  11.489
24114SOL     OW72367   5.381   4.328  12.378
24114SOL    HW172368   5.343   4.259  12.440
24114SOL    HW272369   5.463   4.292  12.334
24115SOL     OW72370   4.395   4.188  12.441
24115SOL    HW172371   4.361   4.099  12.411
24115SOL    HW272372   4.421   4.242  12.361
24116SOL     OW72373   4.654   5.402  12.637
24116SOL    HW172374   4.630   5.384  12.542
24116SOL    HW272375   4.684   5.496  12.647
24117SOL     OW72376   4.197   4.224  11.363
24117SOL    HW172377   4.258   4.304  11.367
24117SOL    HW272378   4.102   4.255  11.370
24118SOL     OW72379   3.883   4.861  12.638
24118SOL    HW172380   3.905   4.800  12.714
24118SOL    HW272381   3.893   4.812  12.552
24119SOL     OW72382   5.071   4.783  12.406
24119SOL    HW172383   5.095   4.720  12.332
24119SOL    HW272384   4.981   4.823  12.388
24120SOL     OW72385   5.026   4.579  11.481
24120SOL    HW172386   4.940   4.548  11.523
24120SOL    HW272387   5.022   4.565  11.382
24121SOL     OW72388   5.483   5.471  12.326
24121SOL    HW172389   5.544   5.501  12.253
24121SOL    HW272390   5.445   5.382  12.304
24122SOL     OW72391   4.976   5.455  12.300
24122SOL    HW172392   5.060   5.460  12.246
24122SOL    HW272393   4.953   5.359  12.318
24123SOL     OW72394   3.807   4.982  12.194
24123SOL    HW172395   3.802   4.981  12.294
24123SOL    HW272396   3.724   4.941  12.156
24124SOL     OW72397   5.450   3.859  11.695
24124SOL    HW172398   5.523   3.842  11.628
24124SOL    HW272399   5.419   3.772  11.733
24125SOL     OW72400   5.112   5.297  11.649
24125SOL    HW172401   5.179   5.309  11.575
24125SOL    HW272402   5.072   5.386  11.672
24126SOL     OW72403   5.004   4.651  11.844
24126SOL    HW172404   5.064   4.570  11.846
24126SOL    HW272405   5.044   4.720  11.784
24127SOL     OW72406   4.396   5.340  11.326
24127SOL    HW172407   4.405   5.350  11.227
24127SOL    HW272408   4.356   5.251  11.347
24128SOL     OW72409   5.374   5.444  12.566
24128SOL    HW172410   5.427   5.454  12.482
24128SOL    HW272411   5.347   5.534  12.600
24129SOL     OW72412   5.565   3.899  12.135
24129SOL    HW172413   5.604   3.814  12.099
24129SOL    HW272414   5.467   3.901  12.116
24130SOL     OW72415   3.987   4.050  11.892
24130SOL    HW172416   3.908   4.101  11.858
24130SOL    HW272417   3.978   4.035  11.990
24131SOL     OW72418   4.918   5.336  11.203
24131SOL    HW172419   4.924   5.243  11.240
24131SOL    HW272420   4.859   5.336  11.123
24132SOL     OW72421   4.546   4.726  12.544
24132SOL    HW172422   4.586   4.725  12.452
24132SOL    HW272423   4.556   4.818  12.584
24133SOL     OW72424   4.640   4.634  11.463
24133SOL    HW172425   4.703   4.672  11.395
24133SOL    HW272426   4.680   4.551  11.502
24134SOL     OW72427   5.228   5.331  11.216
24134SOL    HW172428   5.136   5.368  11.223
24134SOL    HW272429   5.266   5.351  11.126
24135SOL     OW72430   4.096   5.012  12.662
24135SOL    HW172431   4.083   5.105  12.628
24135SOL    HW272432   4.012   4.960  12.649
24136SOL     OW72433   5.338   5.016  12.461
24136SOL    HW172434   5.398   5.019  12.541
24136SOL    HW272435   5.263   5.080  12.474
24137SOL     OW72436   4.763   4.822  11.868
24137SOL    HW172437   4.693   4.775  11.922
24137SOL    HW272438   4.822   4.754  11.825
24138SOL     OW72439   4.738   3.960  12.143
24138SOL    HW172440   4.730   3.924  12.050
24138SOL    HW272441   4.736   3.884  12.208
24139SOL     OW72442   4.314   5.211  11.663
24139SOL    HW172443   4.356   5.153  11.593
24139SOL    HW272444   4.270   5.290  11.619
24140SOL     OW72445   5.433   4.109  12.553
24140SOL    HW172446   5.506   4.178  12.557
24140SOL    HW272447   5.461   4.034  12.494
24141SOL     OW72448   3.979   5.072  11.462
24141SOL    HW172449   3.883   5.073  11.435
24141SOL    HW272450   3.991   5.125  11.546
24142SOL     OW72451   3.799   4.069  11.205
24142SOL    HW172452   3.707   4.041  11.176
24142SOL    HW272453   3.830   4.146  11.149
24143SOL     OW72454   5.164   4.580  12.570
24143SOL    HW172455   5.107   4.632  12.507
24143SOL    HW272456   5.260   4.592  12.546
24144SOL     OW72457   3.796   3.890  11.490
24144SOL    HW172458   3.779   3.973  11.436
24144SOL    HW272459   3.886   3.853  11.468
24145SOL     OW72460   4.907   5.059  11.291
24145SOL    HW172461   4.808   5.048  11.293
24145SOL    HW272462   4.941   5.074  11.384
24146SOL     OW72463   4.337   4.566  12.603
24146SOL    HW172464   4.393   4.647  12.586
24146SOL    HW272465   4.396   4.486  12.606
24147SOL     OW72466   5.217   5.491  12.131
24147SOL    HW172467   5.250   5.555  12.062
24147SOL    HW272468   5.283   5.485  12.206
24148SOL     OW72469   4.114   5.465  12.732
24148SOL    HW172470   4.023   5.506  12.730
24148SOL    HW272471   4.107   5.371  12.764
24149SOL     OW72472   5.398   4.607  12.426
24149SOL    HW172473   5.371   4.518  12.389
24149SOL    HW272474   5.399   4.675  12.353
24150SOL     OW72475   4.949   4.049  11.621
24150SOL    HW172476   5.014   3.975  11.610
24150SOL    HW272477   4.969   4.099  11.705
24151SOL     OW72478   4.318   4.469  11.824
24151SOL    HW172479   4.368   4.554  11.805
24151SOL    HW272480   4.230   4.471  11.776
24152SOL     OW72481   5.501   4.066  12.814
24152SOL    HW172482   5.484   4.097  12.720
24152SOL    HW272483   5.417   4.029  12.852
24153SOL     OW72484   5.454   4.658  12.689
24153SOL    HW172485   5.492   4.749  12.704
24153SOL    HW272486   5.446   4.641  12.590
24154SOL     OW72487   4.583   5.098  11.188
24154SOL    HW172488   4.537   5.113  11.276
24154SOL    HW272489   4.627   5.183  11.158
24155SOL     OW72490   4.385   5.514  12.125
24155SOL    HW172491   4.339   5.602  12.112
24155SOL    HW272492   4.484   5.526  12.118
24156SOL     OW72493   4.583   4.680  12.033
24156SOL    HW172494   4.637   4.611  12.081
24156SOL    HW272495   4.551   4.749  12.099
24157SOL     OW72496   4.807   4.708  11.259
24157SOL    HW172497   4.784   4.761  11.177
24157SOL    HW272498   4.888   4.652  11.240
24158SOL     OW72499   5.585   5.293  12.023
24158SOL    HW172500   5.514   5.281  11.953
24158SOL    HW272501   5.586   5.214  12.083
24159SOL     OW72502   3.803   4.964  11.825
24159SOL    HW172503   3.802   4.917  11.913
24159SOL    HW272504   3.885   4.936  11.774
24160SOL     OW72505   5.548   3.916  12.399
24160SOL    HW172506   5.544   3.826  12.443
24160SOL    HW272507   5.551   3.905  12.300
24161SOL     OW72508   4.152   4.148  11.692
24161SOL    HW172509   4.182   4.076  11.630
24161SOL    HW272510   4.113   4.108  11.775
24162SOL     OW72511   5.429   5.211  12.276
24162SOL    HW172512   5.336   5.186  12.249
24162SOL    HW272513   5.455   5.161  12.358
24163SOL     OW72514   4.041   4.271  12.452
24163SOL    HW172515   4.079   4.212  12.524
24163SOL    HW272516   4.081   4.245  12.364
24164SOL     OW72517   4.536   5.310  11.859
24164SOL    HW172518   4.568   5.320  11.765
24164SOL    HW272519   4.457   5.248  11.861
24165SOL     OW72520   5.148   3.938  12.284
24165SOL    HW172521   5.200   3.873  12.339
24165SOL    HW272522   5.099   4.001  12.345
24166SOL     OW72523   4.725   3.758  12.326
24166SOL    HW172524   4.662   3.686  12.295
24166SOL    HW272525   4.818   3.722  12.326
24167SOL     OW72526   4.494   5.054  11.473
24167SOL    HW172527   4.448   4.967  11.490
24167SOL    HW272528   4.585   5.051  11.514
24168SOL     OW72529   4.342   5.291  12.456
24168SOL    HW172530   4.337   5.373  12.513
24168SOL    HW272531   4.431   5.288  12.411
24169SOL     OW72532   5.076   3.776  11.340
24169SOL    HW172533   5.111   3.735  11.256
24169SOL    HW272534   4.986   3.738  11.360
24170SOL     OW72535   5.024   4.177  11.863
24170SOL    HW172536   4.965   4.257  11.867
24170SOL    HW272537   5.039   4.142  11.956
24171SOL     OW72538   5.317   3.945  12.054
24171SOL    HW172539   5.233   3.944  12.108
24171SOL    HW272540   5.319   4.028  11.998
24172SOL     OW72541   3.763   4.801  11.472
24172SOL    HW172542   3.862   4.790  11.463
24172SOL    HW272543   3.723   4.715  11.504
24173SOL     OW72544   4.599   5.370  11.509
24173SOL    HW172545   4.522   5.335  11.455
24173SOL    HW272546   4.567   5.441  11.571
24174SOL     OW72547   3.954   6.214   0.113
24174SOL    HW172548   3.861   6.212   0.150
24174SOL    HW272549   3.955   6.175   0.021
24175SOL     OW72550   3.949   5.861   0.996
24175SOL    HW172551   3.984   5.844   1.088
24175SOL    HW272552   3.861   5.816   0.984
24176SOL     OW72553   3.743   5.954   0.647
24176SOL    HW172554   3.661   5.997   0.686
24176SOL    HW272555   3.715   5.881   0.584
24177SOL     OW72556   4.293   6.861   1.165
24177SOL    HW172557   4.200   6.854   1.128
24177SOL    HW272558   4.304   6.950   1.209
24178SOL     OW72559   5.279   7.097   0.703
24178SOL    HW172560   5.222   7.081   0.784
24178SOL    HW272561   5.220   7.107   0.623
24179SOL     OW72562   4.859   6.289   0.717
24179SOL    HW172563   4.916   6.367   0.692
24179SOL    HW272564   4.799   6.315   0.793
24180SOL     OW72565   5.479   6.193   0.231
24180SOL    HW172566   5.467   6.180   0.132
24180SOL    HW272567   5.449   6.112   0.280
24181SOL     OW72568   4.492   6.730   1.023
24181SOL    HW172569   4.414   6.747   1.083
24181SOL    HW272570   4.526   6.817   0.987
24182SOL     OW72571   4.574   6.384   1.823
24182SOL    HW172572   4.570   6.460   1.888
24182SOL    HW272573   4.596   6.420   1.732
24183SOL     OW72574   4.409   6.598   0.665
24183SOL    HW172575   4.478   6.582   0.735
24183SOL    HW272576   4.336   6.655   0.703
24184SOL     OW72577   4.410   6.747   1.803
24184SOL    HW172578   4.470   6.826   1.817
24184SOL    HW272579   4.324   6.778   1.762
24185SOL     OW72580   4.059   7.021   1.061
24185SOL    HW172581   3.981   6.990   1.008
24185SOL    HW272582   4.117   7.079   1.004
24186SOL     OW72583   5.184   7.091   1.339
24186SOL    HW172584   5.208   7.185   1.365
24186SOL    HW272585   5.168   7.037   1.421
24187SOL     OW72586   4.162   5.978   1.499
24187SOL    HW172587   4.244   5.922   1.508
24187SOL    HW272588   4.081   5.920   1.503
24188SOL     OW72589   5.327   6.033   0.737
24188SOL    HW172590   5.253   6.079   0.687
24188SOL    HW272591   5.378   6.101   0.790
24189SOL     OW72592   3.955   7.299   0.483
24189SOL    HW172593   3.989   7.376   0.537
24189SOL    HW272594   3.999   7.299   0.393
24190SOL     OW72595   4.851   6.927   1.690
24190SOL    HW172596   4.898   6.927   1.778
24190SOL    HW272597   4.803   6.840   1.679
24191SOL     OW72598   3.954   7.020   0.538
24191SOL    HW172599   3.928   7.116   0.538
24191SOL    HW272600   3.883   6.966   0.583
24192SOL     OW72601   3.964   6.677   0.886
24192SOL    HW172602   3.978   6.593   0.938
24192SOL    HW272603   3.909   6.741   0.941
24193SOL     OW72604   4.344   7.372   1.439
24193SOL    HW172605   4.252   7.355   1.474
24193SOL    HW272606   4.372   7.464   1.465
24194SOL     OW72607   4.330   6.550   0.123
24194SOL    HW172608   4.337   6.634   0.069
24194SOL    HW272609   4.376   6.563   0.211
24195SOL     OW72610   5.318   5.700   1.480
24195SOL    HW172611   5.300   5.767   1.408
24195SOL    HW272612   5.315   5.746   1.569
24196SOL     OW72613   3.846   6.229   0.563
24196SOL    HW172614   3.801   6.141   0.580
24196SOL    HW272615   3.845   6.283   0.647
24197SOL     OW72616   5.566   7.353   0.359
24197SOL    HW172617   5.620   7.324   0.439
24197SOL    HW272618   5.596   7.443   0.330
24198SOL     OW72619   3.751   7.182   0.117
24198SOL    HW172620   3.732   7.086   0.138
24198SOL    HW272621   3.718   7.240   0.192
24199SOL     OW72622   5.413   6.508   0.612
24199SOL    HW172623   5.508   6.479   0.620
24199SOL    HW272624   5.405   6.573   0.537
24200SOL     OW72625   5.365   6.694   0.432
24200SOL    HW172626   5.451   6.696   0.380
24200SOL    HW272627   5.379   6.741   0.520
24201SOL     OW72628   3.837   6.323   1.597
24201SOL    HW172629   3.925   6.310   1.642
24201SOL    HW272630   3.824   6.420   1.575
24202SOL     OW72631   4.337   6.951   0.726
24202SOL    HW172632   4.288   6.864   0.735
24202SOL    HW272633   4.314   6.994   0.639
24203SOL     OW72634   5.017   6.814   1.423
24203SOL    HW172635   5.054   6.741   1.365
24203SOL    HW272636   5.069   6.819   1.508
24204SOL     OW72637   4.533   5.590   0.502
24204SOL    HW172638   4.573   5.681   0.493
24204SOL    HW272639   4.433   5.598   0.508
24205SOL     OW72640   3.921   6.562   1.264
24205SOL    HW172641   4.010   6.517   1.250
24205SOL    HW272642   3.848   6.497   1.245
24206SOL     OW72643   5.249   6.585   0.190
24206SOL    HW172644   5.186   6.509   0.203
24206SOL    HW272645   5.297   6.603   0.276
24207SOL     OW72646   4.911   7.378   1.616
24207SOL    HW172647   4.935   7.438   1.540
24207SOL    HW272648   4.918   7.283   1.586
24208SOL     OW72649   4.041   5.837   1.801
24208SOL    HW172650   4.112   5.908   1.807
24208SOL    HW272651   3.953   5.876   1.829
24209SOL     OW72652   5.190   7.003   0.953
24209SOL    HW172653   5.131   7.009   1.033
24209SOL    HW272654   5.175   6.915   0.907
24210SOL     OW72655   5.391   7.300   0.572
24210SOL    HW172656   5.350   7.277   0.484
24210SOL    HW272657   5.373   7.226   0.637
24211SOL     OW72658   4.322   6.315   0.270
24211SOL    HW172659   4.346   6.384   0.202
24211SOL    HW272660   4.244   6.348   0.324
24212SOL     OW72661   5.005   5.931   0.944
24212SOL    HW172662   4.919   5.881   0.931
24212SOL    HW272663   5.067   5.877   1.000
24213SOL     OW72664   5.300   7.248   0.307
24213SOL    HW172665   5.389   7.294   0.310
24213SOL    HW272666   5.279   7.224   0.212
24214SOL     OW72667   4.531   6.191   1.465
24214SOL    HW172668   4.484   6.188   1.554
24214SOL    HW272669   4.480   6.136   1.399
24215SOL     OW72670   5.118   6.055   1.674
24215SOL    HW172671   5.098   6.098   1.762
24215SOL    HW272672   5.196   5.993   1.683
24216SOL     OW72673   4.697   6.476   1.572
24216SOL    HW172674   4.743   6.392   1.543
24216SOL    HW272675   4.641   6.510   1.497
24217SOL     OW72676   4.715   5.996   1.242
24217SOL    HW172677   4.638   6.030   1.296
24217SOL    HW272678   4.681   5.945   1.163
24218SOL     OW72679   4.765   6.287   0.429
24218SOL    HW172680   4.791   6.283   0.525
24218SOL    HW272681   4.680   6.236   0.415
24219SOL     OW72682   3.800   6.397   0.789
24219SOL    HW172683   3.899   6.385   0.798
24219SOL    HW272684   3.776   6.492   0.810
24220SOL     OW72685   3.854   7.407   1.571
24220SOL    HW172686   3.844   7.392   1.670
24220SOL    HW272687   3.768   7.443   1.535
24221SOL     OW72688   4.589   5.934   0.195
24221SOL    HW172689   4.648   5.997   0.146
24221SOL    HW272690   4.608   5.840   0.166
24222SOL     OW72691   5.443   6.171   1.831
24222SOL    HW172692   5.417   6.260   1.795
24222SOL    HW272693   5.441   6.103   1.758
24223SOL     OW72694   5.086   6.730   0.545
24223SOL    HW172695   5.169   6.701   0.497
24223SOL    HW272696   5.037   6.797   0.489
24224SOL     OW72697   4.274   5.782   0.885
24224SOL    HW172698   4.269   5.777   0.985
24224SOL    HW272699   4.276   5.878   0.856
24225SOL     OW72700   4.732   7.042   0.477
24225SOL    HW172701   4.686   7.114   0.425
24225SOL    HW272702   4.728   7.062   0.575
24226SOL     OW72703   4.075   7.387   0.853
24226SOL    HW172704   4.125   7.301   0.859
24226SOL    HW272705   4.140   7.464   0.850
24227SOL     OW72706   5.519   6.652   0.873
24227SOL    HW172707   5.457   6.637   0.797
24227SOL    HW272708   5.467   6.663   0.958
24228SOL     OW72709   4.951   7.136   1.506
24228SOL    HW172710   4.957   7.059   1.570
24228SOL    HW272711   4.899   7.110   1.426
24229SOL     OW72712   4.045   6.529   0.242
24229SOL    HW172713   4.127   6.568   0.200
24229SOL    HW272714   4.018   6.447   0.193
24230SOL     OW72715   5.182   6.321   0.728
24230SOL    HW172716   5.177   6.256   0.803
24230SOL    HW272717   5.262   6.380   0.741
24231SOL     OW72718   4.185   6.852   1.727
24231SOL    HW172719   4.135   6.853   1.641
24231SOL    HW272720   4.122   6.834   1.803
24232SOL     OW72721   4.835   7.362   0.237
24232SOL    HW172722   4.775   7.300   0.287
24232SOL    HW272723   4.866   7.318   0.152
24233SOL     OW72724   3.926   5.871   1.498
24233SOL    HW172725   3.846   5.931   1.485
24233SOL    HW272726   3.916   5.822   1.584
24234SOL     OW72727   5.356   6.963   0.081
24234SOL    HW172728   5.324   7.057   0.071
24234SOL    HW272729   5.280   6.900   0.069
24235SOL     OW72730   4.188   7.329   0.323
24235SOL    HW172731   4.221   7.368   0.409
24235SOL    HW272732   4.264   7.322   0.258
24236SOL     OW72733   5.124   5.693   0.426
24236SOL    HW172734   5.100   5.656   0.336
24236SOL    HW272735   5.223   5.709   0.430
24237SOL     OW72736   3.973   7.371   1.241
24237SOL    HW172737   4.030   7.306   1.291
24237SOL    HW272738   3.957   7.338   1.148
24238SOL     OW72739   4.664   7.284   0.904
24238SOL    HW172740   4.744   7.227   0.925
24238SOL    HW272741   4.615   7.244   0.827
24239SOL     OW72742   4.106   6.286   0.480
24239SOL    HW172743   4.151   6.196   0.477
24239SOL    HW272744   4.012   6.275   0.513
24240SOL     OW72745   5.271   5.808   1.729
24240SOL    HW172746   5.266   5.845   1.821
24240SOL    HW272747   5.199   5.739   1.717
24241SOL     OW72748   4.338   5.708   0.117
24241SOL    HW172749   4.436   5.686   0.124
24241SOL    HW272750   4.307   5.691   0.024
24242SOL     OW72751   4.505   5.850   1.749
24242SOL    HW172752   4.572   5.789   1.792
24242SOL    HW272753   4.432   5.869   1.814
24243SOL     OW72754   4.612   7.100   1.195
24243SOL    HW172755   4.589   7.075   1.101
24243SOL    HW272756   4.673   7.031   1.234
24244SOL     OW72757   5.075   6.176   1.433
24244SOL    HW172758   5.103   6.133   1.518
24244SOL    HW272759   5.100   6.272   1.434
24245SOL     OW72760   4.527   6.988   0.924
24245SOL    HW172761   4.617   7.002   0.882
24245SOL    HW272762   4.456   6.990   0.853
24246SOL     OW72763   4.646   6.089   0.899
24246SOL    HW172764   4.621   6.080   0.803
24246SOL    HW272765   4.694   6.007   0.930
24247SOL     OW72766   4.263   5.650   0.512
24247SOL    HW172767   4.182   5.651   0.570
24247SOL    HW272768   4.266   5.733   0.457
24248SOL     OW72769   5.158   6.774   0.041
24248SOL    HW172770   5.190   6.698   0.098
24248SOL    HW272771   5.066   6.801   0.071
24249SOL     OW72772   4.021   5.621   0.171
24249SOL    HW172773   4.070   5.705   0.150
24249SOL    HW272774   4.083   5.556   0.216
24250SOL     OW72775   4.659   5.822   0.480
24250SOL    HW172776   4.611   5.863   0.402
24250SOL    HW272777   4.758   5.820   0.461
24251SOL     OW72778   4.800   6.269   1.464
24251SOL    HW172779   4.720   6.208   1.467
24251SOL    HW272780   4.881   6.216   1.440
24252SOL     OW72781   4.951   7.156   0.793
24252SOL    HW172782   4.972   7.230   0.728
24252SOL    HW272783   5.019   7.156   0.866
24253SOL     OW72784   4.183   6.738   0.741
24253SOL    HW172785   4.112   6.711   0.806
24253SOL    HW272786   4.157   6.710   0.648
24254SOL     OW72787   4.995   7.383   0.591
24254SOL    HW172788   5.039   7.447   0.527
24254SOL    HW272789   4.945   7.435   0.661
24255SOL     OW72790   4.756   6.135   0.016
24255SOL    HW172791   4.715   6.217  -0.023
24255SOL    HW272792   4.820   6.161   0.089
24256SOL     OW72793   3.802   6.142   1.386
24256SOL    HW172794   3.894   6.141   1.345
24256SOL    HW272795   3.796   6.216   1.453
24257SOL     OW72796   4.285   5.808   1.147
24257SOL    HW172797   4.323   5.724   1.184
24257SOL    HW272798   4.197   5.827   1.191
24258SOL     OW72799   4.590   6.040   0.642
24258SOL    HW172800   4.558   6.112   0.580
24258SOL    HW272801   4.614   5.959   0.589
24259SOL     OW72802   4.741   5.625   0.753
24259SOL    HW172803   4.669   5.630   0.684
24259SOL    HW272804   4.717   5.556   0.822
24260SOL     OW72805   5.153   6.759   0.867
24260SOL    HW172806   5.098   6.675   0.860
24260SOL    HW272807   5.179   6.788   0.775
24261SOL     OW72808   5.190   6.176   0.992
24261SOL    HW172809   5.160   6.081   0.999
24261SOL    HW272810   5.263   6.192   1.058
24262SOL     OW72811   5.581   6.419   0.377
24262SOL    HW172812   5.623   6.355   0.441
24262SOL    HW272813   5.543   6.368   0.299
24263SOL     OW72814   4.212   6.971   0.174
24263SOL    HW172815   4.125   6.956   0.221
24263SOL    HW272816   4.195   6.997   0.079
24264SOL     OW72817   5.388   6.866   0.657
24264SOL    HW172818   5.487   6.874   0.671
24264SOL    HW272819   5.343   6.950   0.688
24265SOL     OW72820   5.114   6.161   0.078
24265SOL    HW172821   5.060   6.140   0.159
24265SOL    HW272822   5.205   6.120   0.087
24266SOL     OW72823   4.251   5.842   0.328
24266SOL    HW172824   4.278   5.783   0.253
24266SOL    HW272825   4.251   5.937   0.297
24267SOL     OW72826   5.478   6.809   1.588
24267SOL    HW172827   5.569   6.770   1.575
24267SOL    HW272828   5.486   6.905   1.612
24268SOL     OW72829   4.788   6.933   1.340
24268SOL    HW172830   4.708   6.910   1.395
24268SOL    HW272831   4.871   6.907   1.389
24269SOL     OW72832   5.316   7.215   1.625
24269SOL    HW172833   5.343   7.249   1.535
24269SOL    HW272834   5.395   7.177   1.671
24270SOL     OW72835   4.835   6.781   1.100
24270SOL    HW172836   4.795   6.825   1.181
24270SOL    HW272837   4.794   6.818   1.017
24271SOL     OW72838   5.362   6.685   1.079
24271SOL    HW172839   5.367   6.766   1.138
24271SOL    HW272840   5.276   6.687   1.028
24272SOL     OW72841   4.639   5.675   1.402
24272SOL    HW172842   4.664   5.655   1.307
24272SOL    HW272843   4.711   5.731   1.444
24273SOL     OW72844   4.704   6.702   1.719
24273SOL    HW172845   4.605   6.708   1.729
24273SOL    HW272846   4.727   6.622   1.663
24274SOL     OW72847   4.429   6.636   0.368
24274SOL    HW172848   4.415   6.643   0.467
24274SOL    HW272849   4.513   6.585   0.350
24275SOL     OW72850   4.134   6.399   1.251
24275SOL    HW172851   4.220   6.411   1.301
24275SOL    HW272852   4.092   6.312   1.278
24276SOL     OW72853   4.998   5.972   1.262
24276SOL    HW172854   5.019   6.046   1.326
24276SOL    HW272855   4.909   5.989   1.219
24277SOL     OW72856   3.788   7.150   1.331
24277SOL    HW172857   3.742   7.232   1.297
24277SOL    HW272858   3.886   7.169   1.340
24278SOL     OW72859   4.091   6.686   0.501
24278SOL    HW172860   4.084   6.769   0.445
24278SOL    HW272861   4.095   6.606   0.441
24279SOL     OW72862   4.290   6.123   0.865
24279SOL    HW172863   4.302   6.189   0.791
24279SOL    HW272864   4.336   6.157   0.948
24280SOL     OW72865   4.976   6.934   0.388
24280SOL    HW172866   5.026   7.011   0.428
24280SOL    HW272867   4.881   6.936   0.420
24281SOL     OW72868   4.996   7.031   1.142
24281SOL    HW172869   5.043   7.044   1.229
24281SOL    HW272870   4.930   6.957   1.151
24282SOL     OW72871   5.306   6.225   0.472
24282SOL    HW172872   5.275   6.286   0.545
24282SOL    HW272873   5.356   6.277   0.403
24283SOL     OW72874   4.078   7.096   1.329
24283SOL    HW172875   4.057   7.052   1.242
24283SOL    HW272876   4.175   7.122   1.332
24284SOL     OW72877   4.126   6.337   1.598
24284SOL    HW172878   4.194   6.392   1.551
24284SOL    HW272879   4.166   6.249   1.625
24285SOL     OW72880   5.311   6.365   1.670
24285SOL    HW172881   5.219   6.403   1.665
24285SOL    HW272882   5.371   6.412   1.605
24286SOL     OW72883   4.737   5.691   1.770
24286SOL    HW172884   4.743   5.776   1.718
24286SOL    HW272885   4.769   5.615   1.713
24287SOL     OW72886   4.228   5.636   1.740
24287SOL    HW172887   4.186   5.579   1.670
24287SOL    HW272888   4.162   5.705   1.772
24288SOL     OW72889   4.297   6.456   1.029
24288SOL    HW172890   4.341   6.545   1.020
24288SOL    HW272891   4.234   6.456   1.106
24289SOL     OW72892   5.084   6.448   1.045
24289SOL    HW172893   5.009   6.448   0.979
24289SOL    HW272894   5.121   6.356   1.054
24290SOL     OW72895   4.933   6.111   0.275
24290SOL    HW172896   4.946   6.027   0.329
24290SOL    HW272897   4.904   6.185   0.335
24291SOL     OW72898   4.031   5.799   1.231
24291SOL    HW172899   4.008   5.836   1.321
24291SOL    HW272900   4.001   5.704   1.225
24292SOL     OW72901   3.761   6.896   1.282
24292SOL    HW172902   3.814   6.847   1.350
24292SOL    HW272903   3.783   6.994   1.287
24293SOL     OW72904   4.456   6.220   1.064
24293SOL    HW172905   4.515   6.194   0.988
24293SOL    HW272906   4.428   6.316   1.053
24294SOL     OW72907   5.452   6.521   1.854
24294SOL    HW172908   5.406   6.514   1.765
24294SOL    HW272909   5.390   6.565   1.920
24295SOL     OW72910   4.031   5.649   0.618
24295SOL    HW172911   4.020   5.743   0.651
24295SOL    HW272912   4.026   5.586   0.695
24296SOL     OW72913   5.346   5.953   0.374
24296SOL    HW172914   5.348   5.877   0.438
24296SOL    HW272915   5.298   6.030   0.414
24297SOL     OW72916   4.747   6.352   0.966
24297SOL    HW172917   4.762   6.373   1.062
24297SOL    HW272918   4.717   6.257   0.957
24298SOL     OW72919   4.704   7.159   1.700
24298SOL    HW172920   4.684   7.203   1.612
24298SOL    HW272921   4.743   7.068   1.684
24299SOL     OW72922   5.583   7.104   1.605
24299SOL    HW172923   5.597   7.131   1.510
24299SOL    HW272924   5.666   7.126   1.658
24300SOL     OW72925   4.074   6.484   1.804
24300SOL    HW172926   4.150   6.528   1.852
24300SOL    HW272927   4.109   6.437   1.722
24301SOL     OW72928   5.264   5.860   0.125
24301SOL    HW172929   5.203   5.785   0.148
24301SOL    HW272930   5.286   5.912   0.208
24302SOL     OW72931   5.027   6.424   0.042
24302SOL    HW172932   5.061   6.331   0.057
24302SOL    HW272933   5.045   6.451  -0.053
24303SOL     OW72934   4.792   6.919   0.849
24303SOL    HW172935   4.799   6.835   0.794
24303SOL    HW272936   4.854   6.988   0.813
24304SOL     OW72937   4.043   6.396   0.949
24304SOL    HW172938   4.136   6.432   0.954
24304SOL    HW272939   4.037   6.311   1.001
24305SOL     OW72940   4.063   6.095   1.006
24305SOL    HW172941   4.011   6.012   0.989
24305SOL    HW272942   4.140   6.100   0.942
24306SOL     OW72943   4.862   5.966   1.678
24306SOL    HW172944   4.817   6.029   1.742
24306SOL    HW272945   4.955   5.997   1.661
24307SOL     OW72946   4.884   5.793   1.477
24307SOL    HW172947   4.884   5.857   1.554
24307SOL    HW272948   4.912   5.841   1.394
24308SOL     OW72949   3.732   6.912   0.200
24308SOL    HW172950   3.639   6.933   0.169
24308SOL    HW272951   3.742   6.813   0.213
24309SOL     OW72952   3.812   7.387   0.927
24309SOL    HW172953   3.770   7.301   0.900
24309SOL    HW272954   3.906   7.390   0.893
24310SOL     OW72955   4.228   7.154   0.910
24310SOL    HW172956   4.294   7.228   0.919
24310SOL    HW272957   4.272   7.075   0.868
24311SOL     OW72958   4.726   6.382   1.238
24311SOL    HW172959   4.767   6.350   1.324
24311SOL    HW272960   4.630   6.355   1.235
24312SOL     OW72961   3.764   6.130   1.114
24312SOL    HW172962   3.849   6.097   1.073
24312SOL    HW272963   3.777   6.145   1.212
24313SOL     OW72964   3.913   6.106   1.722
24313SOL    HW172965   3.972   6.066   1.652
24313SOL    HW272966   3.855   6.177   1.681
24314SOL     OW72967   5.093   6.536   1.660
24314SOL    HW172968   5.132   6.625   1.680
24314SOL    HW272969   5.103   6.516   1.563
24315SOL     OW72970   4.539   6.158   0.325
24315SOL    HW172971   4.546   6.069   0.279
24315SOL    HW272972   4.445   6.192   0.317
24316SOL     OW72973   5.381   6.190   1.206
24316SOL    HW172974   5.343   6.121   1.268
24316SOL    HW272975   5.463   6.154   1.162
24317SOL     OW72976   3.976   7.150   1.744
24317SOL    HW172977   3.946   7.207   1.820
24317SOL    HW272978   3.969   7.053   1.770
24318SOL     OW72979   4.395   6.050   1.269
24318SOL    HW172980   4.361   5.961   1.239
24318SOL    HW272981   4.421   6.104   1.189
24319SOL     OW72982   4.654   7.264   1.465
24319SOL    HW172983   4.630   7.246   1.370
24319SOL    HW272984   4.684   7.358   1.475
24320SOL     OW72985   4.197   6.086   0.191
24320SOL    HW172986   4.258   6.166   0.195
24320SOL    HW272987   4.102   6.117   0.198
24321SOL     OW72988   3.883   6.723   1.466
24321SOL    HW172989   3.905   6.662   1.542
24321SOL    HW272990   3.893   6.674   1.380
24322SOL     OW72991   5.071   6.645   1.234
24322SOL    HW172992   5.095   6.582   1.160
24322SOL    HW272993   4.981   6.685   1.216
24323SOL     OW72994   5.026   6.441   0.309
24323SOL    HW172995   4.940   6.410   0.351
24323SOL    HW272996   5.022   6.427   0.210
24324SOL     OW72997   5.483   7.333   1.154
24324SOL    HW172998   5.544   7.363   1.081
24324SOL    HW272999   5.445   7.244   1.132
24325SOL     OW73000   4.976   7.317   1.128
24325SOL    HW173001   5.060   7.322   1.074
24325SOL    HW273002   4.953   7.221   1.146
24326SOL     OW73003   3.807   6.844   1.022
24326SOL    HW173004   3.802   6.843   1.122
24326SOL    HW273005   3.724   6.803   0.984
24327SOL     OW73006   4.412   7.248   1.716
24327SOL    HW173007   4.356   7.329   1.725
24327SOL    HW273008   4.464   7.252   1.630
24328SOL     OW73009   4.627   5.672   0.133
24328SOL    HW173010   4.678   5.673   0.047
24328SOL    HW273011   4.683   5.630   0.204
24329SOL     OW73012   5.450   5.721   0.523
24329SOL    HW173013   5.523   5.704   0.456
24329SOL    HW273014   5.419   5.634   0.561
24330SOL     OW73015   5.112   7.159   0.477
24330SOL    HW173016   5.179   7.171   0.403
24330SOL    HW273017   5.072   7.248   0.500
24331SOL     OW73018   3.854   7.380   1.851
24331SOL    HW173019   3.813   7.306   1.904
24331SOL    HW273020   3.918   7.431   1.909
24332SOL     OW73021   5.004   6.513   0.672
24332SOL    HW173022   5.064   6.432   0.674
24332SOL    HW273023   5.044   6.582   0.612
24333SOL     OW73024   4.554   6.859   1.422
24333SOL    HW173025   4.549   6.892   1.517
24333SOL    HW273026   4.468   6.878   1.376
24334SOL     OW73027   4.396   7.202   0.154
24334SOL    HW173028   4.405   7.212   0.055
24334SOL    HW273029   4.356   7.113   0.175
24335SOL     OW73030   5.374   7.306   1.394
24335SOL    HW173031   5.427   7.316   1.310
24335SOL    HW273032   5.347   7.396   1.428
24336SOL     OW73033   5.565   5.761   0.963
24336SOL    HW173034   5.604   5.676   0.927
24336SOL    HW273035   5.467   5.763   0.944
24337SOL     OW73036   3.987   5.912   0.720
24337SOL    HW173037   3.908   5.963   0.686
24337SOL    HW273038   3.978   5.897   0.818
24338SOL     OW73039   4.918   7.198   0.031
24338SOL    HW173040   4.924   7.105   0.068
24338SOL    HW273041   4.859   7.198  -0.049
24339SOL     OW73042   4.546   6.588   1.372
24339SOL    HW173043   4.586   6.587   1.280
24339SOL    HW273044   4.556   6.680   1.412
24340SOL     OW73045   4.640   6.496   0.291
24340SOL    HW173046   4.703   6.534   0.223
24340SOL    HW273047   4.680   6.413   0.330
24341SOL     OW73048   5.228   7.193   0.044
24341SOL    HW173049   5.136   7.230   0.051
24341SOL    HW273050   5.266   7.213  -0.046
24342SOL     OW73051   4.096   6.874   1.490
24342SOL    HW173052   4.083   6.967   1.456
24342SOL    HW273053   4.012   6.822   1.477
24343SOL     OW73054   5.338   6.878   1.289
24343SOL    HW173055   5.398   6.881   1.369
24343SOL    HW273056   5.263   6.942   1.302
24344SOL     OW73057   4.763   6.684   0.696
24344SOL    HW173058   4.693   6.637   0.750
24344SOL    HW273059   4.822   6.616   0.653
24345SOL     OW73060   4.738   5.822   0.971
24345SOL    HW173061   4.730   5.786   0.878
24345SOL    HW273062   4.736   5.746   1.036
24346SOL     OW73063   4.314   7.073   0.491
24346SOL    HW173064   4.356   7.015   0.421
24346SOL    HW273065   4.270   7.152   0.447
24347SOL     OW73066   5.433   5.971   1.381
24347SOL    HW173067   5.506   6.040   1.385
24347SOL    HW273068   5.461   5.896   1.322
24348SOL     OW73069   3.979   6.934   0.290
24348SOL    HW173070   3.883   6.935   0.263
24348SOL    HW273071   3.991   6.987   0.374
24349SOL     OW73072   3.829   6.599   1.726
24349SOL    HW173073   3.752   6.566   1.780
24349SOL    HW273074   3.914   6.569   1.768
24350SOL     OW73075   4.396   5.789   1.489
24350SOL    HW173076   4.486   5.773   1.449
24350SOL    HW273077   4.404   5.794   1.588
24351SOL     OW73078   3.799   5.931   0.033
24351SOL    HW173079   3.707   5.903   0.004
24351SOL    HW273080   3.830   6.008  -0.023
24352SOL     OW73081   5.164   6.442   1.398
24352SOL    HW173082   5.107   6.494   1.335
24352SOL    HW273083   5.260   6.454   1.374
24353SOL     OW73084   3.796   5.752   0.318
24353SOL    HW173085   3.779   5.835   0.264
24353SOL    HW273086   3.886   5.715   0.296
24354SOL     OW73087   4.907   6.921   0.119
24354SOL    HW173088   4.808   6.910   0.121
24354SOL    HW273089   4.941   6.936   0.212
24355SOL     OW73090   4.337   6.428   1.431
24355SOL    HW173091   4.393   6.509   1.414
24355SOL    HW273092   4.396   6.348   1.434
24356SOL     OW73093   5.217   7.353   0.959
24356SOL    HW173094   5.250   7.417   0.890
24356SOL    HW273095   5.283   7.347   1.034
24357SOL     OW73096   4.440   6.151   1.708
24357SOL    HW173097   4.459   6.216   1.782
24357SOL    HW273098   4.500   6.071   1.717
24358SOL     OW73099   5.174   6.806   1.633
24358SOL    HW173100   5.165   6.796   1.732
24358SOL    HW273101   5.270   6.799   1.607
24359SOL     OW73102   4.114   7.327   1.560
24359SOL    HW173103   4.023   7.368   1.558
24359SOL    HW273104   4.107   7.233   1.592
24360SOL     OW73105   5.398   6.469   1.254
24360SOL    HW173106   5.371   6.380   1.217
24360SOL    HW273107   5.399   6.537   1.181
24361SOL     OW73108   4.949   5.911   0.449
24361SOL    HW173109   5.014   5.837   0.438
24361SOL    HW273110   4.969   5.961   0.533
24362SOL     OW73111   4.318   6.331   0.652
24362SOL    HW173112   4.368   6.416   0.633
24362SOL    HW273113   4.230   6.333   0.604
24363SOL     OW73114   5.501   5.928   1.642
24363SOL    HW173115   5.484   5.959   1.548
24363SOL    HW273116   5.417   5.891   1.680
24364SOL     OW73117   5.454   6.520   1.517
24364SOL    HW173118   5.492   6.611   1.532
24364SOL    HW273119   5.446   6.503   1.418
24365SOL     OW73120   4.583   6.960   0.016
24365SOL    HW173121   4.537   6.975   0.104
24365SOL    HW273122   4.627   7.045  -0.014
24366SOL     OW73123   4.385   7.376   0.953
24366SOL    HW173124   4.339   7.464   0.940
24366SOL    HW273125   4.484   7.388   0.946
24367SOL     OW73126   4.583   6.542   0.861
24367SOL    HW173127   4.637   6.473   0.909
24367SOL    HW273128   4.551   6.611   0.927
24368SOL     OW73129   4.807   6.570   0.087
24368SOL    HW173130   4.784   6.623   0.005
24368SOL    HW273131   4.888   6.514   0.068
24369SOL     OW73132   5.585   7.155   0.851
24369SOL    HW173133   5.514   7.143   0.781
24369SOL    HW273134   5.586   7.076   0.911
24370SOL     OW73135   3.945   6.900   1.844
24370SOL    HW173136   3.880   6.827   1.823
24370SOL    HW273137   3.949   6.914   1.942
24371SOL     OW73138   3.803   6.826   0.653
24371SOL    HW173139   3.802   6.779   0.741
24371SOL    HW273140   3.885   6.798   0.602
24372SOL     OW73141   4.396   6.977   1.624
24372SOL    HW173142   4.318   6.927   1.662
24372SOL    HW273143   4.393   7.072   1.655
24373SOL     OW73144   5.548   5.778   1.227
24373SOL    HW173145   5.544   5.688   1.271
24373SOL    HW273146   5.551   5.767   1.128
24374SOL     OW73147   4.152   6.010   0.520
24374SOL    HW173148   4.182   5.938   0.458
24374SOL    HW273149   4.113   5.970   0.603
24375SOL     OW73150   5.429   7.073   1.104
24375SOL    HW173151   5.336   7.048   1.077
24375SOL    HW273152   5.455   7.023   1.186
24376SOL     OW73153   4.041   6.133   1.280
24376SOL    HW173154   4.079   6.074   1.352
24376SOL    HW273155   4.081   6.107   1.192
24377SOL     OW73156   4.536   7.172   0.687
24377SOL    HW173157   4.568   7.182   0.593
24377SOL    HW273158   4.457   7.110   0.689
24378SOL     OW73159   5.148   5.800   1.112
24378SOL    HW173160   5.200   5.735   1.167
24378SOL    HW273161   5.099   5.863   1.173
24379SOL     OW73162   4.725   5.620   1.154
24379SOL    HW173163   4.662   5.548   1.123
24379SOL    HW273164   4.818   5.584   1.154
24380SOL     OW73165   4.494   6.916   0.301
24380SOL    HW173166   4.448   6.829   0.318
24380SOL    HW273167   4.585   6.913   0.342
24381SOL     OW73168   4.342   7.153   1.284
24381SOL    HW173169   4.337   7.235   1.341
24381SOL    HW273170   4.431   7.150   1.239
24382SOL     OW73171   5.076   5.638   0.168
24382SOL    HW173172   5.111   5.597   0.084
24382SOL    HW273173   4.986   5.600   0.188
24383SOL     OW73174   5.024   6.039   0.691
24383SOL    HW173175   4.965   6.119   0.695
24383SOL    HW273176   5.039   6.004   0.784
24384SOL     OW73177   5.317   5.807   0.882
24384SOL    HW173178   5.233   5.806   0.936
24384SOL    HW273179   5.319   5.890   0.826
24385SOL     OW73180   3.763   6.663   0.300
24385SOL    HW173181   3.862   6.652   0.291
24385SOL    HW273182   3.723   6.577   0.332
24386SOL     OW73183   4.599   7.232   0.337
24386SOL    HW173184   4.522   7.197   0.283
24386SOL    HW273185   4.567   7.303   0.399
24387SOL     OW73186   3.954   6.214   1.975
24387SOL    HW173187   3.861   6.212   2.012
24387SOL    HW273188   3.955   6.175   1.883
24388SOL     OW73189   3.949   5.861   2.858
24388SOL    HW173190   3.984   5.844   2.950
24388SOL    HW273191   3.861   5.816   2.846
24389SOL     OW73192   3.743   5.954   2.509
24389SOL    HW173193   3.661   5.997   2.548
24389SOL    HW273194   3.715   5.881   2.446
24390SOL     OW73195   4.293   6.861   3.027
24390SOL    HW173196   4.200   6.854   2.990
24390SOL    HW273197   4.304   6.950   3.071
24391SOL     OW73198   5.279   7.097   2.565
24391SOL    HW173199   5.222   7.081   2.646
24391SOL    HW273200   5.220   7.107   2.485
24392SOL     OW73201   4.859   6.289   2.579
24392SOL    HW173202   4.916   6.367   2.554
24392SOL    HW273203   4.799   6.315   2.655
24393SOL     OW73204   5.479   6.193   2.093
24393SOL    HW173205   5.467   6.180   1.994
24393SOL    HW273206   5.449   6.112   2.142
24394SOL     OW73207   4.492   6.730   2.885
24394SOL    HW173208   4.414   6.747   2.945
24394SOL    HW273209   4.526   6.817   2.849
24395SOL     OW73210   4.574   6.384   3.685
24395SOL    HW173211   4.570   6.460   3.750
24395SOL    HW273212   4.596   6.420   3.594
24396SOL     OW73213   4.409   6.598   2.527
24396SOL    HW173214   4.478   6.582   2.597
24396SOL    HW273215   4.336   6.655   2.565
24397SOL     OW73216   4.410   6.747   3.665
24397SOL    HW173217   4.470   6.826   3.679
24397SOL    HW273218   4.324   6.778   3.624
24398SOL     OW73219   4.059   7.021   2.923
24398SOL    HW173220   3.981   6.990   2.870
24398SOL    HW273221   4.117   7.079   2.866
24399SOL     OW73222   5.184   7.091   3.201
24399SOL    HW173223   5.208   7.185   3.227
24399SOL    HW273224   5.168   7.037   3.283
24400SOL     OW73225   4.162   5.978   3.361
24400SOL    HW173226   4.244   5.922   3.370
24400SOL    HW273227   4.081   5.920   3.365
24401SOL     OW73228   5.327   6.033   2.599
24401SOL    HW173229   5.253   6.079   2.549
24401SOL    HW273230   5.378   6.101   2.652
24402SOL     OW73231   3.955   7.299   2.345
24402SOL    HW173232   3.989   7.376   2.399
24402SOL    HW273233   3.999   7.299   2.255
24403SOL     OW73234   4.851   6.927   3.552
24403SOL    HW173235   4.898   6.927   3.640
24403SOL    HW273236   4.803   6.840   3.541
24404SOL     OW73237   3.954   7.020   2.400
24404SOL    HW173238   3.928   7.116   2.400
24404SOL    HW273239   3.883   6.966   2.445
24405SOL     OW73240   3.964   6.677   2.748
24405SOL    HW173241   3.978   6.593   2.800
24405SOL    HW273242   3.909   6.741   2.803
24406SOL     OW73243   4.344   7.372   3.301
24406SOL    HW173244   4.252   7.355   3.336
24406SOL    HW273245   4.372   7.464   3.327
24407SOL     OW73246   4.330   6.550   1.985
24407SOL    HW173247   4.337   6.634   1.931
24407SOL    HW273248   4.376   6.563   2.073
24408SOL     OW73249   5.318   5.700   3.342
24408SOL    HW173250   5.300   5.767   3.270
24408SOL    HW273251   5.315   5.746   3.431
24409SOL     OW73252   3.846   6.229   2.425
24409SOL    HW173253   3.801   6.141   2.442
24409SOL    HW273254   3.845   6.283   2.509
24410SOL     OW73255   5.566   7.353   2.221
24410SOL    HW173256   5.620   7.324   2.301
24410SOL    HW273257   5.596   7.443   2.192
24411SOL     OW73258   3.751   7.182   1.979
24411SOL    HW173259   3.732   7.086   2.000
24411SOL    HW273260   3.718   7.240   2.054
24412SOL     OW73261   5.413   6.508   2.474
24412SOL    HW173262   5.508   6.479   2.482
24412SOL    HW273263   5.405   6.573   2.399
24413SOL     OW73264   5.365   6.694   2.294
24413SOL    HW173265   5.451   6.696   2.242
24413SOL    HW273266   5.379   6.741   2.382
24414SOL     OW73267   3.837   6.323   3.459
24414SOL    HW173268   3.925   6.310   3.504
24414SOL    HW273269   3.824   6.420   3.437
24415SOL     OW73270   4.337   6.951   2.588
24415SOL    HW173271   4.288   6.864   2.597
24415SOL    HW273272   4.314   6.994   2.501
24416SOL     OW73273   5.017   6.814   3.285
24416SOL    HW173274   5.054   6.741   3.227
24416SOL    HW273275   5.069   6.819   3.370
24417SOL     OW73276   4.533   5.590   2.364
24417SOL    HW173277   4.573   5.681   2.355
24417SOL    HW273278   4.433   5.598   2.370
24418SOL     OW73279   3.921   6.562   3.126
24418SOL    HW173280   4.010   6.517   3.112
24418SOL    HW273281   3.848   6.497   3.107
24419SOL     OW73282   5.249   6.585   2.052
24419SOL    HW173283   5.186   6.509   2.065
24419SOL    HW273284   5.297   6.603   2.138
24420SOL     OW73285   4.911   7.378   3.478
24420SOL    HW173286   4.935   7.438   3.402
24420SOL    HW273287   4.918   7.283   3.448
24421SOL     OW73288   4.041   5.837   3.663
24421SOL    HW173289   4.112   5.908   3.669
24421SOL    HW273290   3.953   5.876   3.691
24422SOL     OW73291   5.190   7.003   2.815
24422SOL    HW173292   5.131   7.009   2.895
24422SOL    HW273293   5.175   6.915   2.769
24423SOL     OW73294   5.391   7.300   2.434
24423SOL    HW173295   5.350   7.277   2.346
24423SOL    HW273296   5.373   7.226   2.499
24424SOL     OW73297   4.322   6.315   2.132
24424SOL    HW173298   4.346   6.384   2.064
24424SOL    HW273299   4.244   6.348   2.186
24425SOL     OW73300   5.005   5.931   2.806
24425SOL    HW173301   4.919   5.881   2.793
24425SOL    HW273302   5.067   5.877   2.862
24426SOL     OW73303   5.300   7.248   2.169
24426SOL    HW173304   5.389   7.294   2.172
24426SOL    HW273305   5.279   7.224   2.074
24427SOL     OW73306   4.531   6.191   3.327
24427SOL    HW173307   4.484   6.188   3.416
24427SOL    HW273308   4.480   6.136   3.261
24428SOL     OW73309   5.118   6.055   3.536
24428SOL    HW173310   5.098   6.098   3.624
24428SOL    HW273311   5.196   5.993   3.545
24429SOL     OW73312   4.697   6.476   3.434
24429SOL    HW173313   4.743   6.392   3.405
24429SOL    HW273314   4.641   6.510   3.359
24430SOL     OW73315   4.715   5.996   3.104
24430SOL    HW173316   4.638   6.030   3.158
24430SOL    HW273317   4.681   5.945   3.025
24431SOL     OW73318   4.765   6.287   2.291
24431SOL    HW173319   4.791   6.283   2.387
24431SOL    HW273320   4.680   6.236   2.277
24432SOL     OW73321   3.800   6.397   2.651
24432SOL    HW173322   3.899   6.385   2.660
24432SOL    HW273323   3.776   6.492   2.672
24433SOL     OW73324   3.854   7.407   3.433
24433SOL    HW173325   3.844   7.392   3.532
24433SOL    HW273326   3.768   7.443   3.397
24434SOL     OW73327   4.589   5.934   2.057
24434SOL    HW173328   4.648   5.997   2.008
24434SOL    HW273329   4.608   5.840   2.028
24435SOL     OW73330   5.443   6.171   3.693
24435SOL    HW173331   5.417   6.260   3.657
24435SOL    HW273332   5.441   6.103   3.620
24436SOL     OW73333   5.086   6.730   2.407
24436SOL    HW173334   5.169   6.701   2.359
24436SOL    HW273335   5.037   6.797   2.351
24437SOL     OW73336   4.274   5.782   2.747
24437SOL    HW173337   4.269   5.777   2.847
24437SOL    HW273338   4.276   5.878   2.718
24438SOL     OW73339   4.732   7.042   2.339
24438SOL    HW173340   4.686   7.114   2.287
24438SOL    HW273341   4.728   7.062   2.437
24439SOL     OW73342   4.075   7.387   2.715
24439SOL    HW173343   4.125   7.301   2.721
24439SOL    HW273344   4.140   7.464   2.712
24440SOL     OW73345   5.519   6.652   2.735
24440SOL    HW173346   5.457   6.637   2.659
24440SOL    HW273347   5.467   6.663   2.820
24441SOL     OW73348   4.951   7.136   3.368
24441SOL    HW173349   4.957   7.059   3.432
24441SOL    HW273350   4.899   7.110   3.288
24442SOL     OW73351   4.045   6.529   2.104
24442SOL    HW173352   4.127   6.568   2.062
24442SOL    HW273353   4.018   6.447   2.055
24443SOL     OW73354   5.182   6.321   2.590
24443SOL    HW173355   5.177   6.256   2.665
24443SOL    HW273356   5.262   6.380   2.603
24444SOL     OW73357   4.185   6.852   3.589
24444SOL    HW173358   4.135   6.853   3.503
24444SOL    HW273359   4.122   6.834   3.665
24445SOL     OW73360   4.835   7.362   2.099
24445SOL    HW173361   4.775   7.300   2.149
24445SOL    HW273362   4.866   7.318   2.014
24446SOL     OW73363   3.926   5.871   3.360
24446SOL    HW173364   3.846   5.931   3.347
24446SOL    HW273365   3.916   5.822   3.446
24447SOL     OW73366   5.356   6.963   1.943
24447SOL    HW173367   5.324   7.057   1.933
24447SOL    HW273368   5.280   6.900   1.931
24448SOL     OW73369   4.188   7.329   2.185
24448SOL    HW173370   4.221   7.368   2.271
24448SOL    HW273371   4.264   7.322   2.120
24449SOL     OW73372   5.124   5.693   2.288
24449SOL    HW173373   5.100   5.656   2.198
24449SOL    HW273374   5.223   5.709   2.292
24450SOL     OW73375   3.973   7.371   3.103
24450SOL    HW173376   4.030   7.306   3.153
24450SOL    HW273377   3.957   7.338   3.010
24451SOL     OW73378   4.664   7.284   2.766
24451SOL    HW173379   4.744   7.227   2.787
24451SOL    HW273380   4.615   7.244   2.689
24452SOL     OW73381   4.106   6.286   2.342
24452SOL    HW173382   4.151   6.196   2.339
24452SOL    HW273383   4.012   6.275   2.375
24453SOL     OW73384   5.271   5.808   3.591
24453SOL    HW173385   5.266   5.845   3.683
24453SOL    HW273386   5.199   5.739   3.579
24454SOL     OW73387   4.338   5.708   1.979
24454SOL    HW173388   4.436   5.686   1.986
24454SOL    HW273389   4.307   5.691   1.886
24455SOL     OW73390   4.505   5.850   3.611
24455SOL    HW173391   4.572   5.789   3.654
24455SOL    HW273392   4.432   5.869   3.676
24456SOL     OW73393   4.612   7.100   3.057
24456SOL    HW173394   4.589   7.075   2.963
24456SOL    HW273395   4.673   7.031   3.096
24457SOL     OW73396   5.075   6.176   3.295
24457SOL    HW173397   5.103   6.133   3.380
24457SOL    HW273398   5.100   6.272   3.296
24458SOL     OW73399   4.527   6.988   2.786
24458SOL    HW173400   4.617   7.002   2.744
24458SOL    HW273401   4.456   6.990   2.715
24459SOL     OW73402   4.646   6.089   2.761
24459SOL    HW173403   4.621   6.080   2.665
24459SOL    HW273404   4.694   6.007   2.792
24460SOL     OW73405   4.263   5.650   2.374
24460SOL    HW173406   4.182   5.651   2.432
24460SOL    HW273407   4.266   5.733   2.319
24461SOL     OW73408   5.158   6.774   1.903
24461SOL    HW173409   5.190   6.698   1.960
24461SOL    HW273410   5.066   6.801   1.933
24462SOL     OW73411   4.021   5.621   2.033
24462SOL    HW173412   4.070   5.705   2.012
24462SOL    HW273413   4.083   5.556   2.078
24463SOL     OW73414   4.659   5.822   2.342
24463SOL    HW173415   4.611   5.863   2.264
24463SOL    HW273416   4.758   5.820   2.323
24464SOL     OW73417   4.800   6.269   3.326
24464SOL    HW173418   4.720   6.208   3.329
24464SOL    HW273419   4.881   6.216   3.302
24465SOL     OW73420   4.951   7.156   2.655
24465SOL    HW173421   4.972   7.230   2.590
24465SOL    HW273422   5.019   7.156   2.728
24466SOL     OW73423   4.183   6.738   2.603
24466SOL    HW173424   4.112   6.711   2.668
24466SOL    HW273425   4.157   6.710   2.510
24467SOL     OW73426   4.995   7.383   2.453
24467SOL    HW173427   5.039   7.447   2.389
24467SOL    HW273428   4.945   7.435   2.523
24468SOL     OW73429   4.756   6.135   1.878
24468SOL    HW173430   4.715   6.217   1.839
24468SOL    HW273431   4.820   6.161   1.951
24469SOL     OW73432   3.802   6.142   3.248
24469SOL    HW173433   3.894   6.141   3.207
24469SOL    HW273434   3.796   6.216   3.315
24470SOL     OW73435   4.285   5.808   3.009
24470SOL    HW173436   4.323   5.724   3.046
24470SOL    HW273437   4.197   5.827   3.053
24471SOL     OW73438   4.590   6.040   2.504
24471SOL    HW173439   4.558   6.112   2.442
24471SOL    HW273440   4.614   5.959   2.451
24472SOL     OW73441   4.741   5.625   2.615
24472SOL    HW173442   4.669   5.630   2.546
24472SOL    HW273443   4.717   5.556   2.684
24473SOL     OW73444   5.153   6.759   2.729
24473SOL    HW173445   5.098   6.675   2.722
24473SOL    HW273446   5.179   6.788   2.637
24474SOL     OW73447   5.190   6.176   2.854
24474SOL    HW173448   5.160   6.081   2.861
24474SOL    HW273449   5.263   6.192   2.920
24475SOL     OW73450   5.581   6.419   2.239
24475SOL    HW173451   5.623   6.355   2.303
24475SOL    HW273452   5.543   6.368   2.161
24476SOL     OW73453   4.212   6.971   2.036
24476SOL    HW173454   4.125   6.956   2.083
24476SOL    HW273455   4.195   6.997   1.941
24477SOL     OW73456   5.388   6.866   2.519
24477SOL    HW173457   5.487   6.874   2.533
24477SOL    HW273458   5.343   6.950   2.550
24478SOL     OW73459   5.114   6.161   1.940
24478SOL    HW173460   5.060   6.140   2.021
24478SOL    HW273461   5.205   6.120   1.949
24479SOL     OW73462   4.251   5.842   2.190
24479SOL    HW173463   4.278   5.783   2.115
24479SOL    HW273464   4.251   5.937   2.159
24480SOL     OW73465   5.478   6.809   3.450
24480SOL    HW173466   5.569   6.770   3.437
24480SOL    HW273467   5.486   6.905   3.474
24481SOL     OW73468   4.788   6.933   3.202
24481SOL    HW173469   4.708   6.910   3.257
24481SOL    HW273470   4.871   6.907   3.251
24482SOL     OW73471   5.316   7.215   3.487
24482SOL    HW173472   5.343   7.249   3.397
24482SOL    HW273473   5.395   7.177   3.533
24483SOL     OW73474   4.835   6.781   2.962
24483SOL    HW173475   4.795   6.825   3.043
24483SOL    HW273476   4.794   6.818   2.879
24484SOL     OW73477   5.362   6.685   2.941
24484SOL    HW173478   5.367   6.766   3.000
24484SOL    HW273479   5.276   6.687   2.890
24485SOL     OW73480   4.639   5.675   3.264
24485SOL    HW173481   4.664   5.655   3.169
24485SOL    HW273482   4.711   5.731   3.306
24486SOL     OW73483   4.704   6.702   3.581
24486SOL    HW173484   4.605   6.708   3.591
24486SOL    HW273485   4.727   6.622   3.525
24487SOL     OW73486   4.429   6.636   2.230
24487SOL    HW173487   4.415   6.643   2.329
24487SOL    HW273488   4.513   6.585   2.212
24488SOL     OW73489   4.134   6.399   3.113
24488SOL    HW173490   4.220   6.411   3.163
24488SOL    HW273491   4.092   6.312   3.140
24489SOL     OW73492   4.998   5.972   3.124
24489SOL    HW173493   5.019   6.046   3.188
24489SOL    HW273494   4.909   5.989   3.081
24490SOL     OW73495   3.788   7.150   3.193
24490SOL    HW173496   3.742   7.232   3.159
24490SOL    HW273497   3.886   7.169   3.202
24491SOL     OW73498   4.091   6.686   2.363
24491SOL    HW173499   4.084   6.769   2.307
24491SOL    HW273500   4.095   6.606   2.303
24492SOL     OW73501   4.290   6.123   2.727
24492SOL    HW173502   4.302   6.189   2.653
24492SOL    HW273503   4.336   6.157   2.810
24493SOL     OW73504   4.976   6.934   2.250
24493SOL    HW173505   5.026   7.011   2.290
24493SOL    HW273506   4.881   6.936   2.282
24494SOL     OW73507   4.996   7.031   3.004
24494SOL    HW173508   5.043   7.044   3.091
24494SOL    HW273509   4.930   6.957   3.013
24495SOL     OW73510   5.306   6.225   2.334
24495SOL    HW173511   5.275   6.286   2.407
24495SOL    HW273512   5.356   6.277   2.265
24496SOL     OW73513   4.078   7.096   3.191
24496SOL    HW173514   4.057   7.052   3.104
24496SOL    HW273515   4.175   7.122   3.194
24497SOL     OW73516   4.126   6.337   3.460
24497SOL    HW173517   4.194   6.392   3.413
24497SOL    HW273518   4.166   6.249   3.487
24498SOL     OW73519   5.311   6.365   3.532
24498SOL    HW173520   5.219   6.403   3.527
24498SOL    HW273521   5.371   6.412   3.467
24499SOL     OW73522   4.737   5.691   3.632
24499SOL    HW173523   4.743   5.776   3.580
24499SOL    HW273524   4.769   5.615   3.575
24500SOL     OW73525   4.228   5.636   3.602
24500SOL    HW173526   4.186   5.579   3.532
24500SOL    HW273527   4.162   5.705   3.634
24501SOL     OW73528   4.297   6.456   2.891
24501SOL    HW173529   4.341   6.545   2.882
24501SOL    HW273530   4.234   6.456   2.968
24502SOL     OW73531   5.084   6.448   2.907
24502SOL    HW173532   5.009   6.448   2.841
24502SOL    HW273533   5.121   6.356   2.916
24503SOL     OW73534   4.933   6.111   2.137
24503SOL    HW173535   4.946   6.027   2.191
24503SOL    HW273536   4.904   6.185   2.197
24504SOL     OW73537   4.031   5.799   3.093
24504SOL    HW173538   4.008   5.836   3.183
24504SOL    HW273539   4.001   5.704   3.087
24505SOL     OW73540   3.761   6.896   3.144
24505SOL    HW173541   3.814   6.847   3.212
24505SOL    HW273542   3.783   6.994   3.149
24506SOL     OW73543   4.456   6.220   2.926
24506SOL    HW173544   4.515   6.194   2.850
24506SOL    HW273545   4.428   6.316   2.915
24507SOL     OW73546   5.452   6.521   3.716
24507SOL    HW173547   5.406   6.514   3.627
24507SOL    HW273548   5.390   6.565   3.782
24508SOL     OW73549   4.031   5.649   2.480
24508SOL    HW173550   4.020   5.743   2.513
24508SOL    HW273551   4.026   5.586   2.557
24509SOL     OW73552   5.346   5.953   2.236
24509SOL    HW173553   5.348   5.877   2.300
24509SOL    HW273554   5.298   6.030   2.276
24510SOL     OW73555   4.747   6.352   2.828
24510SOL    HW173556   4.762   6.373   2.924
24510SOL    HW273557   4.717   6.257   2.819
24511SOL     OW73558   4.704   7.159   3.562
24511SOL    HW173559   4.684   7.203   3.474
24511SOL    HW273560   4.743   7.068   3.546
24512SOL     OW73561   5.583   7.104   3.467
24512SOL    HW173562   5.597   7.131   3.372
24512SOL    HW273563   5.666   7.126   3.520
24513SOL     OW73564   4.074   6.484   3.666
24513SOL    HW173565   4.150   6.528   3.714
24513SOL    HW273566   4.109   6.437   3.584
24514SOL     OW73567   5.264   5.860   1.987
24514SOL    HW173568   5.203   5.785   2.010
24514SOL    HW273569   5.286   5.912   2.070
24515SOL     OW73570   5.027   6.424   1.904
24515SOL    HW173571   5.061   6.331   1.919
24515SOL    HW273572   5.045   6.451   1.809
24516SOL     OW73573   4.792   6.919   2.711
24516SOL    HW173574   4.799   6.835   2.656
24516SOL    HW273575   4.854   6.988   2.675
24517SOL     OW73576   4.043   6.396   2.811
24517SOL    HW173577   4.136   6.432   2.816
24517SOL    HW273578   4.037   6.311   2.863
24518SOL     OW73579   4.063   6.095   2.868
24518SOL    HW173580   4.011   6.012   2.851
24518SOL    HW273581   4.140   6.100   2.804
24519SOL     OW73582   4.862   5.966   3.540
24519SOL    HW173583   4.817   6.029   3.604
24519SOL    HW273584   4.955   5.997   3.523
24520SOL     OW73585   4.884   5.793   3.339
24520SOL    HW173586   4.884   5.857   3.416
24520SOL    HW273587   4.912   5.841   3.256
24521SOL     OW73588   3.732   6.912   2.062
24521SOL    HW173589   3.639   6.933   2.031
24521SOL    HW273590   3.742   6.813   2.075
24522SOL     OW73591   3.812   7.387   2.789
24522SOL    HW173592   3.770   7.301   2.762
24522SOL    HW273593   3.906   7.390   2.755
24523SOL     OW73594   4.228   7.154   2.772
24523SOL    HW173595   4.294   7.228   2.781
24523SOL    HW273596   4.272   7.075   2.730
24524SOL     OW73597   4.726   6.382   3.100
24524SOL    HW173598   4.767   6.350   3.186
24524SOL    HW273599   4.630   6.355   3.097
24525SOL     OW73600   3.764   6.130   2.976
24525SOL    HW173601   3.849   6.097   2.935
24525SOL    HW273602   3.777   6.145   3.074
24526SOL     OW73603   3.913   6.106   3.584
24526SOL    HW173604   3.972   6.066   3.514
24526SOL    HW273605   3.855   6.177   3.543
24527SOL     OW73606   5.093   6.536   3.522
24527SOL    HW173607   5.132   6.625   3.542
24527SOL    HW273608   5.103   6.516   3.425
24528SOL     OW73609   4.539   6.158   2.187
24528SOL    HW173610   4.546   6.069   2.141
24528SOL    HW273611   4.445   6.192   2.179
24529SOL     OW73612   5.381   6.190   3.068
24529SOL    HW173613   5.343   6.121   3.130
24529SOL    HW273614   5.463   6.154   3.024
24530SOL     OW73615   3.976   7.150   3.606
24530SOL    HW173616   3.946   7.207   3.682
24530SOL    HW273617   3.969   7.053   3.632
24531SOL     OW73618   4.395   6.050   3.131
24531SOL    HW173619   4.361   5.961   3.101
24531SOL    HW273620   4.421   6.104   3.051
24532SOL     OW73621   4.654   7.264   3.327
24532SOL    HW173622   4.630   7.246   3.232
24532SOL    HW273623   4.684   7.358   3.337
24533SOL     OW73624   4.197   6.086   2.053
24533SOL    HW173625   4.258   6.166   2.057
24533SOL    HW273626   4.102   6.117   2.060
24534SOL     OW73627   3.883   6.723   3.328
24534SOL    HW173628   3.905   6.662   3.404
24534SOL    HW273629   3.893   6.674   3.242
24535SOL     OW73630   5.071   6.645   3.096
24535SOL    HW173631   5.095   6.582   3.022
24535SOL    HW273632   4.981   6.685   3.078
24536SOL     OW73633   5.026   6.441   2.171
24536SOL    HW173634   4.940   6.410   2.213
24536SOL    HW273635   5.022   6.427   2.072
24537SOL     OW73636   5.483   7.333   3.016
24537SOL    HW173637   5.544   7.363   2.943
24537SOL    HW273638   5.445   7.244   2.994
24538SOL     OW73639   4.976   7.317   2.990
24538SOL    HW173640   5.060   7.322   2.936
24538SOL    HW273641   4.953   7.221   3.008
24539SOL     OW73642   3.807   6.844   2.884
24539SOL    HW173643   3.802   6.843   2.984
24539SOL    HW273644   3.724   6.803   2.846
24540SOL     OW73645   4.412   7.248   3.578
24540SOL    HW173646   4.356   7.329   3.587
24540SOL    HW273647   4.464   7.252   3.492
24541SOL     OW73648   5.450   5.721   2.385
24541SOL    HW173649   5.523   5.704   2.318
24541SOL    HW273650   5.419   5.634   2.423
24542SOL     OW73651   5.112   7.159   2.339
24542SOL    HW173652   5.179   7.171   2.265
24542SOL    HW273653   5.072   7.248   2.362
24543SOL     OW73654   3.854   7.380   3.713
24543SOL    HW173655   3.813   7.306   3.766
24543SOL    HW273656   3.918   7.431   3.771
24544SOL     OW73657   5.004   6.513   2.534
24544SOL    HW173658   5.064   6.432   2.536
24544SOL    HW273659   5.044   6.582   2.474
24545SOL     OW73660   4.554   6.859   3.284
24545SOL    HW173661   4.549   6.892   3.379
24545SOL    HW273662   4.468   6.878   3.238
24546SOL     OW73663   4.396   7.202   2.016
24546SOL    HW173664   4.405   7.212   1.917
24546SOL    HW273665   4.356   7.113   2.037
24547SOL     OW73666   5.374   7.306   3.256
24547SOL    HW173667   5.427   7.316   3.172
24547SOL    HW273668   5.347   7.396   3.290
24548SOL     OW73669   5.565   5.761   2.825
24548SOL    HW173670   5.604   5.676   2.789
24548SOL    HW273671   5.467   5.763   2.806
24549SOL     OW73672   3.987   5.912   2.582
24549SOL    HW173673   3.908   5.963   2.548
24549SOL    HW273674   3.978   5.897   2.680
24550SOL     OW73675   4.918   7.198   1.893
24550SOL    HW173676   4.924   7.105   1.930
24550SOL    HW273677   4.859   7.198   1.813
24551SOL     OW73678   4.546   6.588   3.234
24551SOL    HW173679   4.586   6.587   3.142
24551SOL    HW273680   4.556   6.680   3.274
24552SOL     OW73681   4.640   6.496   2.153
24552SOL    HW173682   4.703   6.534   2.085
24552SOL    HW273683   4.680   6.413   2.192
24553SOL     OW73684   5.228   7.193   1.906
24553SOL    HW173685   5.136   7.230   1.913
24553SOL    HW273686   5.266   7.213   1.816
24554SOL     OW73687   4.096   6.874   3.352
24554SOL    HW173688   4.083   6.967   3.318
24554SOL    HW273689   4.012   6.822   3.339
24555SOL     OW73690   5.338   6.878   3.151
24555SOL    HW173691   5.398   6.881   3.231
24555SOL    HW273692   5.263   6.942   3.164
24556SOL     OW73693   4.763   6.684   2.558
24556SOL    HW173694   4.693   6.637   2.612
24556SOL    HW273695   4.822   6.616   2.515
24557SOL     OW73696   4.738   5.822   2.833
24557SOL    HW173697   4.730   5.786   2.740
24557SOL    HW273698   4.736   5.746   2.898
24558SOL     OW73699   4.314   7.073   2.353
24558SOL    HW173700   4.356   7.015   2.283
24558SOL    HW273701   4.270   7.152   2.309
24559SOL     OW73702   5.433   5.971   3.243
24559SOL    HW173703   5.506   6.040   3.247
24559SOL    HW273704   5.461   5.896   3.184
24560SOL     OW73705   3.979   6.934   2.152
24560SOL    HW173706   3.883   6.935   2.125
24560SOL    HW273707   3.991   6.987   2.236
24561SOL     OW73708   3.829   6.599   3.588
24561SOL    HW173709   3.752   6.566   3.642
24561SOL    HW273710   3.914   6.569   3.630
24562SOL     OW73711   4.396   5.789   3.351
24562SOL    HW173712   4.486   5.773   3.311
24562SOL    HW273713   4.404   5.794   3.450
24563SOL     OW73714   3.799   5.931   1.895
24563SOL    HW173715   3.707   5.903   1.866
24563SOL    HW273716   3.830   6.008   1.839
24564SOL     OW73717   5.164   6.442   3.260
24564SOL    HW173718   5.107   6.494   3.197
24564SOL    HW273719   5.260   6.454   3.236
24565SOL     OW73720   3.796   5.752   2.180
24565SOL    HW173721   3.779   5.835   2.126
24565SOL    HW273722   3.886   5.715   2.158
24566SOL     OW73723   4.907   6.921   1.981
24566SOL    HW173724   4.808   6.910   1.983
24566SOL    HW273725   4.941   6.936   2.074
24567SOL     OW73726   4.337   6.428   3.293
24567SOL    HW173727   4.393   6.509   3.276
24567SOL    HW273728   4.396   6.348   3.296
24568SOL     OW73729   5.217   7.353   2.821
24568SOL    HW173730   5.250   7.417   2.752
24568SOL    HW273731   5.283   7.347   2.896
24569SOL     OW73732   4.440   6.151   3.570
24569SOL    HW173733   4.459   6.216   3.644
24569SOL    HW273734   4.500   6.071   3.579
24570SOL     OW73735   5.174   6.806   3.495
24570SOL    HW173736   5.165   6.796   3.594
24570SOL    HW273737   5.270   6.799   3.469
24571SOL     OW73738   4.114   7.327   3.422
24571SOL    HW173739   4.023   7.368   3.420
24571SOL    HW273740   4.107   7.233   3.454
24572SOL     OW73741   5.398   6.469   3.116
24572SOL    HW173742   5.371   6.380   3.079
24572SOL    HW273743   5.399   6.537   3.043
24573SOL     OW73744   4.949   5.911   2.311
24573SOL    HW173745   5.014   5.837   2.300
24573SOL    HW273746   4.969   5.961   2.395
24574SOL     OW73747   4.318   6.331   2.514
24574SOL    HW173748   4.368   6.416   2.495
24574SOL    HW273749   4.230   6.333   2.466
24575SOL     OW73750   5.501   5.928   3.504
24575SOL    HW173751   5.484   5.959   3.410
24575SOL    HW273752   5.417   5.891   3.542
24576SOL     OW73753   5.454   6.520   3.379
24576SOL    HW173754   5.492   6.611   3.394
24576SOL    HW273755   5.446   6.503   3.280
24577SOL     OW73756   4.583   6.960   1.878
24577SOL    HW173757   4.537   6.975   1.966
24577SOL    HW273758   4.627   7.045   1.848
24578SOL     OW73759   4.385   7.376   2.815
24578SOL    HW173760   4.339   7.464   2.802
24578SOL    HW273761   4.484   7.388   2.808
24579SOL     OW73762   4.583   6.542   2.723
24579SOL    HW173763   4.637   6.473   2.771
24579SOL    HW273764   4.551   6.611   2.789
24580SOL     OW73765   4.807   6.570   1.949
24580SOL    HW173766   4.784   6.623   1.867
24580SOL    HW273767   4.888   6.514   1.930
24581SOL     OW73768   5.585   7.155   2.713
24581SOL    HW173769   5.514   7.143   2.643
24581SOL    HW273770   5.586   7.076   2.773
24582SOL     OW73771   3.945   6.900   3.706
24582SOL    HW173772   3.880   6.827   3.685
24582SOL    HW273773   3.949   6.914   3.804
24583SOL     OW73774   3.803   6.826   2.515
24583SOL    HW173775   3.802   6.779   2.603
24583SOL    HW273776   3.885   6.798   2.464
24584SOL     OW73777   4.396   6.977   3.486
24584SOL    HW173778   4.318   6.927   3.524
24584SOL    HW273779   4.393   7.072   3.517
24585SOL     OW73780   5.548   5.778   3.089
24585SOL    HW173781   5.544   5.688   3.133
24585SOL    HW273782   5.551   5.767   2.990
24586SOL     OW73783   4.152   6.010   2.382
24586SOL    HW173784   4.182   5.938   2.320
24586SOL    HW273785   4.113   5.970   2.465
24587SOL     OW73786   5.429   7.073   2.966
24587SOL    HW173787   5.336   7.048   2.939
24587SOL    HW273788   5.455   7.023   3.048
24588SOL     OW73789   4.041   6.133   3.142
24588SOL    HW173790   4.079   6.074   3.214
24588SOL    HW273791   4.081   6.107   3.054
24589SOL     OW73792   4.536   7.172   2.549
24589SOL    HW173793   4.568   7.182   2.455
24589SOL    HW273794   4.457   7.110   2.551
24590SOL     OW73795   5.148   5.800   2.974
24590SOL    HW173796   5.200   5.735   3.029
24590SOL    HW273797   5.099   5.863   3.035
24591SOL     OW73798   4.725   5.620   3.016
24591SOL    HW173799   4.662   5.548   2.985
24591SOL    HW273800   4.818   5.584   3.016
24592SOL     OW73801   4.494   6.916   2.163
24592SOL    HW173802   4.448   6.829   2.180
24592SOL    HW273803   4.585   6.913   2.204
24593SOL     OW73804   4.342   7.153   3.146
24593SOL    HW173805   4.337   7.235   3.203
24593SOL    HW273806   4.431   7.150   3.101
24594SOL     OW73807   5.076   5.638   2.030
24594SOL    HW173808   5.111   5.597   1.946
24594SOL    HW273809   4.986   5.600   2.050
24595SOL     OW73810   5.024   6.039   2.553
24595SOL    HW173811   4.965   6.119   2.557
24595SOL    HW273812   5.039   6.004   2.646
24596SOL     OW73813   5.317   5.807   2.744
24596SOL    HW173814   5.233   5.806   2.798
24596SOL    HW273815   5.319   5.890   2.688
24597SOL     OW73816   3.763   6.663   2.162
24597SOL    HW173817   3.862   6.652   2.153
24597SOL    HW273818   3.723   6.577   2.194
24598SOL     OW73819   4.599   7.232   2.199
24598SOL    HW173820   4.522   7.197   2.145
24598SOL    HW273821   4.567   7.303   2.261
24599SOL     OW73822   3.954   6.214   3.837
24599SOL    HW173823   3.861   6.212   3.874
24599SOL    HW273824   3.955   6.175   3.745
24600SOL     OW73825   3.949   5.861   4.720
24600SOL    HW173826   3.984   5.844   4.812
24600SOL    HW273827   3.861   5.816   4.708
24601SOL     OW73828   3.743   5.954   4.371
24601SOL    HW173829   3.661   5.997   4.410
24601SOL    HW273830   3.715   5.881   4.308
24602SOL     OW73831   4.293   6.861   4.889
24602SOL    HW173832   4.200   6.854   4.852
24602SOL    HW273833   4.304   6.950   4.933
24603SOL     OW73834   5.279   7.097   4.427
24603SOL    HW173835   5.222   7.081   4.508
24603SOL    HW273836   5.220   7.107   4.347
24604SOL     OW73837   4.859   6.289   4.441
24604SOL    HW173838   4.916   6.367   4.416
24604SOL    HW273839   4.799   6.315   4.517
24605SOL     OW73840   5.479   6.193   3.955
24605SOL    HW173841   5.467   6.180   3.856
24605SOL    HW273842   5.449   6.112   4.004
24606SOL     OW73843   4.492   6.730   4.747
24606SOL    HW173844   4.414   6.747   4.807
24606SOL    HW273845   4.526   6.817   4.711
24607SOL     OW73846   4.574   6.384   5.547
24607SOL    HW173847   4.570   6.460   5.612
24607SOL    HW273848   4.596   6.420   5.456
24608SOL     OW73849   4.409   6.598   4.389
24608SOL    HW173850   4.478   6.582   4.459
24608SOL    HW273851   4.336   6.655   4.427
24609SOL     OW73852   4.410   6.747   5.527
24609SOL    HW173853   4.470   6.826   5.541
24609SOL    HW273854   4.324   6.778   5.486
24610SOL     OW73855   4.059   7.021   4.785
24610SOL    HW173856   3.981   6.990   4.732
24610SOL    HW273857   4.117   7.079   4.728
24611SOL     OW73858   5.184   7.091   5.063
24611SOL    HW173859   5.208   7.185   5.089
24611SOL    HW273860   5.168   7.037   5.145
24612SOL     OW73861   4.162   5.978   5.223
24612SOL    HW173862   4.244   5.922   5.232
24612SOL    HW273863   4.081   5.920   5.227
24613SOL     OW73864   5.327   6.033   4.461
24613SOL    HW173865   5.253   6.079   4.411
24613SOL    HW273866   5.378   6.101   4.514
24614SOL     OW73867   3.955   7.299   4.207
24614SOL    HW173868   3.989   7.376   4.261
24614SOL    HW273869   3.999   7.299   4.117
24615SOL     OW73870   4.851   6.927   5.414
24615SOL    HW173871   4.898   6.927   5.502
24615SOL    HW273872   4.803   6.840   5.403
24616SOL     OW73873   3.954   7.020   4.262
24616SOL    HW173874   3.928   7.116   4.262
24616SOL    HW273875   3.883   6.966   4.307
24617SOL     OW73876   3.964   6.677   4.610
24617SOL    HW173877   3.978   6.593   4.662
24617SOL    HW273878   3.909   6.741   4.665
24618SOL     OW73879   4.344   7.372   5.163
24618SOL    HW173880   4.252   7.355   5.198
24618SOL    HW273881   4.372   7.464   5.189
24619SOL     OW73882   4.330   6.550   3.847
24619SOL    HW173883   4.337   6.634   3.793
24619SOL    HW273884   4.376   6.563   3.935
24620SOL     OW73885   5.318   5.700   5.204
24620SOL    HW173886   5.300   5.767   5.132
24620SOL    HW273887   5.315   5.746   5.293
24621SOL     OW73888   3.846   6.229   4.287
24621SOL    HW173889   3.801   6.141   4.304
24621SOL    HW273890   3.845   6.283   4.371
24622SOL     OW73891   5.566   7.353   4.083
24622SOL    HW173892   5.620   7.324   4.163
24622SOL    HW273893   5.596   7.443   4.054
24623SOL     OW73894   3.751   7.182   3.841
24623SOL    HW173895   3.732   7.086   3.862
24623SOL    HW273896   3.718   7.240   3.916
24624SOL     OW73897   5.413   6.508   4.336
24624SOL    HW173898   5.508   6.479   4.344
24624SOL    HW273899   5.405   6.573   4.261
24625SOL     OW73900   5.365   6.694   4.156
24625SOL    HW173901   5.451   6.696   4.104
24625SOL    HW273902   5.379   6.741   4.244
24626SOL     OW73903   3.837   6.323   5.321
24626SOL    HW173904   3.925   6.310   5.366
24626SOL    HW273905   3.824   6.420   5.299
24627SOL     OW73906   4.337   6.951   4.450
24627SOL    HW173907   4.288   6.864   4.459
24627SOL    HW273908   4.314   6.994   4.363
24628SOL     OW73909   5.017   6.814   5.147
24628SOL    HW173910   5.054   6.741   5.089
24628SOL    HW273911   5.069   6.819   5.232
24629SOL     OW73912   4.533   5.590   4.226
24629SOL    HW173913   4.573   5.681   4.217
24629SOL    HW273914   4.433   5.598   4.232
24630SOL     OW73915   3.921   6.562   4.988
24630SOL    HW173916   4.010   6.517   4.974
24630SOL    HW273917   3.848   6.497   4.969
24631SOL     OW73918   5.249   6.585   3.914
24631SOL    HW173919   5.186   6.509   3.927
24631SOL    HW273920   5.297   6.603   4.000
24632SOL     OW73921   4.911   7.378   5.340
24632SOL    HW173922   4.935   7.438   5.264
24632SOL    HW273923   4.918   7.283   5.310
24633SOL     OW73924   4.041   5.837   5.525
24633SOL    HW173925   4.112   5.908   5.531
24633SOL    HW273926   3.953   5.876   5.553
24634SOL     OW73927   5.190   7.003   4.677
24634SOL    HW173928   5.131   7.009   4.757
24634SOL    HW273929   5.175   6.915   4.631
24635SOL     OW73930   5.391   7.300   4.296
24635SOL    HW173931   5.350   7.277   4.208
24635SOL    HW273932   5.373   7.226   4.361
24636SOL     OW73933   4.322   6.315   3.994
24636SOL    HW173934   4.346   6.384   3.926
24636SOL    HW273935   4.244   6.348   4.048
24637SOL     OW73936   5.005   5.931   4.668
24637SOL    HW173937   4.919   5.881   4.655
24637SOL    HW273938   5.067   5.877   4.724
24638SOL     OW73939   5.300   7.248   4.031
24638SOL    HW173940   5.389   7.294   4.034
24638SOL    HW273941   5.279   7.224   3.936
24639SOL     OW73942   4.531   6.191   5.189
24639SOL    HW173943   4.484   6.188   5.278
24639SOL    HW273944   4.480   6.136   5.123
24640SOL     OW73945   5.118   6.055   5.398
24640SOL    HW173946   5.098   6.098   5.486
24640SOL    HW273947   5.196   5.993   5.407
24641SOL     OW73948   4.697   6.476   5.296
24641SOL    HW173949   4.743   6.392   5.267
24641SOL    HW273950   4.641   6.510   5.221
24642SOL     OW73951   4.715   5.996   4.966
24642SOL    HW173952   4.638   6.030   5.020
24642SOL    HW273953   4.681   5.945   4.887
24643SOL     OW73954   4.765   6.287   4.153
24643SOL    HW173955   4.791   6.283   4.249
24643SOL    HW273956   4.680   6.236   4.139
24644SOL     OW73957   3.800   6.397   4.513
24644SOL    HW173958   3.899   6.385   4.522
24644SOL    HW273959   3.776   6.492   4.534
24645SOL     OW73960   3.854   7.407   5.295
24645SOL    HW173961   3.844   7.392   5.394
24645SOL    HW273962   3.768   7.443   5.259
24646SOL     OW73963   4.589   5.934   3.919
24646SOL    HW173964   4.648   5.997   3.870
24646SOL    HW273965   4.608   5.840   3.890
24647SOL     OW73966   5.443   6.171   5.555
24647SOL    HW173967   5.417   6.260   5.519
24647SOL    HW273968   5.441   6.103   5.482
24648SOL     OW73969   5.086   6.730   4.269
24648SOL    HW173970   5.169   6.701   4.221
24648SOL    HW273971   5.037   6.797   4.213
24649SOL     OW73972   4.274   5.782   4.609
24649SOL    HW173973   4.269   5.777   4.709
24649SOL    HW273974   4.276   5.878   4.580
24650SOL     OW73975   4.732   7.042   4.201
24650SOL    HW173976   4.686   7.114   4.149
24650SOL    HW273977   4.728   7.062   4.299
24651SOL     OW73978   4.075   7.387   4.577
24651SOL    HW173979   4.125   7.301   4.583
24651SOL    HW273980   4.140   7.464   4.574
24652SOL     OW73981   5.519   6.652   4.597
24652SOL    HW173982   5.457   6.637   4.521
24652SOL    HW273983   5.467   6.663   4.682
24653SOL     OW73984   4.951   7.136   5.230
24653SOL    HW173985   4.957   7.059   5.294
24653SOL    HW273986   4.899   7.110   5.150
24654SOL     OW73987   4.045   6.529   3.966
24654SOL    HW173988   4.127   6.568   3.924
24654SOL    HW273989   4.018   6.447   3.917
24655SOL     OW73990   5.182   6.321   4.452
24655SOL    HW173991   5.177   6.256   4.527
24655SOL    HW273992   5.262   6.380   4.465
24656SOL     OW73993   4.185   6.852   5.451
24656SOL    HW173994   4.135   6.853   5.365
24656SOL    HW273995   4.122   6.834   5.527
24657SOL     OW73996   4.835   7.362   3.961
24657SOL    HW173997   4.775   7.300   4.011
24657SOL    HW273998   4.866   7.318   3.876
24658SOL     OW73999   3.926   5.871   5.222
24658SOL    HW174000   3.846   5.931   5.209
24658SOL    HW274001   3.916   5.822   5.308
24659SOL     OW74002   5.356   6.963   3.805
24659SOL    HW174003   5.324   7.057   3.795
24659SOL    HW274004   5.280   6.900   3.793
24660SOL     OW74005   4.188   7.329   4.047
24660SOL    HW174006   4.221   7.368   4.133
24660SOL    HW274007   4.264   7.322   3.982
24661SOL     OW74008   5.124   5.693   4.150
24661SOL    HW174009   5.100   5.656   4.060
24661SOL    HW274010   5.223   5.709   4.154
24662SOL     OW74011   3.973   7.371   4.965
24662SOL    HW174012   4.030   7.306   5.015
24662SOL    HW274013   3.957   7.338   4.872
24663SOL     OW74014   4.664   7.284   4.628
24663SOL    HW174015   4.744   7.227   4.649
24663SOL    HW274016   4.615   7.244   4.551
24664SOL     OW74017   4.106   6.286   4.204
24664SOL    HW174018   4.151   6.196   4.201
24664SOL    HW274019   4.012   6.275   4.237
24665SOL     OW74020   5.271   5.808   5.453
24665SOL    HW174021   5.266   5.845   5.545
24665SOL    HW274022   5.199   5.739   5.441
24666SOL     OW74023   4.338   5.708   3.841
24666SOL    HW174024   4.436   5.686   3.848
24666SOL    HW274025   4.307   5.691   3.748
24667SOL     OW74026   4.505   5.850   5.473
24667SOL    HW174027   4.572   5.789   5.516
24667SOL    HW274028   4.432   5.869   5.538
24668SOL     OW74029   4.612   7.100   4.919
24668SOL    HW174030   4.589   7.075   4.825
24668SOL    HW274031   4.673   7.031   4.958
24669SOL     OW74032   5.075   6.176   5.157
24669SOL    HW174033   5.103   6.133   5.242
24669SOL    HW274034   5.100   6.272   5.158
24670SOL     OW74035   4.527   6.988   4.648
24670SOL    HW174036   4.617   7.002   4.606
24670SOL    HW274037   4.456   6.990   4.577
24671SOL     OW74038   4.646   6.089   4.623
24671SOL    HW174039   4.621   6.080   4.527
24671SOL    HW274040   4.694   6.007   4.654
24672SOL     OW74041   4.263   5.650   4.236
24672SOL    HW174042   4.182   5.651   4.294
24672SOL    HW274043   4.266   5.733   4.181
24673SOL     OW74044   5.158   6.774   3.765
24673SOL    HW174045   5.190   6.698   3.822
24673SOL    HW274046   5.066   6.801   3.795
24674SOL     OW74047   4.021   5.621   3.895
24674SOL    HW174048   4.070   5.705   3.874
24674SOL    HW274049   4.083   5.556   3.940
24675SOL     OW74050   4.659   5.822   4.204
24675SOL    HW174051   4.611   5.863   4.126
24675SOL    HW274052   4.758   5.820   4.185
24676SOL     OW74053   4.800   6.269   5.188
24676SOL    HW174054   4.720   6.208   5.191
24676SOL    HW274055   4.881   6.216   5.164
24677SOL     OW74056   4.951   7.156   4.517
24677SOL    HW174057   4.972   7.230   4.452
24677SOL    HW274058   5.019   7.156   4.590
24678SOL     OW74059   4.183   6.738   4.465
24678SOL    HW174060   4.112   6.711   4.530
24678SOL    HW274061   4.157   6.710   4.372
24679SOL     OW74062   4.995   7.383   4.315
24679SOL    HW174063   5.039   7.447   4.251
24679SOL    HW274064   4.945   7.435   4.385
24680SOL     OW74065   4.756   6.135   3.740
24680SOL    HW174066   4.715   6.217   3.701
24680SOL    HW274067   4.820   6.161   3.813
24681SOL     OW74068   3.802   6.142   5.110
24681SOL    HW174069   3.894   6.141   5.069
24681SOL    HW274070   3.796   6.216   5.177
24682SOL     OW74071   4.285   5.808   4.871
24682SOL    HW174072   4.323   5.724   4.908
24682SOL    HW274073   4.197   5.827   4.915
24683SOL     OW74074   4.590   6.040   4.366
24683SOL    HW174075   4.558   6.112   4.304
24683SOL    HW274076   4.614   5.959   4.313
24684SOL     OW74077   4.741   5.625   4.477
24684SOL    HW174078   4.669   5.630   4.408
24684SOL    HW274079   4.717   5.556   4.546
24685SOL     OW74080   5.153   6.759   4.591
24685SOL    HW174081   5.098   6.675   4.584
24685SOL    HW274082   5.179   6.788   4.499
24686SOL     OW74083   5.190   6.176   4.716
24686SOL    HW174084   5.160   6.081   4.723
24686SOL    HW274085   5.263   6.192   4.782
24687SOL     OW74086   5.581   6.419   4.101
24687SOL    HW174087   5.623   6.355   4.165
24687SOL    HW274088   5.543   6.368   4.023
24688SOL     OW74089   4.212   6.971   3.898
24688SOL    HW174090   4.125   6.956   3.945
24688SOL    HW274091   4.195   6.997   3.803
24689SOL     OW74092   5.388   6.866   4.381
24689SOL    HW174093   5.487   6.874   4.395
24689SOL    HW274094   5.343   6.950   4.412
24690SOL     OW74095   5.114   6.161   3.802
24690SOL    HW174096   5.060   6.140   3.883
24690SOL    HW274097   5.205   6.120   3.811
24691SOL     OW74098   4.251   5.842   4.052
24691SOL    HW174099   4.278   5.783   3.977
24691SOL    HW274100   4.251   5.937   4.021
24692SOL     OW74101   5.478   6.809   5.312
24692SOL    HW174102   5.569   6.770   5.299
24692SOL    HW274103   5.486   6.905   5.336
24693SOL     OW74104   4.788   6.933   5.064
24693SOL    HW174105   4.708   6.910   5.119
24693SOL    HW274106   4.871   6.907   5.113
24694SOL     OW74107   5.316   7.215   5.349
24694SOL    HW174108   5.343   7.249   5.259
24694SOL    HW274109   5.395   7.177   5.395
24695SOL     OW74110   4.835   6.781   4.824
24695SOL    HW174111   4.795   6.825   4.905
24695SOL    HW274112   4.794   6.818   4.741
24696SOL     OW74113   5.362   6.685   4.803
24696SOL    HW174114   5.367   6.766   4.862
24696SOL    HW274115   5.276   6.687   4.752
24697SOL     OW74116   4.639   5.675   5.126
24697SOL    HW174117   4.664   5.655   5.031
24697SOL    HW274118   4.711   5.731   5.168
24698SOL     OW74119   4.704   6.702   5.443
24698SOL    HW174120   4.605   6.708   5.453
24698SOL    HW274121   4.727   6.622   5.387
24699SOL     OW74122   4.429   6.636   4.092
24699SOL    HW174123   4.415   6.643   4.191
24699SOL    HW274124   4.513   6.585   4.074
24700SOL     OW74125   4.134   6.399   4.975
24700SOL    HW174126   4.220   6.411   5.025
24700SOL    HW274127   4.092   6.312   5.002
24701SOL     OW74128   4.998   5.972   4.986
24701SOL    HW174129   5.019   6.046   5.050
24701SOL    HW274130   4.909   5.989   4.943
24702SOL     OW74131   3.788   7.150   5.055
24702SOL    HW174132   3.742   7.232   5.021
24702SOL    HW274133   3.886   7.169   5.064
24703SOL     OW74134   4.091   6.686   4.225
24703SOL    HW174135   4.084   6.769   4.169
24703SOL    HW274136   4.095   6.606   4.165
24704SOL     OW74137   4.290   6.123   4.589
24704SOL    HW174138   4.302   6.189   4.515
24704SOL    HW274139   4.336   6.157   4.672
24705SOL     OW74140   4.976   6.934   4.112
24705SOL    HW174141   5.026   7.011   4.152
24705SOL    HW274142   4.881   6.936   4.144
24706SOL     OW74143   4.996   7.031   4.866
24706SOL    HW174144   5.043   7.044   4.953
24706SOL    HW274145   4.930   6.957   4.875
24707SOL     OW74146   5.306   6.225   4.196
24707SOL    HW174147   5.275   6.286   4.269
24707SOL    HW274148   5.356   6.277   4.127
24708SOL     OW74149   4.078   7.096   5.053
24708SOL    HW174150   4.057   7.052   4.966
24708SOL    HW274151   4.175   7.122   5.056
24709SOL     OW74152   4.126   6.337   5.322
24709SOL    HW174153   4.194   6.392   5.275
24709SOL    HW274154   4.166   6.249   5.349
24710SOL     OW74155   5.311   6.365   5.394
24710SOL    HW174156   5.219   6.403   5.389
24710SOL    HW274157   5.371   6.412   5.329
24711SOL     OW74158   4.737   5.691   5.494
24711SOL    HW174159   4.743   5.776   5.442
24711SOL    HW274160   4.769   5.615   5.437
24712SOL     OW74161   4.228   5.636   5.464
24712SOL    HW174162   4.186   5.579   5.394
24712SOL    HW274163   4.162   5.705   5.496
24713SOL     OW74164   4.297   6.456   4.753
24713SOL    HW174165   4.341   6.545   4.744
24713SOL    HW274166   4.234   6.456   4.830
24714SOL     OW74167   5.084   6.448   4.769
24714SOL    HW174168   5.009   6.448   4.703
24714SOL    HW274169   5.121   6.356   4.778
24715SOL     OW74170   4.933   6.111   3.999
24715SOL    HW174171   4.946   6.027   4.053
24715SOL    HW274172   4.904   6.185   4.059
24716SOL     OW74173   4.031   5.799   4.955
24716SOL    HW174174   4.008   5.836   5.045
24716SOL    HW274175   4.001   5.704   4.949
24717SOL     OW74176   3.761   6.896   5.006
24717SOL    HW174177   3.814   6.847   5.074
24717SOL    HW274178   3.783   6.994   5.011
24718SOL     OW74179   4.456   6.220   4.788
24718SOL    HW174180   4.515   6.194   4.712
24718SOL    HW274181   4.428   6.316   4.777
24719SOL     OW74182   5.452   6.521   5.578
24719SOL    HW174183   5.406   6.514   5.489
24719SOL    HW274184   5.390   6.565   5.644
24720SOL     OW74185   4.031   5.649   4.342
24720SOL    HW174186   4.020   5.743   4.375
24720SOL    HW274187   4.026   5.586   4.419
24721SOL     OW74188   5.346   5.953   4.098
24721SOL    HW174189   5.348   5.877   4.162
24721SOL    HW274190   5.298   6.030   4.138
24722SOL     OW74191   4.747   6.352   4.690
24722SOL    HW174192   4.762   6.373   4.786
24722SOL    HW274193   4.717   6.257   4.681
24723SOL     OW74194   4.704   7.159   5.424
24723SOL    HW174195   4.684   7.203   5.336
24723SOL    HW274196   4.743   7.068   5.408
24724SOL     OW74197   5.583   7.104   5.329
24724SOL    HW174198   5.597   7.131   5.234
24724SOL    HW274199   5.666   7.126   5.382
24725SOL     OW74200   4.074   6.484   5.528
24725SOL    HW174201   4.150   6.528   5.576
24725SOL    HW274202   4.109   6.437   5.446
24726SOL     OW74203   5.264   5.860   3.849
24726SOL    HW174204   5.203   5.785   3.872
24726SOL    HW274205   5.286   5.912   3.932
24727SOL     OW74206   5.027   6.424   3.766
24727SOL    HW174207   5.061   6.331   3.781
24727SOL    HW274208   5.045   6.451   3.671
24728SOL     OW74209   4.792   6.919   4.573
24728SOL    HW174210   4.799   6.835   4.518
24728SOL    HW274211   4.854   6.988   4.537
24729SOL     OW74212   4.043   6.396   4.673
24729SOL    HW174213   4.136   6.432   4.678
24729SOL    HW274214   4.037   6.311   4.725
24730SOL     OW74215   4.063   6.095   4.730
24730SOL    HW174216   4.011   6.012   4.713
24730SOL    HW274217   4.140   6.100   4.666
24731SOL     OW74218   4.862   5.966   5.402
24731SOL    HW174219   4.817   6.029   5.466
24731SOL    HW274220   4.955   5.997   5.385
24732SOL     OW74221   4.884   5.793   5.201
24732SOL    HW174222   4.884   5.857   5.278
24732SOL    HW274223   4.912   5.841   5.118
24733SOL     OW74224   3.732   6.912   3.924
24733SOL    HW174225   3.639   6.933   3.893
24733SOL    HW274226   3.742   6.813   3.937
24734SOL     OW74227   3.812   7.387   4.651
24734SOL    HW174228   3.770   7.301   4.624
24734SOL    HW274229   3.906   7.390   4.617
24735SOL     OW74230   4.228   7.154   4.634
24735SOL    HW174231   4.294   7.228   4.643
24735SOL    HW274232   4.272   7.075   4.592
24736SOL     OW74233   4.726   6.382   4.962
24736SOL    HW174234   4.767   6.350   5.048
24736SOL    HW274235   4.630   6.355   4.959
24737SOL     OW74236   3.764   6.130   4.838
24737SOL    HW174237   3.849   6.097   4.797
24737SOL    HW274238   3.777   6.145   4.936
24738SOL     OW74239   3.913   6.106   5.446
24738SOL    HW174240   3.972   6.066   5.376
24738SOL    HW274241   3.855   6.177   5.405
24739SOL     OW74242   5.093   6.536   5.384
24739SOL    HW174243   5.132   6.625   5.404
24739SOL    HW274244   5.103   6.516   5.287
24740SOL     OW74245   4.539   6.158   4.049
24740SOL    HW174246   4.546   6.069   4.003
24740SOL    HW274247   4.445   6.192   4.041
24741SOL     OW74248   5.381   6.190   4.930
24741SOL    HW174249   5.343   6.121   4.992
24741SOL    HW274250   5.463   6.154   4.886
24742SOL     OW74251   3.976   7.150   5.468
24742SOL    HW174252   3.946   7.207   5.544
24742SOL    HW274253   3.969   7.053   5.494
24743SOL     OW74254   4.395   6.050   4.993
24743SOL    HW174255   4.361   5.961   4.963
24743SOL    HW274256   4.421   6.104   4.913
24744SOL     OW74257   4.654   7.264   5.189
24744SOL    HW174258   4.630   7.246   5.094
24744SOL    HW274259   4.684   7.358   5.199
24745SOL     OW74260   4.197   6.086   3.915
24745SOL    HW174261   4.258   6.166   3.919
24745SOL    HW274262   4.102   6.117   3.922
24746SOL     OW74263   3.883   6.723   5.190
24746SOL    HW174264   3.905   6.662   5.266
24746SOL    HW274265   3.893   6.674   5.104
24747SOL     OW74266   5.071   6.645   4.958
24747SOL    HW174267   5.095   6.582   4.884
24747SOL    HW274268   4.981   6.685   4.940
24748SOL     OW74269   5.026   6.441   4.033
24748SOL    HW174270   4.940   6.410   4.075
24748SOL    HW274271   5.022   6.427   3.934
24749SOL     OW74272   5.483   7.333   4.878
24749SOL    HW174273   5.544   7.363   4.805
24749SOL    HW274274   5.445   7.244   4.856
24750SOL     OW74275   4.976   7.317   4.852
24750SOL    HW174276   5.060   7.322   4.798
24750SOL    HW274277   4.953   7.221   4.870
24751SOL     OW74278   3.807   6.844   4.746
24751SOL    HW174279   3.802   6.843   4.846
24751SOL    HW274280   3.724   6.803   4.708
24752SOL     OW74281   4.412   7.248   5.440
24752SOL    HW174282   4.356   7.329   5.449
24752SOL    HW274283   4.464   7.252   5.354
24753SOL     OW74284   5.450   5.721   4.247
24753SOL    HW174285   5.523   5.704   4.180
24753SOL    HW274286   5.419   5.634   4.285
24754SOL     OW74287   5.112   7.159   4.201
24754SOL    HW174288   5.179   7.171   4.127
24754SOL    HW274289   5.072   7.248   4.224
24755SOL     OW74290   3.854   7.380   5.575
24755SOL    HW174291   3.813   7.306   5.628
24755SOL    HW274292   3.918   7.431   5.633
24756SOL     OW74293   5.004   6.513   4.396
24756SOL    HW174294   5.064   6.432   4.398
24756SOL    HW274295   5.044   6.582   4.336
24757SOL     OW74296   4.554   6.859   5.146
24757SOL    HW174297   4.549   6.892   5.241
24757SOL    HW274298   4.468   6.878   5.100
24758SOL     OW74299   4.396   7.202   3.878
24758SOL    HW174300   4.405   7.212   3.779
24758SOL    HW274301   4.356   7.113   3.899
24759SOL     OW74302   5.374   7.306   5.118
24759SOL    HW174303   5.427   7.316   5.034
24759SOL    HW274304   5.347   7.396   5.152
24760SOL     OW74305   5.565   5.761   4.687
24760SOL    HW174306   5.604   5.676   4.651
24760SOL    HW274307   5.467   5.763   4.668
24761SOL     OW74308   3.987   5.912   4.444
24761SOL    HW174309   3.908   5.963   4.410
24761SOL    HW274310   3.978   5.897   4.542
24762SOL     OW74311   4.918   7.198   3.755
24762SOL    HW174312   4.924   7.105   3.792
24762SOL    HW274313   4.859   7.198   3.675
24763SOL     OW74314   4.546   6.588   5.096
24763SOL    HW174315   4.586   6.587   5.004
24763SOL    HW274316   4.556   6.680   5.136
24764SOL     OW74317   4.640   6.496   4.015
24764SOL    HW174318   4.703   6.534   3.947
24764SOL    HW274319   4.680   6.413   4.054
24765SOL     OW74320   5.228   7.193   3.768
24765SOL    HW174321   5.136   7.230   3.775
24765SOL    HW274322   5.266   7.213   3.678
24766SOL     OW74323   4.096   6.874   5.214
24766SOL    HW174324   4.083   6.967   5.180
24766SOL    HW274325   4.012   6.822   5.201
24767SOL     OW74326   5.338   6.878   5.013
24767SOL    HW174327   5.398   6.881   5.093
24767SOL    HW274328   5.263   6.942   5.026
24768SOL     OW74329   4.763   6.684   4.420
24768SOL    HW174330   4.693   6.637   4.474
24768SOL    HW274331   4.822   6.616   4.377
24769SOL     OW74332   4.738   5.822   4.695
24769SOL    HW174333   4.730   5.786   4.602
24769SOL    HW274334   4.736   5.746   4.760
24770SOL     OW74335   4.314   7.073   4.215
24770SOL    HW174336   4.356   7.015   4.145
24770SOL    HW274337   4.270   7.152   4.171
24771SOL     OW74338   5.433   5.971   5.105
24771SOL    HW174339   5.506   6.040   5.109
24771SOL    HW274340   5.461   5.896   5.046
24772SOL     OW74341   3.979   6.934   4.014
24772SOL    HW174342   3.883   6.935   3.987
24772SOL    HW274343   3.991   6.987   4.098
24773SOL     OW74344   3.829   6.599   5.450
24773SOL    HW174345   3.752   6.566   5.504
24773SOL    HW274346   3.914   6.569   5.492
24774SOL     OW74347   4.396   5.789   5.213
24774SOL    HW174348   4.486   5.773   5.173
24774SOL    HW274349   4.404   5.794   5.312
24775SOL     OW74350   3.799   5.931   3.757
24775SOL    HW174351   3.707   5.903   3.728
24775SOL    HW274352   3.830   6.008   3.701
24776SOL     OW74353   5.164   6.442   5.122
24776SOL    HW174354   5.107   6.494   5.059
24776SOL    HW274355   5.260   6.454   5.098
24777SOL     OW74356   3.796   5.752   4.042
24777SOL    HW174357   3.779   5.835   3.988
24777SOL    HW274358   3.886   5.715   4.020
24778SOL     OW74359   4.907   6.921   3.843
24778SOL    HW174360   4.808   6.910   3.845
24778SOL    HW274361   4.941   6.936   3.936
24779SOL     OW74362   4.337   6.428   5.155
24779SOL    HW174363   4.393   6.509   5.138
24779SOL    HW274364   4.396   6.348   5.158
24780SOL     OW74365   5.217   7.353   4.683
24780SOL    HW174366   5.250   7.417   4.614
24780SOL    HW274367   5.283   7.347   4.758
24781SOL     OW74368   4.440   6.151   5.432
24781SOL    HW174369   4.459   6.216   5.506
24781SOL    HW274370   4.500   6.071   5.441
24782SOL     OW74371   5.174   6.806   5.357
24782SOL    HW174372   5.165   6.796   5.456
24782SOL    HW274373   5.270   6.799   5.331
24783SOL     OW74374   4.114   7.327   5.284
24783SOL    HW174375   4.023   7.368   5.282
24783SOL    HW274376   4.107   7.233   5.316
24784SOL     OW74377   5.398   6.469   4.978
24784SOL    HW174378   5.371   6.380   4.941
24784SOL    HW274379   5.399   6.537   4.905
24785SOL     OW74380   4.949   5.911   4.173
24785SOL    HW174381   5.014   5.837   4.162
24785SOL    HW274382   4.969   5.961   4.257
24786SOL     OW74383   4.318   6.331   4.376
24786SOL    HW174384   4.368   6.416   4.357
24786SOL    HW274385   4.230   6.333   4.328
24787SOL     OW74386   5.501   5.928   5.366
24787SOL    HW174387   5.484   5.959   5.272
24787SOL    HW274388   5.417   5.891   5.404
24788SOL     OW74389   5.454   6.520   5.241
24788SOL    HW174390   5.492   6.611   5.256
24788SOL    HW274391   5.446   6.503   5.142
24789SOL     OW74392   4.583   6.960   3.740
24789SOL    HW174393   4.537   6.975   3.828
24789SOL    HW274394   4.627   7.045   3.710
24790SOL     OW74395   4.385   7.376   4.677
24790SOL    HW174396   4.339   7.464   4.664
24790SOL    HW274397   4.484   7.388   4.670
24791SOL     OW74398   4.583   6.542   4.585
24791SOL    HW174399   4.637   6.473   4.633
24791SOL    HW274400   4.551   6.611   4.651
24792SOL     OW74401   4.807   6.570   3.811
24792SOL    HW174402   4.784   6.623   3.729
24792SOL    HW274403   4.888   6.514   3.792
24793SOL     OW74404   5.585   7.155   4.575
24793SOL    HW174405   5.514   7.143   4.505
24793SOL    HW274406   5.586   7.076   4.635
24794SOL     OW74407   3.945   6.900   5.568
24794SOL    HW174408   3.880   6.827   5.547
24794SOL    HW274409   3.949   6.914   5.666
24795SOL     OW74410   3.803   6.826   4.377
24795SOL    HW174411   3.802   6.779   4.465
24795SOL    HW274412   3.885   6.798   4.326
24796SOL     OW74413   4.396   6.977   5.348
24796SOL    HW174414   4.318   6.927   5.386
24796SOL    HW274415   4.393   7.072   5.379
24797SOL     OW74416   5.548   5.778   4.951
24797SOL    HW174417   5.544   5.688   4.995
24797SOL    HW274418   5.551   5.767   4.852
24798SOL     OW74419   4.152   6.010   4.244
24798SOL    HW174420   4.182   5.938   4.182
24798SOL    HW274421   4.113   5.970   4.327
24799SOL     OW74422   5.429   7.073   4.828
24799SOL    HW174423   5.336   7.048   4.801
24799SOL    HW274424   5.455   7.023   4.910
24800SOL     OW74425   4.041   6.133   5.004
24800SOL    HW174426   4.079   6.074   5.076
24800SOL    HW274427   4.081   6.107   4.916
24801SOL     OW74428   4.536   7.172   4.411
24801SOL    HW174429   4.568   7.182   4.317
24801SOL    HW274430   4.457   7.110   4.413
24802SOL     OW74431   5.148   5.800   4.836
24802SOL    HW174432   5.200   5.735   4.891
24802SOL    HW274433   5.099   5.863   4.897
24803SOL     OW74434   4.725   5.620   4.878
24803SOL    HW174435   4.662   5.548   4.847
24803SOL    HW274436   4.818   5.584   4.878
24804SOL     OW74437   4.494   6.916   4.025
24804SOL    HW174438   4.448   6.829   4.042
24804SOL    HW274439   4.585   6.913   4.066
24805SOL     OW74440   4.342   7.153   5.008
24805SOL    HW174441   4.337   7.235   5.065
24805SOL    HW274442   4.431   7.150   4.963
24806SOL     OW74443   5.076   5.638   3.892
24806SOL    HW174444   5.111   5.597   3.808
24806SOL    HW274445   4.986   5.600   3.912
24807SOL     OW74446   5.024   6.039   4.415
24807SOL    HW174447   4.965   6.119   4.419
24807SOL    HW274448   5.039   6.004   4.508
24808SOL     OW74449   5.317   5.807   4.606
24808SOL    HW174450   5.233   5.806   4.660
24808SOL    HW274451   5.319   5.890   4.550
24809SOL     OW74452   3.763   6.663   4.024
24809SOL    HW174453   3.862   6.652   4.015
24809SOL    HW274454   3.723   6.577   4.056
24810SOL     OW74455   4.599   7.232   4.061
24810SOL    HW174456   4.522   7.197   4.007
24810SOL    HW274457   4.567   7.303   4.123
24811SOL     OW74458   3.954   6.214   5.699
24811SOL    HW174459   3.861   6.212   5.736
24811SOL    HW274460   3.955   6.175   5.607
24812SOL     OW74461   3.949   5.861   6.582
24812SOL    HW174462   3.984   5.844   6.674
24812SOL    HW274463   3.861   5.816   6.570
24813SOL     OW74464   3.743   5.954   6.233
24813SOL    HW174465   3.661   5.997   6.272
24813SOL    HW274466   3.715   5.881   6.170
24814SOL     OW74467   4.293   6.861   6.751
24814SOL    HW174468   4.200   6.854   6.714
24814SOL    HW274469   4.304   6.950   6.795
24815SOL     OW74470   5.279   7.097   6.289
24815SOL    HW174471   5.222   7.081   6.370
24815SOL    HW274472   5.220   7.107   6.209
24816SOL     OW74473   4.859   6.289   6.303
24816SOL    HW174474   4.916   6.367   6.278
24816SOL    HW274475   4.799   6.315   6.379
24817SOL     OW74476   5.479   6.193   5.817
24817SOL    HW174477   5.467   6.180   5.718
24817SOL    HW274478   5.449   6.112   5.866
24818SOL     OW74479   4.492   6.730   6.609
24818SOL    HW174480   4.414   6.747   6.669
24818SOL    HW274481   4.526   6.817   6.573
24819SOL     OW74482   4.574   6.384   7.409
24819SOL    HW174483   4.570   6.460   7.474
24819SOL    HW274484   4.596   6.420   7.318
24820SOL     OW74485   4.409   6.598   6.251
24820SOL    HW174486   4.478   6.582   6.321
24820SOL    HW274487   4.336   6.655   6.289
24821SOL     OW74488   4.410   6.747   7.389
24821SOL    HW174489   4.470   6.826   7.403
24821SOL    HW274490   4.324   6.778   7.348
24822SOL     OW74491   4.059   7.021   6.647
24822SOL    HW174492   3.981   6.990   6.594
24822SOL    HW274493   4.117   7.079   6.590
24823SOL     OW74494   5.184   7.091   6.925
24823SOL    HW174495   5.208   7.185   6.951
24823SOL    HW274496   5.168   7.037   7.007
24824SOL     OW74497   4.162   5.978   7.085
24824SOL    HW174498   4.244   5.922   7.094
24824SOL    HW274499   4.081   5.920   7.089
24825SOL     OW74500   5.327   6.033   6.323
24825SOL    HW174501   5.253   6.079   6.273
24825SOL    HW274502   5.378   6.101   6.376
24826SOL     OW74503   3.955   7.299   6.069
24826SOL    HW174504   3.989   7.376   6.123
24826SOL    HW274505   3.999   7.299   5.979
24827SOL     OW74506   4.851   6.927   7.276
24827SOL    HW174507   4.898   6.927   7.364
24827SOL    HW274508   4.803   6.840   7.265
24828SOL     OW74509   3.954   7.020   6.124
24828SOL    HW174510   3.928   7.116   6.124
24828SOL    HW274511   3.883   6.966   6.169
24829SOL     OW74512   3.964   6.677   6.472
24829SOL    HW174513   3.978   6.593   6.524
24829SOL    HW274514   3.909   6.741   6.527
24830SOL     OW74515   4.344   7.372   7.025
24830SOL    HW174516   4.252   7.355   7.060
24830SOL    HW274517   4.372   7.464   7.051
24831SOL     OW74518   4.330   6.550   5.709
24831SOL    HW174519   4.337   6.634   5.655
24831SOL    HW274520   4.376   6.563   5.797
24832SOL     OW74521   5.318   5.700   7.066
24832SOL    HW174522   5.300   5.767   6.994
24832SOL    HW274523   5.315   5.746   7.155
24833SOL     OW74524   3.846   6.229   6.149
24833SOL    HW174525   3.801   6.141   6.166
24833SOL    HW274526   3.845   6.283   6.233
24834SOL     OW74527   5.566   7.353   5.945
24834SOL    HW174528   5.620   7.324   6.025
24834SOL    HW274529   5.596   7.443   5.916
24835SOL     OW74530   3.751   7.182   5.703
24835SOL    HW174531   3.732   7.086   5.724
24835SOL    HW274532   3.718   7.240   5.778
24836SOL     OW74533   5.413   6.508   6.198
24836SOL    HW174534   5.508   6.479   6.206
24836SOL    HW274535   5.405   6.573   6.123
24837SOL     OW74536   5.365   6.694   6.018
24837SOL    HW174537   5.451   6.696   5.966
24837SOL    HW274538   5.379   6.741   6.106
24838SOL     OW74539   3.837   6.323   7.183
24838SOL    HW174540   3.925   6.310   7.228
24838SOL    HW274541   3.824   6.420   7.161
24839SOL     OW74542   4.337   6.951   6.312
24839SOL    HW174543   4.288   6.864   6.321
24839SOL    HW274544   4.314   6.994   6.225
24840SOL     OW74545   5.017   6.814   7.009
24840SOL    HW174546   5.054   6.741   6.951
24840SOL    HW274547   5.069   6.819   7.094
24841SOL     OW74548   4.533   5.590   6.088
24841SOL    HW174549   4.573   5.681   6.079
24841SOL    HW274550   4.433   5.598   6.094
24842SOL     OW74551   3.921   6.562   6.850
24842SOL    HW174552   4.010   6.517   6.836
24842SOL    HW274553   3.848   6.497   6.831
24843SOL     OW74554   5.249   6.585   5.776
24843SOL    HW174555   5.186   6.509   5.789
24843SOL    HW274556   5.297   6.603   5.862
24844SOL     OW74557   4.911   7.378   7.202
24844SOL    HW174558   4.935   7.438   7.126
24844SOL    HW274559   4.918   7.283   7.172
24845SOL     OW74560   4.041   5.837   7.387
24845SOL    HW174561   4.112   5.908   7.393
24845SOL    HW274562   3.953   5.876   7.415
24846SOL     OW74563   5.190   7.003   6.539
24846SOL    HW174564   5.131   7.009   6.619
24846SOL    HW274565   5.175   6.915   6.493
24847SOL     OW74566   5.391   7.300   6.158
24847SOL    HW174567   5.350   7.277   6.070
24847SOL    HW274568   5.373   7.226   6.223
24848SOL     OW74569   4.322   6.315   5.856
24848SOL    HW174570   4.346   6.384   5.788
24848SOL    HW274571   4.244   6.348   5.910
24849SOL     OW74572   5.005   5.931   6.530
24849SOL    HW174573   4.919   5.881   6.517
24849SOL    HW274574   5.067   5.877   6.586
24850SOL     OW74575   5.300   7.248   5.893
24850SOL    HW174576   5.389   7.294   5.896
24850SOL    HW274577   5.279   7.224   5.798
24851SOL     OW74578   4.531   6.191   7.051
24851SOL    HW174579   4.484   6.188   7.140
24851SOL    HW274580   4.480   6.136   6.985
24852SOL     OW74581   5.118   6.055   7.260
24852SOL    HW174582   5.098   6.098   7.348
24852SOL    HW274583   5.196   5.993   7.269
24853SOL     OW74584   4.697   6.476   7.158
24853SOL    HW174585   4.743   6.392   7.129
24853SOL    HW274586   4.641   6.510   7.083
24854SOL     OW74587   4.715   5.996   6.828
24854SOL    HW174588   4.638   6.030   6.882
24854SOL    HW274589   4.681   5.945   6.749
24855SOL     OW74590   4.765   6.287   6.015
24855SOL    HW174591   4.791   6.283   6.111
24855SOL    HW274592   4.680   6.236   6.001
24856SOL     OW74593   3.800   6.397   6.375
24856SOL    HW174594   3.899   6.385   6.384
24856SOL    HW274595   3.776   6.492   6.396
24857SOL     OW74596   3.854   7.407   7.157
24857SOL    HW174597   3.844   7.392   7.256
24857SOL    HW274598   3.768   7.443   7.121
24858SOL     OW74599   4.589   5.934   5.781
24858SOL    HW174600   4.648   5.997   5.732
24858SOL    HW274601   4.608   5.840   5.752
24859SOL     OW74602   5.443   6.171   7.417
24859SOL    HW174603   5.417   6.260   7.381
24859SOL    HW274604   5.441   6.103   7.344
24860SOL     OW74605   5.086   6.730   6.131
24860SOL    HW174606   5.169   6.701   6.083
24860SOL    HW274607   5.037   6.797   6.075
24861SOL     OW74608   4.274   5.782   6.471
24861SOL    HW174609   4.269   5.777   6.571
24861SOL    HW274610   4.276   5.878   6.442
24862SOL     OW74611   4.732   7.042   6.063
24862SOL    HW174612   4.686   7.114   6.011
24862SOL    HW274613   4.728   7.062   6.161
24863SOL     OW74614   4.075   7.387   6.439
24863SOL    HW174615   4.125   7.301   6.445
24863SOL    HW274616   4.140   7.464   6.436
24864SOL     OW74617   5.519   6.652   6.459
24864SOL    HW174618   5.457   6.637   6.383
24864SOL    HW274619   5.467   6.663   6.544
24865SOL     OW74620   4.951   7.136   7.092
24865SOL    HW174621   4.957   7.059   7.156
24865SOL    HW274622   4.899   7.110   7.012
24866SOL     OW74623   4.045   6.529   5.828
24866SOL    HW174624   4.127   6.568   5.786
24866SOL    HW274625   4.018   6.447   5.779
24867SOL     OW74626   5.182   6.321   6.314
24867SOL    HW174627   5.177   6.256   6.389
24867SOL    HW274628   5.262   6.380   6.327
24868SOL     OW74629   4.185   6.852   7.313
24868SOL    HW174630   4.135   6.853   7.227
24868SOL    HW274631   4.122   6.834   7.389
24869SOL     OW74632   4.835   7.362   5.823
24869SOL    HW174633   4.775   7.300   5.873
24869SOL    HW274634   4.866   7.318   5.738
24870SOL     OW74635   3.926   5.871   7.084
24870SOL    HW174636   3.846   5.931   7.071
24870SOL    HW274637   3.916   5.822   7.170
24871SOL     OW74638   5.356   6.963   5.667
24871SOL    HW174639   5.324   7.057   5.657
24871SOL    HW274640   5.280   6.900   5.655
24872SOL     OW74641   4.188   7.329   5.909
24872SOL    HW174642   4.221   7.368   5.995
24872SOL    HW274643   4.264   7.322   5.844
24873SOL     OW74644   5.124   5.693   6.012
24873SOL    HW174645   5.100   5.656   5.922
24873SOL    HW274646   5.223   5.709   6.016
24874SOL     OW74647   3.973   7.371   6.827
24874SOL    HW174648   4.030   7.306   6.877
24874SOL    HW274649   3.957   7.338   6.734
24875SOL     OW74650   4.664   7.284   6.490
24875SOL    HW174651   4.744   7.227   6.511
24875SOL    HW274652   4.615   7.244   6.413
24876SOL     OW74653   4.106   6.286   6.066
24876SOL    HW174654   4.151   6.196   6.063
24876SOL    HW274655   4.012   6.275   6.099
24877SOL     OW74656   5.271   5.808   7.315
24877SOL    HW174657   5.266   5.845   7.407
24877SOL    HW274658   5.199   5.739   7.303
24878SOL     OW74659   4.338   5.708   5.703
24878SOL    HW174660   4.436   5.686   5.710
24878SOL    HW274661   4.307   5.691   5.610
24879SOL     OW74662   4.505   5.850   7.335
24879SOL    HW174663   4.572   5.789   7.378
24879SOL    HW274664   4.432   5.869   7.400
24880SOL     OW74665   4.612   7.100   6.781
24880SOL    HW174666   4.589   7.075   6.687
24880SOL    HW274667   4.673   7.031   6.820
24881SOL     OW74668   5.075   6.176   7.019
24881SOL    HW174669   5.103   6.133   7.104
24881SOL    HW274670   5.100   6.272   7.020
24882SOL     OW74671   4.527   6.988   6.510
24882SOL    HW174672   4.617   7.002   6.468
24882SOL    HW274673   4.456   6.990   6.439
24883SOL     OW74674   4.646   6.089   6.485
24883SOL    HW174675   4.621   6.080   6.389
24883SOL    HW274676   4.694   6.007   6.516
24884SOL     OW74677   4.263   5.650   6.098
24884SOL    HW174678   4.182   5.651   6.156
24884SOL    HW274679   4.266   5.733   6.043
24885SOL     OW74680   5.158   6.774   5.627
24885SOL    HW174681   5.190   6.698   5.684
24885SOL    HW274682   5.066   6.801   5.657
24886SOL     OW74683   4.021   5.621   5.757
24886SOL    HW174684   4.070   5.705   5.736
24886SOL    HW274685   4.083   5.556   5.802
24887SOL     OW74686   4.659   5.822   6.066
24887SOL    HW174687   4.611   5.863   5.988
24887SOL    HW274688   4.758   5.820   6.047
24888SOL     OW74689   4.800   6.269   7.050
24888SOL    HW174690   4.720   6.208   7.053
24888SOL    HW274691   4.881   6.216   7.026
24889SOL     OW74692   4.951   7.156   6.379
24889SOL    HW174693   4.972   7.230   6.314
24889SOL    HW274694   5.019   7.156   6.452
24890SOL     OW74695   4.183   6.738   6.327
24890SOL    HW174696   4.112   6.711   6.392
24890SOL    HW274697   4.157   6.710   6.234
24891SOL     OW74698   4.995   7.383   6.177
24891SOL    HW174699   5.039   7.447   6.113
24891SOL    HW274700   4.945   7.435   6.247
24892SOL     OW74701   4.756   6.135   5.602
24892SOL    HW174702   4.715   6.217   5.563
24892SOL    HW274703   4.820   6.161   5.675
24893SOL     OW74704   3.802   6.142   6.972
24893SOL    HW174705   3.894   6.141   6.931
24893SOL    HW274706   3.796   6.216   7.039
24894SOL     OW74707   4.285   5.808   6.733
24894SOL    HW174708   4.323   5.724   6.770
24894SOL    HW274709   4.197   5.827   6.777
24895SOL     OW74710   4.590   6.040   6.228
24895SOL    HW174711   4.558   6.112   6.166
24895SOL    HW274712   4.614   5.959   6.175
24896SOL     OW74713   4.741   5.625   6.339
24896SOL    HW174714   4.669   5.630   6.270
24896SOL    HW274715   4.717   5.556   6.408
24897SOL     OW74716   5.153   6.759   6.453
24897SOL    HW174717   5.098   6.675   6.446
24897SOL    HW274718   5.179   6.788   6.361
24898SOL     OW74719   5.190   6.176   6.578
24898SOL    HW174720   5.160   6.081   6.585
24898SOL    HW274721   5.263   6.192   6.644
24899SOL     OW74722   5.581   6.419   5.963
24899SOL    HW174723   5.623   6.355   6.027
24899SOL    HW274724   5.543   6.368   5.885
24900SOL     OW74725   4.212   6.971   5.760
24900SOL    HW174726   4.125   6.956   5.807
24900SOL    HW274727   4.195   6.997   5.665
24901SOL     OW74728   5.388   6.866   6.243
24901SOL    HW174729   5.487   6.874   6.257
24901SOL    HW274730   5.343   6.950   6.274
24902SOL     OW74731   5.114   6.161   5.664
24902SOL    HW174732   5.060   6.140   5.745
24902SOL    HW274733   5.205   6.120   5.673
24903SOL     OW74734   4.251   5.842   5.914
24903SOL    HW174735   4.278   5.783   5.839
24903SOL    HW274736   4.251   5.937   5.883
24904SOL     OW74737   5.478   6.809   7.174
24904SOL    HW174738   5.569   6.770   7.161
24904SOL    HW274739   5.486   6.905   7.198
24905SOL     OW74740   4.788   6.933   6.926
24905SOL    HW174741   4.708   6.910   6.981
24905SOL    HW274742   4.871   6.907   6.975
24906SOL     OW74743   5.316   7.215   7.211
24906SOL    HW174744   5.343   7.249   7.121
24906SOL    HW274745   5.395   7.177   7.257
24907SOL     OW74746   4.835   6.781   6.686
24907SOL    HW174747   4.795   6.825   6.767
24907SOL    HW274748   4.794   6.818   6.603
24908SOL     OW74749   5.362   6.685   6.665
24908SOL    HW174750   5.367   6.766   6.724
24908SOL    HW274751   5.276   6.687   6.614
24909SOL     OW74752   4.639   5.675   6.988
24909SOL    HW174753   4.664   5.655   6.893
24909SOL    HW274754   4.711   5.731   7.030
24910SOL     OW74755   4.704   6.702   7.305
24910SOL    HW174756   4.605   6.708   7.315
24910SOL    HW274757   4.727   6.622   7.249
24911SOL     OW74758   4.429   6.636   5.954
24911SOL    HW174759   4.415   6.643   6.053
24911SOL    HW274760   4.513   6.585   5.936
24912SOL     OW74761   4.134   6.399   6.837
24912SOL    HW174762   4.220   6.411   6.887
24912SOL    HW274763   4.092   6.312   6.864
24913SOL     OW74764   4.998   5.972   6.848
24913SOL    HW174765   5.019   6.046   6.912
24913SOL    HW274766   4.909   5.989   6.805
24914SOL     OW74767   3.788   7.150   6.917
24914SOL    HW174768   3.742   7.232   6.883
24914SOL    HW274769   3.886   7.169   6.926
24915SOL     OW74770   4.091   6.686   6.087
24915SOL    HW174771   4.084   6.769   6.031
24915SOL    HW274772   4.095   6.606   6.027
24916SOL     OW74773   4.290   6.123   6.451
24916SOL    HW174774   4.302   6.189   6.377
24916SOL    HW274775   4.336   6.157   6.534
24917SOL     OW74776   4.976   6.934   5.974
24917SOL    HW174777   5.026   7.011   6.014
24917SOL    HW274778   4.881   6.936   6.006
24918SOL     OW74779   4.996   7.031   6.728
24918SOL    HW174780   5.043   7.044   6.815
24918SOL    HW274781   4.930   6.957   6.737
24919SOL     OW74782   5.306   6.225   6.058
24919SOL    HW174783   5.275   6.286   6.131
24919SOL    HW274784   5.356   6.277   5.989
24920SOL     OW74785   4.078   7.096   6.915
24920SOL    HW174786   4.057   7.052   6.828
24920SOL    HW274787   4.175   7.122   6.918
24921SOL     OW74788   4.126   6.337   7.184
24921SOL    HW174789   4.194   6.392   7.137
24921SOL    HW274790   4.166   6.249   7.211
24922SOL     OW74791   5.311   6.365   7.256
24922SOL    HW174792   5.219   6.403   7.251
24922SOL    HW274793   5.371   6.412   7.191
24923SOL     OW74794   4.737   5.691   7.356
24923SOL    HW174795   4.743   5.776   7.304
24923SOL    HW274796   4.769   5.615   7.299
24924SOL     OW74797   4.228   5.636   7.326
24924SOL    HW174798   4.186   5.579   7.256
24924SOL    HW274799   4.162   5.705   7.358
24925SOL     OW74800   4.297   6.456   6.615
24925SOL    HW174801   4.341   6.545   6.606
24925SOL    HW274802   4.234   6.456   6.692
24926SOL     OW74803   5.084   6.448   6.631
24926SOL    HW174804   5.009   6.448   6.565
24926SOL    HW274805   5.121   6.356   6.640
24927SOL     OW74806   4.933   6.111   5.861
24927SOL    HW174807   4.946   6.027   5.915
24927SOL    HW274808   4.904   6.185   5.921
24928SOL     OW74809   4.031   5.799   6.817
24928SOL    HW174810   4.008   5.836   6.907
24928SOL    HW274811   4.001   5.704   6.811
24929SOL     OW74812   3.761   6.896   6.868
24929SOL    HW174813   3.814   6.847   6.936
24929SOL    HW274814   3.783   6.994   6.873
24930SOL     OW74815   4.456   6.220   6.650
24930SOL    HW174816   4.515   6.194   6.574
24930SOL    HW274817   4.428   6.316   6.639
24931SOL     OW74818   5.452   6.521   7.440
24931SOL    HW174819   5.406   6.514   7.351
24931SOL    HW274820   5.390   6.565   7.506
24932SOL     OW74821   4.031   5.649   6.204
24932SOL    HW174822   4.020   5.743   6.237
24932SOL    HW274823   4.026   5.586   6.281
24933SOL     OW74824   5.346   5.953   5.960
24933SOL    HW174825   5.348   5.877   6.024
24933SOL    HW274826   5.298   6.030   6.000
24934SOL     OW74827   4.747   6.352   6.552
24934SOL    HW174828   4.762   6.373   6.648
24934SOL    HW274829   4.717   6.257   6.543
24935SOL     OW74830   4.704   7.159   7.286
24935SOL    HW174831   4.684   7.203   7.198
24935SOL    HW274832   4.743   7.068   7.270
24936SOL     OW74833   5.583   7.104   7.191
24936SOL    HW174834   5.597   7.131   7.096
24936SOL    HW274835   5.666   7.126   7.244
24937SOL     OW74836   4.074   6.484   7.390
24937SOL    HW174837   4.150   6.528   7.438
24937SOL    HW274838   4.109   6.437   7.308
24938SOL     OW74839   5.264   5.860   5.711
24938SOL    HW174840   5.203   5.785   5.734
24938SOL    HW274841   5.286   5.912   5.794
24939SOL     OW74842   5.027   6.424   5.628
24939SOL    HW174843   5.061   6.331   5.643
24939SOL    HW274844   5.045   6.451   5.533
24940SOL     OW74845   4.792   6.919   6.435
24940SOL    HW174846   4.799   6.835   6.380
24940SOL    HW274847   4.854   6.988   6.399
24941SOL     OW74848   4.043   6.396   6.535
24941SOL    HW174849   4.136   6.432   6.540
24941SOL    HW274850   4.037   6.311   6.587
24942SOL     OW74851   4.063   6.095   6.592
24942SOL    HW174852   4.011   6.012   6.575
24942SOL    HW274853   4.140   6.100   6.528
24943SOL     OW74854   4.862   5.966   7.264
24943SOL    HW174855   4.817   6.029   7.328
24943SOL    HW274856   4.955   5.997   7.247
24944SOL     OW74857   4.884   5.793   7.063
24944SOL    HW174858   4.884   5.857   7.140
24944SOL    HW274859   4.912   5.841   6.980
24945SOL     OW74860   3.732   6.912   5.786
24945SOL    HW174861   3.639   6.933   5.755
24945SOL    HW274862   3.742   6.813   5.799
24946SOL     OW74863   3.812   7.387   6.513
24946SOL    HW174864   3.770   7.301   6.486
24946SOL    HW274865   3.906   7.390   6.479
24947SOL     OW74866   4.228   7.154   6.496
24947SOL    HW174867   4.294   7.228   6.505
24947SOL    HW274868   4.272   7.075   6.454
24948SOL     OW74869   4.726   6.382   6.824
24948SOL    HW174870   4.767   6.350   6.910
24948SOL    HW274871   4.630   6.355   6.821
24949SOL     OW74872   3.764   6.130   6.700
24949SOL    HW174873   3.849   6.097   6.659
24949SOL    HW274874   3.777   6.145   6.798
24950SOL     OW74875   3.913   6.106   7.308
24950SOL    HW174876   3.972   6.066   7.238
24950SOL    HW274877   3.855   6.177   7.267
24951SOL     OW74878   5.093   6.536   7.246
24951SOL    HW174879   5.132   6.625   7.266
24951SOL    HW274880   5.103   6.516   7.149
24952SOL     OW74881   4.539   6.158   5.911
24952SOL    HW174882   4.546   6.069   5.865
24952SOL    HW274883   4.445   6.192   5.903
24953SOL     OW74884   5.381   6.190   6.792
24953SOL    HW174885   5.343   6.121   6.854
24953SOL    HW274886   5.463   6.154   6.748
24954SOL     OW74887   3.976   7.150   7.330
24954SOL    HW174888   3.946   7.207   7.406
24954SOL    HW274889   3.969   7.053   7.356
24955SOL     OW74890   4.395   6.050   6.855
24955SOL    HW174891   4.361   5.961   6.825
24955SOL    HW274892   4.421   6.104   6.775
24956SOL     OW74893   4.654   7.264   7.051
24956SOL    HW174894   4.630   7.246   6.956
24956SOL    HW274895   4.684   7.358   7.061
24957SOL     OW74896   4.197   6.086   5.777
24957SOL    HW174897   4.258   6.166   5.781
24957SOL    HW274898   4.102   6.117   5.784
24958SOL     OW74899   3.883   6.723   7.052
24958SOL    HW174900   3.905   6.662   7.128
24958SOL    HW274901   3.893   6.674   6.966
24959SOL     OW74902   5.071   6.645   6.820
24959SOL    HW174903   5.095   6.582   6.746
24959SOL    HW274904   4.981   6.685   6.802
24960SOL     OW74905   5.026   6.441   5.895
24960SOL    HW174906   4.940   6.410   5.937
24960SOL    HW274907   5.022   6.427   5.796
24961SOL     OW74908   5.483   7.333   6.740
24961SOL    HW174909   5.544   7.363   6.667
24961SOL    HW274910   5.445   7.244   6.718
24962SOL     OW74911   4.976   7.317   6.714
24962SOL    HW174912   5.060   7.322   6.660
24962SOL    HW274913   4.953   7.221   6.732
24963SOL     OW74914   3.807   6.844   6.608
24963SOL    HW174915   3.802   6.843   6.708
24963SOL    HW274916   3.724   6.803   6.570
24964SOL     OW74917   4.412   7.248   7.302
24964SOL    HW174918   4.356   7.329   7.311
24964SOL    HW274919   4.464   7.252   7.216
24965SOL     OW74920   5.450   5.721   6.109
24965SOL    HW174921   5.523   5.704   6.042
24965SOL    HW274922   5.419   5.634   6.147
24966SOL     OW74923   5.112   7.159   6.063
24966SOL    HW174924   5.179   7.171   5.989
24966SOL    HW274925   5.072   7.248   6.086
24967SOL     OW74926   3.854   7.380   7.437
24967SOL    HW174927   3.813   7.306   7.490
24967SOL    HW274928   3.918   7.431   7.495
24968SOL     OW74929   5.004   6.513   6.258
24968SOL    HW174930   5.064   6.432   6.260
24968SOL    HW274931   5.044   6.582   6.198
24969SOL     OW74932   4.554   6.859   7.008
24969SOL    HW174933   4.549   6.892   7.103
24969SOL    HW274934   4.468   6.878   6.962
24970SOL     OW74935   4.396   7.202   5.740
24970SOL    HW174936   4.405   7.212   5.641
24970SOL    HW274937   4.356   7.113   5.761
24971SOL     OW74938   5.374   7.306   6.980
24971SOL    HW174939   5.427   7.316   6.896
24971SOL    HW274940   5.347   7.396   7.014
24972SOL     OW74941   5.565   5.761   6.549
24972SOL    HW174942   5.604   5.676   6.513
24972SOL    HW274943   5.467   5.763   6.530
24973SOL     OW74944   3.987   5.912   6.306
24973SOL    HW174945   3.908   5.963   6.272
24973SOL    HW274946   3.978   5.897   6.404
24974SOL     OW74947   4.918   7.198   5.617
24974SOL    HW174948   4.924   7.105   5.654
24974SOL    HW274949   4.859   7.198   5.537
24975SOL     OW74950   4.546   6.588   6.958
24975SOL    HW174951   4.586   6.587   6.866
24975SOL    HW274952   4.556   6.680   6.998
24976SOL     OW74953   4.640   6.496   5.877
24976SOL    HW174954   4.703   6.534   5.809
24976SOL    HW274955   4.680   6.413   5.916
24977SOL     OW74956   5.228   7.193   5.630
24977SOL    HW174957   5.136   7.230   5.637
24977SOL    HW274958   5.266   7.213   5.540
24978SOL     OW74959   4.096   6.874   7.076
24978SOL    HW174960   4.083   6.967   7.042
24978SOL    HW274961   4.012   6.822   7.063
24979SOL     OW74962   5.338   6.878   6.875
24979SOL    HW174963   5.398   6.881   6.955
24979SOL    HW274964   5.263   6.942   6.888
24980SOL     OW74965   4.763   6.684   6.282
24980SOL    HW174966   4.693   6.637   6.336
24980SOL    HW274967   4.822   6.616   6.239
24981SOL     OW74968   4.738   5.822   6.557
24981SOL    HW174969   4.730   5.786   6.464
24981SOL    HW274970   4.736   5.746   6.622
24982SOL     OW74971   4.314   7.073   6.077
24982SOL    HW174972   4.356   7.015   6.007
24982SOL    HW274973   4.270   7.152   6.033
24983SOL     OW74974   5.433   5.971   6.967
24983SOL    HW174975   5.506   6.040   6.971
24983SOL    HW274976   5.461   5.896   6.908
24984SOL     OW74977   3.979   6.934   5.876
24984SOL    HW174978   3.883   6.935   5.849
24984SOL    HW274979   3.991   6.987   5.960
24985SOL     OW74980   3.829   6.599   7.312
24985SOL    HW174981   3.752   6.566   7.366
24985SOL    HW274982   3.914   6.569   7.354
24986SOL     OW74983   4.396   5.789   7.075
24986SOL    HW174984   4.486   5.773   7.035
24986SOL    HW274985   4.404   5.794   7.174
24987SOL     OW74986   3.799   5.931   5.619
24987SOL    HW174987   3.707   5.903   5.590
24987SOL    HW274988   3.830   6.008   5.563
24988SOL     OW74989   5.164   6.442   6.984
24988SOL    HW174990   5.107   6.494   6.921
24988SOL    HW274991   5.260   6.454   6.960
24989SOL     OW74992   3.796   5.752   5.904
24989SOL    HW174993   3.779   5.835   5.850
24989SOL    HW274994   3.886   5.715   5.882
24990SOL     OW74995   4.907   6.921   5.705
24990SOL    HW174996   4.808   6.910   5.707
24990SOL    HW274997   4.941   6.936   5.798
24991SOL     OW74998   4.337   6.428   7.017
24991SOL    HW174999   4.393   6.509   7.000
24991SOL    HW275000   4.396   6.348   7.020
24992SOL     OW75001   5.217   7.353   6.545
24992SOL    HW175002   5.250   7.417   6.476
24992SOL    HW275003   5.283   7.347   6.620
24993SOL     OW75004   4.440   6.151   7.294
24993SOL    HW175005   4.459   6.216   7.368
24993SOL    HW275006   4.500   6.071   7.303
24994SOL     OW75007   5.174   6.806   7.219
24994SOL    HW175008   5.165   6.796   7.318
24994SOL    HW275009   5.270   6.799   7.193
24995SOL     OW75010   4.114   7.327   7.146
24995SOL    HW175011   4.023   7.368   7.144
24995SOL    HW275012   4.107   7.233   7.178
24996SOL     OW75013   5.398   6.469   6.840
24996SOL    HW175014   5.371   6.380   6.803
24996SOL    HW275015   5.399   6.537   6.767
24997SOL     OW75016   4.949   5.911   6.035
24997SOL    HW175017   5.014   5.837   6.024
24997SOL    HW275018   4.969   5.961   6.119
24998SOL     OW75019   4.318   6.331   6.238
24998SOL    HW175020   4.368   6.416   6.219
24998SOL    HW275021   4.230   6.333   6.190
24999SOL     OW75022   5.501   5.928   7.228
24999SOL    HW175023   5.484   5.959   7.134
24999SOL    HW275024   5.417   5.891   7.266
25000SOL     OW75025   5.454   6.520   7.103
25000SOL    HW175026   5.492   6.611   7.118
25000SOL    HW275027   5.446   6.503   7.004
25001SOL     OW75028   4.583   6.960   5.602
25001SOL    HW175029   4.537   6.975   5.690
25001SOL    HW275030   4.627   7.045   5.572
25002SOL     OW75031   4.385   7.376   6.539
25002SOL    HW175032   4.339   7.464   6.526
25002SOL    HW275033   4.484   7.388   6.532
25003SOL     OW75034   4.583   6.542   6.447
25003SOL    HW175035   4.637   6.473   6.495
25003SOL    HW275036   4.551   6.611   6.513
25004SOL     OW75037   4.807   6.570   5.673
25004SOL    HW175038   4.784   6.623   5.591
25004SOL    HW275039   4.888   6.514   5.654
25005SOL     OW75040   5.585   7.155   6.437
25005SOL    HW175041   5.514   7.143   6.367
25005SOL    HW275042   5.586   7.076   6.497
25006SOL     OW75043   3.945   6.900   7.430
25006SOL    HW175044   3.880   6.827   7.409
25006SOL    HW275045   3.949   6.914   7.528
25007SOL     OW75046   3.803   6.826   6.239
25007SOL    HW175047   3.802   6.779   6.327
25007SOL    HW275048   3.885   6.798   6.188
25008SOL     OW75049   4.396   6.977   7.210
25008SOL    HW175050   4.318   6.927   7.248
25008SOL    HW275051   4.393   7.072   7.241
25009SOL     OW75052   5.548   5.778   6.813
25009SOL    HW175053   5.544   5.688   6.857
25009SOL    HW275054   5.551   5.767   6.714
25010SOL     OW75055   4.152   6.010   6.106
25010SOL    HW175056   4.182   5.938   6.044
25010SOL    HW275057   4.113   5.970   6.189
25011SOL     OW75058   5.429   7.073   6.690
25011SOL    HW175059   5.336   7.048   6.663
25011SOL    HW275060   5.455   7.023   6.772
25012SOL     OW75061   4.041   6.133   6.866
25012SOL    HW175062   4.079   6.074   6.938
25012SOL    HW275063   4.081   6.107   6.778
25013SOL     OW75064   4.536   7.172   6.273
25013SOL    HW175065   4.568   7.182   6.179
25013SOL    HW275066   4.457   7.110   6.275
25014SOL     OW75067   5.148   5.800   6.698
25014SOL    HW175068   5.200   5.735   6.753
25014SOL    HW275069   5.099   5.863   6.759
25015SOL     OW75070   4.725   5.620   6.740
25015SOL    HW175071   4.662   5.548   6.709
25015SOL    HW275072   4.818   5.584   6.740
25016SOL     OW75073   4.494   6.916   5.887
25016SOL    HW175074   4.448   6.829   5.904
25016SOL    HW275075   4.585   6.913   5.928
25017SOL     OW75076   4.342   7.153   6.870
25017SOL    HW175077   4.337   7.235   6.927
25017SOL    HW275078   4.431   7.150   6.825
25018SOL     OW75079   5.076   5.638   5.754
25018SOL    HW175080   5.111   5.597   5.670
25018SOL    HW275081   4.986   5.600   5.774
25019SOL     OW75082   5.024   6.039   6.277
25019SOL    HW175083   4.965   6.119   6.281
25019SOL    HW275084   5.039   6.004   6.370
25020SOL     OW75085   5.317   5.807   6.468
25020SOL    HW175086   5.233   5.806   6.522
25020SOL    HW275087   5.319   5.890   6.412
25021SOL     OW75088   3.763   6.663   5.886
25021SOL    HW175089   3.862   6.652   5.877
25021SOL    HW275090   3.723   6.577   5.918
25022SOL     OW75091   4.599   7.232   5.923
25022SOL    HW175092   4.522   7.197   5.869
25022SOL    HW275093   4.567   7.303   5.985
25023SOL     OW75094   3.954   6.214   7.561
25023SOL    HW175095   3.861   6.212   7.598
25023SOL    HW275096   3.955   6.175   7.469
25024SOL     OW75097   3.949   5.861   8.444
25024SOL    HW175098   3.984   5.844   8.536
25024SOL    HW275099   3.861   5.816   8.432
25025SOL     OW75100   3.743   5.954   8.095
25025SOL    HW175101   3.661   5.997   8.134
25025SOL    HW275102   3.715   5.881   8.032
25026SOL     OW75103   4.293   6.861   8.613
25026SOL    HW175104   4.200   6.854   8.576
25026SOL    HW275105   4.304   6.950   8.657
25027SOL     OW75106   5.279   7.097   8.151
25027SOL    HW175107   5.222   7.081   8.232
25027SOL    HW275108   5.220   7.107   8.071
25028SOL     OW75109   4.859   6.289   8.165
25028SOL    HW175110   4.916   6.367   8.140
25028SOL    HW275111   4.799   6.315   8.241
25029SOL     OW75112   5.479   6.193   7.679
25029SOL    HW175113   5.467   6.180   7.580
25029SOL    HW275114   5.449   6.112   7.728
25030SOL     OW75115   4.492   6.730   8.471
25030SOL    HW175116   4.414   6.747   8.531
25030SOL    HW275117   4.526   6.817   8.435
25031SOL     OW75118   4.574   6.384   9.271
25031SOL    HW175119   4.570   6.460   9.336
25031SOL    HW275120   4.596   6.420   9.180
25032SOL     OW75121   4.409   6.598   8.113
25032SOL    HW175122   4.478   6.582   8.183
25032SOL    HW275123   4.336   6.655   8.151
25033SOL     OW75124   4.410   6.747   9.251
25033SOL    HW175125   4.470   6.826   9.265
25033SOL    HW275126   4.324   6.778   9.210
25034SOL     OW75127   4.059   7.021   8.509
25034SOL    HW175128   3.981   6.990   8.456
25034SOL    HW275129   4.117   7.079   8.452
25035SOL     OW75130   5.184   7.091   8.787
25035SOL    HW175131   5.208   7.185   8.813
25035SOL    HW275132   5.168   7.037   8.869
25036SOL     OW75133   4.162   5.978   8.947
25036SOL    HW175134   4.244   5.922   8.956
25036SOL    HW275135   4.081   5.920   8.951
25037SOL     OW75136   5.327   6.033   8.185
25037SOL    HW175137   5.253   6.079   8.135
25037SOL    HW275138   5.378   6.101   8.238
25038SOL     OW75139   3.955   7.299   7.931
25038SOL    HW175140   3.989   7.376   7.985
25038SOL    HW275141   3.999   7.299   7.841
25039SOL     OW75142   4.851   6.927   9.138
25039SOL    HW175143   4.898   6.927   9.226
25039SOL    HW275144   4.803   6.840   9.127
25040SOL     OW75145   3.954   7.020   7.986
25040SOL    HW175146   3.928   7.116   7.986
25040SOL    HW275147   3.883   6.966   8.031
25041SOL     OW75148   3.964   6.677   8.334
25041SOL    HW175149   3.978   6.593   8.386
25041SOL    HW275150   3.909   6.741   8.389
25042SOL     OW75151   4.344   7.372   8.887
25042SOL    HW175152   4.252   7.355   8.922
25042SOL    HW275153   4.372   7.464   8.913
25043SOL     OW75154   4.330   6.550   7.571
25043SOL    HW175155   4.337   6.634   7.517
25043SOL    HW275156   4.376   6.563   7.659
25044SOL     OW75157   5.318   5.700   8.928
25044SOL    HW175158   5.300   5.767   8.856
25044SOL    HW275159   5.315   5.746   9.017
25045SOL     OW75160   3.846   6.229   8.011
25045SOL    HW175161   3.801   6.141   8.028
25045SOL    HW275162   3.845   6.283   8.095
25046SOL     OW75163   5.566   7.353   7.807
25046SOL    HW175164   5.620   7.324   7.887
25046SOL    HW275165   5.596   7.443   7.778
25047SOL     OW75166   3.751   7.182   7.565
25047SOL    HW175167   3.732   7.086   7.586
25047SOL    HW275168   3.718   7.240   7.640
25048SOL     OW75169   5.413   6.508   8.060
25048SOL    HW175170   5.508   6.479   8.068
25048SOL    HW275171   5.405   6.573   7.985
25049SOL     OW75172   5.365   6.694   7.880
25049SOL    HW175173   5.451   6.696   7.828
25049SOL    HW275174   5.379   6.741   7.968
25050SOL     OW75175   3.837   6.323   9.045
25050SOL    HW175176   3.925   6.310   9.090
25050SOL    HW275177   3.824   6.420   9.023
25051SOL     OW75178   4.337   6.951   8.174
25051SOL    HW175179   4.288   6.864   8.183
25051SOL    HW275180   4.314   6.994   8.087
25052SOL     OW75181   5.017   6.814   8.871
25052SOL    HW175182   5.054   6.741   8.813
25052SOL    HW275183   5.069   6.819   8.956
25053SOL     OW75184   4.533   5.590   7.950
25053SOL    HW175185   4.573   5.681   7.941
25053SOL    HW275186   4.433   5.598   7.956
25054SOL     OW75187   3.921   6.562   8.712
25054SOL    HW175188   4.010   6.517   8.698
25054SOL    HW275189   3.848   6.497   8.693
25055SOL     OW75190   5.249   6.585   7.638
25055SOL    HW175191   5.186   6.509   7.651
25055SOL    HW275192   5.297   6.603   7.724
25056SOL     OW75193   4.911   7.378   9.064
25056SOL    HW175194   4.935   7.438   8.988
25056SOL    HW275195   4.918   7.283   9.034
25057SOL     OW75196   4.041   5.837   9.249
25057SOL    HW175197   4.112   5.908   9.255
25057SOL    HW275198   3.953   5.876   9.277
25058SOL     OW75199   5.190   7.003   8.401
25058SOL    HW175200   5.131   7.009   8.481
25058SOL    HW275201   5.175   6.915   8.355
25059SOL     OW75202   5.391   7.300   8.020
25059SOL    HW175203   5.350   7.277   7.932
25059SOL    HW275204   5.373   7.226   8.085
25060SOL     OW75205   4.322   6.315   7.718
25060SOL    HW175206   4.346   6.384   7.650
25060SOL    HW275207   4.244   6.348   7.772
25061SOL     OW75208   5.005   5.931   8.392
25061SOL    HW175209   4.919   5.881   8.379
25061SOL    HW275210   5.067   5.877   8.448
25062SOL     OW75211   5.300   7.248   7.755
25062SOL    HW175212   5.389   7.294   7.758
25062SOL    HW275213   5.279   7.224   7.660
25063SOL     OW75214   4.531   6.191   8.913
25063SOL    HW175215   4.484   6.188   9.002
25063SOL    HW275216   4.480   6.136   8.847
25064SOL     OW75217   5.118   6.055   9.122
25064SOL    HW175218   5.098   6.098   9.210
25064SOL    HW275219   5.196   5.993   9.131
25065SOL     OW75220   4.697   6.476   9.020
25065SOL    HW175221   4.743   6.392   8.991
25065SOL    HW275222   4.641   6.510   8.945
25066SOL     OW75223   4.715   5.996   8.690
25066SOL    HW175224   4.638   6.030   8.744
25066SOL    HW275225   4.681   5.945   8.611
25067SOL     OW75226   4.765   6.287   7.877
25067SOL    HW175227   4.791   6.283   7.973
25067SOL    HW275228   4.680   6.236   7.863
25068SOL     OW75229   3.800   6.397   8.237
25068SOL    HW175230   3.899   6.385   8.246
25068SOL    HW275231   3.776   6.492   8.258
25069SOL     OW75232   3.854   7.407   9.019
25069SOL    HW175233   3.844   7.392   9.118
25069SOL    HW275234   3.768   7.443   8.983
25070SOL     OW75235   4.589   5.934   7.643
25070SOL    HW175236   4.648   5.997   7.594
25070SOL    HW275237   4.608   5.840   7.614
25071SOL     OW75238   5.443   6.171   9.279
25071SOL    HW175239   5.417   6.260   9.243
25071SOL    HW275240   5.441   6.103   9.206
25072SOL     OW75241   5.086   6.730   7.993
25072SOL    HW175242   5.169   6.701   7.945
25072SOL    HW275243   5.037   6.797   7.937
25073SOL     OW75244   4.274   5.782   8.333
25073SOL    HW175245   4.269   5.777   8.433
25073SOL    HW275246   4.276   5.878   8.304
25074SOL     OW75247   4.732   7.042   7.925
25074SOL    HW175248   4.686   7.114   7.873
25074SOL    HW275249   4.728   7.062   8.023
25075SOL     OW75250   4.075   7.387   8.301
25075SOL    HW175251   4.125   7.301   8.307
25075SOL    HW275252   4.140   7.464   8.298
25076SOL     OW75253   5.519   6.652   8.321
25076SOL    HW175254   5.457   6.637   8.245
25076SOL    HW275255   5.467   6.663   8.406
25077SOL     OW75256   4.951   7.136   8.954
25077SOL    HW175257   4.957   7.059   9.018
25077SOL    HW275258   4.899   7.110   8.874
25078SOL     OW75259   4.045   6.529   7.690
25078SOL    HW175260   4.127   6.568   7.648
25078SOL    HW275261   4.018   6.447   7.641
25079SOL     OW75262   5.182   6.321   8.176
25079SOL    HW175263   5.177   6.256   8.251
25079SOL    HW275264   5.262   6.380   8.189
25080SOL     OW75265   4.185   6.852   9.175
25080SOL    HW175266   4.135   6.853   9.089
25080SOL    HW275267   4.122   6.834   9.251
25081SOL     OW75268   4.835   7.362   7.685
25081SOL    HW175269   4.775   7.300   7.735
25081SOL    HW275270   4.866   7.318   7.600
25082SOL     OW75271   3.926   5.871   8.946
25082SOL    HW175272   3.846   5.931   8.933
25082SOL    HW275273   3.916   5.822   9.032
25083SOL     OW75274   5.356   6.963   7.529
25083SOL    HW175275   5.324   7.057   7.519
25083SOL    HW275276   5.280   6.900   7.517
25084SOL     OW75277   4.188   7.329   7.771
25084SOL    HW175278   4.221   7.368   7.857
25084SOL    HW275279   4.264   7.322   7.706
25085SOL     OW75280   5.124   5.693   7.874
25085SOL    HW175281   5.100   5.656   7.784
25085SOL    HW275282   5.223   5.709   7.878
25086SOL     OW75283   3.973   7.371   8.689
25086SOL    HW175284   4.030   7.306   8.739
25086SOL    HW275285   3.957   7.338   8.596
25087SOL     OW75286   4.664   7.284   8.352
25087SOL    HW175287   4.744   7.227   8.373
25087SOL    HW275288   4.615   7.244   8.275
25088SOL     OW75289   4.106   6.286   7.928
25088SOL    HW175290   4.151   6.196   7.925
25088SOL    HW275291   4.012   6.275   7.961
25089SOL     OW75292   5.271   5.808   9.177
25089SOL    HW175293   5.266   5.845   9.269
25089SOL    HW275294   5.199   5.739   9.165
25090SOL     OW75295   4.338   5.708   7.565
25090SOL    HW175296   4.436   5.686   7.572
25090SOL    HW275297   4.307   5.691   7.472
25091SOL     OW75298   4.505   5.850   9.197
25091SOL    HW175299   4.572   5.789   9.240
25091SOL    HW275300   4.432   5.869   9.262
25092SOL     OW75301   4.612   7.100   8.643
25092SOL    HW175302   4.589   7.075   8.549
25092SOL    HW275303   4.673   7.031   8.682
25093SOL     OW75304   5.075   6.176   8.881
25093SOL    HW175305   5.103   6.133   8.966
25093SOL    HW275306   5.100   6.272   8.882
25094SOL     OW75307   4.527   6.988   8.372
25094SOL    HW175308   4.617   7.002   8.330
25094SOL    HW275309   4.456   6.990   8.301
25095SOL     OW75310   4.646   6.089   8.347
25095SOL    HW175311   4.621   6.080   8.251
25095SOL    HW275312   4.694   6.007   8.378
25096SOL     OW75313   4.263   5.650   7.960
25096SOL    HW175314   4.182   5.651   8.018
25096SOL    HW275315   4.266   5.733   7.905
25097SOL     OW75316   5.158   6.774   7.489
25097SOL    HW175317   5.190   6.698   7.546
25097SOL    HW275318   5.066   6.801   7.519
25098SOL     OW75319   4.021   5.621   7.619
25098SOL    HW175320   4.070   5.705   7.598
25098SOL    HW275321   4.083   5.556   7.664
25099SOL     OW75322   4.659   5.822   7.928
25099SOL    HW175323   4.611   5.863   7.850
25099SOL    HW275324   4.758   5.820   7.909
25100SOL     OW75325   4.800   6.269   8.912
25100SOL    HW175326   4.720   6.208   8.915
25100SOL    HW275327   4.881   6.216   8.888
25101SOL     OW75328   4.951   7.156   8.241
25101SOL    HW175329   4.972   7.230   8.176
25101SOL    HW275330   5.019   7.156   8.314
25102SOL     OW75331   4.183   6.738   8.189
25102SOL    HW175332   4.112   6.711   8.254
25102SOL    HW275333   4.157   6.710   8.096
25103SOL     OW75334   4.995   7.383   8.039
25103SOL    HW175335   5.039   7.447   7.975
25103SOL    HW275336   4.945   7.435   8.109
25104SOL     OW75337   4.756   6.135   7.464
25104SOL    HW175338   4.715   6.217   7.425
25104SOL    HW275339   4.820   6.161   7.537
25105SOL     OW75340   3.802   6.142   8.834
25105SOL    HW175341   3.894   6.141   8.793
25105SOL    HW275342   3.796   6.216   8.901
25106SOL     OW75343   4.285   5.808   8.595
25106SOL    HW175344   4.323   5.724   8.632
25106SOL    HW275345   4.197   5.827   8.639
25107SOL     OW75346   4.590   6.040   8.090
25107SOL    HW175347   4.558   6.112   8.028
25107SOL    HW275348   4.614   5.959   8.037
25108SOL     OW75349   4.741   5.625   8.201
25108SOL    HW175350   4.669   5.630   8.132
25108SOL    HW275351   4.717   5.556   8.270
25109SOL     OW75352   5.153   6.759   8.315
25109SOL    HW175353   5.098   6.675   8.308
25109SOL    HW275354   5.179   6.788   8.223
25110SOL     OW75355   5.190   6.176   8.440
25110SOL    HW175356   5.160   6.081   8.447
25110SOL    HW275357   5.263   6.192   8.506
25111SOL     OW75358   5.581   6.419   7.825
25111SOL    HW175359   5.623   6.355   7.889
25111SOL    HW275360   5.543   6.368   7.747
25112SOL     OW75361   4.212   6.971   7.622
25112SOL    HW175362   4.125   6.956   7.669
25112SOL    HW275363   4.195   6.997   7.527
25113SOL     OW75364   5.388   6.866   8.105
25113SOL    HW175365   5.487   6.874   8.119
25113SOL    HW275366   5.343   6.950   8.136
25114SOL     OW75367   5.114   6.161   7.526
25114SOL    HW175368   5.060   6.140   7.607
25114SOL    HW275369   5.205   6.120   7.535
25115SOL     OW75370   4.251   5.842   7.776
25115SOL    HW175371   4.278   5.783   7.701
25115SOL    HW275372   4.251   5.937   7.745
25116SOL     OW75373   5.478   6.809   9.036
25116SOL    HW175374   5.569   6.770   9.023
25116SOL    HW275375   5.486   6.905   9.060
25117SOL     OW75376   4.788   6.933   8.788
25117SOL    HW175377   4.708   6.910   8.843
25117SOL    HW275378   4.871   6.907   8.837
25118SOL     OW75379   5.316   7.215   9.073
25118SOL    HW175380   5.343   7.249   8.983
25118SOL    HW275381   5.395   7.177   9.119
25119SOL     OW75382   4.835   6.781   8.548
25119SOL    HW175383   4.795   6.825   8.629
25119SOL    HW275384   4.794   6.818   8.465
25120SOL     OW75385   5.362   6.685   8.527
25120SOL    HW175386   5.367   6.766   8.586
25120SOL    HW275387   5.276   6.687   8.476
25121SOL     OW75388   4.639   5.675   8.850
25121SOL    HW175389   4.664   5.655   8.755
25121SOL    HW275390   4.711   5.731   8.892
25122SOL     OW75391   4.704   6.702   9.167
25122SOL    HW175392   4.605   6.708   9.177
25122SOL    HW275393   4.727   6.622   9.111
25123SOL     OW75394   4.429   6.636   7.816
25123SOL    HW175395   4.415   6.643   7.915
25123SOL    HW275396   4.513   6.585   7.798
25124SOL     OW75397   4.134   6.399   8.699
25124SOL    HW175398   4.220   6.411   8.749
25124SOL    HW275399   4.092   6.312   8.726
25125SOL     OW75400   4.998   5.972   8.710
25125SOL    HW175401   5.019   6.046   8.774
25125SOL    HW275402   4.909   5.989   8.667
25126SOL     OW75403   3.788   7.150   8.779
25126SOL    HW175404   3.742   7.232   8.745
25126SOL    HW275405   3.886   7.169   8.788
25127SOL     OW75406   4.091   6.686   7.949
25127SOL    HW175407   4.084   6.769   7.893
25127SOL    HW275408   4.095   6.606   7.889
25128SOL     OW75409   4.290   6.123   8.313
25128SOL    HW175410   4.302   6.189   8.239
25128SOL    HW275411   4.336   6.157   8.396
25129SOL     OW75412   4.976   6.934   7.836
25129SOL    HW175413   5.026   7.011   7.876
25129SOL    HW275414   4.881   6.936   7.868
25130SOL     OW75415   4.996   7.031   8.590
25130SOL    HW175416   5.043   7.044   8.677
25130SOL    HW275417   4.930   6.957   8.599
25131SOL     OW75418   5.306   6.225   7.920
25131SOL    HW175419   5.275   6.286   7.993
25131SOL    HW275420   5.356   6.277   7.851
25132SOL     OW75421   4.078   7.096   8.777
25132SOL    HW175422   4.057   7.052   8.690
25132SOL    HW275423   4.175   7.122   8.780
25133SOL     OW75424   4.126   6.337   9.046
25133SOL    HW175425   4.194   6.392   8.999
25133SOL    HW275426   4.166   6.249   9.073
25134SOL     OW75427   5.311   6.365   9.118
25134SOL    HW175428   5.219   6.403   9.113
25134SOL    HW275429   5.371   6.412   9.053
25135SOL     OW75430   4.737   5.691   9.218
25135SOL    HW175431   4.743   5.776   9.166
25135SOL    HW275432   4.769   5.615   9.161
25136SOL     OW75433   4.228   5.636   9.188
25136SOL    HW175434   4.186   5.579   9.118
25136SOL    HW275435   4.162   5.705   9.220
25137SOL     OW75436   4.297   6.456   8.477
25137SOL    HW175437   4.341   6.545   8.468
25137SOL    HW275438   4.234   6.456   8.554
25138SOL     OW75439   5.084   6.448   8.493
25138SOL    HW175440   5.009   6.448   8.427
25138SOL    HW275441   5.121   6.356   8.502
25139SOL     OW75442   4.933   6.111   7.723
25139SOL    HW175443   4.946   6.027   7.777
25139SOL    HW275444   4.904   6.185   7.783
25140SOL     OW75445   4.031   5.799   8.679
25140SOL    HW175446   4.008   5.836   8.769
25140SOL    HW275447   4.001   5.704   8.673
25141SOL     OW75448   3.761   6.896   8.730
25141SOL    HW175449   3.814   6.847   8.798
25141SOL    HW275450   3.783   6.994   8.735
25142SOL     OW75451   4.456   6.220   8.512
25142SOL    HW175452   4.515   6.194   8.436
25142SOL    HW275453   4.428   6.316   8.501
25143SOL     OW75454   5.452   6.521   9.302
25143SOL    HW175455   5.406   6.514   9.213
25143SOL    HW275456   5.390   6.565   9.368
25144SOL     OW75457   4.031   5.649   8.066
25144SOL    HW175458   4.020   5.743   8.099
25144SOL    HW275459   4.026   5.586   8.143
25145SOL     OW75460   5.346   5.953   7.822
25145SOL    HW175461   5.348   5.877   7.886
25145SOL    HW275462   5.298   6.030   7.862
25146SOL     OW75463   4.747   6.352   8.414
25146SOL    HW175464   4.762   6.373   8.510
25146SOL    HW275465   4.717   6.257   8.405
25147SOL     OW75466   4.704   7.159   9.148
25147SOL    HW175467   4.684   7.203   9.060
25147SOL    HW275468   4.743   7.068   9.132
25148SOL     OW75469   5.583   7.104   9.053
25148SOL    HW175470   5.597   7.131   8.958
25148SOL    HW275471   5.666   7.126   9.106
25149SOL     OW75472   4.074   6.484   9.252
25149SOL    HW175473   4.150   6.528   9.300
25149SOL    HW275474   4.109   6.437   9.170
25150SOL     OW75475   5.264   5.860   7.573
25150SOL    HW175476   5.203   5.785   7.596
25150SOL    HW275477   5.286   5.912   7.656
25151SOL     OW75478   5.027   6.424   7.490
25151SOL    HW175479   5.061   6.331   7.505
25151SOL    HW275480   5.045   6.451   7.395
25152SOL     OW75481   4.792   6.919   8.297
25152SOL    HW175482   4.799   6.835   8.242
25152SOL    HW275483   4.854   6.988   8.261
25153SOL     OW75484   4.043   6.396   8.397
25153SOL    HW175485   4.136   6.432   8.402
25153SOL    HW275486   4.037   6.311   8.449
25154SOL     OW75487   4.063   6.095   8.454
25154SOL    HW175488   4.011   6.012   8.437
25154SOL    HW275489   4.140   6.100   8.390
25155SOL     OW75490   4.862   5.966   9.126
25155SOL    HW175491   4.817   6.029   9.190
25155SOL    HW275492   4.955   5.997   9.109
25156SOL     OW75493   4.884   5.793   8.925
25156SOL    HW175494   4.884   5.857   9.002
25156SOL    HW275495   4.912   5.841   8.842
25157SOL     OW75496   3.732   6.912   7.648
25157SOL    HW175497   3.639   6.933   7.617
25157SOL    HW275498   3.742   6.813   7.661
25158SOL     OW75499   3.812   7.387   8.375
25158SOL    HW175500   3.770   7.301   8.348
25158SOL    HW275501   3.906   7.390   8.341
25159SOL     OW75502   4.228   7.154   8.358
25159SOL    HW175503   4.294   7.228   8.367
25159SOL    HW275504   4.272   7.075   8.316
25160SOL     OW75505   4.726   6.382   8.686
25160SOL    HW175506   4.767   6.350   8.772
25160SOL    HW275507   4.630   6.355   8.683
25161SOL     OW75508   3.764   6.130   8.562
25161SOL    HW175509   3.849   6.097   8.521
25161SOL    HW275510   3.777   6.145   8.660
25162SOL     OW75511   3.913   6.106   9.170
25162SOL    HW175512   3.972   6.066   9.100
25162SOL    HW275513   3.855   6.177   9.129
25163SOL     OW75514   5.093   6.536   9.108
25163SOL    HW175515   5.132   6.625   9.128
25163SOL    HW275516   5.103   6.516   9.011
25164SOL     OW75517   4.539   6.158   7.773
25164SOL    HW175518   4.546   6.069   7.727
25164SOL    HW275519   4.445   6.192   7.765
25165SOL     OW75520   5.381   6.190   8.654
25165SOL    HW175521   5.343   6.121   8.716
25165SOL    HW275522   5.463   6.154   8.610
25166SOL     OW75523   3.976   7.150   9.192
25166SOL    HW175524   3.946   7.207   9.268
25166SOL    HW275525   3.969   7.053   9.218
25167SOL     OW75526   4.395   6.050   8.717
25167SOL    HW175527   4.361   5.961   8.687
25167SOL    HW275528   4.421   6.104   8.637
25168SOL     OW75529   4.654   7.264   8.913
25168SOL    HW175530   4.630   7.246   8.818
25168SOL    HW275531   4.684   7.358   8.923
25169SOL     OW75532   4.197   6.086   7.639
25169SOL    HW175533   4.258   6.166   7.643
25169SOL    HW275534   4.102   6.117   7.646
25170SOL     OW75535   3.883   6.723   8.914
25170SOL    HW175536   3.905   6.662   8.990
25170SOL    HW275537   3.893   6.674   8.828
25171SOL     OW75538   5.071   6.645   8.682
25171SOL    HW175539   5.095   6.582   8.608
25171SOL    HW275540   4.981   6.685   8.664
25172SOL     OW75541   5.026   6.441   7.757
25172SOL    HW175542   4.940   6.410   7.799
25172SOL    HW275543   5.022   6.427   7.658
25173SOL     OW75544   5.483   7.333   8.602
25173SOL    HW175545   5.544   7.363   8.529
25173SOL    HW275546   5.445   7.244   8.580
25174SOL     OW75547   4.976   7.317   8.576
25174SOL    HW175548   5.060   7.322   8.522
25174SOL    HW275549   4.953   7.221   8.594
25175SOL     OW75550   3.807   6.844   8.470
25175SOL    HW175551   3.802   6.843   8.570
25175SOL    HW275552   3.724   6.803   8.432
25176SOL     OW75553   4.412   7.248   9.164
25176SOL    HW175554   4.356   7.329   9.173
25176SOL    HW275555   4.464   7.252   9.078
25177SOL     OW75556   5.450   5.721   7.971
25177SOL    HW175557   5.523   5.704   7.904
25177SOL    HW275558   5.419   5.634   8.009
25178SOL     OW75559   5.112   7.159   7.925
25178SOL    HW175560   5.179   7.171   7.851
25178SOL    HW275561   5.072   7.248   7.948
25179SOL     OW75562   3.854   7.380   9.299
25179SOL    HW175563   3.813   7.306   9.352
25179SOL    HW275564   3.918   7.431   9.357
25180SOL     OW75565   5.004   6.513   8.120
25180SOL    HW175566   5.064   6.432   8.122
25180SOL    HW275567   5.044   6.582   8.060
25181SOL     OW75568   4.554   6.859   8.870
25181SOL    HW175569   4.549   6.892   8.965
25181SOL    HW275570   4.468   6.878   8.824
25182SOL     OW75571   4.396   7.202   7.602
25182SOL    HW175572   4.405   7.212   7.503
25182SOL    HW275573   4.356   7.113   7.623
25183SOL     OW75574   5.374   7.306   8.842
25183SOL    HW175575   5.427   7.316   8.758
25183SOL    HW275576   5.347   7.396   8.876
25184SOL     OW75577   5.565   5.761   8.411
25184SOL    HW175578   5.604   5.676   8.375
25184SOL    HW275579   5.467   5.763   8.392
25185SOL     OW75580   3.987   5.912   8.168
25185SOL    HW175581   3.908   5.963   8.134
25185SOL    HW275582   3.978   5.897   8.266
25186SOL     OW75583   4.918   7.198   7.479
25186SOL    HW175584   4.924   7.105   7.516
25186SOL    HW275585   4.859   7.198   7.399
25187SOL     OW75586   4.546   6.588   8.820
25187SOL    HW175587   4.586   6.587   8.728
25187SOL    HW275588   4.556   6.680   8.860
25188SOL     OW75589   4.640   6.496   7.739
25188SOL    HW175590   4.703   6.534   7.671
25188SOL    HW275591   4.680   6.413   7.778
25189SOL     OW75592   5.228   7.193   7.492
25189SOL    HW175593   5.136   7.230   7.499
25189SOL    HW275594   5.266   7.213   7.402
25190SOL     OW75595   4.096   6.874   8.938
25190SOL    HW175596   4.083   6.967   8.904
25190SOL    HW275597   4.012   6.822   8.925
25191SOL     OW75598   5.338   6.878   8.737
25191SOL    HW175599   5.398   6.881   8.817
25191SOL    HW275600   5.263   6.942   8.750
25192SOL     OW75601   4.763   6.684   8.144
25192SOL    HW175602   4.693   6.637   8.198
25192SOL    HW275603   4.822   6.616   8.101
25193SOL     OW75604   4.738   5.822   8.419
25193SOL    HW175605   4.730   5.786   8.326
25193SOL    HW275606   4.736   5.746   8.484
25194SOL     OW75607   4.314   7.073   7.939
25194SOL    HW175608   4.356   7.015   7.869
25194SOL    HW275609   4.270   7.152   7.895
25195SOL     OW75610   5.433   5.971   8.829
25195SOL    HW175611   5.506   6.040   8.833
25195SOL    HW275612   5.461   5.896   8.770
25196SOL     OW75613   3.979   6.934   7.738
25196SOL    HW175614   3.883   6.935   7.711
25196SOL    HW275615   3.991   6.987   7.822
25197SOL     OW75616   3.829   6.599   9.174
25197SOL    HW175617   3.752   6.566   9.228
25197SOL    HW275618   3.914   6.569   9.216
25198SOL     OW75619   4.396   5.789   8.937
25198SOL    HW175620   4.486   5.773   8.897
25198SOL    HW275621   4.404   5.794   9.036
25199SOL     OW75622   3.799   5.931   7.481
25199SOL    HW175623   3.707   5.903   7.452
25199SOL    HW275624   3.830   6.008   7.425
25200SOL     OW75625   5.164   6.442   8.846
25200SOL    HW175626   5.107   6.494   8.783
25200SOL    HW275627   5.260   6.454   8.822
25201SOL     OW75628   3.796   5.752   7.766
25201SOL    HW175629   3.779   5.835   7.712
25201SOL    HW275630   3.886   5.715   7.744
25202SOL     OW75631   4.907   6.921   7.567
25202SOL    HW175632   4.808   6.910   7.569
25202SOL    HW275633   4.941   6.936   7.660
25203SOL     OW75634   4.337   6.428   8.879
25203SOL    HW175635   4.393   6.509   8.862
25203SOL    HW275636   4.396   6.348   8.882
25204SOL     OW75637   5.217   7.353   8.407
25204SOL    HW175638   5.250   7.417   8.338
25204SOL    HW275639   5.283   7.347   8.482
25205SOL     OW75640   4.440   6.151   9.156
25205SOL    HW175641   4.459   6.216   9.230
25205SOL    HW275642   4.500   6.071   9.165
25206SOL     OW75643   5.174   6.806   9.081
25206SOL    HW175644   5.165   6.796   9.180
25206SOL    HW275645   5.270   6.799   9.055
25207SOL     OW75646   4.114   7.327   9.008
25207SOL    HW175647   4.023   7.368   9.006
25207SOL    HW275648   4.107   7.233   9.040
25208SOL     OW75649   5.398   6.469   8.702
25208SOL    HW175650   5.371   6.380   8.665
25208SOL    HW275651   5.399   6.537   8.629
25209SOL     OW75652   4.949   5.911   7.897
25209SOL    HW175653   5.014   5.837   7.886
25209SOL    HW275654   4.969   5.961   7.981
25210SOL     OW75655   4.318   6.331   8.100
25210SOL    HW175656   4.368   6.416   8.081
25210SOL    HW275657   4.230   6.333   8.052
25211SOL     OW75658   5.501   5.928   9.090
25211SOL    HW175659   5.484   5.959   8.996
25211SOL    HW275660   5.417   5.891   9.128
25212SOL     OW75661   5.454   6.520   8.965
25212SOL    HW175662   5.492   6.611   8.980
25212SOL    HW275663   5.446   6.503   8.866
25213SOL     OW75664   4.583   6.960   7.464
25213SOL    HW175665   4.537   6.975   7.552
25213SOL    HW275666   4.627   7.045   7.434
25214SOL     OW75667   4.385   7.376   8.401
25214SOL    HW175668   4.339   7.464   8.388
25214SOL    HW275669   4.484   7.388   8.394
25215SOL     OW75670   4.583   6.542   8.309
25215SOL    HW175671   4.637   6.473   8.357
25215SOL    HW275672   4.551   6.611   8.375
25216SOL     OW75673   4.807   6.570   7.535
25216SOL    HW175674   4.784   6.623   7.453
25216SOL    HW275675   4.888   6.514   7.516
25217SOL     OW75676   5.585   7.155   8.299
25217SOL    HW175677   5.514   7.143   8.229
25217SOL    HW275678   5.586   7.076   8.359
25218SOL     OW75679   3.945   6.900   9.292
25218SOL    HW175680   3.880   6.827   9.271
25218SOL    HW275681   3.949   6.914   9.390
25219SOL     OW75682   3.803   6.826   8.101
25219SOL    HW175683   3.802   6.779   8.189
25219SOL    HW275684   3.885   6.798   8.050
25220SOL     OW75685   4.396   6.977   9.072
25220SOL    HW175686   4.318   6.927   9.110
25220SOL    HW275687   4.393   7.072   9.103
25221SOL     OW75688   5.548   5.778   8.675
25221SOL    HW175689   5.544   5.688   8.719
25221SOL    HW275690   5.551   5.767   8.576
25222SOL     OW75691   4.152   6.010   7.968
25222SOL    HW175692   4.182   5.938   7.906
25222SOL    HW275693   4.113   5.970   8.051
25223SOL     OW75694   5.429   7.073   8.552
25223SOL    HW175695   5.336   7.048   8.525
25223SOL    HW275696   5.455   7.023   8.634
25224SOL     OW75697   4.041   6.133   8.728
25224SOL    HW175698   4.079   6.074   8.800
25224SOL    HW275699   4.081   6.107   8.640
25225SOL     OW75700   4.536   7.172   8.135
25225SOL    HW175701   4.568   7.182   8.041
25225SOL    HW275702   4.457   7.110   8.137
25226SOL     OW75703   5.148   5.800   8.560
25226SOL    HW175704   5.200   5.735   8.615
25226SOL    HW275705   5.099   5.863   8.621
25227SOL     OW75706   4.725   5.620   8.602
25227SOL    HW175707   4.662   5.548   8.571
25227SOL    HW275708   4.818   5.584   8.602
25228SOL     OW75709   4.494   6.916   7.749
25228SOL    HW175710   4.448   6.829   7.766
25228SOL    HW275711   4.585   6.913   7.790
25229SOL     OW75712   4.342   7.153   8.732
25229SOL    HW175713   4.337   7.235   8.789
25229SOL    HW275714   4.431   7.150   8.687
25230SOL     OW75715   5.076   5.638   7.616
25230SOL    HW175716   5.111   5.597   7.532
25230SOL    HW275717   4.986   5.600   7.636
25231SOL     OW75718   5.024   6.039   8.139
25231SOL    HW175719   4.965   6.119   8.143
25231SOL    HW275720   5.039   6.004   8.232
25232SOL     OW75721   5.317   5.807   8.330
25232SOL    HW175722   5.233   5.806   8.384
25232SOL    HW275723   5.319   5.890   8.274
25233SOL     OW75724   3.763   6.663   7.748
25233SOL    HW175725   3.862   6.652   7.739
25233SOL    HW275726   3.723   6.577   7.780
25234SOL     OW75727   4.599   7.232   7.785
25234SOL    HW175728   4.522   7.197   7.731
25234SOL    HW275729   4.567   7.303   7.847
25235SOL     OW75730   3.954   6.214   9.423
25235SOL    HW175731   3.861   6.212   9.460
25235SOL    HW275732   3.955   6.175   9.331
25236SOL     OW75733   3.949   5.861  10.306
25236SOL    HW175734   3.984   5.844  10.398
25236SOL    HW275735   3.861   5.816  10.294
25237SOL     OW75736   3.743   5.954   9.957
25237SOL    HW175737   3.661   5.997   9.996
25237SOL    HW275738   3.715   5.881   9.894
25238SOL     OW75739   4.293   6.861  10.475
25238SOL    HW175740   4.200   6.854  10.438
25238SOL    HW275741   4.304   6.950  10.519
25239SOL     OW75742   5.279   7.097  10.013
25239SOL    HW175743   5.222   7.081  10.094
25239SOL    HW275744   5.220   7.107   9.933
25240SOL     OW75745   4.859   6.289  10.027
25240SOL    HW175746   4.916   6.367  10.002
25240SOL    HW275747   4.799   6.315  10.103
25241SOL     OW75748   5.479   6.193   9.541
25241SOL    HW175749   5.467   6.180   9.442
25241SOL    HW275750   5.449   6.112   9.590
25242SOL     OW75751   4.492   6.730  10.333
25242SOL    HW175752   4.414   6.747  10.393
25242SOL    HW275753   4.526   6.817  10.297
25243SOL     OW75754   4.574   6.384  11.133
25243SOL    HW175755   4.570   6.460  11.198
25243SOL    HW275756   4.596   6.420  11.042
25244SOL     OW75757   4.409   6.598   9.975
25244SOL    HW175758   4.478   6.582  10.045
25244SOL    HW275759   4.336   6.655  10.013
25245SOL     OW75760   4.410   6.747  11.113
25245SOL    HW175761   4.470   6.826  11.127
25245SOL    HW275762   4.324   6.778  11.072
25246SOL     OW75763   4.059   7.021  10.371
25246SOL    HW175764   3.981   6.990  10.318
25246SOL    HW275765   4.117   7.079  10.314
25247SOL     OW75766   5.184   7.091  10.649
25247SOL    HW175767   5.208   7.185  10.675
25247SOL    HW275768   5.168   7.037  10.731
25248SOL     OW75769   4.162   5.978  10.809
25248SOL    HW175770   4.244   5.922  10.818
25248SOL    HW275771   4.081   5.920  10.813
25249SOL     OW75772   5.327   6.033  10.047
25249SOL    HW175773   5.253   6.079   9.997
25249SOL    HW275774   5.378   6.101  10.100
25250SOL     OW75775   3.955   7.299   9.793
25250SOL    HW175776   3.989   7.376   9.847
25250SOL    HW275777   3.999   7.299   9.703
25251SOL     OW75778   4.851   6.927  11.000
25251SOL    HW175779   4.898   6.927  11.088
25251SOL    HW275780   4.803   6.840  10.989
25252SOL     OW75781   3.954   7.020   9.848
25252SOL    HW175782   3.928   7.116   9.848
25252SOL    HW275783   3.883   6.966   9.893
25253SOL     OW75784   3.964   6.677  10.196
25253SOL    HW175785   3.978   6.593  10.248
25253SOL    HW275786   3.909   6.741  10.251
25254SOL     OW75787   4.344   7.372  10.749
25254SOL    HW175788   4.252   7.355  10.784
25254SOL    HW275789   4.372   7.464  10.775
25255SOL     OW75790   4.330   6.550   9.433
25255SOL    HW175791   4.337   6.634   9.379
25255SOL    HW275792   4.376   6.563   9.521
25256SOL     OW75793   5.318   5.700  10.790
25256SOL    HW175794   5.300   5.767  10.718
25256SOL    HW275795   5.315   5.746  10.879
25257SOL     OW75796   3.846   6.229   9.873
25257SOL    HW175797   3.801   6.141   9.890
25257SOL    HW275798   3.845   6.283   9.957
25258SOL     OW75799   5.566   7.353   9.669
25258SOL    HW175800   5.620   7.324   9.749
25258SOL    HW275801   5.596   7.443   9.640
25259SOL     OW75802   3.751   7.182   9.427
25259SOL    HW175803   3.732   7.086   9.448
25259SOL    HW275804   3.718   7.240   9.502
25260SOL     OW75805   5.413   6.508   9.922
25260SOL    HW175806   5.508   6.479   9.930
25260SOL    HW275807   5.405   6.573   9.847
25261SOL     OW75808   5.365   6.694   9.742
25261SOL    HW175809   5.451   6.696   9.690
25261SOL    HW275810   5.379   6.741   9.830
25262SOL     OW75811   3.837   6.323  10.907
25262SOL    HW175812   3.925   6.310  10.952
25262SOL    HW275813   3.824   6.420  10.885
25263SOL     OW75814   4.337   6.951  10.036
25263SOL    HW175815   4.288   6.864  10.045
25263SOL    HW275816   4.314   6.994   9.949
25264SOL     OW75817   5.017   6.814  10.733
25264SOL    HW175818   5.054   6.741  10.675
25264SOL    HW275819   5.069   6.819  10.818
25265SOL     OW75820   4.533   5.590   9.812
25265SOL    HW175821   4.573   5.681   9.803
25265SOL    HW275822   4.433   5.598   9.818
25266SOL     OW75823   3.921   6.562  10.574
25266SOL    HW175824   4.010   6.517  10.560
25266SOL    HW275825   3.848   6.497  10.555
25267SOL     OW75826   5.249   6.585   9.500
25267SOL    HW175827   5.186   6.509   9.513
25267SOL    HW275828   5.297   6.603   9.586
25268SOL     OW75829   4.911   7.378  10.926
25268SOL    HW175830   4.935   7.438  10.850
25268SOL    HW275831   4.918   7.283  10.896
25269SOL     OW75832   4.041   5.837  11.111
25269SOL    HW175833   4.112   5.908  11.117
25269SOL    HW275834   3.953   5.876  11.139
25270SOL     OW75835   5.190   7.003  10.263
25270SOL    HW175836   5.131   7.009  10.343
25270SOL    HW275837   5.175   6.915  10.217
25271SOL     OW75838   5.391   7.300   9.882
25271SOL    HW175839   5.350   7.277   9.794
25271SOL    HW275840   5.373   7.226   9.947
25272SOL     OW75841   4.322   6.315   9.580
25272SOL    HW175842   4.346   6.384   9.512
25272SOL    HW275843   4.244   6.348   9.634
25273SOL     OW75844   5.005   5.931  10.254
25273SOL    HW175845   4.919   5.881  10.241
25273SOL    HW275846   5.067   5.877  10.310
25274SOL     OW75847   5.300   7.248   9.617
25274SOL    HW175848   5.389   7.294   9.620
25274SOL    HW275849   5.279   7.224   9.522
25275SOL     OW75850   4.531   6.191  10.775
25275SOL    HW175851   4.484   6.188  10.864
25275SOL    HW275852   4.480   6.136  10.709
25276SOL     OW75853   5.118   6.055  10.984
25276SOL    HW175854   5.098   6.098  11.072
25276SOL    HW275855   5.196   5.993  10.993
25277SOL     OW75856   4.697   6.476  10.882
25277SOL    HW175857   4.743   6.392  10.853
25277SOL    HW275858   4.641   6.510  10.807
25278SOL     OW75859   4.715   5.996  10.552
25278SOL    HW175860   4.638   6.030  10.606
25278SOL    HW275861   4.681   5.945  10.473
25279SOL     OW75862   4.765   6.287   9.739
25279SOL    HW175863   4.791   6.283   9.835
25279SOL    HW275864   4.680   6.236   9.725
25280SOL     OW75865   3.800   6.397  10.099
25280SOL    HW175866   3.899   6.385  10.108
25280SOL    HW275867   3.776   6.492  10.120
25281SOL     OW75868   3.854   7.407  10.881
25281SOL    HW175869   3.844   7.392  10.980
25281SOL    HW275870   3.768   7.443  10.845
25282SOL     OW75871   4.589   5.934   9.505
25282SOL    HW175872   4.648   5.997   9.456
25282SOL    HW275873   4.608   5.840   9.476
25283SOL     OW75874   5.443   6.171  11.141
25283SOL    HW175875   5.417   6.260  11.105
25283SOL    HW275876   5.441   6.103  11.068
25284SOL     OW75877   5.086   6.730   9.855
25284SOL    HW175878   5.169   6.701   9.807
25284SOL    HW275879   5.037   6.797   9.799
25285SOL     OW75880   4.274   5.782  10.195
25285SOL    HW175881   4.269   5.777  10.295
25285SOL    HW275882   4.276   5.878  10.166
25286SOL     OW75883   4.732   7.042   9.787
25286SOL    HW175884   4.686   7.114   9.735
25286SOL    HW275885   4.728   7.062   9.885
25287SOL     OW75886   4.075   7.387  10.163
25287SOL    HW175887   4.125   7.301  10.169
25287SOL    HW275888   4.140   7.464  10.160
25288SOL     OW75889   5.519   6.652  10.183
25288SOL    HW175890   5.457   6.637  10.107
25288SOL    HW275891   5.467   6.663  10.268
25289SOL     OW75892   4.951   7.136  10.816
25289SOL    HW175893   4.957   7.059  10.880
25289SOL    HW275894   4.899   7.110  10.736
25290SOL     OW75895   4.045   6.529   9.552
25290SOL    HW175896   4.127   6.568   9.510
25290SOL    HW275897   4.018   6.447   9.503
25291SOL     OW75898   5.182   6.321  10.038
25291SOL    HW175899   5.177   6.256  10.113
25291SOL    HW275900   5.262   6.380  10.051
25292SOL     OW75901   4.185   6.852  11.037
25292SOL    HW175902   4.135   6.853  10.951
25292SOL    HW275903   4.122   6.834  11.113
25293SOL     OW75904   4.835   7.362   9.547
25293SOL    HW175905   4.775   7.300   9.597
25293SOL    HW275906   4.866   7.318   9.462
25294SOL     OW75907   3.926   5.871  10.808
25294SOL    HW175908   3.846   5.931  10.795
25294SOL    HW275909   3.916   5.822  10.894
25295SOL     OW75910   5.356   6.963   9.391
25295SOL    HW175911   5.324   7.057   9.381
25295SOL    HW275912   5.280   6.900   9.379
25296SOL     OW75913   4.188   7.329   9.633
25296SOL    HW175914   4.221   7.368   9.719
25296SOL    HW275915   4.264   7.322   9.568
25297SOL     OW75916   5.124   5.693   9.736
25297SOL    HW175917   5.100   5.656   9.646
25297SOL    HW275918   5.223   5.709   9.740
25298SOL     OW75919   3.973   7.371  10.551
25298SOL    HW175920   4.030   7.306  10.601
25298SOL    HW275921   3.957   7.338  10.458
25299SOL     OW75922   4.664   7.284  10.214
25299SOL    HW175923   4.744   7.227  10.235
25299SOL    HW275924   4.615   7.244  10.137
25300SOL     OW75925   4.106   6.286   9.790
25300SOL    HW175926   4.151   6.196   9.787
25300SOL    HW275927   4.012   6.275   9.823
25301SOL     OW75928   5.271   5.808  11.039
25301SOL    HW175929   5.266   5.845  11.131
25301SOL    HW275930   5.199   5.739  11.027
25302SOL     OW75931   4.338   5.708   9.427
25302SOL    HW175932   4.436   5.686   9.434
25302SOL    HW275933   4.307   5.691   9.334
25303SOL     OW75934   4.505   5.850  11.059
25303SOL    HW175935   4.572   5.789  11.102
25303SOL    HW275936   4.432   5.869  11.124
25304SOL     OW75937   4.612   7.100  10.505
25304SOL    HW175938   4.589   7.075  10.411
25304SOL    HW275939   4.673   7.031  10.544
25305SOL     OW75940   5.075   6.176  10.743
25305SOL    HW175941   5.103   6.133  10.828
25305SOL    HW275942   5.100   6.272  10.744
25306SOL     OW75943   4.527   6.988  10.234
25306SOL    HW175944   4.617   7.002  10.192
25306SOL    HW275945   4.456   6.990  10.163
25307SOL     OW75946   4.646   6.089  10.209
25307SOL    HW175947   4.621   6.080  10.113
25307SOL    HW275948   4.694   6.007  10.240
25308SOL     OW75949   4.263   5.650   9.822
25308SOL    HW175950   4.182   5.651   9.880
25308SOL    HW275951   4.266   5.733   9.767
25309SOL     OW75952   5.158   6.774   9.351
25309SOL    HW175953   5.190   6.698   9.408
25309SOL    HW275954   5.066   6.801   9.381
25310SOL     OW75955   4.021   5.621   9.481
25310SOL    HW175956   4.070   5.705   9.460
25310SOL    HW275957   4.083   5.556   9.526
25311SOL     OW75958   4.659   5.822   9.790
25311SOL    HW175959   4.611   5.863   9.712
25311SOL    HW275960   4.758   5.820   9.771
25312SOL     OW75961   4.800   6.269  10.774
25312SOL    HW175962   4.720   6.208  10.777
25312SOL    HW275963   4.881   6.216  10.750
25313SOL     OW75964   4.951   7.156  10.103
25313SOL    HW175965   4.972   7.230  10.038
25313SOL    HW275966   5.019   7.156  10.176
25314SOL     OW75967   4.183   6.738  10.051
25314SOL    HW175968   4.112   6.711  10.116
25314SOL    HW275969   4.157   6.710   9.958
25315SOL     OW75970   4.995   7.383   9.901
25315SOL    HW175971   5.039   7.447   9.837
25315SOL    HW275972   4.945   7.435   9.971
25316SOL     OW75973   4.756   6.135   9.326
25316SOL    HW175974   4.715   6.217   9.287
25316SOL    HW275975   4.820   6.161   9.399
25317SOL     OW75976   3.802   6.142  10.696
25317SOL    HW175977   3.894   6.141  10.655
25317SOL    HW275978   3.796   6.216  10.763
25318SOL     OW75979   4.285   5.808  10.457
25318SOL    HW175980   4.323   5.724  10.494
25318SOL    HW275981   4.197   5.827  10.501
25319SOL     OW75982   4.590   6.040   9.952
25319SOL    HW175983   4.558   6.112   9.890
25319SOL    HW275984   4.614   5.959   9.899
25320SOL     OW75985   4.741   5.625  10.063
25320SOL    HW175986   4.669   5.630   9.994
25320SOL    HW275987   4.717   5.556  10.132
25321SOL     OW75988   5.153   6.759  10.177
25321SOL    HW175989   5.098   6.675  10.170
25321SOL    HW275990   5.179   6.788  10.085
25322SOL     OW75991   5.190   6.176  10.302
25322SOL    HW175992   5.160   6.081  10.309
25322SOL    HW275993   5.263   6.192  10.368
25323SOL     OW75994   5.581   6.419   9.687
25323SOL    HW175995   5.623   6.355   9.751
25323SOL    HW275996   5.543   6.368   9.609
25324SOL     OW75997   4.212   6.971   9.484
25324SOL    HW175998   4.125   6.956   9.531
25324SOL    HW275999   4.195   6.997   9.389
25325SOL     OW76000   5.388   6.866   9.967
25325SOL    HW176001   5.487   6.874   9.981
25325SOL    HW276002   5.343   6.950   9.998
25326SOL     OW76003   5.114   6.161   9.388
25326SOL    HW176004   5.060   6.140   9.469
25326SOL    HW276005   5.205   6.120   9.397
25327SOL     OW76006   4.251   5.842   9.638
25327SOL    HW176007   4.278   5.783   9.563
25327SOL    HW276008   4.251   5.937   9.607
25328SOL     OW76009   5.478   6.809  10.898
25328SOL    HW176010   5.569   6.770  10.885
25328SOL    HW276011   5.486   6.905  10.922
25329SOL     OW76012   4.788   6.933  10.650
25329SOL    HW176013   4.708   6.910  10.705
25329SOL    HW276014   4.871   6.907  10.699
25330SOL     OW76015   5.316   7.215  10.935
25330SOL    HW176016   5.343   7.249  10.845
25330SOL    HW276017   5.395   7.177  10.981
25331SOL     OW76018   4.835   6.781  10.410
25331SOL    HW176019   4.795   6.825  10.491
25331SOL    HW276020   4.794   6.818  10.327
25332SOL     OW76021   5.362   6.685  10.389
25332SOL    HW176022   5.367   6.766  10.448
25332SOL    HW276023   5.276   6.687  10.338
25333SOL     OW76024   4.639   5.675  10.712
25333SOL    HW176025   4.664   5.655  10.617
25333SOL    HW276026   4.711   5.731  10.754
25334SOL     OW76027   4.704   6.702  11.029
25334SOL    HW176028   4.605   6.708  11.039
25334SOL    HW276029   4.727   6.622  10.973
25335SOL     OW76030   4.429   6.636   9.678
25335SOL    HW176031   4.415   6.643   9.777
25335SOL    HW276032   4.513   6.585   9.660
25336SOL     OW76033   4.134   6.399  10.561
25336SOL    HW176034   4.220   6.411  10.611
25336SOL    HW276035   4.092   6.312  10.588
25337SOL     OW76036   4.998   5.972  10.572
25337SOL    HW176037   5.019   6.046  10.636
25337SOL    HW276038   4.909   5.989  10.529
25338SOL     OW76039   3.788   7.150  10.641
25338SOL    HW176040   3.742   7.232  10.607
25338SOL    HW276041   3.886   7.169  10.650
25339SOL     OW76042   4.091   6.686   9.811
25339SOL    HW176043   4.084   6.769   9.755
25339SOL    HW276044   4.095   6.606   9.751
25340SOL     OW76045   4.290   6.123  10.175
25340SOL    HW176046   4.302   6.189  10.101
25340SOL    HW276047   4.336   6.157  10.258
25341SOL     OW76048   4.976   6.934   9.698
25341SOL    HW176049   5.026   7.011   9.738
25341SOL    HW276050   4.881   6.936   9.730
25342SOL     OW76051   4.996   7.031  10.452
25342SOL    HW176052   5.043   7.044  10.539
25342SOL    HW276053   4.930   6.957  10.461
25343SOL     OW76054   5.306   6.225   9.782
25343SOL    HW176055   5.275   6.286   9.855
25343SOL    HW276056   5.356   6.277   9.713
25344SOL     OW76057   4.078   7.096  10.639
25344SOL    HW176058   4.057   7.052  10.552
25344SOL    HW276059   4.175   7.122  10.642
25345SOL     OW76060   4.126   6.337  10.908
25345SOL    HW176061   4.194   6.392  10.861
25345SOL    HW276062   4.166   6.249  10.935
25346SOL     OW76063   5.311   6.365  10.980
25346SOL    HW176064   5.219   6.403  10.975
25346SOL    HW276065   5.371   6.412  10.915
25347SOL     OW76066   4.737   5.691  11.080
25347SOL    HW176067   4.743   5.776  11.028
25347SOL    HW276068   4.769   5.615  11.023
25348SOL     OW76069   4.228   5.636  11.050
25348SOL    HW176070   4.186   5.579  10.980
25348SOL    HW276071   4.162   5.705  11.082
25349SOL     OW76072   4.297   6.456  10.339
25349SOL    HW176073   4.341   6.545  10.330
25349SOL    HW276074   4.234   6.456  10.416
25350SOL     OW76075   5.084   6.448  10.355
25350SOL    HW176076   5.009   6.448  10.289
25350SOL    HW276077   5.121   6.356  10.364
25351SOL     OW76078   4.933   6.111   9.585
25351SOL    HW176079   4.946   6.027   9.639
25351SOL    HW276080   4.904   6.185   9.645
25352SOL     OW76081   4.031   5.799  10.541
25352SOL    HW176082   4.008   5.836  10.631
25352SOL    HW276083   4.001   5.704  10.535
25353SOL     OW76084   3.761   6.896  10.592
25353SOL    HW176085   3.814   6.847  10.660
25353SOL    HW276086   3.783   6.994  10.597
25354SOL     OW76087   4.456   6.220  10.374
25354SOL    HW176088   4.515   6.194  10.298
25354SOL    HW276089   4.428   6.316  10.363
25355SOL     OW76090   5.452   6.521  11.164
25355SOL    HW176091   5.406   6.514  11.075
25355SOL    HW276092   5.390   6.565  11.230
25356SOL     OW76093   4.031   5.649   9.928
25356SOL    HW176094   4.020   5.743   9.961
25356SOL    HW276095   4.026   5.586  10.005
25357SOL     OW76096   5.346   5.953   9.684
25357SOL    HW176097   5.348   5.877   9.748
25357SOL    HW276098   5.298   6.030   9.724
25358SOL     OW76099   4.747   6.352  10.276
25358SOL    HW176100   4.762   6.373  10.372
25358SOL    HW276101   4.717   6.257  10.267
25359SOL     OW76102   4.704   7.159  11.010
25359SOL    HW176103   4.684   7.203  10.922
25359SOL    HW276104   4.743   7.068  10.994
25360SOL     OW76105   5.583   7.104  10.915
25360SOL    HW176106   5.597   7.131  10.820
25360SOL    HW276107   5.666   7.126  10.968
25361SOL     OW76108   4.074   6.484  11.114
25361SOL    HW176109   4.150   6.528  11.162
25361SOL    HW276110   4.109   6.437  11.032
25362SOL     OW76111   5.264   5.860   9.435
25362SOL    HW176112   5.203   5.785   9.458
25362SOL    HW276113   5.286   5.912   9.518
25363SOL     OW76114   5.027   6.424   9.352
25363SOL    HW176115   5.061   6.331   9.367
25363SOL    HW276116   5.045   6.451   9.257
25364SOL     OW76117   4.792   6.919  10.159
25364SOL    HW176118   4.799   6.835  10.104
25364SOL    HW276119   4.854   6.988  10.123
25365SOL     OW76120   4.043   6.396  10.259
25365SOL    HW176121   4.136   6.432  10.264
25365SOL    HW276122   4.037   6.311  10.311
25366SOL     OW76123   4.063   6.095  10.316
25366SOL    HW176124   4.011   6.012  10.299
25366SOL    HW276125   4.140   6.100  10.252
25367SOL     OW76126   4.862   5.966  10.988
25367SOL    HW176127   4.817   6.029  11.052
25367SOL    HW276128   4.955   5.997  10.971
25368SOL     OW76129   4.884   5.793  10.787
25368SOL    HW176130   4.884   5.857  10.864
25368SOL    HW276131   4.912   5.841  10.704
25369SOL     OW76132   3.732   6.912   9.510
25369SOL    HW176133   3.639   6.933   9.479
25369SOL    HW276134   3.742   6.813   9.523
25370SOL     OW76135   3.812   7.387  10.237
25370SOL    HW176136   3.770   7.301  10.210
25370SOL    HW276137   3.906   7.390  10.203
25371SOL     OW76138   4.228   7.154  10.220
25371SOL    HW176139   4.294   7.228  10.229
25371SOL    HW276140   4.272   7.075  10.178
25372SOL     OW76141   4.726   6.382  10.548
25372SOL    HW176142   4.767   6.350  10.634
25372SOL    HW276143   4.630   6.355  10.545
25373SOL     OW76144   3.764   6.130  10.424
25373SOL    HW176145   3.849   6.097  10.383
25373SOL    HW276146   3.777   6.145  10.522
25374SOL     OW76147   3.913   6.106  11.032
25374SOL    HW176148   3.972   6.066  10.962
25374SOL    HW276149   3.855   6.177  10.991
25375SOL     OW76150   5.093   6.536  10.970
25375SOL    HW176151   5.132   6.625  10.990
25375SOL    HW276152   5.103   6.516  10.873
25376SOL     OW76153   4.539   6.158   9.635
25376SOL    HW176154   4.546   6.069   9.589
25376SOL    HW276155   4.445   6.192   9.627
25377SOL     OW76156   5.381   6.190  10.516
25377SOL    HW176157   5.343   6.121  10.578
25377SOL    HW276158   5.463   6.154  10.472
25378SOL     OW76159   3.976   7.150  11.054
25378SOL    HW176160   3.946   7.207  11.130
25378SOL    HW276161   3.969   7.053  11.080
25379SOL     OW76162   4.395   6.050  10.579
25379SOL    HW176163   4.361   5.961  10.549
25379SOL    HW276164   4.421   6.104  10.499
25380SOL     OW76165   4.654   7.264  10.775
25380SOL    HW176166   4.630   7.246  10.680
25380SOL    HW276167   4.684   7.358  10.785
25381SOL     OW76168   4.197   6.086   9.501
25381SOL    HW176169   4.258   6.166   9.505
25381SOL    HW276170   4.102   6.117   9.508
25382SOL     OW76171   3.883   6.723  10.776
25382SOL    HW176172   3.905   6.662  10.852
25382SOL    HW276173   3.893   6.674  10.690
25383SOL     OW76174   5.071   6.645  10.544
25383SOL    HW176175   5.095   6.582  10.470
25383SOL    HW276176   4.981   6.685  10.526
25384SOL     OW76177   5.026   6.441   9.619
25384SOL    HW176178   4.940   6.410   9.661
25384SOL    HW276179   5.022   6.427   9.520
25385SOL     OW76180   5.483   7.333  10.464
25385SOL    HW176181   5.544   7.363  10.391
25385SOL    HW276182   5.445   7.244  10.442
25386SOL     OW76183   4.976   7.317  10.438
25386SOL    HW176184   5.060   7.322  10.384
25386SOL    HW276185   4.953   7.221  10.456
25387SOL     OW76186   3.807   6.844  10.332
25387SOL    HW176187   3.802   6.843  10.432
25387SOL    HW276188   3.724   6.803  10.294
25388SOL     OW76189   4.412   7.248  11.026
25388SOL    HW176190   4.356   7.329  11.035
25388SOL    HW276191   4.464   7.252  10.940
25389SOL     OW76192   5.450   5.721   9.833
25389SOL    HW176193   5.523   5.704   9.766
25389SOL    HW276194   5.419   5.634   9.871
25390SOL     OW76195   5.112   7.159   9.787
25390SOL    HW176196   5.179   7.171   9.713
25390SOL    HW276197   5.072   7.248   9.810
25391SOL     OW76198   3.854   7.380  11.161
25391SOL    HW176199   3.813   7.306  11.214
25391SOL    HW276200   3.918   7.431  11.219
25392SOL     OW76201   5.004   6.513   9.982
25392SOL    HW176202   5.064   6.432   9.984
25392SOL    HW276203   5.044   6.582   9.922
25393SOL     OW76204   4.554   6.859  10.732
25393SOL    HW176205   4.549   6.892  10.827
25393SOL    HW276206   4.468   6.878  10.686
25394SOL     OW76207   4.396   7.202   9.464
25394SOL    HW176208   4.405   7.212   9.365
25394SOL    HW276209   4.356   7.113   9.485
25395SOL     OW76210   5.374   7.306  10.704
25395SOL    HW176211   5.427   7.316  10.620
25395SOL    HW276212   5.347   7.396  10.738
25396SOL     OW76213   5.565   5.761  10.273
25396SOL    HW176214   5.604   5.676  10.237
25396SOL    HW276215   5.467   5.763  10.254
25397SOL     OW76216   3.987   5.912  10.030
25397SOL    HW176217   3.908   5.963   9.996
25397SOL    HW276218   3.978   5.897  10.128
25398SOL     OW76219   4.918   7.198   9.341
25398SOL    HW176220   4.924   7.105   9.378
25398SOL    HW276221   4.859   7.198   9.261
25399SOL     OW76222   4.546   6.588  10.682
25399SOL    HW176223   4.586   6.587  10.590
25399SOL    HW276224   4.556   6.680  10.722
25400SOL     OW76225   4.640   6.496   9.601
25400SOL    HW176226   4.703   6.534   9.533
25400SOL    HW276227   4.680   6.413   9.640
25401SOL     OW76228   5.228   7.193   9.354
25401SOL    HW176229   5.136   7.230   9.361
25401SOL    HW276230   5.266   7.213   9.264
25402SOL     OW76231   4.096   6.874  10.800
25402SOL    HW176232   4.083   6.967  10.766
25402SOL    HW276233   4.012   6.822  10.787
25403SOL     OW76234   5.338   6.878  10.599
25403SOL    HW176235   5.398   6.881  10.679
25403SOL    HW276236   5.263   6.942  10.612
25404SOL     OW76237   4.763   6.684  10.006
25404SOL    HW176238   4.693   6.637  10.060
25404SOL    HW276239   4.822   6.616   9.963
25405SOL     OW76240   4.738   5.822  10.281
25405SOL    HW176241   4.730   5.786  10.188
25405SOL    HW276242   4.736   5.746  10.346
25406SOL     OW76243   4.314   7.073   9.801
25406SOL    HW176244   4.356   7.015   9.731
25406SOL    HW276245   4.270   7.152   9.757
25407SOL     OW76246   5.433   5.971  10.691
25407SOL    HW176247   5.506   6.040  10.695
25407SOL    HW276248   5.461   5.896  10.632
25408SOL     OW76249   3.979   6.934   9.600
25408SOL    HW176250   3.883   6.935   9.573
25408SOL    HW276251   3.991   6.987   9.684
25409SOL     OW76252   3.829   6.599  11.036
25409SOL    HW176253   3.752   6.566  11.090
25409SOL    HW276254   3.914   6.569  11.078
25410SOL     OW76255   4.396   5.789  10.799
25410SOL    HW176256   4.486   5.773  10.759
25410SOL    HW276257   4.404   5.794  10.898
25411SOL     OW76258   3.799   5.931   9.343
25411SOL    HW176259   3.707   5.903   9.314
25411SOL    HW276260   3.830   6.008   9.287
25412SOL     OW76261   5.164   6.442  10.708
25412SOL    HW176262   5.107   6.494  10.645
25412SOL    HW276263   5.260   6.454  10.684
25413SOL     OW76264   3.796   5.752   9.628
25413SOL    HW176265   3.779   5.835   9.574
25413SOL    HW276266   3.886   5.715   9.606
25414SOL     OW76267   4.907   6.921   9.429
25414SOL    HW176268   4.808   6.910   9.431
25414SOL    HW276269   4.941   6.936   9.522
25415SOL     OW76270   4.337   6.428  10.741
25415SOL    HW176271   4.393   6.509  10.724
25415SOL    HW276272   4.396   6.348  10.744
25416SOL     OW76273   5.217   7.353  10.269
25416SOL    HW176274   5.250   7.417  10.200
25416SOL    HW276275   5.283   7.347  10.344
25417SOL     OW76276   4.440   6.151  11.018
25417SOL    HW176277   4.459   6.216  11.092
25417SOL    HW276278   4.500   6.071  11.027
25418SOL     OW76279   5.174   6.806  10.943
25418SOL    HW176280   5.165   6.796  11.042
25418SOL    HW276281   5.270   6.799  10.917
25419SOL     OW76282   4.114   7.327  10.870
25419SOL    HW176283   4.023   7.368  10.868
25419SOL    HW276284   4.107   7.233  10.902
25420SOL     OW76285   5.398   6.469  10.564
25420SOL    HW176286   5.371   6.380  10.527
25420SOL    HW276287   5.399   6.537  10.491
25421SOL     OW76288   4.949   5.911   9.759
25421SOL    HW176289   5.014   5.837   9.748
25421SOL    HW276290   4.969   5.961   9.843
25422SOL     OW76291   4.318   6.331   9.962
25422SOL    HW176292   4.368   6.416   9.943
25422SOL    HW276293   4.230   6.333   9.914
25423SOL     OW76294   5.501   5.928  10.952
25423SOL    HW176295   5.484   5.959  10.858
25423SOL    HW276296   5.417   5.891  10.990
25424SOL     OW76297   5.454   6.520  10.827
25424SOL    HW176298   5.492   6.611  10.842
25424SOL    HW276299   5.446   6.503  10.728
25425SOL     OW76300   4.583   6.960   9.326
25425SOL    HW176301   4.537   6.975   9.414
25425SOL    HW276302   4.627   7.045   9.296
25426SOL     OW76303   4.385   7.376  10.263
25426SOL    HW176304   4.339   7.464  10.250
25426SOL    HW276305   4.484   7.388  10.256
25427SOL     OW76306   4.583   6.542  10.171
25427SOL    HW176307   4.637   6.473  10.219
25427SOL    HW276308   4.551   6.611  10.237
25428SOL     OW76309   4.807   6.570   9.397
25428SOL    HW176310   4.784   6.623   9.315
25428SOL    HW276311   4.888   6.514   9.378
25429SOL     OW76312   5.585   7.155  10.161
25429SOL    HW176313   5.514   7.143  10.091
25429SOL    HW276314   5.586   7.076  10.221
25430SOL     OW76315   3.945   6.900  11.154
25430SOL    HW176316   3.880   6.827  11.133
25430SOL    HW276317   3.949   6.914  11.252
25431SOL     OW76318   3.803   6.826   9.963
25431SOL    HW176319   3.802   6.779  10.051
25431SOL    HW276320   3.885   6.798   9.912
25432SOL     OW76321   4.396   6.977  10.934
25432SOL    HW176322   4.318   6.927  10.972
25432SOL    HW276323   4.393   7.072  10.965
25433SOL     OW76324   5.548   5.778  10.537
25433SOL    HW176325   5.544   5.688  10.581
25433SOL    HW276326   5.551   5.767  10.438
25434SOL     OW76327   4.152   6.010   9.830
25434SOL    HW176328   4.182   5.938   9.768
25434SOL    HW276329   4.113   5.970   9.913
25435SOL     OW76330   5.429   7.073  10.414
25435SOL    HW176331   5.336   7.048  10.387
25435SOL    HW276332   5.455   7.023  10.496
25436SOL     OW76333   4.041   6.133  10.590
25436SOL    HW176334   4.079   6.074  10.662
25436SOL    HW276335   4.081   6.107  10.502
25437SOL     OW76336   4.536   7.172   9.997
25437SOL    HW176337   4.568   7.182   9.903
25437SOL    HW276338   4.457   7.110   9.999
25438SOL     OW76339   5.148   5.800  10.422
25438SOL    HW176340   5.200   5.735  10.477
25438SOL    HW276341   5.099   5.863  10.483
25439SOL     OW76342   4.725   5.620  10.464
25439SOL    HW176343   4.662   5.548  10.433
25439SOL    HW276344   4.818   5.584  10.464
25440SOL     OW76345   4.494   6.916   9.611
25440SOL    HW176346   4.448   6.829   9.628
25440SOL    HW276347   4.585   6.913   9.652
25441SOL     OW76348   4.342   7.153  10.594
25441SOL    HW176349   4.337   7.235  10.651
25441SOL    HW276350   4.431   7.150  10.549
25442SOL     OW76351   5.076   5.638   9.478
25442SOL    HW176352   5.111   5.597   9.394
25442SOL    HW276353   4.986   5.600   9.498
25443SOL     OW76354   5.024   6.039  10.001
25443SOL    HW176355   4.965   6.119  10.005
25443SOL    HW276356   5.039   6.004  10.094
25444SOL     OW76357   5.317   5.807  10.192
25444SOL    HW176358   5.233   5.806  10.246
25444SOL    HW276359   5.319   5.890  10.136
25445SOL     OW76360   3.763   6.663   9.610
25445SOL    HW176361   3.862   6.652   9.601
25445SOL    HW276362   3.723   6.577   9.642
25446SOL     OW76363   4.599   7.232   9.647
25446SOL    HW176364   4.522   7.197   9.593
25446SOL    HW276365   4.567   7.303   9.709
25447SOL     OW76366   3.954   6.214  11.285
25447SOL    HW176367   3.861   6.212  11.322
25447SOL    HW276368   3.955   6.175  11.193
25448SOL     OW76369   3.949   5.861  12.168
25448SOL    HW176370   3.984   5.844  12.260
25448SOL    HW276371   3.861   5.816  12.156
25449SOL     OW76372   3.743   5.954  11.819
25449SOL    HW176373   3.661   5.997  11.858
25449SOL    HW276374   3.715   5.881  11.756
25450SOL     OW76375   4.293   6.861  12.337
25450SOL    HW176376   4.200   6.854  12.300
25450SOL    HW276377   4.304   6.950  12.381
25451SOL     OW76378   5.279   7.097  11.875
25451SOL    HW176379   5.222   7.081  11.956
25451SOL    HW276380   5.220   7.107  11.795
25452SOL     OW76381   4.859   6.289  11.889
25452SOL    HW176382   4.916   6.367  11.864
25452SOL    HW276383   4.799   6.315  11.965
25453SOL     OW76384   5.479   6.193  11.403
25453SOL    HW176385   5.467   6.180  11.304
25453SOL    HW276386   5.449   6.112  11.452
25454SOL     OW76387   4.492   6.730  12.195
25454SOL    HW176388   4.414   6.747  12.255
25454SOL    HW276389   4.526   6.817  12.159
25455SOL     OW76390   4.409   6.598  11.837
25455SOL    HW176391   4.478   6.582  11.907
25455SOL    HW276392   4.336   6.655  11.875
25456SOL     OW76393   4.059   7.021  12.233
25456SOL    HW176394   3.981   6.990  12.180
25456SOL    HW276395   4.117   7.079  12.176
25457SOL     OW76396   5.184   7.091  12.511
25457SOL    HW176397   5.208   7.185  12.537
25457SOL    HW276398   5.168   7.037  12.593
25458SOL     OW76399   4.162   5.978  12.671
25458SOL    HW176400   4.244   5.922  12.680
25458SOL    HW276401   4.081   5.920  12.675
25459SOL     OW76402   5.327   6.033  11.909
25459SOL    HW176403   5.253   6.079  11.859
25459SOL    HW276404   5.378   6.101  11.962
25460SOL     OW76405   3.955   7.299  11.655
25460SOL    HW176406   3.989   7.376  11.709
25460SOL    HW276407   3.999   7.299  11.565
25461SOL     OW76408   3.954   7.020  11.710
25461SOL    HW176409   3.928   7.116  11.710
25461SOL    HW276410   3.883   6.966  11.755
25462SOL     OW76411   3.964   6.677  12.058
25462SOL    HW176412   3.978   6.593  12.110
25462SOL    HW276413   3.909   6.741  12.113
25463SOL     OW76414   4.344   7.372  12.611
25463SOL    HW176415   4.252   7.355  12.646
25463SOL    HW276416   4.372   7.464  12.637
25464SOL     OW76417   4.330   6.550  11.295
25464SOL    HW176418   4.337   6.634  11.241
25464SOL    HW276419   4.376   6.563  11.383
25465SOL     OW76420   5.318   5.700  12.652
25465SOL    HW176421   5.300   5.767  12.580
25465SOL    HW276422   5.315   5.746  12.741
25466SOL     OW76423   3.846   6.229  11.735
25466SOL    HW176424   3.801   6.141  11.752
25466SOL    HW276425   3.845   6.283  11.819
25467SOL     OW76426   5.566   7.353  11.531
25467SOL    HW176427   5.620   7.324  11.611
25467SOL    HW276428   5.596   7.443  11.502
25468SOL     OW76429   3.751   7.182  11.289
25468SOL    HW176430   3.732   7.086  11.310
25468SOL    HW276431   3.718   7.240  11.364
25469SOL     OW76432   5.413   6.508  11.784
25469SOL    HW176433   5.508   6.479  11.792
25469SOL    HW276434   5.405   6.573  11.709
25470SOL     OW76435   5.365   6.694  11.604
25470SOL    HW176436   5.451   6.696  11.552
25470SOL    HW276437   5.379   6.741  11.692
25471SOL     OW76438   4.337   6.951  11.898
25471SOL    HW176439   4.288   6.864  11.907
25471SOL    HW276440   4.314   6.994  11.811
25472SOL     OW76441   4.533   5.590  11.674
25472SOL    HW176442   4.573   5.681  11.665
25472SOL    HW276443   4.433   5.598  11.680
25473SOL     OW76444   3.921   6.562  12.436
25473SOL    HW176445   4.010   6.517  12.422
25473SOL    HW276446   3.848   6.497  12.417
25474SOL     OW76447   5.249   6.585  11.362
25474SOL    HW176448   5.186   6.509  11.375
25474SOL    HW276449   5.297   6.603  11.448
25475SOL     OW76450   4.041   5.837  12.973
25475SOL    HW176451   4.112   5.908  12.979
25475SOL    HW276452   3.953   5.876  13.001
25476SOL     OW76453   5.190   7.003  12.125
25476SOL    HW176454   5.131   7.009  12.205
25476SOL    HW276455   5.175   6.915  12.079
25477SOL     OW76456   5.391   7.300  11.744
25477SOL    HW176457   5.350   7.277  11.656
25477SOL    HW276458   5.373   7.226  11.809
25478SOL     OW76459   4.322   6.315  11.442
25478SOL    HW176460   4.346   6.384  11.374
25478SOL    HW276461   4.244   6.348  11.496
25479SOL     OW76462   5.005   5.931  12.116
25479SOL    HW176463   4.919   5.881  12.103
25479SOL    HW276464   5.067   5.877  12.172
25480SOL     OW76465   5.300   7.248  11.479
25480SOL    HW176466   5.389   7.294  11.482
25480SOL    HW276467   5.279   7.224  11.384
25481SOL     OW76468   4.531   6.191  12.637
25481SOL    HW176469   4.484   6.188  12.726
25481SOL    HW276470   4.480   6.136  12.571
25482SOL     OW76471   4.715   5.996  12.414
25482SOL    HW176472   4.638   6.030  12.468
25482SOL    HW276473   4.681   5.945  12.335
25483SOL     OW76474   4.765   6.287  11.601
25483SOL    HW176475   4.791   6.283  11.697
25483SOL    HW276476   4.680   6.236  11.587
25484SOL     OW76477   3.800   6.397  11.961
25484SOL    HW176478   3.899   6.385  11.970
25484SOL    HW276479   3.776   6.492  11.982
25485SOL     OW76480   3.854   7.407  12.743
25485SOL    HW176481   3.844   7.392  12.842
25485SOL    HW276482   3.768   7.443  12.707
25486SOL     OW76483   4.589   5.934  11.367
25486SOL    HW176484   4.648   5.997  11.318
25486SOL    HW276485   4.608   5.840  11.338
25487SOL     OW76486   5.086   6.730  11.717
25487SOL    HW176487   5.169   6.701  11.669
25487SOL    HW276488   5.037   6.797  11.661
25488SOL     OW76489   4.274   5.782  12.057
25488SOL    HW176490   4.269   5.777  12.157
25488SOL    HW276491   4.276   5.878  12.028
25489SOL     OW76492   4.732   7.042  11.649
25489SOL    HW176493   4.686   7.114  11.597
25489SOL    HW276494   4.728   7.062  11.747
25490SOL     OW76495   4.075   7.387  12.025
25490SOL    HW176496   4.125   7.301  12.031
25490SOL    HW276497   4.140   7.464  12.022
25491SOL     OW76498   5.519   6.652  12.045
25491SOL    HW176499   5.457   6.637  11.969
25491SOL    HW276500   5.467   6.663  12.130
25492SOL     OW76501   4.045   6.529  11.414
25492SOL    HW176502   4.127   6.568  11.372
25492SOL    HW276503   4.018   6.447  11.365
25493SOL     OW76504   5.182   6.321  11.900
25493SOL    HW176505   5.177   6.256  11.975
25493SOL    HW276506   5.262   6.380  11.913
25494SOL     OW76507   4.835   7.362  11.409
25494SOL    HW176508   4.775   7.300  11.459
25494SOL    HW276509   4.866   7.318  11.324
25495SOL     OW76510   5.356   6.963  11.253
25495SOL    HW176511   5.324   7.057  11.243
25495SOL    HW276512   5.280   6.900  11.241
25496SOL     OW76513   4.188   7.329  11.495
25496SOL    HW176514   4.221   7.368  11.581
25496SOL    HW276515   4.264   7.322  11.430
25497SOL     OW76516   5.124   5.693  11.598
25497SOL    HW176517   5.100   5.656  11.508
25497SOL    HW276518   5.223   5.709  11.602
25498SOL     OW76519   3.973   7.371  12.413
25498SOL    HW176520   4.030   7.306  12.463
25498SOL    HW276521   3.957   7.338  12.320
25499SOL     OW76522   4.664   7.284  12.076
25499SOL    HW176523   4.744   7.227  12.097
25499SOL    HW276524   4.615   7.244  11.999
25500SOL     OW76525   4.106   6.286  11.652
25500SOL    HW176526   4.151   6.196  11.649
25500SOL    HW276527   4.012   6.275  11.685
25501SOL     OW76528   4.338   5.708  11.289
25501SOL    HW176529   4.436   5.686  11.296
25501SOL    HW276530   4.307   5.691  11.196
25502SOL     OW76531   4.612   7.100  12.367
25502SOL    HW176532   4.589   7.075  12.273
25502SOL    HW276533   4.673   7.031  12.406
25503SOL     OW76534   4.527   6.988  12.096
25503SOL    HW176535   4.617   7.002  12.054
25503SOL    HW276536   4.456   6.990  12.025
25504SOL     OW76537   4.646   6.089  12.071
25504SOL    HW176538   4.621   6.080  11.975
25504SOL    HW276539   4.694   6.007  12.102
25505SOL     OW76540   4.263   5.650  11.684
25505SOL    HW176541   4.182   5.651  11.742
25505SOL    HW276542   4.266   5.733  11.629
25506SOL     OW76543   5.158   6.774  11.213
25506SOL    HW176544   5.190   6.698  11.270
25506SOL    HW276545   5.066   6.801  11.243
25507SOL     OW76546   4.021   5.621  11.343
25507SOL    HW176547   4.070   5.705  11.322
25507SOL    HW276548   4.083   5.556  11.388
25508SOL     OW76549   4.659   5.822  11.652
25508SOL    HW176550   4.611   5.863  11.574
25508SOL    HW276551   4.758   5.820  11.633
25509SOL     OW76552   4.951   7.156  11.965
25509SOL    HW176553   4.972   7.230  11.900
25509SOL    HW276554   5.019   7.156  12.038
25510SOL     OW76555   4.183   6.738  11.913
25510SOL    HW176556   4.112   6.711  11.978
25510SOL    HW276557   4.157   6.710  11.820
25511SOL     OW76558   4.995   7.383  11.763
25511SOL    HW176559   5.039   7.447  11.699
25511SOL    HW276560   4.945   7.435  11.833
25512SOL     OW76561   4.756   6.135  11.188
25512SOL    HW176562   4.715   6.217  11.149
25512SOL    HW276563   4.820   6.161  11.261
25513SOL     OW76564   3.802   6.142  12.558
25513SOL    HW176565   3.894   6.141  12.517
25513SOL    HW276566   3.796   6.216  12.625
25514SOL     OW76567   4.285   5.808  12.319
25514SOL    HW176568   4.323   5.724  12.356
25514SOL    HW276569   4.197   5.827  12.363
25515SOL     OW76570   4.590   6.040  11.814
25515SOL    HW176571   4.558   6.112  11.752
25515SOL    HW276572   4.614   5.959  11.761
25516SOL     OW76573   4.741   5.625  11.925
25516SOL    HW176574   4.669   5.630  11.856
25516SOL    HW276575   4.717   5.556  11.994
25517SOL     OW76576   5.153   6.759  12.039
25517SOL    HW176577   5.098   6.675  12.032
25517SOL    HW276578   5.179   6.788  11.947
25518SOL     OW76579   5.190   6.176  12.164
25518SOL    HW176580   5.160   6.081  12.171
25518SOL    HW276581   5.263   6.192  12.230
25519SOL     OW76582   5.581   6.419  11.549
25519SOL    HW176583   5.623   6.355  11.613
25519SOL    HW276584   5.543   6.368  11.471
25520SOL     OW76585   4.212   6.971  11.346
25520SOL    HW176586   4.125   6.956  11.393
25520SOL    HW276587   4.195   6.997  11.251
25521SOL     OW76588   5.388   6.866  11.829
25521SOL    HW176589   5.487   6.874  11.843
25521SOL    HW276590   5.343   6.950  11.860
25522SOL     OW76591   5.114   6.161  11.250
25522SOL    HW176592   5.060   6.140  11.331
25522SOL    HW276593   5.205   6.120  11.259
25523SOL     OW76594   4.251   5.842  11.500
25523SOL    HW176595   4.278   5.783  11.425
25523SOL    HW276596   4.251   5.937  11.469
25524SOL     OW76597   4.788   6.933  12.512
25524SOL    HW176598   4.708   6.910  12.567
25524SOL    HW276599   4.871   6.907  12.561
25525SOL     OW76600   4.835   6.781  12.272
25525SOL    HW176601   4.795   6.825  12.353
25525SOL    HW276602   4.794   6.818  12.189
25526SOL     OW76603   5.362   6.685  12.251
25526SOL    HW176604   5.367   6.766  12.310
25526SOL    HW276605   5.276   6.687  12.200
25527SOL     OW76606   4.639   5.675  12.574
25527SOL    HW176607   4.664   5.655  12.479
25527SOL    HW276608   4.711   5.731  12.616
25528SOL     OW76609   4.429   6.636  11.540
25528SOL    HW176610   4.415   6.643  11.639
25528SOL    HW276611   4.513   6.585  11.522
25529SOL     OW76612   4.134   6.399  12.423
25529SOL    HW176613   4.220   6.411  12.473
25529SOL    HW276614   4.092   6.312  12.450
25530SOL     OW76615   4.998   5.972  12.434
25530SOL    HW176616   5.019   6.046  12.498
25530SOL    HW276617   4.909   5.989  12.391
25531SOL     OW76618   3.788   7.150  12.503
25531SOL    HW176619   3.742   7.232  12.469
25531SOL    HW276620   3.886   7.169  12.512
25532SOL     OW76621   4.091   6.686  11.673
25532SOL    HW176622   4.084   6.769  11.617
25532SOL    HW276623   4.095   6.606  11.613
25533SOL     OW76624   4.290   6.123  12.037
25533SOL    HW176625   4.302   6.189  11.963
25533SOL    HW276626   4.336   6.157  12.120
25534SOL     OW76627   4.976   6.934  11.560
25534SOL    HW176628   5.026   7.011  11.600
25534SOL    HW276629   4.881   6.936  11.592
25535SOL     OW76630   4.996   7.031  12.314
25535SOL    HW176631   5.043   7.044  12.401
25535SOL    HW276632   4.930   6.957  12.323
25536SOL     OW76633   5.306   6.225  11.644
25536SOL    HW176634   5.275   6.286  11.717
25536SOL    HW276635   5.356   6.277  11.575
25537SOL     OW76636   4.078   7.096  12.501
25537SOL    HW176637   4.057   7.052  12.414
25537SOL    HW276638   4.175   7.122  12.504
25538SOL     OW76639   4.126   6.337  12.770
25538SOL    HW176640   4.194   6.392  12.723
25538SOL    HW276641   4.166   6.249  12.797
25539SOL     OW76642   5.311   6.365  12.842
25539SOL    HW176643   5.219   6.403  12.837
25539SOL    HW276644   5.371   6.412  12.777
25540SOL     OW76645   4.297   6.456  12.201
25540SOL    HW176646   4.341   6.545  12.192
25540SOL    HW276647   4.234   6.456  12.278
25541SOL     OW76648   5.084   6.448  12.217
25541SOL    HW176649   5.009   6.448  12.151
25541SOL    HW276650   5.121   6.356  12.226
25542SOL     OW76651   4.933   6.111  11.447
25542SOL    HW176652   4.946   6.027  11.501
25542SOL    HW276653   4.904   6.185  11.507
25543SOL     OW76654   4.031   5.799  12.403
25543SOL    HW176655   4.008   5.836  12.493
25543SOL    HW276656   4.001   5.704  12.397
25544SOL     OW76657   3.761   6.896  12.454
25544SOL    HW176658   3.814   6.847  12.522
25544SOL    HW276659   3.783   6.994  12.459
25545SOL     OW76660   4.456   6.220  12.236
25545SOL    HW176661   4.515   6.194  12.160
25545SOL    HW276662   4.428   6.316  12.225
25546SOL     OW76663   4.031   5.649  11.790
25546SOL    HW176664   4.020   5.743  11.823
25546SOL    HW276665   4.026   5.586  11.867
25547SOL     OW76666   5.346   5.953  11.546
25547SOL    HW176667   5.348   5.877  11.610
25547SOL    HW276668   5.298   6.030  11.586
25548SOL     OW76669   4.747   6.352  12.138
25548SOL    HW176670   4.762   6.373  12.234
25548SOL    HW276671   4.717   6.257  12.129
25549SOL     OW76672   4.704   7.159  12.872
25549SOL    HW176673   4.684   7.203  12.784
25549SOL    HW276674   4.743   7.068  12.856
25550SOL     OW76675   5.264   5.860  11.297
25550SOL    HW176676   5.203   5.785  11.320
25550SOL    HW276677   5.286   5.912  11.380
25551SOL     OW76678   5.027   6.424  11.214
25551SOL    HW176679   5.061   6.331  11.229
25551SOL    HW276680   5.045   6.451  11.119
25552SOL     OW76681   4.792   6.919  12.021
25552SOL    HW176682   4.799   6.835  11.966
25552SOL    HW276683   4.854   6.988  11.985
25553SOL     OW76684   4.043   6.396  12.121
25553SOL    HW176685   4.136   6.432  12.126
25553SOL    HW276686   4.037   6.311  12.173
25554SOL     OW76687   4.063   6.095  12.178
25554SOL    HW176688   4.011   6.012  12.161
25554SOL    HW276689   4.140   6.100  12.114
25555SOL     OW76690   4.862   5.966  12.850
25555SOL    HW176691   4.817   6.029  12.914
25555SOL    HW276692   4.955   5.997  12.833
25556SOL     OW76693   4.884   5.793  12.649
25556SOL    HW176694   4.884   5.857  12.726
25556SOL    HW276695   4.912   5.841  12.566
25557SOL     OW76696   3.732   6.912  11.372
25557SOL    HW176697   3.639   6.933  11.341
25557SOL    HW276698   3.742   6.813  11.385
25558SOL     OW76699   3.812   7.387  12.099
25558SOL    HW176700   3.770   7.301  12.072
25558SOL    HW276701   3.906   7.390  12.065
25559SOL     OW76702   4.228   7.154  12.082
25559SOL    HW176703   4.294   7.228  12.091
25559SOL    HW276704   4.272   7.075  12.040
25560SOL     OW76705   4.726   6.382  12.410
25560SOL    HW176706   4.767   6.350  12.496
25560SOL    HW276707   4.630   6.355  12.407
25561SOL     OW76708   3.764   6.130  12.286
25561SOL    HW176709   3.849   6.097  12.245
25561SOL    HW276710   3.777   6.145  12.384
25562SOL     OW76711   4.539   6.158  11.497
25562SOL    HW176712   4.546   6.069  11.451
25562SOL    HW276713   4.445   6.192  11.489
25563SOL     OW76714   5.381   6.190  12.378
25563SOL    HW176715   5.343   6.121  12.440
25563SOL    HW276716   5.463   6.154  12.334
25564SOL     OW76717   4.395   6.050  12.441
25564SOL    HW176718   4.361   5.961  12.411
25564SOL    HW276719   4.421   6.104  12.361
25565SOL     OW76720   4.654   7.264  12.637
25565SOL    HW176721   4.630   7.246  12.542
25565SOL    HW276722   4.684   7.358  12.647
25566SOL     OW76723   4.197   6.086  11.363
25566SOL    HW176724   4.258   6.166  11.367
25566SOL    HW276725   4.102   6.117  11.370
25567SOL     OW76726   3.883   6.723  12.638
25567SOL    HW176727   3.905   6.662  12.714
25567SOL    HW276728   3.893   6.674  12.552
25568SOL     OW76729   5.071   6.645  12.406
25568SOL    HW176730   5.095   6.582  12.332
25568SOL    HW276731   4.981   6.685  12.388
25569SOL     OW76732   5.026   6.441  11.481
25569SOL    HW176733   4.940   6.410  11.523
25569SOL    HW276734   5.022   6.427  11.382
25570SOL     OW76735   5.483   7.333  12.326
25570SOL    HW176736   5.544   7.363  12.253
25570SOL    HW276737   5.445   7.244  12.304
25571SOL     OW76738   4.976   7.317  12.300
25571SOL    HW176739   5.060   7.322  12.246
25571SOL    HW276740   4.953   7.221  12.318
25572SOL     OW76741   3.807   6.844  12.194
25572SOL    HW176742   3.802   6.843  12.294
25572SOL    HW276743   3.724   6.803  12.156
25573SOL     OW76744   5.450   5.721  11.695
25573SOL    HW176745   5.523   5.704  11.628
25573SOL    HW276746   5.419   5.634  11.733
25574SOL     OW76747   5.112   7.159  11.649
25574SOL    HW176748   5.179   7.171  11.575
25574SOL    HW276749   5.072   7.248  11.672
25575SOL     OW76750   5.004   6.513  11.844
25575SOL    HW176751   5.064   6.432  11.846
25575SOL    HW276752   5.044   6.582  11.784
25576SOL     OW76753   4.396   7.202  11.326
25576SOL    HW176754   4.405   7.212  11.227
25576SOL    HW276755   4.356   7.113  11.347
25577SOL     OW76756   5.374   7.306  12.566
25577SOL    HW176757   5.427   7.316  12.482
25577SOL    HW276758   5.347   7.396  12.600
25578SOL     OW76759   5.565   5.761  12.135
25578SOL    HW176760   5.604   5.676  12.099
25578SOL    HW276761   5.467   5.763  12.116
25579SOL     OW76762   3.987   5.912  11.892
25579SOL    HW176763   3.908   5.963  11.858
25579SOL    HW276764   3.978   5.897  11.990
25580SOL     OW76765   4.918   7.198  11.203
25580SOL    HW176766   4.924   7.105  11.240
25580SOL    HW276767   4.859   7.198  11.123
25581SOL     OW76768   4.546   6.588  12.544
25581SOL    HW176769   4.586   6.587  12.452
25581SOL    HW276770   4.556   6.680  12.584
25582SOL     OW76771   4.640   6.496  11.463
25582SOL    HW176772   4.703   6.534  11.395
25582SOL    HW276773   4.680   6.413  11.502
25583SOL     OW76774   5.228   7.193  11.216
25583SOL    HW176775   5.136   7.230  11.223
25583SOL    HW276776   5.266   7.213  11.126
25584SOL     OW76777   4.096   6.874  12.662
25584SOL    HW176778   4.083   6.967  12.628
25584SOL    HW276779   4.012   6.822  12.649
25585SOL     OW76780   5.338   6.878  12.461
25585SOL    HW176781   5.398   6.881  12.541
25585SOL    HW276782   5.263   6.942  12.474
25586SOL     OW76783   4.763   6.684  11.868
25586SOL    HW176784   4.693   6.637  11.922
25586SOL    HW276785   4.822   6.616  11.825
25587SOL     OW76786   4.738   5.822  12.143
25587SOL    HW176787   4.730   5.786  12.050
25587SOL    HW276788   4.736   5.746  12.208
25588SOL     OW76789   4.314   7.073  11.663
25588SOL    HW176790   4.356   7.015  11.593
25588SOL    HW276791   4.270   7.152  11.619
25589SOL     OW76792   5.433   5.971  12.553
25589SOL    HW176793   5.506   6.040  12.557
25589SOL    HW276794   5.461   5.896  12.494
25590SOL     OW76795   3.979   6.934  11.462
25590SOL    HW176796   3.883   6.935  11.435
25590SOL    HW276797   3.991   6.987  11.546
25591SOL     OW76798   3.799   5.931  11.205
25591SOL    HW176799   3.707   5.903  11.176
25591SOL    HW276800   3.830   6.008  11.149
25592SOL     OW76801   5.164   6.442  12.570
25592SOL    HW176802   5.107   6.494  12.507
25592SOL    HW276803   5.260   6.454  12.546
25593SOL     OW76804   3.796   5.752  11.490
25593SOL    HW176805   3.779   5.835  11.436
25593SOL    HW276806   3.886   5.715  11.468
25594SOL     OW76807   4.907   6.921  11.291
25594SOL    HW176808   4.808   6.910  11.293
25594SOL    HW276809   4.941   6.936  11.384
25595SOL     OW76810   4.337   6.428  12.603
25595SOL    HW176811   4.393   6.509  12.586
25595SOL    HW276812   4.396   6.348  12.606
25596SOL     OW76813   5.217   7.353  12.131
25596SOL    HW176814   5.250   7.417  12.062
25596SOL    HW276815   5.283   7.347  12.206
25597SOL     OW76816   4.114   7.327  12.732
25597SOL    HW176817   4.023   7.368  12.730
25597SOL    HW276818   4.107   7.233  12.764
25598SOL     OW76819   5.398   6.469  12.426
25598SOL    HW176820   5.371   6.380  12.389
25598SOL    HW276821   5.399   6.537  12.353
25599SOL     OW76822   4.949   5.911  11.621
25599SOL    HW176823   5.014   5.837  11.610
25599SOL    HW276824   4.969   5.961  11.705
25600SOL     OW76825   4.318   6.331  11.824
25600SOL    HW176826   4.368   6.416  11.805
25600SOL    HW276827   4.230   6.333  11.776
25601SOL     OW76828   5.454   6.520  12.689
25601SOL    HW176829   5.492   6.611  12.704
25601SOL    HW276830   5.446   6.503  12.590
25602SOL     OW76831   4.583   6.960  11.188
25602SOL    HW176832   4.537   6.975  11.276
25602SOL    HW276833   4.627   7.045  11.158
25603SOL     OW76834   4.385   7.376  12.125
25603SOL    HW176835   4.339   7.464  12.112
25603SOL    HW276836   4.484   7.388  12.118
25604SOL     OW76837   4.583   6.542  12.033
25604SOL    HW176838   4.637   6.473  12.081
25604SOL    HW276839   4.551   6.611  12.099
25605SOL     OW76840   4.807   6.570  11.259
25605SOL    HW176841   4.784   6.623  11.177
25605SOL    HW276842   4.888   6.514  11.240
25606SOL     OW76843   5.585   7.155  12.023
25606SOL    HW176844   5.514   7.143  11.953
25606SOL    HW276845   5.586   7.076  12.083
25607SOL     OW76846   3.803   6.826  11.825
25607SOL    HW176847   3.802   6.779  11.913
25607SOL    HW276848   3.885   6.798  11.774
25608SOL     OW76849   5.548   5.778  12.399
25608SOL    HW176850   5.544   5.688  12.443
25608SOL    HW276851   5.551   5.767  12.300
25609SOL     OW76852   4.152   6.010  11.692
25609SOL    HW176853   4.182   5.938  11.630
25609SOL    HW276854   4.113   5.970  11.775
25610SOL     OW76855   5.429   7.073  12.276
25610SOL    HW176856   5.336   7.048  12.249
25610SOL    HW276857   5.455   7.023  12.358
25611SOL     OW76858   4.041   6.133  12.452
25611SOL    HW176859   4.079   6.074  12.524
25611SOL    HW276860   4.081   6.107  12.364
25612SOL     OW76861   4.536   7.172  11.859
25612SOL    HW176862   4.568   7.182  11.765
25612SOL    HW276863   4.457   7.110  11.861
25613SOL     OW76864   5.148   5.800  12.284
25613SOL    HW176865   5.200   5.735  12.339
25613SOL    HW276866   5.099   5.863  12.345
25614SOL     OW76867   4.725   5.620  12.326
25614SOL    HW176868   4.662   5.548  12.295
25614SOL    HW276869   4.818   5.584  12.326
25615SOL     OW76870   4.494   6.916  11.473
25615SOL    HW176871   4.448   6.829  11.490
25615SOL    HW276872   4.585   6.913  11.514
25616SOL     OW76873   4.342   7.153  12.456
25616SOL    HW176874   4.337   7.235  12.513
25616SOL    HW276875   4.431   7.150  12.411
25617SOL     OW76876   5.076   5.638  11.340
25617SOL    HW176877   5.111   5.597  11.256
25617SOL    HW276878   4.986   5.600  11.360
25618SOL     OW76879   5.024   6.039  11.863
25618SOL    HW176880   4.965   6.119  11.867
25618SOL    HW276881   5.039   6.004  11.956
25619SOL     OW76882   5.317   5.807  12.054
25619SOL    HW176883   5.233   5.806  12.108
25619SOL    HW276884   5.319   5.890  11.998
25620SOL     OW76885   3.763   6.663  11.472
25620SOL    HW176886   3.862   6.652  11.463
25620SOL    HW276887   3.723   6.577  11.504
25621SOL     OW76888   4.599   7.232  11.509
25621SOL    HW176889   4.522   7.197  11.455
25621SOL    HW276890   4.567   7.303  11.571
25622SOL     OW76891   3.954   8.076   0.113
25622SOL    HW176892   3.861   8.074   0.150
25622SOL    HW276893   3.955   8.037   0.021
25623SOL     OW76894   3.949   7.723   0.996
25623SOL    HW176895   3.984   7.706   1.088
25623SOL    HW276896   3.861   7.678   0.984
25624SOL     OW76897   3.743   7.816   0.647
25624SOL    HW176898   3.661   7.859   0.686
25624SOL    HW276899   3.715   7.743   0.584
25625SOL     OW76900   4.293   8.723   1.165
25625SOL    HW176901   4.200   8.716   1.128
25625SOL    HW276902   4.304   8.812   1.209
25626SOL     OW76903   5.279   8.959   0.703
25626SOL    HW176904   5.222   8.943   0.784
25626SOL    HW276905   5.220   8.969   0.623
25627SOL     OW76906   4.859   8.151   0.717
25627SOL    HW176907   4.916   8.229   0.692
25627SOL    HW276908   4.799   8.177   0.793
25628SOL     OW76909   5.479   8.055   0.231
25628SOL    HW176910   5.467   8.042   0.132
25628SOL    HW276911   5.449   7.974   0.280
25629SOL     OW76912   4.492   8.592   1.023
25629SOL    HW176913   4.414   8.609   1.083
25629SOL    HW276914   4.526   8.679   0.987
25630SOL     OW76915   4.574   8.246   1.823
25630SOL    HW176916   4.570   8.322   1.888
25630SOL    HW276917   4.596   8.282   1.732
25631SOL     OW76918   4.409   8.460   0.665
25631SOL    HW176919   4.478   8.444   0.735
25631SOL    HW276920   4.336   8.517   0.703
25632SOL     OW76921   4.410   8.609   1.803
25632SOL    HW176922   4.470   8.688   1.817
25632SOL    HW276923   4.324   8.640   1.762
25633SOL     OW76924   4.059   8.883   1.061
25633SOL    HW176925   3.981   8.852   1.008
25633SOL    HW276926   4.117   8.941   1.004
25634SOL     OW76927   5.184   8.953   1.339
25634SOL    HW176928   5.208   9.047   1.365
25634SOL    HW276929   5.168   8.899   1.421
25635SOL     OW76930   4.162   7.840   1.499
25635SOL    HW176931   4.244   7.784   1.508
25635SOL    HW276932   4.081   7.782   1.503
25636SOL     OW76933   5.327   7.895   0.737
25636SOL    HW176934   5.253   7.941   0.687
25636SOL    HW276935   5.378   7.963   0.790
25637SOL     OW76936   3.955   9.161   0.483
25637SOL    HW176937   3.989   9.238   0.537
25637SOL    HW276938   3.999   9.161   0.393
25638SOL     OW76939   4.851   8.789   1.690
25638SOL    HW176940   4.898   8.789   1.778
25638SOL    HW276941   4.803   8.702   1.679
25639SOL     OW76942   3.954   8.882   0.538
25639SOL    HW176943   3.928   8.978   0.538
25639SOL    HW276944   3.883   8.828   0.583
25640SOL     OW76945   3.964   8.539   0.886
25640SOL    HW176946   3.978   8.455   0.938
25640SOL    HW276947   3.909   8.603   0.941
25641SOL     OW76948   4.344   9.234   1.439
25641SOL    HW176949   4.252   9.217   1.474
25641SOL    HW276950   4.372   9.326   1.465
25642SOL     OW76951   4.330   8.412   0.123
25642SOL    HW176952   4.337   8.496   0.069
25642SOL    HW276953   4.376   8.425   0.211
25643SOL     OW76954   5.318   7.562   1.480
25643SOL    HW176955   5.300   7.629   1.408
25643SOL    HW276956   5.315   7.608   1.569
25644SOL     OW76957   3.846   8.091   0.563
25644SOL    HW176958   3.801   8.003   0.580
25644SOL    HW276959   3.845   8.145   0.647
25645SOL     OW76960   5.566   9.215   0.359
25645SOL    HW176961   5.620   9.186   0.439
25645SOL    HW276962   5.596   9.305   0.330
25646SOL     OW76963   3.751   9.044   0.117
25646SOL    HW176964   3.732   8.948   0.138
25646SOL    HW276965   3.718   9.102   0.192
25647SOL     OW76966   5.413   8.370   0.612
25647SOL    HW176967   5.508   8.341   0.620
25647SOL    HW276968   5.405   8.435   0.537
25648SOL     OW76969   5.365   8.556   0.432
25648SOL    HW176970   5.451   8.558   0.380
25648SOL    HW276971   5.379   8.603   0.520
25649SOL     OW76972   3.837   8.185   1.597
25649SOL    HW176973   3.925   8.172   1.642
25649SOL    HW276974   3.824   8.282   1.575
25650SOL     OW76975   4.337   8.813   0.726
25650SOL    HW176976   4.288   8.726   0.735
25650SOL    HW276977   4.314   8.856   0.639
25651SOL     OW76978   5.017   8.676   1.423
25651SOL    HW176979   5.054   8.603   1.365
25651SOL    HW276980   5.069   8.681   1.508
25652SOL     OW76981   4.533   7.452   0.502
25652SOL    HW176982   4.573   7.543   0.493
25652SOL    HW276983   4.433   7.460   0.508
25653SOL     OW76984   3.921   8.424   1.264
25653SOL    HW176985   4.010   8.379   1.250
25653SOL    HW276986   3.848   8.359   1.245
25654SOL     OW76987   5.249   8.447   0.190
25654SOL    HW176988   5.186   8.371   0.203
25654SOL    HW276989   5.297   8.465   0.276
25655SOL     OW76990   4.911   9.240   1.616
25655SOL    HW176991   4.935   9.300   1.540
25655SOL    HW276992   4.918   9.145   1.586
25656SOL     OW76993   4.041   7.699   1.801
25656SOL    HW176994   4.112   7.770   1.807
25656SOL    HW276995   3.953   7.738   1.829
25657SOL     OW76996   5.190   8.865   0.953
25657SOL    HW176997   5.131   8.871   1.033
25657SOL    HW276998   5.175   8.777   0.907
25658SOL     OW76999   5.391   9.162   0.572
25658SOL    HW177000   5.350   9.139   0.484
25658SOL    HW277001   5.373   9.088   0.637
25659SOL     OW77002   4.322   8.177   0.270
25659SOL    HW177003   4.346   8.246   0.202
25659SOL    HW277004   4.244   8.210   0.324
25660SOL     OW77005   5.005   7.793   0.944
25660SOL    HW177006   4.919   7.743   0.931
25660SOL    HW277007   5.067   7.739   1.000
25661SOL     OW77008   5.300   9.110   0.307
25661SOL    HW177009   5.389   9.156   0.310
25661SOL    HW277010   5.279   9.086   0.212
25662SOL     OW77011   4.531   8.053   1.465
25662SOL    HW177012   4.484   8.050   1.554
25662SOL    HW277013   4.480   7.998   1.399
25663SOL     OW77014   5.118   7.917   1.674
25663SOL    HW177015   5.098   7.960   1.762
25663SOL    HW277016   5.196   7.855   1.683
25664SOL     OW77017   4.697   8.338   1.572
25664SOL    HW177018   4.743   8.254   1.543
25664SOL    HW277019   4.641   8.372   1.497
25665SOL     OW77020   4.715   7.858   1.242
25665SOL    HW177021   4.638   7.892   1.296
25665SOL    HW277022   4.681   7.807   1.163
25666SOL     OW77023   4.765   8.149   0.429
25666SOL    HW177024   4.791   8.145   0.525
25666SOL    HW277025   4.680   8.098   0.415
25667SOL     OW77026   3.800   8.259   0.789
25667SOL    HW177027   3.899   8.247   0.798
25667SOL    HW277028   3.776   8.354   0.810
25668SOL     OW77029   3.854   9.269   1.571
25668SOL    HW177030   3.844   9.254   1.670
25668SOL    HW277031   3.768   9.305   1.535
25669SOL     OW77032   4.589   7.796   0.195
25669SOL    HW177033   4.648   7.859   0.146
25669SOL    HW277034   4.608   7.702   0.166
25670SOL     OW77035   5.443   8.033   1.831
25670SOL    HW177036   5.417   8.122   1.795
25670SOL    HW277037   5.441   7.965   1.758
25671SOL     OW77038   5.086   8.592   0.545
25671SOL    HW177039   5.169   8.563   0.497
25671SOL    HW277040   5.037   8.659   0.489
25672SOL     OW77041   4.274   7.644   0.885
25672SOL    HW177042   4.269   7.639   0.985
25672SOL    HW277043   4.276   7.740   0.856
25673SOL     OW77044   4.732   8.904   0.477
25673SOL    HW177045   4.686   8.976   0.425
25673SOL    HW277046   4.728   8.924   0.575
25674SOL     OW77047   4.075   9.249   0.853
25674SOL    HW177048   4.125   9.163   0.859
25674SOL    HW277049   4.140   9.326   0.850
25675SOL     OW77050   5.519   8.514   0.873
25675SOL    HW177051   5.457   8.499   0.797
25675SOL    HW277052   5.467   8.525   0.958
25676SOL     OW77053   4.951   8.998   1.506
25676SOL    HW177054   4.957   8.921   1.570
25676SOL    HW277055   4.899   8.972   1.426
25677SOL     OW77056   4.045   8.391   0.242
25677SOL    HW177057   4.127   8.430   0.200
25677SOL    HW277058   4.018   8.309   0.193
25678SOL     OW77059   5.182   8.183   0.728
25678SOL    HW177060   5.177   8.118   0.803
25678SOL    HW277061   5.262   8.242   0.741
25679SOL     OW77062   4.185   8.714   1.727
25679SOL    HW177063   4.135   8.715   1.641
25679SOL    HW277064   4.122   8.696   1.803
25680SOL     OW77065   4.835   9.224   0.237
25680SOL    HW177066   4.775   9.162   0.287
25680SOL    HW277067   4.866   9.180   0.152
25681SOL     OW77068   3.926   7.733   1.498
25681SOL    HW177069   3.846   7.793   1.485
25681SOL    HW277070   3.916   7.684   1.584
25682SOL     OW77071   5.356   8.825   0.081
25682SOL    HW177072   5.324   8.919   0.071
25682SOL    HW277073   5.280   8.762   0.069
25683SOL     OW77074   4.188   9.191   0.323
25683SOL    HW177075   4.221   9.230   0.409
25683SOL    HW277076   4.264   9.184   0.258
25684SOL     OW77077   5.124   7.555   0.426
25684SOL    HW177078   5.100   7.518   0.336
25684SOL    HW277079   5.223   7.571   0.430
25685SOL     OW77080   3.973   9.233   1.241
25685SOL    HW177081   4.030   9.168   1.291
25685SOL    HW277082   3.957   9.200   1.148
25686SOL     OW77083   4.664   9.146   0.904
25686SOL    HW177084   4.744   9.089   0.925
25686SOL    HW277085   4.615   9.106   0.827
25687SOL     OW77086   4.106   8.148   0.480
25687SOL    HW177087   4.151   8.058   0.477
25687SOL    HW277088   4.012   8.137   0.513
25688SOL     OW77089   5.271   7.670   1.729
25688SOL    HW177090   5.266   7.707   1.821
25688SOL    HW277091   5.199   7.601   1.717
25689SOL     OW77092   4.338   7.570   0.117
25689SOL    HW177093   4.436   7.548   0.124
25689SOL    HW277094   4.307   7.553   0.024
25690SOL     OW77095   4.505   7.712   1.749
25690SOL    HW177096   4.572   7.651   1.792
25690SOL    HW277097   4.432   7.731   1.814
25691SOL     OW77098   4.612   8.962   1.195
25691SOL    HW177099   4.589   8.937   1.101
25691SOL    HW277100   4.673   8.893   1.234
25692SOL     OW77101   5.075   8.038   1.433
25692SOL    HW177102   5.103   7.995   1.518
25692SOL    HW277103   5.100   8.134   1.434
25693SOL     OW77104   4.527   8.850   0.924
25693SOL    HW177105   4.617   8.864   0.882
25693SOL    HW277106   4.456   8.852   0.853
25694SOL     OW77107   4.646   7.951   0.899
25694SOL    HW177108   4.621   7.942   0.803
25694SOL    HW277109   4.694   7.869   0.930
25695SOL     OW77110   4.263   7.512   0.512
25695SOL    HW177111   4.182   7.513   0.570
25695SOL    HW277112   4.266   7.595   0.457
25696SOL     OW77113   5.158   8.636   0.041
25696SOL    HW177114   5.190   8.560   0.098
25696SOL    HW277115   5.066   8.663   0.071
25697SOL     OW77116   4.021   7.483   0.171
25697SOL    HW177117   4.070   7.567   0.150
25697SOL    HW277118   4.083   7.418   0.216
25698SOL     OW77119   4.659   7.684   0.480
25698SOL    HW177120   4.611   7.725   0.402
25698SOL    HW277121   4.758   7.682   0.461
25699SOL     OW77122   4.800   8.131   1.464
25699SOL    HW177123   4.720   8.070   1.467
25699SOL    HW277124   4.881   8.078   1.440
25700SOL     OW77125   4.951   9.018   0.793
25700SOL    HW177126   4.972   9.092   0.728
25700SOL    HW277127   5.019   9.018   0.866
25701SOL     OW77128   4.183   8.600   0.741
25701SOL    HW177129   4.112   8.573   0.806
25701SOL    HW277130   4.157   8.572   0.648
25702SOL     OW77131   4.995   9.245   0.591
25702SOL    HW177132   5.039   9.309   0.527
25702SOL    HW277133   4.945   9.297   0.661
25703SOL     OW77134   4.756   7.997   0.016
25703SOL    HW177135   4.715   8.079  -0.023
25703SOL    HW277136   4.820   8.023   0.089
25704SOL     OW77137   3.802   8.004   1.386
25704SOL    HW177138   3.894   8.003   1.345
25704SOL    HW277139   3.796   8.078   1.453
25705SOL     OW77140   4.285   7.670   1.147
25705SOL    HW177141   4.323   7.586   1.184
25705SOL    HW277142   4.197   7.689   1.191
25706SOL     OW77143   4.590   7.902   0.642
25706SOL    HW177144   4.558   7.974   0.580
25706SOL    HW277145   4.614   7.821   0.589
25707SOL     OW77146   4.741   7.487   0.753
25707SOL    HW177147   4.669   7.492   0.684
25707SOL    HW277148   4.717   7.418   0.822
25708SOL     OW77149   5.153   8.621   0.867
25708SOL    HW177150   5.098   8.537   0.860
25708SOL    HW277151   5.179   8.650   0.775
25709SOL     OW77152   5.190   8.038   0.992
25709SOL    HW177153   5.160   7.943   0.999
25709SOL    HW277154   5.263   8.054   1.058
25710SOL     OW77155   5.581   8.281   0.377
25710SOL    HW177156   5.623   8.217   0.441
25710SOL    HW277157   5.543   8.230   0.299
25711SOL     OW77158   4.212   8.833   0.174
25711SOL    HW177159   4.125   8.818   0.221
25711SOL    HW277160   4.195   8.859   0.079
25712SOL     OW77161   5.388   8.728   0.657
25712SOL    HW177162   5.487   8.736   0.671
25712SOL    HW277163   5.343   8.812   0.688
25713SOL     OW77164   5.114   8.023   0.078
25713SOL    HW177165   5.060   8.002   0.159
25713SOL    HW277166   5.205   7.982   0.087
25714SOL     OW77167   4.251   7.704   0.328
25714SOL    HW177168   4.278   7.645   0.253
25714SOL    HW277169   4.251   7.799   0.297
25715SOL     OW77170   5.478   8.671   1.588
25715SOL    HW177171   5.569   8.632   1.575
25715SOL    HW277172   5.486   8.767   1.612
25716SOL     OW77173   4.788   8.795   1.340
25716SOL    HW177174   4.708   8.772   1.395
25716SOL    HW277175   4.871   8.769   1.389
25717SOL     OW77176   5.316   9.077   1.625
25717SOL    HW177177   5.343   9.111   1.535
25717SOL    HW277178   5.395   9.039   1.671
25718SOL     OW77179   4.835   8.643   1.100
25718SOL    HW177180   4.795   8.687   1.181
25718SOL    HW277181   4.794   8.680   1.017
25719SOL     OW77182   5.362   8.547   1.079
25719SOL    HW177183   5.367   8.628   1.138
25719SOL    HW277184   5.276   8.549   1.028
25720SOL     OW77185   4.639   7.537   1.402
25720SOL    HW177186   4.664   7.517   1.307
25720SOL    HW277187   4.711   7.593   1.444
25721SOL     OW77188   4.704   8.564   1.719
25721SOL    HW177189   4.605   8.570   1.729
25721SOL    HW277190   4.727   8.484   1.663
25722SOL     OW77191   4.429   8.498   0.368
25722SOL    HW177192   4.415   8.505   0.467
25722SOL    HW277193   4.513   8.447   0.350
25723SOL     OW77194   4.134   8.261   1.251
25723SOL    HW177195   4.220   8.273   1.301
25723SOL    HW277196   4.092   8.174   1.278
25724SOL     OW77197   4.998   7.834   1.262
25724SOL    HW177198   5.019   7.908   1.326
25724SOL    HW277199   4.909   7.851   1.219
25725SOL     OW77200   3.788   9.012   1.331
25725SOL    HW177201   3.742   9.094   1.297
25725SOL    HW277202   3.886   9.031   1.340
25726SOL     OW77203   4.091   8.548   0.501
25726SOL    HW177204   4.084   8.631   0.445
25726SOL    HW277205   4.095   8.468   0.441
25727SOL     OW77206   4.290   7.985   0.865
25727SOL    HW177207   4.302   8.051   0.791
25727SOL    HW277208   4.336   8.019   0.948
25728SOL     OW77209   4.976   8.796   0.388
25728SOL    HW177210   5.026   8.873   0.428
25728SOL    HW277211   4.881   8.798   0.420
25729SOL     OW77212   4.996   8.893   1.142
25729SOL    HW177213   5.043   8.906   1.229
25729SOL    HW277214   4.930   8.819   1.151
25730SOL     OW77215   5.306   8.087   0.472
25730SOL    HW177216   5.275   8.148   0.545
25730SOL    HW277217   5.356   8.139   0.403
25731SOL     OW77218   4.078   8.958   1.329
25731SOL    HW177219   4.057   8.914   1.242
25731SOL    HW277220   4.175   8.984   1.332
25732SOL     OW77221   4.126   8.199   1.598
25732SOL    HW177222   4.194   8.254   1.551
25732SOL    HW277223   4.166   8.111   1.625
25733SOL     OW77224   5.311   8.227   1.670
25733SOL    HW177225   5.219   8.265   1.665
25733SOL    HW277226   5.371   8.274   1.605
25734SOL     OW77227   4.737   7.553   1.770
25734SOL    HW177228   4.743   7.638   1.718
25734SOL    HW277229   4.769   7.477   1.713
25735SOL     OW77230   4.228   7.498   1.740
25735SOL    HW177231   4.186   7.441   1.670
25735SOL    HW277232   4.162   7.567   1.772
25736SOL     OW77233   4.297   8.318   1.029
25736SOL    HW177234   4.341   8.407   1.020
25736SOL    HW277235   4.234   8.318   1.106
25737SOL     OW77236   5.084   8.310   1.045
25737SOL    HW177237   5.009   8.310   0.979
25737SOL    HW277238   5.121   8.218   1.054
25738SOL     OW77239   4.933   7.973   0.275
25738SOL    HW177240   4.946   7.889   0.329
25738SOL    HW277241   4.904   8.047   0.335
25739SOL     OW77242   4.031   7.661   1.231
25739SOL    HW177243   4.008   7.698   1.321
25739SOL    HW277244   4.001   7.566   1.225
25740SOL     OW77245   3.761   8.758   1.282
25740SOL    HW177246   3.814   8.709   1.350
25740SOL    HW277247   3.783   8.856   1.287
25741SOL     OW77248   4.456   8.082   1.064
25741SOL    HW177249   4.515   8.056   0.988
25741SOL    HW277250   4.428   8.178   1.053
25742SOL     OW77251   5.452   8.383   1.854
25742SOL    HW177252   5.406   8.376   1.765
25742SOL    HW277253   5.390   8.427   1.920
25743SOL     OW77254   4.031   7.511   0.618
25743SOL    HW177255   4.020   7.605   0.651
25743SOL    HW277256   4.026   7.448   0.695
25744SOL     OW77257   5.346   7.815   0.374
25744SOL    HW177258   5.348   7.739   0.438
25744SOL    HW277259   5.298   7.892   0.414
25745SOL     OW77260   4.747   8.214   0.966
25745SOL    HW177261   4.762   8.235   1.062
25745SOL    HW277262   4.717   8.119   0.957
25746SOL     OW77263   4.704   9.021   1.700
25746SOL    HW177264   4.684   9.065   1.612
25746SOL    HW277265   4.743   8.930   1.684
25747SOL     OW77266   5.583   8.966   1.605
25747SOL    HW177267   5.597   8.993   1.510
25747SOL    HW277268   5.666   8.988   1.658
25748SOL     OW77269   4.074   8.346   1.804
25748SOL    HW177270   4.150   8.390   1.852
25748SOL    HW277271   4.109   8.299   1.722
25749SOL     OW77272   5.264   7.722   0.125
25749SOL    HW177273   5.203   7.647   0.148
25749SOL    HW277274   5.286   7.774   0.208
25750SOL     OW77275   5.027   8.286   0.042
25750SOL    HW177276   5.061   8.193   0.057
25750SOL    HW277277   5.045   8.313  -0.053
25751SOL     OW77278   4.792   8.781   0.849
25751SOL    HW177279   4.799   8.697   0.794
25751SOL    HW277280   4.854   8.850   0.813
25752SOL     OW77281   4.043   8.258   0.949
25752SOL    HW177282   4.136   8.294   0.954
25752SOL    HW277283   4.037   8.173   1.001
25753SOL     OW77284   4.063   7.957   1.006
25753SOL    HW177285   4.011   7.874   0.989
25753SOL    HW277286   4.140   7.962   0.942
25754SOL     OW77287   4.862   7.828   1.678
25754SOL    HW177288   4.817   7.891   1.742
25754SOL    HW277289   4.955   7.859   1.661
25755SOL     OW77290   4.884   7.655   1.477
25755SOL    HW177291   4.884   7.719   1.554
25755SOL    HW277292   4.912   7.703   1.394
25756SOL     OW77293   3.732   8.774   0.200
25756SOL    HW177294   3.639   8.795   0.169
25756SOL    HW277295   3.742   8.675   0.213
25757SOL     OW77296   3.812   9.249   0.927
25757SOL    HW177297   3.770   9.163   0.900
25757SOL    HW277298   3.906   9.252   0.893
25758SOL     OW77299   4.228   9.016   0.910
25758SOL    HW177300   4.294   9.090   0.919
25758SOL    HW277301   4.272   8.937   0.868
25759SOL     OW77302   4.726   8.244   1.238
25759SOL    HW177303   4.767   8.212   1.324
25759SOL    HW277304   4.630   8.217   1.235
25760SOL     OW77305   3.764   7.992   1.114
25760SOL    HW177306   3.849   7.959   1.073
25760SOL    HW277307   3.777   8.007   1.212
25761SOL     OW77308   3.913   7.968   1.722
25761SOL    HW177309   3.972   7.928   1.652
25761SOL    HW277310   3.855   8.039   1.681
25762SOL     OW77311   5.093   8.398   1.660
25762SOL    HW177312   5.132   8.487   1.680
25762SOL    HW277313   5.103   8.378   1.563
25763SOL     OW77314   4.539   8.020   0.325
25763SOL    HW177315   4.546   7.931   0.279
25763SOL    HW277316   4.445   8.054   0.317
25764SOL     OW77317   5.381   8.052   1.206
25764SOL    HW177318   5.343   7.983   1.268
25764SOL    HW277319   5.463   8.016   1.162
25765SOL     OW77320   3.976   9.012   1.744
25765SOL    HW177321   3.946   9.069   1.820
25765SOL    HW277322   3.969   8.915   1.770
25766SOL     OW77323   4.395   7.912   1.269
25766SOL    HW177324   4.361   7.823   1.239
25766SOL    HW277325   4.421   7.966   1.189
25767SOL     OW77326   4.654   9.126   1.465
25767SOL    HW177327   4.630   9.108   1.370
25767SOL    HW277328   4.684   9.220   1.475
25768SOL     OW77329   4.197   7.948   0.191
25768SOL    HW177330   4.258   8.028   0.195
25768SOL    HW277331   4.102   7.979   0.198
25769SOL     OW77332   3.883   8.585   1.466
25769SOL    HW177333   3.905   8.524   1.542
25769SOL    HW277334   3.893   8.536   1.380
25770SOL     OW77335   5.071   8.507   1.234
25770SOL    HW177336   5.095   8.444   1.160
25770SOL    HW277337   4.981   8.547   1.216
25771SOL     OW77338   5.026   8.303   0.309
25771SOL    HW177339   4.940   8.272   0.351
25771SOL    HW277340   5.022   8.289   0.210
25772SOL     OW77341   5.483   9.195   1.154
25772SOL    HW177342   5.544   9.225   1.081
25772SOL    HW277343   5.445   9.106   1.132
25773SOL     OW77344   4.976   9.179   1.128
25773SOL    HW177345   5.060   9.184   1.074
25773SOL    HW277346   4.953   9.083   1.146
25774SOL     OW77347   3.807   8.706   1.022
25774SOL    HW177348   3.802   8.705   1.122
25774SOL    HW277349   3.724   8.665   0.984
25775SOL     OW77350   4.412   9.110   1.716
25775SOL    HW177351   4.356   9.191   1.725
25775SOL    HW277352   4.464   9.114   1.630
25776SOL     OW77353   4.627   7.534   0.133
25776SOL    HW177354   4.678   7.535   0.047
25776SOL    HW277355   4.683   7.492   0.204
25777SOL     OW77356   5.450   7.583   0.523
25777SOL    HW177357   5.523   7.566   0.456
25777SOL    HW277358   5.419   7.496   0.561
25778SOL     OW77359   5.112   9.021   0.477
25778SOL    HW177360   5.179   9.033   0.403
25778SOL    HW277361   5.072   9.110   0.500
25779SOL     OW77362   3.854   9.242   1.851
25779SOL    HW177363   3.813   9.168   1.904
25779SOL    HW277364   3.918   9.293   1.909
25780SOL     OW77365   5.004   8.375   0.672
25780SOL    HW177366   5.064   8.294   0.674
25780SOL    HW277367   5.044   8.444   0.612
25781SOL     OW77368   4.554   8.721   1.422
25781SOL    HW177369   4.549   8.754   1.517
25781SOL    HW277370   4.468   8.740   1.376
25782SOL     OW77371   4.396   9.064   0.154
25782SOL    HW177372   4.405   9.074   0.055
25782SOL    HW277373   4.356   8.975   0.175
25783SOL     OW77374   5.374   9.168   1.394
25783SOL    HW177375   5.427   9.178   1.310
25783SOL    HW277376   5.347   9.258   1.428
25784SOL     OW77377   5.565   7.623   0.963
25784SOL    HW177378   5.604   7.538   0.927
25784SOL    HW277379   5.467   7.625   0.944
25785SOL     OW77380   3.987   7.774   0.720
25785SOL    HW177381   3.908   7.825   0.686
25785SOL    HW277382   3.978   7.759   0.818
25786SOL     OW77383   4.918   9.060   0.031
25786SOL    HW177384   4.924   8.967   0.068
25786SOL    HW277385   4.859   9.060  -0.049
25787SOL     OW77386   4.546   8.450   1.372
25787SOL    HW177387   4.586   8.449   1.280
25787SOL    HW277388   4.556   8.542   1.412
25788SOL     OW77389   4.640   8.358   0.291
25788SOL    HW177390   4.703   8.396   0.223
25788SOL    HW277391   4.680   8.275   0.330
25789SOL     OW77392   5.228   9.055   0.044
25789SOL    HW177393   5.136   9.092   0.051
25789SOL    HW277394   5.266   9.075  -0.046
25790SOL     OW77395   4.096   8.736   1.490
25790SOL    HW177396   4.083   8.829   1.456
25790SOL    HW277397   4.012   8.684   1.477
25791SOL     OW77398   5.338   8.740   1.289
25791SOL    HW177399   5.398   8.743   1.369
25791SOL    HW277400   5.263   8.804   1.302
25792SOL     OW77401   4.763   8.546   0.696
25792SOL    HW177402   4.693   8.499   0.750
25792SOL    HW277403   4.822   8.478   0.653
25793SOL     OW77404   4.738   7.684   0.971
25793SOL    HW177405   4.730   7.648   0.878
25793SOL    HW277406   4.736   7.608   1.036
25794SOL     OW77407   4.314   8.935   0.491
25794SOL    HW177408   4.356   8.877   0.421
25794SOL    HW277409   4.270   9.014   0.447
25795SOL     OW77410   5.433   7.833   1.381
25795SOL    HW177411   5.506   7.902   1.385
25795SOL    HW277412   5.461   7.758   1.322
25796SOL     OW77413   3.979   8.796   0.290
25796SOL    HW177414   3.883   8.797   0.263
25796SOL    HW277415   3.991   8.849   0.374
25797SOL     OW77416   3.829   8.461   1.726
25797SOL    HW177417   3.752   8.428   1.780
25797SOL    HW277418   3.914   8.431   1.768
25798SOL     OW77419   4.396   7.651   1.489
25798SOL    HW177420   4.486   7.635   1.449
25798SOL    HW277421   4.404   7.656   1.588
25799SOL     OW77422   5.164   8.304   1.398
25799SOL    HW177423   5.107   8.356   1.335
25799SOL    HW277424   5.260   8.316   1.374
25800SOL     OW77425   3.796   7.614   0.318
25800SOL    HW177426   3.779   7.697   0.264
25800SOL    HW277427   3.886   7.577   0.296
25801SOL     OW77428   4.907   8.783   0.119
25801SOL    HW177429   4.808   8.772   0.121
25801SOL    HW277430   4.941   8.798   0.212
25802SOL     OW77431   4.337   8.290   1.431
25802SOL    HW177432   4.393   8.371   1.414
25802SOL    HW277433   4.396   8.210   1.434
25803SOL     OW77434   5.217   9.215   0.959
25803SOL    HW177435   5.250   9.279   0.890
25803SOL    HW277436   5.283   9.209   1.034
25804SOL     OW77437   4.440   8.013   1.708
25804SOL    HW177438   4.459   8.078   1.782
25804SOL    HW277439   4.500   7.933   1.717
25805SOL     OW77440   5.174   8.668   1.633
25805SOL    HW177441   5.165   8.658   1.732
25805SOL    HW277442   5.270   8.661   1.607
25806SOL     OW77443   4.114   9.189   1.560
25806SOL    HW177444   4.023   9.230   1.558
25806SOL    HW277445   4.107   9.095   1.592
25807SOL     OW77446   5.398   8.331   1.254
25807SOL    HW177447   5.371   8.242   1.217
25807SOL    HW277448   5.399   8.399   1.181
25808SOL     OW77449   4.949   7.773   0.449
25808SOL    HW177450   5.014   7.699   0.438
25808SOL    HW277451   4.969   7.823   0.533
25809SOL     OW77452   4.318   8.193   0.652
25809SOL    HW177453   4.368   8.278   0.633
25809SOL    HW277454   4.230   8.195   0.604
25810SOL     OW77455   5.501   7.790   1.642
25810SOL    HW177456   5.484   7.821   1.548
25810SOL    HW277457   5.417   7.753   1.680
25811SOL     OW77458   5.454   8.382   1.517
25811SOL    HW177459   5.492   8.473   1.532
25811SOL    HW277460   5.446   8.365   1.418
25812SOL     OW77461   4.583   8.822   0.016
25812SOL    HW177462   4.537   8.837   0.104
25812SOL    HW277463   4.627   8.907  -0.014
25813SOL     OW77464   4.385   9.238   0.953
25813SOL    HW177465   4.339   9.326   0.940
25813SOL    HW277466   4.484   9.250   0.946
25814SOL     OW77467   4.583   8.404   0.861
25814SOL    HW177468   4.637   8.335   0.909
25814SOL    HW277469   4.551   8.473   0.927
25815SOL     OW77470   4.807   8.432   0.087
25815SOL    HW177471   4.784   8.485   0.005
25815SOL    HW277472   4.888   8.376   0.068
25816SOL     OW77473   5.585   9.017   0.851
25816SOL    HW177474   5.514   9.005   0.781
25816SOL    HW277475   5.586   8.938   0.911
25817SOL     OW77476   3.945   8.762   1.844
25817SOL    HW177477   3.880   8.689   1.823
25817SOL    HW277478   3.949   8.776   1.942
25818SOL     OW77479   3.803   8.688   0.653
25818SOL    HW177480   3.802   8.641   0.741
25818SOL    HW277481   3.885   8.660   0.602
25819SOL     OW77482   4.396   8.839   1.624
25819SOL    HW177483   4.318   8.789   1.662
25819SOL    HW277484   4.393   8.934   1.655
25820SOL     OW77485   5.548   7.640   1.227
25820SOL    HW177486   5.544   7.550   1.271
25820SOL    HW277487   5.551   7.629   1.128
25821SOL     OW77488   4.152   7.872   0.520
25821SOL    HW177489   4.182   7.800   0.458
25821SOL    HW277490   4.113   7.832   0.603
25822SOL     OW77491   5.429   8.935   1.104
25822SOL    HW177492   5.336   8.910   1.077
25822SOL    HW277493   5.455   8.885   1.186
25823SOL     OW77494   4.041   7.995   1.280
25823SOL    HW177495   4.079   7.936   1.352
25823SOL    HW277496   4.081   7.969   1.192
25824SOL     OW77497   4.536   9.034   0.687
25824SOL    HW177498   4.568   9.044   0.593
25824SOL    HW277499   4.457   8.972   0.689
25825SOL     OW77500   5.148   7.662   1.112
25825SOL    HW177501   5.200   7.597   1.167
25825SOL    HW277502   5.099   7.725   1.173
25826SOL     OW77503   4.725   7.482   1.154
25826SOL    HW177504   4.662   7.410   1.123
25826SOL    HW277505   4.818   7.446   1.154
25827SOL     OW77506   4.494   8.778   0.301
25827SOL    HW177507   4.448   8.691   0.318
25827SOL    HW277508   4.585   8.775   0.342
25828SOL     OW77509   4.342   9.015   1.284
25828SOL    HW177510   4.337   9.097   1.341
25828SOL    HW277511   4.431   9.012   1.239
25829SOL     OW77512   5.076   7.500   0.168
25829SOL    HW177513   5.111   7.459   0.084
25829SOL    HW277514   4.986   7.462   0.188
25830SOL     OW77515   5.024   7.901   0.691
25830SOL    HW177516   4.965   7.981   0.695
25830SOL    HW277517   5.039   7.866   0.784
25831SOL     OW77518   5.317   7.669   0.882
25831SOL    HW177519   5.233   7.668   0.936
25831SOL    HW277520   5.319   7.752   0.826
25832SOL     OW77521   3.763   8.525   0.300
25832SOL    HW177522   3.862   8.514   0.291
25832SOL    HW277523   3.723   8.439   0.332
25833SOL     OW77524   4.599   9.094   0.337
25833SOL    HW177525   4.522   9.059   0.283
25833SOL    HW277526   4.567   9.165   0.399
25834SOL     OW77527   3.954   8.076   1.975
25834SOL    HW177528   3.861   8.074   2.012
25834SOL    HW277529   3.955   8.037   1.883
25835SOL     OW77530   3.949   7.723   2.858
25835SOL    HW177531   3.984   7.706   2.950
25835SOL    HW277532   3.861   7.678   2.846
25836SOL     OW77533   3.743   7.816   2.509
25836SOL    HW177534   3.661   7.859   2.548
25836SOL    HW277535   3.715   7.743   2.446
25837SOL     OW77536   4.293   8.723   3.027
25837SOL    HW177537   4.200   8.716   2.990
25837SOL    HW277538   4.304   8.812   3.071
25838SOL     OW77539   5.279   8.959   2.565
25838SOL    HW177540   5.222   8.943   2.646
25838SOL    HW277541   5.220   8.969   2.485
25839SOL     OW77542   4.859   8.151   2.579
25839SOL    HW177543   4.916   8.229   2.554
25839SOL    HW277544   4.799   8.177   2.655
25840SOL     OW77545   5.479   8.055   2.093
25840SOL    HW177546   5.467   8.042   1.994
25840SOL    HW277547   5.449   7.974   2.142
25841SOL     OW77548   4.492   8.592   2.885
25841SOL    HW177549   4.414   8.609   2.945
25841SOL    HW277550   4.526   8.679   2.849
25842SOL     OW77551   4.574   8.246   3.685
25842SOL    HW177552   4.570   8.322   3.750
25842SOL    HW277553   4.596   8.282   3.594
25843SOL     OW77554   4.409   8.460   2.527
25843SOL    HW177555   4.478   8.444   2.597
25843SOL    HW277556   4.336   8.517   2.565
25844SOL     OW77557   4.410   8.609   3.665
25844SOL    HW177558   4.470   8.688   3.679
25844SOL    HW277559   4.324   8.640   3.624
25845SOL     OW77560   4.059   8.883   2.923
25845SOL    HW177561   3.981   8.852   2.870
25845SOL    HW277562   4.117   8.941   2.866
25846SOL     OW77563   5.184   8.953   3.201
25846SOL    HW177564   5.208   9.047   3.227
25846SOL    HW277565   5.168   8.899   3.283
25847SOL     OW77566   4.162   7.840   3.361
25847SOL    HW177567   4.244   7.784   3.370
25847SOL    HW277568   4.081   7.782   3.365
25848SOL     OW77569   5.327   7.895   2.599
25848SOL    HW177570   5.253   7.941   2.549
25848SOL    HW277571   5.378   7.963   2.652
25849SOL     OW77572   3.955   9.161   2.345
25849SOL    HW177573   3.989   9.238   2.399
25849SOL    HW277574   3.999   9.161   2.255
25850SOL     OW77575   4.851   8.789   3.552
25850SOL    HW177576   4.898   8.789   3.640
25850SOL    HW277577   4.803   8.702   3.541
25851SOL     OW77578   3.954   8.882   2.400
25851SOL    HW177579   3.928   8.978   2.400
25851SOL    HW277580   3.883   8.828   2.445
25852SOL     OW77581   3.964   8.539   2.748
25852SOL    HW177582   3.978   8.455   2.800
25852SOL    HW277583   3.909   8.603   2.803
25853SOL     OW77584   4.344   9.234   3.301
25853SOL    HW177585   4.252   9.217   3.336
25853SOL    HW277586   4.372   9.326   3.327
25854SOL     OW77587   4.330   8.412   1.985
25854SOL    HW177588   4.337   8.496   1.931
25854SOL    HW277589   4.376   8.425   2.073
25855SOL     OW77590   5.318   7.562   3.342
25855SOL    HW177591   5.300   7.629   3.270
25855SOL    HW277592   5.315   7.608   3.431
25856SOL     OW77593   3.846   8.091   2.425
25856SOL    HW177594   3.801   8.003   2.442
25856SOL    HW277595   3.845   8.145   2.509
25857SOL     OW77596   5.566   9.215   2.221
25857SOL    HW177597   5.620   9.186   2.301
25857SOL    HW277598   5.596   9.305   2.192
25858SOL     OW77599   3.751   9.044   1.979
25858SOL    HW177600   3.732   8.948   2.000
25858SOL    HW277601   3.718   9.102   2.054
25859SOL     OW77602   5.413   8.370   2.474
25859SOL    HW177603   5.508   8.341   2.482
25859SOL    HW277604   5.405   8.435   2.399
25860SOL     OW77605   5.365   8.556   2.294
25860SOL    HW177606   5.451   8.558   2.242
25860SOL    HW277607   5.379   8.603   2.382
25861SOL     OW77608   3.837   8.185   3.459
25861SOL    HW177609   3.925   8.172   3.504
25861SOL    HW277610   3.824   8.282   3.437
25862SOL     OW77611   4.337   8.813   2.588
25862SOL    HW177612   4.288   8.726   2.597
25862SOL    HW277613   4.314   8.856   2.501
25863SOL     OW77614   5.017   8.676   3.285
25863SOL    HW177615   5.054   8.603   3.227
25863SOL    HW277616   5.069   8.681   3.370
25864SOL     OW77617   4.533   7.452   2.364
25864SOL    HW177618   4.573   7.543   2.355
25864SOL    HW277619   4.433   7.460   2.370
25865SOL     OW77620   3.921   8.424   3.126
25865SOL    HW177621   4.010   8.379   3.112
25865SOL    HW277622   3.848   8.359   3.107
25866SOL     OW77623   5.249   8.447   2.052
25866SOL    HW177624   5.186   8.371   2.065
25866SOL    HW277625   5.297   8.465   2.138
25867SOL     OW77626   4.911   9.240   3.478
25867SOL    HW177627   4.935   9.300   3.402
25867SOL    HW277628   4.918   9.145   3.448
25868SOL     OW77629   4.041   7.699   3.663
25868SOL    HW177630   4.112   7.770   3.669
25868SOL    HW277631   3.953   7.738   3.691
25869SOL     OW77632   5.190   8.865   2.815
25869SOL    HW177633   5.131   8.871   2.895
25869SOL    HW277634   5.175   8.777   2.769
25870SOL     OW77635   5.391   9.162   2.434
25870SOL    HW177636   5.350   9.139   2.346
25870SOL    HW277637   5.373   9.088   2.499
25871SOL     OW77638   4.322   8.177   2.132
25871SOL    HW177639   4.346   8.246   2.064
25871SOL    HW277640   4.244   8.210   2.186
25872SOL     OW77641   5.005   7.793   2.806
25872SOL    HW177642   4.919   7.743   2.793
25872SOL    HW277643   5.067   7.739   2.862
25873SOL     OW77644   5.300   9.110   2.169
25873SOL    HW177645   5.389   9.156   2.172
25873SOL    HW277646   5.279   9.086   2.074
25874SOL     OW77647   4.531   8.053   3.327
25874SOL    HW177648   4.484   8.050   3.416
25874SOL    HW277649   4.480   7.998   3.261
25875SOL     OW77650   5.118   7.917   3.536
25875SOL    HW177651   5.098   7.960   3.624
25875SOL    HW277652   5.196   7.855   3.545
25876SOL     OW77653   4.697   8.338   3.434
25876SOL    HW177654   4.743   8.254   3.405
25876SOL    HW277655   4.641   8.372   3.359
25877SOL     OW77656   4.715   7.858   3.104
25877SOL    HW177657   4.638   7.892   3.158
25877SOL    HW277658   4.681   7.807   3.025
25878SOL     OW77659   4.765   8.149   2.291
25878SOL    HW177660   4.791   8.145   2.387
25878SOL    HW277661   4.680   8.098   2.277
25879SOL     OW77662   3.800   8.259   2.651
25879SOL    HW177663   3.899   8.247   2.660
25879SOL    HW277664   3.776   8.354   2.672
25880SOL     OW77665   3.854   9.269   3.433
25880SOL    HW177666   3.844   9.254   3.532
25880SOL    HW277667   3.768   9.305   3.397
25881SOL     OW77668   4.589   7.796   2.057
25881SOL    HW177669   4.648   7.859   2.008
25881SOL    HW277670   4.608   7.702   2.028
25882SOL     OW77671   5.443   8.033   3.693
25882SOL    HW177672   5.417   8.122   3.657
25882SOL    HW277673   5.441   7.965   3.620
25883SOL     OW77674   5.086   8.592   2.407
25883SOL    HW177675   5.169   8.563   2.359
25883SOL    HW277676   5.037   8.659   2.351
25884SOL     OW77677   4.274   7.644   2.747
25884SOL    HW177678   4.269   7.639   2.847
25884SOL    HW277679   4.276   7.740   2.718
25885SOL     OW77680   4.732   8.904   2.339
25885SOL    HW177681   4.686   8.976   2.287
25885SOL    HW277682   4.728   8.924   2.437
25886SOL     OW77683   4.075   9.249   2.715
25886SOL    HW177684   4.125   9.163   2.721
25886SOL    HW277685   4.140   9.326   2.712
25887SOL     OW77686   5.519   8.514   2.735
25887SOL    HW177687   5.457   8.499   2.659
25887SOL    HW277688   5.467   8.525   2.820
25888SOL     OW77689   4.951   8.998   3.368
25888SOL    HW177690   4.957   8.921   3.432
25888SOL    HW277691   4.899   8.972   3.288
25889SOL     OW77692   4.045   8.391   2.104
25889SOL    HW177693   4.127   8.430   2.062
25889SOL    HW277694   4.018   8.309   2.055
25890SOL     OW77695   5.182   8.183   2.590
25890SOL    HW177696   5.177   8.118   2.665
25890SOL    HW277697   5.262   8.242   2.603
25891SOL     OW77698   4.185   8.714   3.589
25891SOL    HW177699   4.135   8.715   3.503
25891SOL    HW277700   4.122   8.696   3.665
25892SOL     OW77701   4.835   9.224   2.099
25892SOL    HW177702   4.775   9.162   2.149
25892SOL    HW277703   4.866   9.180   2.014
25893SOL     OW77704   3.926   7.733   3.360
25893SOL    HW177705   3.846   7.793   3.347
25893SOL    HW277706   3.916   7.684   3.446
25894SOL     OW77707   5.356   8.825   1.943
25894SOL    HW177708   5.324   8.919   1.933
25894SOL    HW277709   5.280   8.762   1.931
25895SOL     OW77710   4.188   9.191   2.185
25895SOL    HW177711   4.221   9.230   2.271
25895SOL    HW277712   4.264   9.184   2.120
25896SOL     OW77713   5.124   7.555   2.288
25896SOL    HW177714   5.100   7.518   2.198
25896SOL    HW277715   5.223   7.571   2.292
25897SOL     OW77716   3.973   9.233   3.103
25897SOL    HW177717   4.030   9.168   3.153
25897SOL    HW277718   3.957   9.200   3.010
25898SOL     OW77719   4.664   9.146   2.766
25898SOL    HW177720   4.744   9.089   2.787
25898SOL    HW277721   4.615   9.106   2.689
25899SOL     OW77722   4.106   8.148   2.342
25899SOL    HW177723   4.151   8.058   2.339
25899SOL    HW277724   4.012   8.137   2.375
25900SOL     OW77725   5.271   7.670   3.591
25900SOL    HW177726   5.266   7.707   3.683
25900SOL    HW277727   5.199   7.601   3.579
25901SOL     OW77728   4.338   7.570   1.979
25901SOL    HW177729   4.436   7.548   1.986
25901SOL    HW277730   4.307   7.553   1.886
25902SOL     OW77731   4.505   7.712   3.611
25902SOL    HW177732   4.572   7.651   3.654
25902SOL    HW277733   4.432   7.731   3.676
25903SOL     OW77734   4.612   8.962   3.057
25903SOL    HW177735   4.589   8.937   2.963
25903SOL    HW277736   4.673   8.893   3.096
25904SOL     OW77737   5.075   8.038   3.295
25904SOL    HW177738   5.103   7.995   3.380
25904SOL    HW277739   5.100   8.134   3.296
25905SOL     OW77740   4.527   8.850   2.786
25905SOL    HW177741   4.617   8.864   2.744
25905SOL    HW277742   4.456   8.852   2.715
25906SOL     OW77743   4.646   7.951   2.761
25906SOL    HW177744   4.621   7.942   2.665
25906SOL    HW277745   4.694   7.869   2.792
25907SOL     OW77746   4.263   7.512   2.374
25907SOL    HW177747   4.182   7.513   2.432
25907SOL    HW277748   4.266   7.595   2.319
25908SOL     OW77749   5.158   8.636   1.903
25908SOL    HW177750   5.190   8.560   1.960
25908SOL    HW277751   5.066   8.663   1.933
25909SOL     OW77752   4.021   7.483   2.033
25909SOL    HW177753   4.070   7.567   2.012
25909SOL    HW277754   4.083   7.418   2.078
25910SOL     OW77755   4.659   7.684   2.342
25910SOL    HW177756   4.611   7.725   2.264
25910SOL    HW277757   4.758   7.682   2.323
25911SOL     OW77758   4.800   8.131   3.326
25911SOL    HW177759   4.720   8.070   3.329
25911SOL    HW277760   4.881   8.078   3.302
25912SOL     OW77761   4.951   9.018   2.655
25912SOL    HW177762   4.972   9.092   2.590
25912SOL    HW277763   5.019   9.018   2.728
25913SOL     OW77764   4.183   8.600   2.603
25913SOL    HW177765   4.112   8.573   2.668
25913SOL    HW277766   4.157   8.572   2.510
25914SOL     OW77767   4.995   9.245   2.453
25914SOL    HW177768   5.039   9.309   2.389
25914SOL    HW277769   4.945   9.297   2.523
25915SOL     OW77770   4.756   7.997   1.878
25915SOL    HW177771   4.715   8.079   1.839
25915SOL    HW277772   4.820   8.023   1.951
25916SOL     OW77773   3.802   8.004   3.248
25916SOL    HW177774   3.894   8.003   3.207
25916SOL    HW277775   3.796   8.078   3.315
25917SOL     OW77776   4.285   7.670   3.009
25917SOL    HW177777   4.323   7.586   3.046
25917SOL    HW277778   4.197   7.689   3.053
25918SOL     OW77779   4.590   7.902   2.504
25918SOL    HW177780   4.558   7.974   2.442
25918SOL    HW277781   4.614   7.821   2.451
25919SOL     OW77782   4.741   7.487   2.615
25919SOL    HW177783   4.669   7.492   2.546
25919SOL    HW277784   4.717   7.418   2.684
25920SOL     OW77785   5.153   8.621   2.729
25920SOL    HW177786   5.098   8.537   2.722
25920SOL    HW277787   5.179   8.650   2.637
25921SOL     OW77788   5.190   8.038   2.854
25921SOL    HW177789   5.160   7.943   2.861
25921SOL    HW277790   5.263   8.054   2.920
25922SOL     OW77791   5.581   8.281   2.239
25922SOL    HW177792   5.623   8.217   2.303
25922SOL    HW277793   5.543   8.230   2.161
25923SOL     OW77794   4.212   8.833   2.036
25923SOL    HW177795   4.125   8.818   2.083
25923SOL    HW277796   4.195   8.859   1.941
25924SOL     OW77797   5.388   8.728   2.519
25924SOL    HW177798   5.487   8.736   2.533
25924SOL    HW277799   5.343   8.812   2.550
25925SOL     OW77800   5.114   8.023   1.940
25925SOL    HW177801   5.060   8.002   2.021
25925SOL    HW277802   5.205   7.982   1.949
25926SOL     OW77803   4.251   7.704   2.190
25926SOL    HW177804   4.278   7.645   2.115
25926SOL    HW277805   4.251   7.799   2.159
25927SOL     OW77806   5.478   8.671   3.450
25927SOL    HW177807   5.569   8.632   3.437
25927SOL    HW277808   5.486   8.767   3.474
25928SOL     OW77809   4.788   8.795   3.202
25928SOL    HW177810   4.708   8.772   3.257
25928SOL    HW277811   4.871   8.769   3.251
25929SOL     OW77812   5.316   9.077   3.487
25929SOL    HW177813   5.343   9.111   3.397
25929SOL    HW277814   5.395   9.039   3.533
25930SOL     OW77815   4.835   8.643   2.962
25930SOL    HW177816   4.795   8.687   3.043
25930SOL    HW277817   4.794   8.680   2.879
25931SOL     OW77818   5.362   8.547   2.941
25931SOL    HW177819   5.367   8.628   3.000
25931SOL    HW277820   5.276   8.549   2.890
25932SOL     OW77821   4.639   7.537   3.264
25932SOL    HW177822   4.664   7.517   3.169
25932SOL    HW277823   4.711   7.593   3.306
25933SOL     OW77824   4.704   8.564   3.581
25933SOL    HW177825   4.605   8.570   3.591
25933SOL    HW277826   4.727   8.484   3.525
25934SOL     OW77827   4.429   8.498   2.230
25934SOL    HW177828   4.415   8.505   2.329
25934SOL    HW277829   4.513   8.447   2.212
25935SOL     OW77830   4.134   8.261   3.113
25935SOL    HW177831   4.220   8.273   3.163
25935SOL    HW277832   4.092   8.174   3.140
25936SOL     OW77833   4.998   7.834   3.124
25936SOL    HW177834   5.019   7.908   3.188
25936SOL    HW277835   4.909   7.851   3.081
25937SOL     OW77836   3.788   9.012   3.193
25937SOL    HW177837   3.742   9.094   3.159
25937SOL    HW277838   3.886   9.031   3.202
25938SOL     OW77839   4.091   8.548   2.363
25938SOL    HW177840   4.084   8.631   2.307
25938SOL    HW277841   4.095   8.468   2.303
25939SOL     OW77842   4.290   7.985   2.727
25939SOL    HW177843   4.302   8.051   2.653
25939SOL    HW277844   4.336   8.019   2.810
25940SOL     OW77845   4.976   8.796   2.250
25940SOL    HW177846   5.026   8.873   2.290
25940SOL    HW277847   4.881   8.798   2.282
25941SOL     OW77848   4.996   8.893   3.004
25941SOL    HW177849   5.043   8.906   3.091
25941SOL    HW277850   4.930   8.819   3.013
25942SOL     OW77851   5.306   8.087   2.334
25942SOL    HW177852   5.275   8.148   2.407
25942SOL    HW277853   5.356   8.139   2.265
25943SOL     OW77854   4.078   8.958   3.191
25943SOL    HW177855   4.057   8.914   3.104
25943SOL    HW277856   4.175   8.984   3.194
25944SOL     OW77857   4.126   8.199   3.460
25944SOL    HW177858   4.194   8.254   3.413
25944SOL    HW277859   4.166   8.111   3.487
25945SOL     OW77860   5.311   8.227   3.532
25945SOL    HW177861   5.219   8.265   3.527
25945SOL    HW277862   5.371   8.274   3.467
25946SOL     OW77863   4.737   7.553   3.632
25946SOL    HW177864   4.743   7.638   3.580
25946SOL    HW277865   4.769   7.477   3.575
25947SOL     OW77866   4.228   7.498   3.602
25947SOL    HW177867   4.186   7.441   3.532
25947SOL    HW277868   4.162   7.567   3.634
25948SOL     OW77869   4.297   8.318   2.891
25948SOL    HW177870   4.341   8.407   2.882
25948SOL    HW277871   4.234   8.318   2.968
25949SOL     OW77872   5.084   8.310   2.907
25949SOL    HW177873   5.009   8.310   2.841
25949SOL    HW277874   5.121   8.218   2.916
25950SOL     OW77875   4.933   7.973   2.137
25950SOL    HW177876   4.946   7.889   2.191
25950SOL    HW277877   4.904   8.047   2.197
25951SOL     OW77878   4.031   7.661   3.093
25951SOL    HW177879   4.008   7.698   3.183
25951SOL    HW277880   4.001   7.566   3.087
25952SOL     OW77881   3.761   8.758   3.144
25952SOL    HW177882   3.814   8.709   3.212
25952SOL    HW277883   3.783   8.856   3.149
25953SOL     OW77884   4.456   8.082   2.926
25953SOL    HW177885   4.515   8.056   2.850
25953SOL    HW277886   4.428   8.178   2.915
25954SOL     OW77887   5.452   8.383   3.716
25954SOL    HW177888   5.406   8.376   3.627
25954SOL    HW277889   5.390   8.427   3.782
25955SOL     OW77890   4.031   7.511   2.480
25955SOL    HW177891   4.020   7.605   2.513
25955SOL    HW277892   4.026   7.448   2.557
25956SOL     OW77893   5.346   7.815   2.236
25956SOL    HW177894   5.348   7.739   2.300
25956SOL    HW277895   5.298   7.892   2.276
25957SOL     OW77896   4.747   8.214   2.828
25957SOL    HW177897   4.762   8.235   2.924
25957SOL    HW277898   4.717   8.119   2.819
25958SOL     OW77899   4.704   9.021   3.562
25958SOL    HW177900   4.684   9.065   3.474
25958SOL    HW277901   4.743   8.930   3.546
25959SOL     OW77902   5.583   8.966   3.467
25959SOL    HW177903   5.597   8.993   3.372
25959SOL    HW277904   5.666   8.988   3.520
25960SOL     OW77905   4.074   8.346   3.666
25960SOL    HW177906   4.150   8.390   3.714
25960SOL    HW277907   4.109   8.299   3.584
25961SOL     OW77908   5.264   7.722   1.987
25961SOL    HW177909   5.203   7.647   2.010
25961SOL    HW277910   5.286   7.774   2.070
25962SOL     OW77911   5.027   8.286   1.904
25962SOL    HW177912   5.061   8.193   1.919
25962SOL    HW277913   5.045   8.313   1.809
25963SOL     OW77914   4.792   8.781   2.711
25963SOL    HW177915   4.799   8.697   2.656
25963SOL    HW277916   4.854   8.850   2.675
25964SOL     OW77917   4.043   8.258   2.811
25964SOL    HW177918   4.136   8.294   2.816
25964SOL    HW277919   4.037   8.173   2.863
25965SOL     OW77920   4.063   7.957   2.868
25965SOL    HW177921   4.011   7.874   2.851
25965SOL    HW277922   4.140   7.962   2.804
25966SOL     OW77923   4.862   7.828   3.540
25966SOL    HW177924   4.817   7.891   3.604
25966SOL    HW277925   4.955   7.859   3.523
25967SOL     OW77926   4.884   7.655   3.339
25967SOL    HW177927   4.884   7.719   3.416
25967SOL    HW277928   4.912   7.703   3.256
25968SOL     OW77929   3.732   8.774   2.062
25968SOL    HW177930   3.639   8.795   2.031
25968SOL    HW277931   3.742   8.675   2.075
25969SOL     OW77932   3.812   9.249   2.789
25969SOL    HW177933   3.770   9.163   2.762
25969SOL    HW277934   3.906   9.252   2.755
25970SOL     OW77935   4.228   9.016   2.772
25970SOL    HW177936   4.294   9.090   2.781
25970SOL    HW277937   4.272   8.937   2.730
25971SOL     OW77938   4.726   8.244   3.100
25971SOL    HW177939   4.767   8.212   3.186
25971SOL    HW277940   4.630   8.217   3.097
25972SOL     OW77941   3.764   7.992   2.976
25972SOL    HW177942   3.849   7.959   2.935
25972SOL    HW277943   3.777   8.007   3.074
25973SOL     OW77944   3.913   7.968   3.584
25973SOL    HW177945   3.972   7.928   3.514
25973SOL    HW277946   3.855   8.039   3.543
25974SOL     OW77947   5.093   8.398   3.522
25974SOL    HW177948   5.132   8.487   3.542
25974SOL    HW277949   5.103   8.378   3.425
25975SOL     OW77950   4.539   8.020   2.187
25975SOL    HW177951   4.546   7.931   2.141
25975SOL    HW277952   4.445   8.054   2.179
25976SOL     OW77953   5.381   8.052   3.068
25976SOL    HW177954   5.343   7.983   3.130
25976SOL    HW277955   5.463   8.016   3.024
25977SOL     OW77956   3.976   9.012   3.606
25977SOL    HW177957   3.946   9.069   3.682
25977SOL    HW277958   3.969   8.915   3.632
25978SOL     OW77959   4.395   7.912   3.131
25978SOL    HW177960   4.361   7.823   3.101
25978SOL    HW277961   4.421   7.966   3.051
25979SOL     OW77962   4.654   9.126   3.327
25979SOL    HW177963   4.630   9.108   3.232
25979SOL    HW277964   4.684   9.220   3.337
25980SOL     OW77965   4.197   7.948   2.053
25980SOL    HW177966   4.258   8.028   2.057
25980SOL    HW277967   4.102   7.979   2.060
25981SOL     OW77968   3.883   8.585   3.328
25981SOL    HW177969   3.905   8.524   3.404
25981SOL    HW277970   3.893   8.536   3.242
25982SOL     OW77971   5.071   8.507   3.096
25982SOL    HW177972   5.095   8.444   3.022
25982SOL    HW277973   4.981   8.547   3.078
25983SOL     OW77974   5.026   8.303   2.171
25983SOL    HW177975   4.940   8.272   2.213
25983SOL    HW277976   5.022   8.289   2.072
25984SOL     OW77977   5.483   9.195   3.016
25984SOL    HW177978   5.544   9.225   2.943
25984SOL    HW277979   5.445   9.106   2.994
25985SOL     OW77980   4.976   9.179   2.990
25985SOL    HW177981   5.060   9.184   2.936
25985SOL    HW277982   4.953   9.083   3.008
25986SOL     OW77983   3.807   8.706   2.884
25986SOL    HW177984   3.802   8.705   2.984
25986SOL    HW277985   3.724   8.665   2.846
25987SOL     OW77986   4.412   9.110   3.578
25987SOL    HW177987   4.356   9.191   3.587
25987SOL    HW277988   4.464   9.114   3.492
25988SOL     OW77989   5.450   7.583   2.385
25988SOL    HW177990   5.523   7.566   2.318
25988SOL    HW277991   5.419   7.496   2.423
25989SOL     OW77992   5.112   9.021   2.339
25989SOL    HW177993   5.179   9.033   2.265
25989SOL    HW277994   5.072   9.110   2.362
25990SOL     OW77995   3.854   9.242   3.713
25990SOL    HW177996   3.813   9.168   3.766
25990SOL    HW277997   3.918   9.293   3.771
25991SOL     OW77998   5.004   8.375   2.534
25991SOL    HW177999   5.064   8.294   2.536
25991SOL    HW278000   5.044   8.444   2.474
25992SOL     OW78001   4.554   8.721   3.284
25992SOL    HW178002   4.549   8.754   3.379
25992SOL    HW278003   4.468   8.740   3.238
25993SOL     OW78004   4.396   9.064   2.016
25993SOL    HW178005   4.405   9.074   1.917
25993SOL    HW278006   4.356   8.975   2.037
25994SOL     OW78007   5.374   9.168   3.256
25994SOL    HW178008   5.427   9.178   3.172
25994SOL    HW278009   5.347   9.258   3.290
25995SOL     OW78010   5.565   7.623   2.825
25995SOL    HW178011   5.604   7.538   2.789
25995SOL    HW278012   5.467   7.625   2.806
25996SOL     OW78013   3.987   7.774   2.582
25996SOL    HW178014   3.908   7.825   2.548
25996SOL    HW278015   3.978   7.759   2.680
25997SOL     OW78016   4.918   9.060   1.893
25997SOL    HW178017   4.924   8.967   1.930
25997SOL    HW278018   4.859   9.060   1.813
25998SOL     OW78019   4.546   8.450   3.234
25998SOL    HW178020   4.586   8.449   3.142
25998SOL    HW278021   4.556   8.542   3.274
25999SOL     OW78022   4.640   8.358   2.153
25999SOL    HW178023   4.703   8.396   2.085
25999SOL    HW278024   4.680   8.275   2.192
26000SOL     OW78025   5.228   9.055   1.906
26000SOL    HW178026   5.136   9.092   1.913
26000SOL    HW278027   5.266   9.075   1.816
26001SOL     OW78028   4.096   8.736   3.352
26001SOL    HW178029   4.083   8.829   3.318
26001SOL    HW278030   4.012   8.684   3.339
26002SOL     OW78031   5.338   8.740   3.151
26002SOL    HW178032   5.398   8.743   3.231
26002SOL    HW278033   5.263   8.804   3.164
26003SOL     OW78034   4.763   8.546   2.558
26003SOL    HW178035   4.693   8.499   2.612
26003SOL    HW278036   4.822   8.478   2.515
26004SOL     OW78037   4.738   7.684   2.833
26004SOL    HW178038   4.730   7.648   2.740
26004SOL    HW278039   4.736   7.608   2.898
26005SOL     OW78040   4.314   8.935   2.353
26005SOL    HW178041   4.356   8.877   2.283
26005SOL    HW278042   4.270   9.014   2.309
26006SOL     OW78043   5.433   7.833   3.243
26006SOL    HW178044   5.506   7.902   3.247
26006SOL    HW278045   5.461   7.758   3.184
26007SOL     OW78046   3.979   8.796   2.152
26007SOL    HW178047   3.883   8.797   2.125
26007SOL    HW278048   3.991   8.849   2.236
26008SOL     OW78049   3.829   8.461   3.588
26008SOL    HW178050   3.752   8.428   3.642
26008SOL    HW278051   3.914   8.431   3.630
26009SOL     OW78052   4.396   7.651   3.351
26009SOL    HW178053   4.486   7.635   3.311
26009SOL    HW278054   4.404   7.656   3.450
26010SOL     OW78055   3.799   7.793   1.895
26010SOL    HW178056   3.707   7.765   1.866
26010SOL    HW278057   3.830   7.870   1.839
26011SOL     OW78058   5.164   8.304   3.260
26011SOL    HW178059   5.107   8.356   3.197
26011SOL    HW278060   5.260   8.316   3.236
26012SOL     OW78061   3.796   7.614   2.180
26012SOL    HW178062   3.779   7.697   2.126
26012SOL    HW278063   3.886   7.577   2.158
26013SOL     OW78064   4.907   8.783   1.981
26013SOL    HW178065   4.808   8.772   1.983
26013SOL    HW278066   4.941   8.798   2.074
26014SOL     OW78067   4.337   8.290   3.293
26014SOL    HW178068   4.393   8.371   3.276
26014SOL    HW278069   4.396   8.210   3.296
26015SOL     OW78070   5.217   9.215   2.821
26015SOL    HW178071   5.250   9.279   2.752
26015SOL    HW278072   5.283   9.209   2.896
26016SOL     OW78073   4.440   8.013   3.570
26016SOL    HW178074   4.459   8.078   3.644
26016SOL    HW278075   4.500   7.933   3.579
26017SOL     OW78076   5.174   8.668   3.495
26017SOL    HW178077   5.165   8.658   3.594
26017SOL    HW278078   5.270   8.661   3.469
26018SOL     OW78079   4.114   9.189   3.422
26018SOL    HW178080   4.023   9.230   3.420
26018SOL    HW278081   4.107   9.095   3.454
26019SOL     OW78082   5.398   8.331   3.116
26019SOL    HW178083   5.371   8.242   3.079
26019SOL    HW278084   5.399   8.399   3.043
26020SOL     OW78085   4.949   7.773   2.311
26020SOL    HW178086   5.014   7.699   2.300
26020SOL    HW278087   4.969   7.823   2.395
26021SOL     OW78088   4.318   8.193   2.514
26021SOL    HW178089   4.368   8.278   2.495
26021SOL    HW278090   4.230   8.195   2.466
26022SOL     OW78091   5.501   7.790   3.504
26022SOL    HW178092   5.484   7.821   3.410
26022SOL    HW278093   5.417   7.753   3.542
26023SOL     OW78094   5.454   8.382   3.379
26023SOL    HW178095   5.492   8.473   3.394
26023SOL    HW278096   5.446   8.365   3.280
26024SOL     OW78097   4.583   8.822   1.878
26024SOL    HW178098   4.537   8.837   1.966
26024SOL    HW278099   4.627   8.907   1.848
26025SOL     OW78100   4.385   9.238   2.815
26025SOL    HW178101   4.339   9.326   2.802
26025SOL    HW278102   4.484   9.250   2.808
26026SOL     OW78103   4.583   8.404   2.723
26026SOL    HW178104   4.637   8.335   2.771
26026SOL    HW278105   4.551   8.473   2.789
26027SOL     OW78106   4.807   8.432   1.949
26027SOL    HW178107   4.784   8.485   1.867
26027SOL    HW278108   4.888   8.376   1.930
26028SOL     OW78109   5.585   9.017   2.713
26028SOL    HW178110   5.514   9.005   2.643
26028SOL    HW278111   5.586   8.938   2.773
26029SOL     OW78112   3.945   8.762   3.706
26029SOL    HW178113   3.880   8.689   3.685
26029SOL    HW278114   3.949   8.776   3.804
26030SOL     OW78115   3.803   8.688   2.515
26030SOL    HW178116   3.802   8.641   2.603
26030SOL    HW278117   3.885   8.660   2.464
26031SOL     OW78118   4.396   8.839   3.486
26031SOL    HW178119   4.318   8.789   3.524
26031SOL    HW278120   4.393   8.934   3.517
26032SOL     OW78121   5.548   7.640   3.089
26032SOL    HW178122   5.544   7.550   3.133
26032SOL    HW278123   5.551   7.629   2.990
26033SOL     OW78124   4.152   7.872   2.382
26033SOL    HW178125   4.182   7.800   2.320
26033SOL    HW278126   4.113   7.832   2.465
26034SOL     OW78127   5.429   8.935   2.966
26034SOL    HW178128   5.336   8.910   2.939
26034SOL    HW278129   5.455   8.885   3.048
26035SOL     OW78130   4.041   7.995   3.142
26035SOL    HW178131   4.079   7.936   3.214
26035SOL    HW278132   4.081   7.969   3.054
26036SOL     OW78133   4.536   9.034   2.549
26036SOL    HW178134   4.568   9.044   2.455
26036SOL    HW278135   4.457   8.972   2.551
26037SOL     OW78136   5.148   7.662   2.974
26037SOL    HW178137   5.200   7.597   3.029
26037SOL    HW278138   5.099   7.725   3.035
26038SOL     OW78139   4.725   7.482   3.016
26038SOL    HW178140   4.662   7.410   2.985
26038SOL    HW278141   4.818   7.446   3.016
26039SOL     OW78142   4.494   8.778   2.163
26039SOL    HW178143   4.448   8.691   2.180
26039SOL    HW278144   4.585   8.775   2.204
26040SOL     OW78145   4.342   9.015   3.146
26040SOL    HW178146   4.337   9.097   3.203
26040SOL    HW278147   4.431   9.012   3.101
26041SOL     OW78148   5.076   7.500   2.030
26041SOL    HW178149   5.111   7.459   1.946
26041SOL    HW278150   4.986   7.462   2.050
26042SOL     OW78151   5.024   7.901   2.553
26042SOL    HW178152   4.965   7.981   2.557
26042SOL    HW278153   5.039   7.866   2.646
26043SOL     OW78154   5.317   7.669   2.744
26043SOL    HW178155   5.233   7.668   2.798
26043SOL    HW278156   5.319   7.752   2.688
26044SOL     OW78157   3.763   8.525   2.162
26044SOL    HW178158   3.862   8.514   2.153
26044SOL    HW278159   3.723   8.439   2.194
26045SOL     OW78160   4.599   9.094   2.199
26045SOL    HW178161   4.522   9.059   2.145
26045SOL    HW278162   4.567   9.165   2.261
26046SOL     OW78163   3.954   8.076   3.837
26046SOL    HW178164   3.861   8.074   3.874
26046SOL    HW278165   3.955   8.037   3.745
26047SOL     OW78166   3.949   7.723   4.720
26047SOL    HW178167   3.984   7.706   4.812
26047SOL    HW278168   3.861   7.678   4.708
26048SOL     OW78169   3.743   7.816   4.371
26048SOL    HW178170   3.661   7.859   4.410
26048SOL    HW278171   3.715   7.743   4.308
26049SOL     OW78172   4.293   8.723   4.889
26049SOL    HW178173   4.200   8.716   4.852
26049SOL    HW278174   4.304   8.812   4.933
26050SOL     OW78175   5.279   8.959   4.427
26050SOL    HW178176   5.222   8.943   4.508
26050SOL    HW278177   5.220   8.969   4.347
26051SOL     OW78178   4.859   8.151   4.441
26051SOL    HW178179   4.916   8.229   4.416
26051SOL    HW278180   4.799   8.177   4.517
26052SOL     OW78181   5.479   8.055   3.955
26052SOL    HW178182   5.467   8.042   3.856
26052SOL    HW278183   5.449   7.974   4.004
26053SOL     OW78184   4.492   8.592   4.747
26053SOL    HW178185   4.414   8.609   4.807
26053SOL    HW278186   4.526   8.679   4.711
26054SOL     OW78187   4.574   8.246   5.547
26054SOL    HW178188   4.570   8.322   5.612
26054SOL    HW278189   4.596   8.282   5.456
26055SOL     OW78190   4.409   8.460   4.389
26055SOL    HW178191   4.478   8.444   4.459
26055SOL    HW278192   4.336   8.517   4.427
26056SOL     OW78193   4.410   8.609   5.527
26056SOL    HW178194   4.470   8.688   5.541
26056SOL    HW278195   4.324   8.640   5.486
26057SOL     OW78196   4.059   8.883   4.785
26057SOL    HW178197   3.981   8.852   4.732
26057SOL    HW278198   4.117   8.941   4.728
26058SOL     OW78199   5.184   8.953   5.063
26058SOL    HW178200   5.208   9.047   5.089
26058SOL    HW278201   5.168   8.899   5.145
26059SOL     OW78202   4.162   7.840   5.223
26059SOL    HW178203   4.244   7.784   5.232
26059SOL    HW278204   4.081   7.782   5.227
26060SOL     OW78205   5.327   7.895   4.461
26060SOL    HW178206   5.253   7.941   4.411
26060SOL    HW278207   5.378   7.963   4.514
26061SOL     OW78208   3.955   9.161   4.207
26061SOL    HW178209   3.989   9.238   4.261
26061SOL    HW278210   3.999   9.161   4.117
26062SOL     OW78211   4.851   8.789   5.414
26062SOL    HW178212   4.898   8.789   5.502
26062SOL    HW278213   4.803   8.702   5.403
26063SOL     OW78214   3.954   8.882   4.262
26063SOL    HW178215   3.928   8.978   4.262
26063SOL    HW278216   3.883   8.828   4.307
26064SOL     OW78217   3.964   8.539   4.610
26064SOL    HW178218   3.978   8.455   4.662
26064SOL    HW278219   3.909   8.603   4.665
26065SOL     OW78220   4.344   9.234   5.163
26065SOL    HW178221   4.252   9.217   5.198
26065SOL    HW278222   4.372   9.326   5.189
26066SOL     OW78223   4.330   8.412   3.847
26066SOL    HW178224   4.337   8.496   3.793
26066SOL    HW278225   4.376   8.425   3.935
26067SOL     OW78226   5.318   7.562   5.204
26067SOL    HW178227   5.300   7.629   5.132
26067SOL    HW278228   5.315   7.608   5.293
26068SOL     OW78229   3.846   8.091   4.287
26068SOL    HW178230   3.801   8.003   4.304
26068SOL    HW278231   3.845   8.145   4.371
26069SOL     OW78232   5.566   9.215   4.083
26069SOL    HW178233   5.620   9.186   4.163
26069SOL    HW278234   5.596   9.305   4.054
26070SOL     OW78235   3.751   9.044   3.841
26070SOL    HW178236   3.732   8.948   3.862
26070SOL    HW278237   3.718   9.102   3.916
26071SOL     OW78238   5.413   8.370   4.336
26071SOL    HW178239   5.508   8.341   4.344
26071SOL    HW278240   5.405   8.435   4.261
26072SOL     OW78241   5.365   8.556   4.156
26072SOL    HW178242   5.451   8.558   4.104
26072SOL    HW278243   5.379   8.603   4.244
26073SOL     OW78244   3.837   8.185   5.321
26073SOL    HW178245   3.925   8.172   5.366
26073SOL    HW278246   3.824   8.282   5.299
26074SOL     OW78247   4.337   8.813   4.450
26074SOL    HW178248   4.288   8.726   4.459
26074SOL    HW278249   4.314   8.856   4.363
26075SOL     OW78250   5.017   8.676   5.147
26075SOL    HW178251   5.054   8.603   5.089
26075SOL    HW278252   5.069   8.681   5.232
26076SOL     OW78253   4.533   7.452   4.226
26076SOL    HW178254   4.573   7.543   4.217
26076SOL    HW278255   4.433   7.460   4.232
26077SOL     OW78256   3.921   8.424   4.988
26077SOL    HW178257   4.010   8.379   4.974
26077SOL    HW278258   3.848   8.359   4.969
26078SOL     OW78259   5.249   8.447   3.914
26078SOL    HW178260   5.186   8.371   3.927
26078SOL    HW278261   5.297   8.465   4.000
26079SOL     OW78262   4.911   9.240   5.340
26079SOL    HW178263   4.935   9.300   5.264
26079SOL    HW278264   4.918   9.145   5.310
26080SOL     OW78265   4.041   7.699   5.525
26080SOL    HW178266   4.112   7.770   5.531
26080SOL    HW278267   3.953   7.738   5.553
26081SOL     OW78268   5.190   8.865   4.677
26081SOL    HW178269   5.131   8.871   4.757
26081SOL    HW278270   5.175   8.777   4.631
26082SOL     OW78271   5.391   9.162   4.296
26082SOL    HW178272   5.350   9.139   4.208
26082SOL    HW278273   5.373   9.088   4.361
26083SOL     OW78274   4.322   8.177   3.994
26083SOL    HW178275   4.346   8.246   3.926
26083SOL    HW278276   4.244   8.210   4.048
26084SOL     OW78277   5.005   7.793   4.668
26084SOL    HW178278   4.919   7.743   4.655
26084SOL    HW278279   5.067   7.739   4.724
26085SOL     OW78280   5.300   9.110   4.031
26085SOL    HW178281   5.389   9.156   4.034
26085SOL    HW278282   5.279   9.086   3.936
26086SOL     OW78283   4.531   8.053   5.189
26086SOL    HW178284   4.484   8.050   5.278
26086SOL    HW278285   4.480   7.998   5.123
26087SOL     OW78286   5.118   7.917   5.398
26087SOL    HW178287   5.098   7.960   5.486
26087SOL    HW278288   5.196   7.855   5.407
26088SOL     OW78289   4.697   8.338   5.296
26088SOL    HW178290   4.743   8.254   5.267
26088SOL    HW278291   4.641   8.372   5.221
26089SOL     OW78292   4.715   7.858   4.966
26089SOL    HW178293   4.638   7.892   5.020
26089SOL    HW278294   4.681   7.807   4.887
26090SOL     OW78295   4.765   8.149   4.153
26090SOL    HW178296   4.791   8.145   4.249
26090SOL    HW278297   4.680   8.098   4.139
26091SOL     OW78298   3.800   8.259   4.513
26091SOL    HW178299   3.899   8.247   4.522
26091SOL    HW278300   3.776   8.354   4.534
26092SOL     OW78301   3.854   9.269   5.295
26092SOL    HW178302   3.844   9.254   5.394
26092SOL    HW278303   3.768   9.305   5.259
26093SOL     OW78304   4.589   7.796   3.919
26093SOL    HW178305   4.648   7.859   3.870
26093SOL    HW278306   4.608   7.702   3.890
26094SOL     OW78307   5.443   8.033   5.555
26094SOL    HW178308   5.417   8.122   5.519
26094SOL    HW278309   5.441   7.965   5.482
26095SOL     OW78310   5.086   8.592   4.269
26095SOL    HW178311   5.169   8.563   4.221
26095SOL    HW278312   5.037   8.659   4.213
26096SOL     OW78313   4.274   7.644   4.609
26096SOL    HW178314   4.269   7.639   4.709
26096SOL    HW278315   4.276   7.740   4.580
26097SOL     OW78316   4.732   8.904   4.201
26097SOL    HW178317   4.686   8.976   4.149
26097SOL    HW278318   4.728   8.924   4.299
26098SOL     OW78319   4.075   9.249   4.577
26098SOL    HW178320   4.125   9.163   4.583
26098SOL    HW278321   4.140   9.326   4.574
26099SOL     OW78322   5.519   8.514   4.597
26099SOL    HW178323   5.457   8.499   4.521
26099SOL    HW278324   5.467   8.525   4.682
26100SOL     OW78325   4.951   8.998   5.230
26100SOL    HW178326   4.957   8.921   5.294
26100SOL    HW278327   4.899   8.972   5.150
26101SOL     OW78328   4.045   8.391   3.966
26101SOL    HW178329   4.127   8.430   3.924
26101SOL    HW278330   4.018   8.309   3.917
26102SOL     OW78331   5.182   8.183   4.452
26102SOL    HW178332   5.177   8.118   4.527
26102SOL    HW278333   5.262   8.242   4.465
26103SOL     OW78334   4.185   8.714   5.451
26103SOL    HW178335   4.135   8.715   5.365
26103SOL    HW278336   4.122   8.696   5.527
26104SOL     OW78337   4.835   9.224   3.961
26104SOL    HW178338   4.775   9.162   4.011
26104SOL    HW278339   4.866   9.180   3.876
26105SOL     OW78340   3.926   7.733   5.222
26105SOL    HW178341   3.846   7.793   5.209
26105SOL    HW278342   3.916   7.684   5.308
26106SOL     OW78343   5.356   8.825   3.805
26106SOL    HW178344   5.324   8.919   3.795
26106SOL    HW278345   5.280   8.762   3.793
26107SOL     OW78346   4.188   9.191   4.047
26107SOL    HW178347   4.221   9.230   4.133
26107SOL    HW278348   4.264   9.184   3.982
26108SOL     OW78349   5.124   7.555   4.150
26108SOL    HW178350   5.100   7.518   4.060
26108SOL    HW278351   5.223   7.571   4.154
26109SOL     OW78352   3.973   9.233   4.965
26109SOL    HW178353   4.030   9.168   5.015
26109SOL    HW278354   3.957   9.200   4.872
26110SOL     OW78355   4.664   9.146   4.628
26110SOL    HW178356   4.744   9.089   4.649
26110SOL    HW278357   4.615   9.106   4.551
26111SOL     OW78358   4.106   8.148   4.204
26111SOL    HW178359   4.151   8.058   4.201
26111SOL    HW278360   4.012   8.137   4.237
26112SOL     OW78361   5.271   7.670   5.453
26112SOL    HW178362   5.266   7.707   5.545
26112SOL    HW278363   5.199   7.601   5.441
26113SOL     OW78364   4.338   7.570   3.841
26113SOL    HW178365   4.436   7.548   3.848
26113SOL    HW278366   4.307   7.553   3.748
26114SOL     OW78367   4.505   7.712   5.473
26114SOL    HW178368   4.572   7.651   5.516
26114SOL    HW278369   4.432   7.731   5.538
26115SOL     OW78370   4.612   8.962   4.919
26115SOL    HW178371   4.589   8.937   4.825
26115SOL    HW278372   4.673   8.893   4.958
26116SOL     OW78373   5.075   8.038   5.157
26116SOL    HW178374   5.103   7.995   5.242
26116SOL    HW278375   5.100   8.134   5.158
26117SOL     OW78376   4.527   8.850   4.648
26117SOL    HW178377   4.617   8.864   4.606
26117SOL    HW278378   4.456   8.852   4.577
26118SOL     OW78379   4.646   7.951   4.623
26118SOL    HW178380   4.621   7.942   4.527
26118SOL    HW278381   4.694   7.869   4.654
26119SOL     OW78382   4.263   7.512   4.236
26119SOL    HW178383   4.182   7.513   4.294
26119SOL    HW278384   4.266   7.595   4.181
26120SOL     OW78385   5.158   8.636   3.765
26120SOL    HW178386   5.190   8.560   3.822
26120SOL    HW278387   5.066   8.663   3.795
26121SOL     OW78388   4.021   7.483   3.895
26121SOL    HW178389   4.070   7.567   3.874
26121SOL    HW278390   4.083   7.418   3.940
26122SOL     OW78391   4.659   7.684   4.204
26122SOL    HW178392   4.611   7.725   4.126
26122SOL    HW278393   4.758   7.682   4.185
26123SOL     OW78394   4.800   8.131   5.188
26123SOL    HW178395   4.720   8.070   5.191
26123SOL    HW278396   4.881   8.078   5.164
26124SOL     OW78397   4.951   9.018   4.517
26124SOL    HW178398   4.972   9.092   4.452
26124SOL    HW278399   5.019   9.018   4.590
26125SOL     OW78400   4.183   8.600   4.465
26125SOL    HW178401   4.112   8.573   4.530
26125SOL    HW278402   4.157   8.572   4.372
26126SOL     OW78403   4.995   9.245   4.315
26126SOL    HW178404   5.039   9.309   4.251
26126SOL    HW278405   4.945   9.297   4.385
26127SOL     OW78406   4.756   7.997   3.740
26127SOL    HW178407   4.715   8.079   3.701
26127SOL    HW278408   4.820   8.023   3.813
26128SOL     OW78409   3.802   8.004   5.110
26128SOL    HW178410   3.894   8.003   5.069
26128SOL    HW278411   3.796   8.078   5.177
26129SOL     OW78412   4.285   7.670   4.871
26129SOL    HW178413   4.323   7.586   4.908
26129SOL    HW278414   4.197   7.689   4.915
26130SOL     OW78415   4.590   7.902   4.366
26130SOL    HW178416   4.558   7.974   4.304
26130SOL    HW278417   4.614   7.821   4.313
26131SOL     OW78418   4.741   7.487   4.477
26131SOL    HW178419   4.669   7.492   4.408
26131SOL    HW278420   4.717   7.418   4.546
26132SOL     OW78421   5.153   8.621   4.591
26132SOL    HW178422   5.098   8.537   4.584
26132SOL    HW278423   5.179   8.650   4.499
26133SOL     OW78424   5.190   8.038   4.716
26133SOL    HW178425   5.160   7.943   4.723
26133SOL    HW278426   5.263   8.054   4.782
26134SOL     OW78427   5.581   8.281   4.101
26134SOL    HW178428   5.623   8.217   4.165
26134SOL    HW278429   5.543   8.230   4.023
26135SOL     OW78430   4.212   8.833   3.898
26135SOL    HW178431   4.125   8.818   3.945
26135SOL    HW278432   4.195   8.859   3.803
26136SOL     OW78433   5.388   8.728   4.381
26136SOL    HW178434   5.487   8.736   4.395
26136SOL    HW278435   5.343   8.812   4.412
26137SOL     OW78436   5.114   8.023   3.802
26137SOL    HW178437   5.060   8.002   3.883
26137SOL    HW278438   5.205   7.982   3.811
26138SOL     OW78439   4.251   7.704   4.052
26138SOL    HW178440   4.278   7.645   3.977
26138SOL    HW278441   4.251   7.799   4.021
26139SOL     OW78442   5.478   8.671   5.312
26139SOL    HW178443   5.569   8.632   5.299
26139SOL    HW278444   5.486   8.767   5.336
26140SOL     OW78445   4.788   8.795   5.064
26140SOL    HW178446   4.708   8.772   5.119
26140SOL    HW278447   4.871   8.769   5.113
26141SOL     OW78448   5.316   9.077   5.349
26141SOL    HW178449   5.343   9.111   5.259
26141SOL    HW278450   5.395   9.039   5.395
26142SOL     OW78451   4.835   8.643   4.824
26142SOL    HW178452   4.795   8.687   4.905
26142SOL    HW278453   4.794   8.680   4.741
26143SOL     OW78454   5.362   8.547   4.803
26143SOL    HW178455   5.367   8.628   4.862
26143SOL    HW278456   5.276   8.549   4.752
26144SOL     OW78457   4.639   7.537   5.126
26144SOL    HW178458   4.664   7.517   5.031
26144SOL    HW278459   4.711   7.593   5.168
26145SOL     OW78460   4.704   8.564   5.443
26145SOL    HW178461   4.605   8.570   5.453
26145SOL    HW278462   4.727   8.484   5.387
26146SOL     OW78463   4.429   8.498   4.092
26146SOL    HW178464   4.415   8.505   4.191
26146SOL    HW278465   4.513   8.447   4.074
26147SOL     OW78466   4.134   8.261   4.975
26147SOL    HW178467   4.220   8.273   5.025
26147SOL    HW278468   4.092   8.174   5.002
26148SOL     OW78469   4.998   7.834   4.986
26148SOL    HW178470   5.019   7.908   5.050
26148SOL    HW278471   4.909   7.851   4.943
26149SOL     OW78472   3.788   9.012   5.055
26149SOL    HW178473   3.742   9.094   5.021
26149SOL    HW278474   3.886   9.031   5.064
26150SOL     OW78475   4.091   8.548   4.225
26150SOL    HW178476   4.084   8.631   4.169
26150SOL    HW278477   4.095   8.468   4.165
26151SOL     OW78478   4.290   7.985   4.589
26151SOL    HW178479   4.302   8.051   4.515
26151SOL    HW278480   4.336   8.019   4.672
26152SOL     OW78481   4.976   8.796   4.112
26152SOL    HW178482   5.026   8.873   4.152
26152SOL    HW278483   4.881   8.798   4.144
26153SOL     OW78484   4.996   8.893   4.866
26153SOL    HW178485   5.043   8.906   4.953
26153SOL    HW278486   4.930   8.819   4.875
26154SOL     OW78487   5.306   8.087   4.196
26154SOL    HW178488   5.275   8.148   4.269
26154SOL    HW278489   5.356   8.139   4.127
26155SOL     OW78490   4.078   8.958   5.053
26155SOL    HW178491   4.057   8.914   4.966
26155SOL    HW278492   4.175   8.984   5.056
26156SOL     OW78493   4.126   8.199   5.322
26156SOL    HW178494   4.194   8.254   5.275
26156SOL    HW278495   4.166   8.111   5.349
26157SOL     OW78496   5.311   8.227   5.394
26157SOL    HW178497   5.219   8.265   5.389
26157SOL    HW278498   5.371   8.274   5.329
26158SOL     OW78499   4.737   7.553   5.494
26158SOL    HW178500   4.743   7.638   5.442
26158SOL    HW278501   4.769   7.477   5.437
26159SOL     OW78502   4.228   7.498   5.464
26159SOL    HW178503   4.186   7.441   5.394
26159SOL    HW278504   4.162   7.567   5.496
26160SOL     OW78505   4.297   8.318   4.753
26160SOL    HW178506   4.341   8.407   4.744
26160SOL    HW278507   4.234   8.318   4.830
26161SOL     OW78508   5.084   8.310   4.769
26161SOL    HW178509   5.009   8.310   4.703
26161SOL    HW278510   5.121   8.218   4.778
26162SOL     OW78511   4.933   7.973   3.999
26162SOL    HW178512   4.946   7.889   4.053
26162SOL    HW278513   4.904   8.047   4.059
26163SOL     OW78514   4.031   7.661   4.955
26163SOL    HW178515   4.008   7.698   5.045
26163SOL    HW278516   4.001   7.566   4.949
26164SOL     OW78517   3.761   8.758   5.006
26164SOL    HW178518   3.814   8.709   5.074
26164SOL    HW278519   3.783   8.856   5.011
26165SOL     OW78520   4.456   8.082   4.788
26165SOL    HW178521   4.515   8.056   4.712
26165SOL    HW278522   4.428   8.178   4.777
26166SOL     OW78523   5.452   8.383   5.578
26166SOL    HW178524   5.406   8.376   5.489
26166SOL    HW278525   5.390   8.427   5.644
26167SOL     OW78526   4.031   7.511   4.342
26167SOL    HW178527   4.020   7.605   4.375
26167SOL    HW278528   4.026   7.448   4.419
26168SOL     OW78529   5.346   7.815   4.098
26168SOL    HW178530   5.348   7.739   4.162
26168SOL    HW278531   5.298   7.892   4.138
26169SOL     OW78532   4.747   8.214   4.690
26169SOL    HW178533   4.762   8.235   4.786
26169SOL    HW278534   4.717   8.119   4.681
26170SOL     OW78535   4.704   9.021   5.424
26170SOL    HW178536   4.684   9.065   5.336
26170SOL    HW278537   4.743   8.930   5.408
26171SOL     OW78538   5.583   8.966   5.329
26171SOL    HW178539   5.597   8.993   5.234
26171SOL    HW278540   5.666   8.988   5.382
26172SOL     OW78541   4.074   8.346   5.528
26172SOL    HW178542   4.150   8.390   5.576
26172SOL    HW278543   4.109   8.299   5.446
26173SOL     OW78544   5.264   7.722   3.849
26173SOL    HW178545   5.203   7.647   3.872
26173SOL    HW278546   5.286   7.774   3.932
26174SOL     OW78547   5.027   8.286   3.766
26174SOL    HW178548   5.061   8.193   3.781
26174SOL    HW278549   5.045   8.313   3.671
26175SOL     OW78550   4.792   8.781   4.573
26175SOL    HW178551   4.799   8.697   4.518
26175SOL    HW278552   4.854   8.850   4.537
26176SOL     OW78553   4.043   8.258   4.673
26176SOL    HW178554   4.136   8.294   4.678
26176SOL    HW278555   4.037   8.173   4.725
26177SOL     OW78556   4.063   7.957   4.730
26177SOL    HW178557   4.011   7.874   4.713
26177SOL    HW278558   4.140   7.962   4.666
26178SOL     OW78559   4.862   7.828   5.402
26178SOL    HW178560   4.817   7.891   5.466
26178SOL    HW278561   4.955   7.859   5.385
26179SOL     OW78562   4.884   7.655   5.201
26179SOL    HW178563   4.884   7.719   5.278
26179SOL    HW278564   4.912   7.703   5.118
26180SOL     OW78565   3.732   8.774   3.924
26180SOL    HW178566   3.639   8.795   3.893
26180SOL    HW278567   3.742   8.675   3.937
26181SOL     OW78568   3.812   9.249   4.651
26181SOL    HW178569   3.770   9.163   4.624
26181SOL    HW278570   3.906   9.252   4.617
26182SOL     OW78571   4.228   9.016   4.634
26182SOL    HW178572   4.294   9.090   4.643
26182SOL    HW278573   4.272   8.937   4.592
26183SOL     OW78574   4.726   8.244   4.962
26183SOL    HW178575   4.767   8.212   5.048
26183SOL    HW278576   4.630   8.217   4.959
26184SOL     OW78577   3.764   7.992   4.838
26184SOL    HW178578   3.849   7.959   4.797
26184SOL    HW278579   3.777   8.007   4.936
26185SOL     OW78580   3.913   7.968   5.446
26185SOL    HW178581   3.972   7.928   5.376
26185SOL    HW278582   3.855   8.039   5.405
26186SOL     OW78583   5.093   8.398   5.384
26186SOL    HW178584   5.132   8.487   5.404
26186SOL    HW278585   5.103   8.378   5.287
26187SOL     OW78586   4.539   8.020   4.049
26187SOL    HW178587   4.546   7.931   4.003
26187SOL    HW278588   4.445   8.054   4.041
26188SOL     OW78589   5.381   8.052   4.930
26188SOL    HW178590   5.343   7.983   4.992
26188SOL    HW278591   5.463   8.016   4.886
26189SOL     OW78592   3.976   9.012   5.468
26189SOL    HW178593   3.946   9.069   5.544
26189SOL    HW278594   3.969   8.915   5.494
26190SOL     OW78595   4.395   7.912   4.993
26190SOL    HW178596   4.361   7.823   4.963
26190SOL    HW278597   4.421   7.966   4.913
26191SOL     OW78598   4.654   9.126   5.189
26191SOL    HW178599   4.630   9.108   5.094
26191SOL    HW278600   4.684   9.220   5.199
26192SOL     OW78601   4.197   7.948   3.915
26192SOL    HW178602   4.258   8.028   3.919
26192SOL    HW278603   4.102   7.979   3.922
26193SOL     OW78604   3.883   8.585   5.190
26193SOL    HW178605   3.905   8.524   5.266
26193SOL    HW278606   3.893   8.536   5.104
26194SOL     OW78607   5.071   8.507   4.958
26194SOL    HW178608   5.095   8.444   4.884
26194SOL    HW278609   4.981   8.547   4.940
26195SOL     OW78610   5.026   8.303   4.033
26195SOL    HW178611   4.940   8.272   4.075
26195SOL    HW278612   5.022   8.289   3.934
26196SOL     OW78613   5.483   9.195   4.878
26196SOL    HW178614   5.544   9.225   4.805
26196SOL    HW278615   5.445   9.106   4.856
26197SOL     OW78616   4.976   9.179   4.852
26197SOL    HW178617   5.060   9.184   4.798
26197SOL    HW278618   4.953   9.083   4.870
26198SOL     OW78619   3.807   8.706   4.746
26198SOL    HW178620   3.802   8.705   4.846
26198SOL    HW278621   3.724   8.665   4.708
26199SOL     OW78622   4.412   9.110   5.440
26199SOL    HW178623   4.356   9.191   5.449
26199SOL    HW278624   4.464   9.114   5.354
26200SOL     OW78625   5.450   7.583   4.247
26200SOL    HW178626   5.523   7.566   4.180
26200SOL    HW278627   5.419   7.496   4.285
26201SOL     OW78628   5.112   9.021   4.201
26201SOL    HW178629   5.179   9.033   4.127
26201SOL    HW278630   5.072   9.110   4.224
26202SOL     OW78631   3.854   9.242   5.575
26202SOL    HW178632   3.813   9.168   5.628
26202SOL    HW278633   3.918   9.293   5.633
26203SOL     OW78634   5.004   8.375   4.396
26203SOL    HW178635   5.064   8.294   4.398
26203SOL    HW278636   5.044   8.444   4.336
26204SOL     OW78637   4.554   8.721   5.146
26204SOL    HW178638   4.549   8.754   5.241
26204SOL    HW278639   4.468   8.740   5.100
26205SOL     OW78640   4.396   9.064   3.878
26205SOL    HW178641   4.405   9.074   3.779
26205SOL    HW278642   4.356   8.975   3.899
26206SOL     OW78643   5.374   9.168   5.118
26206SOL    HW178644   5.427   9.178   5.034
26206SOL    HW278645   5.347   9.258   5.152
26207SOL     OW78646   5.565   7.623   4.687
26207SOL    HW178647   5.604   7.538   4.651
26207SOL    HW278648   5.467   7.625   4.668
26208SOL     OW78649   3.987   7.774   4.444
26208SOL    HW178650   3.908   7.825   4.410
26208SOL    HW278651   3.978   7.759   4.542
26209SOL     OW78652   4.918   9.060   3.755
26209SOL    HW178653   4.924   8.967   3.792
26209SOL    HW278654   4.859   9.060   3.675
26210SOL     OW78655   4.546   8.450   5.096
26210SOL    HW178656   4.586   8.449   5.004
26210SOL    HW278657   4.556   8.542   5.136
26211SOL     OW78658   4.640   8.358   4.015
26211SOL    HW178659   4.703   8.396   3.947
26211SOL    HW278660   4.680   8.275   4.054
26212SOL     OW78661   5.228   9.055   3.768
26212SOL    HW178662   5.136   9.092   3.775
26212SOL    HW278663   5.266   9.075   3.678
26213SOL     OW78664   4.096   8.736   5.214
26213SOL    HW178665   4.083   8.829   5.180
26213SOL    HW278666   4.012   8.684   5.201
26214SOL     OW78667   5.338   8.740   5.013
26214SOL    HW178668   5.398   8.743   5.093
26214SOL    HW278669   5.263   8.804   5.026
26215SOL     OW78670   4.763   8.546   4.420
26215SOL    HW178671   4.693   8.499   4.474
26215SOL    HW278672   4.822   8.478   4.377
26216SOL     OW78673   4.738   7.684   4.695
26216SOL    HW178674   4.730   7.648   4.602
26216SOL    HW278675   4.736   7.608   4.760
26217SOL     OW78676   4.314   8.935   4.215
26217SOL    HW178677   4.356   8.877   4.145
26217SOL    HW278678   4.270   9.014   4.171
26218SOL     OW78679   5.433   7.833   5.105
26218SOL    HW178680   5.506   7.902   5.109
26218SOL    HW278681   5.461   7.758   5.046
26219SOL     OW78682   3.979   8.796   4.014
26219SOL    HW178683   3.883   8.797   3.987
26219SOL    HW278684   3.991   8.849   4.098
26220SOL     OW78685   3.829   8.461   5.450
26220SOL    HW178686   3.752   8.428   5.504
26220SOL    HW278687   3.914   8.431   5.492
26221SOL     OW78688   4.396   7.651   5.213
26221SOL    HW178689   4.486   7.635   5.173
26221SOL    HW278690   4.404   7.656   5.312
26222SOL     OW78691   3.799   7.793   3.757
26222SOL    HW178692   3.707   7.765   3.728
26222SOL    HW278693   3.830   7.870   3.701
26223SOL     OW78694   5.164   8.304   5.122
26223SOL    HW178695   5.107   8.356   5.059
26223SOL    HW278696   5.260   8.316   5.098
26224SOL     OW78697   3.796   7.614   4.042
26224SOL    HW178698   3.779   7.697   3.988
26224SOL    HW278699   3.886   7.577   4.020
26225SOL     OW78700   4.907   8.783   3.843
26225SOL    HW178701   4.808   8.772   3.845
26225SOL    HW278702   4.941   8.798   3.936
26226SOL     OW78703   4.337   8.290   5.155
26226SOL    HW178704   4.393   8.371   5.138
26226SOL    HW278705   4.396   8.210   5.158
26227SOL     OW78706   5.217   9.215   4.683
26227SOL    HW178707   5.250   9.279   4.614
26227SOL    HW278708   5.283   9.209   4.758
26228SOL     OW78709   4.440   8.013   5.432
26228SOL    HW178710   4.459   8.078   5.506
26228SOL    HW278711   4.500   7.933   5.441
26229SOL     OW78712   5.174   8.668   5.357
26229SOL    HW178713   5.165   8.658   5.456
26229SOL    HW278714   5.270   8.661   5.331
26230SOL     OW78715   4.114   9.189   5.284
26230SOL    HW178716   4.023   9.230   5.282
26230SOL    HW278717   4.107   9.095   5.316
26231SOL     OW78718   5.398   8.331   4.978
26231SOL    HW178719   5.371   8.242   4.941
26231SOL    HW278720   5.399   8.399   4.905
26232SOL     OW78721   4.949   7.773   4.173
26232SOL    HW178722   5.014   7.699   4.162
26232SOL    HW278723   4.969   7.823   4.257
26233SOL     OW78724   4.318   8.193   4.376
26233SOL    HW178725   4.368   8.278   4.357
26233SOL    HW278726   4.230   8.195   4.328
26234SOL     OW78727   5.501   7.790   5.366
26234SOL    HW178728   5.484   7.821   5.272
26234SOL    HW278729   5.417   7.753   5.404
26235SOL     OW78730   5.454   8.382   5.241
26235SOL    HW178731   5.492   8.473   5.256
26235SOL    HW278732   5.446   8.365   5.142
26236SOL     OW78733   4.583   8.822   3.740
26236SOL    HW178734   4.537   8.837   3.828
26236SOL    HW278735   4.627   8.907   3.710
26237SOL     OW78736   4.385   9.238   4.677
26237SOL    HW178737   4.339   9.326   4.664
26237SOL    HW278738   4.484   9.250   4.670
26238SOL     OW78739   4.583   8.404   4.585
26238SOL    HW178740   4.637   8.335   4.633
26238SOL    HW278741   4.551   8.473   4.651
26239SOL     OW78742   4.807   8.432   3.811
26239SOL    HW178743   4.784   8.485   3.729
26239SOL    HW278744   4.888   8.376   3.792
26240SOL     OW78745   5.585   9.017   4.575
26240SOL    HW178746   5.514   9.005   4.505
26240SOL    HW278747   5.586   8.938   4.635
26241SOL     OW78748   3.945   8.762   5.568
26241SOL    HW178749   3.880   8.689   5.547
26241SOL    HW278750   3.949   8.776   5.666
26242SOL     OW78751   3.803   8.688   4.377
26242SOL    HW178752   3.802   8.641   4.465
26242SOL    HW278753   3.885   8.660   4.326
26243SOL     OW78754   4.396   8.839   5.348
26243SOL    HW178755   4.318   8.789   5.386
26243SOL    HW278756   4.393   8.934   5.379
26244SOL     OW78757   5.548   7.640   4.951
26244SOL    HW178758   5.544   7.550   4.995
26244SOL    HW278759   5.551   7.629   4.852
26245SOL     OW78760   4.152   7.872   4.244
26245SOL    HW178761   4.182   7.800   4.182
26245SOL    HW278762   4.113   7.832   4.327
26246SOL     OW78763   5.429   8.935   4.828
26246SOL    HW178764   5.336   8.910   4.801
26246SOL    HW278765   5.455   8.885   4.910
26247SOL     OW78766   4.041   7.995   5.004
26247SOL    HW178767   4.079   7.936   5.076
26247SOL    HW278768   4.081   7.969   4.916
26248SOL     OW78769   4.536   9.034   4.411
26248SOL    HW178770   4.568   9.044   4.317
26248SOL    HW278771   4.457   8.972   4.413
26249SOL     OW78772   5.148   7.662   4.836
26249SOL    HW178773   5.200   7.597   4.891
26249SOL    HW278774   5.099   7.725   4.897
26250SOL     OW78775   4.725   7.482   4.878
26250SOL    HW178776   4.662   7.410   4.847
26250SOL    HW278777   4.818   7.446   4.878
26251SOL     OW78778   4.494   8.778   4.025
26251SOL    HW178779   4.448   8.691   4.042
26251SOL    HW278780   4.585   8.775   4.066
26252SOL     OW78781   4.342   9.015   5.008
26252SOL    HW178782   4.337   9.097   5.065
26252SOL    HW278783   4.431   9.012   4.963
26253SOL     OW78784   5.076   7.500   3.892
26253SOL    HW178785   5.111   7.459   3.808
26253SOL    HW278786   4.986   7.462   3.912
26254SOL     OW78787   5.024   7.901   4.415
26254SOL    HW178788   4.965   7.981   4.419
26254SOL    HW278789   5.039   7.866   4.508
26255SOL     OW78790   5.317   7.669   4.606
26255SOL    HW178791   5.233   7.668   4.660
26255SOL    HW278792   5.319   7.752   4.550
26256SOL     OW78793   3.763   8.525   4.024
26256SOL    HW178794   3.862   8.514   4.015
26256SOL    HW278795   3.723   8.439   4.056
26257SOL     OW78796   4.599   9.094   4.061
26257SOL    HW178797   4.522   9.059   4.007
26257SOL    HW278798   4.567   9.165   4.123
26258SOL     OW78799   3.954   8.076   5.699
26258SOL    HW178800   3.861   8.074   5.736
26258SOL    HW278801   3.955   8.037   5.607
26259SOL     OW78802   3.949   7.723   6.582
26259SOL    HW178803   3.984   7.706   6.674
26259SOL    HW278804   3.861   7.678   6.570
26260SOL     OW78805   3.743   7.816   6.233
26260SOL    HW178806   3.661   7.859   6.272
26260SOL    HW278807   3.715   7.743   6.170
26261SOL     OW78808   4.293   8.723   6.751
26261SOL    HW178809   4.200   8.716   6.714
26261SOL    HW278810   4.304   8.812   6.795
26262SOL     OW78811   5.279   8.959   6.289
26262SOL    HW178812   5.222   8.943   6.370
26262SOL    HW278813   5.220   8.969   6.209
26263SOL     OW78814   4.859   8.151   6.303
26263SOL    HW178815   4.916   8.229   6.278
26263SOL    HW278816   4.799   8.177   6.379
26264SOL     OW78817   5.479   8.055   5.817
26264SOL    HW178818   5.467   8.042   5.718
26264SOL    HW278819   5.449   7.974   5.866
26265SOL     OW78820   4.492   8.592   6.609
26265SOL    HW178821   4.414   8.609   6.669
26265SOL    HW278822   4.526   8.679   6.573
26266SOL     OW78823   4.574   8.246   7.409
26266SOL    HW178824   4.570   8.322   7.474
26266SOL    HW278825   4.596   8.282   7.318
26267SOL     OW78826   4.409   8.460   6.251
26267SOL    HW178827   4.478   8.444   6.321
26267SOL    HW278828   4.336   8.517   6.289
26268SOL     OW78829   4.410   8.609   7.389
26268SOL    HW178830   4.470   8.688   7.403
26268SOL    HW278831   4.324   8.640   7.348
26269SOL     OW78832   4.059   8.883   6.647
26269SOL    HW178833   3.981   8.852   6.594
26269SOL    HW278834   4.117   8.941   6.590
26270SOL     OW78835   5.184   8.953   6.925
26270SOL    HW178836   5.208   9.047   6.951
26270SOL    HW278837   5.168   8.899   7.007
26271SOL     OW78838   4.162   7.840   7.085
26271SOL    HW178839   4.244   7.784   7.094
26271SOL    HW278840   4.081   7.782   7.089
26272SOL     OW78841   5.327   7.895   6.323
26272SOL    HW178842   5.253   7.941   6.273
26272SOL    HW278843   5.378   7.963   6.376
26273SOL     OW78844   3.955   9.161   6.069
26273SOL    HW178845   3.989   9.238   6.123
26273SOL    HW278846   3.999   9.161   5.979
26274SOL     OW78847   4.851   8.789   7.276
26274SOL    HW178848   4.898   8.789   7.364
26274SOL    HW278849   4.803   8.702   7.265
26275SOL     OW78850   3.954   8.882   6.124
26275SOL    HW178851   3.928   8.978   6.124
26275SOL    HW278852   3.883   8.828   6.169
26276SOL     OW78853   3.964   8.539   6.472
26276SOL    HW178854   3.978   8.455   6.524
26276SOL    HW278855   3.909   8.603   6.527
26277SOL     OW78856   4.344   9.234   7.025
26277SOL    HW178857   4.252   9.217   7.060
26277SOL    HW278858   4.372   9.326   7.051
26278SOL     OW78859   4.330   8.412   5.709
26278SOL    HW178860   4.337   8.496   5.655
26278SOL    HW278861   4.376   8.425   5.797
26279SOL     OW78862   5.318   7.562   7.066
26279SOL    HW178863   5.300   7.629   6.994
26279SOL    HW278864   5.315   7.608   7.155
26280SOL     OW78865   3.846   8.091   6.149
26280SOL    HW178866   3.801   8.003   6.166
26280SOL    HW278867   3.845   8.145   6.233
26281SOL     OW78868   5.566   9.215   5.945
26281SOL    HW178869   5.620   9.186   6.025
26281SOL    HW278870   5.596   9.305   5.916
26282SOL     OW78871   3.751   9.044   5.703
26282SOL    HW178872   3.732   8.948   5.724
26282SOL    HW278873   3.718   9.102   5.778
26283SOL     OW78874   5.413   8.370   6.198
26283SOL    HW178875   5.508   8.341   6.206
26283SOL    HW278876   5.405   8.435   6.123
26284SOL     OW78877   5.365   8.556   6.018
26284SOL    HW178878   5.451   8.558   5.966
26284SOL    HW278879   5.379   8.603   6.106
26285SOL     OW78880   3.837   8.185   7.183
26285SOL    HW178881   3.925   8.172   7.228
26285SOL    HW278882   3.824   8.282   7.161
26286SOL     OW78883   4.337   8.813   6.312
26286SOL    HW178884   4.288   8.726   6.321
26286SOL    HW278885   4.314   8.856   6.225
26287SOL     OW78886   5.017   8.676   7.009
26287SOL    HW178887   5.054   8.603   6.951
26287SOL    HW278888   5.069   8.681   7.094
26288SOL     OW78889   4.533   7.452   6.088
26288SOL    HW178890   4.573   7.543   6.079
26288SOL    HW278891   4.433   7.460   6.094
26289SOL     OW78892   3.921   8.424   6.850
26289SOL    HW178893   4.010   8.379   6.836
26289SOL    HW278894   3.848   8.359   6.831
26290SOL     OW78895   5.249   8.447   5.776
26290SOL    HW178896   5.186   8.371   5.789
26290SOL    HW278897   5.297   8.465   5.862
26291SOL     OW78898   4.911   9.240   7.202
26291SOL    HW178899   4.935   9.300   7.126
26291SOL    HW278900   4.918   9.145   7.172
26292SOL     OW78901   4.041   7.699   7.387
26292SOL    HW178902   4.112   7.770   7.393
26292SOL    HW278903   3.953   7.738   7.415
26293SOL     OW78904   5.190   8.865   6.539
26293SOL    HW178905   5.131   8.871   6.619
26293SOL    HW278906   5.175   8.777   6.493
26294SOL     OW78907   5.391   9.162   6.158
26294SOL    HW178908   5.350   9.139   6.070
26294SOL    HW278909   5.373   9.088   6.223
26295SOL     OW78910   4.322   8.177   5.856
26295SOL    HW178911   4.346   8.246   5.788
26295SOL    HW278912   4.244   8.210   5.910
26296SOL     OW78913   5.005   7.793   6.530
26296SOL    HW178914   4.919   7.743   6.517
26296SOL    HW278915   5.067   7.739   6.586
26297SOL     OW78916   5.300   9.110   5.893
26297SOL    HW178917   5.389   9.156   5.896
26297SOL    HW278918   5.279   9.086   5.798
26298SOL     OW78919   4.531   8.053   7.051
26298SOL    HW178920   4.484   8.050   7.140
26298SOL    HW278921   4.480   7.998   6.985
26299SOL     OW78922   5.118   7.917   7.260
26299SOL    HW178923   5.098   7.960   7.348
26299SOL    HW278924   5.196   7.855   7.269
26300SOL     OW78925   4.697   8.338   7.158
26300SOL    HW178926   4.743   8.254   7.129
26300SOL    HW278927   4.641   8.372   7.083
26301SOL     OW78928   4.715   7.858   6.828
26301SOL    HW178929   4.638   7.892   6.882
26301SOL    HW278930   4.681   7.807   6.749
26302SOL     OW78931   4.765   8.149   6.015
26302SOL    HW178932   4.791   8.145   6.111
26302SOL    HW278933   4.680   8.098   6.001
26303SOL     OW78934   3.800   8.259   6.375
26303SOL    HW178935   3.899   8.247   6.384
26303SOL    HW278936   3.776   8.354   6.396
26304SOL     OW78937   3.854   9.269   7.157
26304SOL    HW178938   3.844   9.254   7.256
26304SOL    HW278939   3.768   9.305   7.121
26305SOL     OW78940   4.589   7.796   5.781
26305SOL    HW178941   4.648   7.859   5.732
26305SOL    HW278942   4.608   7.702   5.752
26306SOL     OW78943   5.443   8.033   7.417
26306SOL    HW178944   5.417   8.122   7.381
26306SOL    HW278945   5.441   7.965   7.344
26307SOL     OW78946   5.086   8.592   6.131
26307SOL    HW178947   5.169   8.563   6.083
26307SOL    HW278948   5.037   8.659   6.075
26308SOL     OW78949   4.274   7.644   6.471
26308SOL    HW178950   4.269   7.639   6.571
26308SOL    HW278951   4.276   7.740   6.442
26309SOL     OW78952   4.732   8.904   6.063
26309SOL    HW178953   4.686   8.976   6.011
26309SOL    HW278954   4.728   8.924   6.161
26310SOL     OW78955   4.075   9.249   6.439
26310SOL    HW178956   4.125   9.163   6.445
26310SOL    HW278957   4.140   9.326   6.436
26311SOL     OW78958   5.519   8.514   6.459
26311SOL    HW178959   5.457   8.499   6.383
26311SOL    HW278960   5.467   8.525   6.544
26312SOL     OW78961   4.951   8.998   7.092
26312SOL    HW178962   4.957   8.921   7.156
26312SOL    HW278963   4.899   8.972   7.012
26313SOL     OW78964   4.045   8.391   5.828
26313SOL    HW178965   4.127   8.430   5.786
26313SOL    HW278966   4.018   8.309   5.779
26314SOL     OW78967   5.182   8.183   6.314
26314SOL    HW178968   5.177   8.118   6.389
26314SOL    HW278969   5.262   8.242   6.327
26315SOL     OW78970   4.185   8.714   7.313
26315SOL    HW178971   4.135   8.715   7.227
26315SOL    HW278972   4.122   8.696   7.389
26316SOL     OW78973   4.835   9.224   5.823
26316SOL    HW178974   4.775   9.162   5.873
26316SOL    HW278975   4.866   9.180   5.738
26317SOL     OW78976   3.926   7.733   7.084
26317SOL    HW178977   3.846   7.793   7.071
26317SOL    HW278978   3.916   7.684   7.170
26318SOL     OW78979   5.356   8.825   5.667
26318SOL    HW178980   5.324   8.919   5.657
26318SOL    HW278981   5.280   8.762   5.655
26319SOL     OW78982   4.188   9.191   5.909
26319SOL    HW178983   4.221   9.230   5.995
26319SOL    HW278984   4.264   9.184   5.844
26320SOL     OW78985   5.124   7.555   6.012
26320SOL    HW178986   5.100   7.518   5.922
26320SOL    HW278987   5.223   7.571   6.016
26321SOL     OW78988   3.973   9.233   6.827
26321SOL    HW178989   4.030   9.168   6.877
26321SOL    HW278990   3.957   9.200   6.734
26322SOL     OW78991   4.664   9.146   6.490
26322SOL    HW178992   4.744   9.089   6.511
26322SOL    HW278993   4.615   9.106   6.413
26323SOL     OW78994   4.106   8.148   6.066
26323SOL    HW178995   4.151   8.058   6.063
26323SOL    HW278996   4.012   8.137   6.099
26324SOL     OW78997   5.271   7.670   7.315
26324SOL    HW178998   5.266   7.707   7.407
26324SOL    HW278999   5.199   7.601   7.303
26325SOL     OW79000   4.338   7.570   5.703
26325SOL    HW179001   4.436   7.548   5.710
26325SOL    HW279002   4.307   7.553   5.610
26326SOL     OW79003   4.505   7.712   7.335
26326SOL    HW179004   4.572   7.651   7.378
26326SOL    HW279005   4.432   7.731   7.400
26327SOL     OW79006   4.612   8.962   6.781
26327SOL    HW179007   4.589   8.937   6.687
26327SOL    HW279008   4.673   8.893   6.820
26328SOL     OW79009   5.075   8.038   7.019
26328SOL    HW179010   5.103   7.995   7.104
26328SOL    HW279011   5.100   8.134   7.020
26329SOL     OW79012   4.527   8.850   6.510
26329SOL    HW179013   4.617   8.864   6.468
26329SOL    HW279014   4.456   8.852   6.439
26330SOL     OW79015   4.646   7.951   6.485
26330SOL    HW179016   4.621   7.942   6.389
26330SOL    HW279017   4.694   7.869   6.516
26331SOL     OW79018   4.263   7.512   6.098
26331SOL    HW179019   4.182   7.513   6.156
26331SOL    HW279020   4.266   7.595   6.043
26332SOL     OW79021   5.158   8.636   5.627
26332SOL    HW179022   5.190   8.560   5.684
26332SOL    HW279023   5.066   8.663   5.657
26333SOL     OW79024   4.021   7.483   5.757
26333SOL    HW179025   4.070   7.567   5.736
26333SOL    HW279026   4.083   7.418   5.802
26334SOL     OW79027   4.659   7.684   6.066
26334SOL    HW179028   4.611   7.725   5.988
26334SOL    HW279029   4.758   7.682   6.047
26335SOL     OW79030   4.800   8.131   7.050
26335SOL    HW179031   4.720   8.070   7.053
26335SOL    HW279032   4.881   8.078   7.026
26336SOL     OW79033   4.951   9.018   6.379
26336SOL    HW179034   4.972   9.092   6.314
26336SOL    HW279035   5.019   9.018   6.452
26337SOL     OW79036   4.183   8.600   6.327
26337SOL    HW179037   4.112   8.573   6.392
26337SOL    HW279038   4.157   8.572   6.234
26338SOL     OW79039   4.995   9.245   6.177
26338SOL    HW179040   5.039   9.309   6.113
26338SOL    HW279041   4.945   9.297   6.247
26339SOL     OW79042   4.756   7.997   5.602
26339SOL    HW179043   4.715   8.079   5.563
26339SOL    HW279044   4.820   8.023   5.675
26340SOL     OW79045   3.802   8.004   6.972
26340SOL    HW179046   3.894   8.003   6.931
26340SOL    HW279047   3.796   8.078   7.039
26341SOL     OW79048   4.285   7.670   6.733
26341SOL    HW179049   4.323   7.586   6.770
26341SOL    HW279050   4.197   7.689   6.777
26342SOL     OW79051   4.590   7.902   6.228
26342SOL    HW179052   4.558   7.974   6.166
26342SOL    HW279053   4.614   7.821   6.175
26343SOL     OW79054   4.741   7.487   6.339
26343SOL    HW179055   4.669   7.492   6.270
26343SOL    HW279056   4.717   7.418   6.408
26344SOL     OW79057   5.153   8.621   6.453
26344SOL    HW179058   5.098   8.537   6.446
26344SOL    HW279059   5.179   8.650   6.361
26345SOL     OW79060   5.190   8.038   6.578
26345SOL    HW179061   5.160   7.943   6.585
26345SOL    HW279062   5.263   8.054   6.644
26346SOL     OW79063   5.581   8.281   5.963
26346SOL    HW179064   5.623   8.217   6.027
26346SOL    HW279065   5.543   8.230   5.885
26347SOL     OW79066   4.212   8.833   5.760
26347SOL    HW179067   4.125   8.818   5.807
26347SOL    HW279068   4.195   8.859   5.665
26348SOL     OW79069   5.388   8.728   6.243
26348SOL    HW179070   5.487   8.736   6.257
26348SOL    HW279071   5.343   8.812   6.274
26349SOL     OW79072   5.114   8.023   5.664
26349SOL    HW179073   5.060   8.002   5.745
26349SOL    HW279074   5.205   7.982   5.673
26350SOL     OW79075   4.251   7.704   5.914
26350SOL    HW179076   4.278   7.645   5.839
26350SOL    HW279077   4.251   7.799   5.883
26351SOL     OW79078   5.478   8.671   7.174
26351SOL    HW179079   5.569   8.632   7.161
26351SOL    HW279080   5.486   8.767   7.198
26352SOL     OW79081   4.788   8.795   6.926
26352SOL    HW179082   4.708   8.772   6.981
26352SOL    HW279083   4.871   8.769   6.975
26353SOL     OW79084   5.316   9.077   7.211
26353SOL    HW179085   5.343   9.111   7.121
26353SOL    HW279086   5.395   9.039   7.257
26354SOL     OW79087   4.835   8.643   6.686
26354SOL    HW179088   4.795   8.687   6.767
26354SOL    HW279089   4.794   8.680   6.603
26355SOL     OW79090   5.362   8.547   6.665
26355SOL    HW179091   5.367   8.628   6.724
26355SOL    HW279092   5.276   8.549   6.614
26356SOL     OW79093   4.639   7.537   6.988
26356SOL    HW179094   4.664   7.517   6.893
26356SOL    HW279095   4.711   7.593   7.030
26357SOL     OW79096   4.704   8.564   7.305
26357SOL    HW179097   4.605   8.570   7.315
26357SOL    HW279098   4.727   8.484   7.249
26358SOL     OW79099   4.429   8.498   5.954
26358SOL    HW179100   4.415   8.505   6.053
26358SOL    HW279101   4.513   8.447   5.936
26359SOL     OW79102   4.134   8.261   6.837
26359SOL    HW179103   4.220   8.273   6.887
26359SOL    HW279104   4.092   8.174   6.864
26360SOL     OW79105   4.998   7.834   6.848
26360SOL    HW179106   5.019   7.908   6.912
26360SOL    HW279107   4.909   7.851   6.805
26361SOL     OW79108   3.788   9.012   6.917
26361SOL    HW179109   3.742   9.094   6.883
26361SOL    HW279110   3.886   9.031   6.926
26362SOL     OW79111   4.091   8.548   6.087
26362SOL    HW179112   4.084   8.631   6.031
26362SOL    HW279113   4.095   8.468   6.027
26363SOL     OW79114   4.290   7.985   6.451
26363SOL    HW179115   4.302   8.051   6.377
26363SOL    HW279116   4.336   8.019   6.534
26364SOL     OW79117   4.976   8.796   5.974
26364SOL    HW179118   5.026   8.873   6.014
26364SOL    HW279119   4.881   8.798   6.006
26365SOL     OW79120   4.996   8.893   6.728
26365SOL    HW179121   5.043   8.906   6.815
26365SOL    HW279122   4.930   8.819   6.737
26366SOL     OW79123   5.306   8.087   6.058
26366SOL    HW179124   5.275   8.148   6.131
26366SOL    HW279125   5.356   8.139   5.989
26367SOL     OW79126   4.078   8.958   6.915
26367SOL    HW179127   4.057   8.914   6.828
26367SOL    HW279128   4.175   8.984   6.918
26368SOL     OW79129   4.126   8.199   7.184
26368SOL    HW179130   4.194   8.254   7.137
26368SOL    HW279131   4.166   8.111   7.211
26369SOL     OW79132   5.311   8.227   7.256
26369SOL    HW179133   5.219   8.265   7.251
26369SOL    HW279134   5.371   8.274   7.191
26370SOL     OW79135   4.737   7.553   7.356
26370SOL    HW179136   4.743   7.638   7.304
26370SOL    HW279137   4.769   7.477   7.299
26371SOL     OW79138   4.228   7.498   7.326
26371SOL    HW179139   4.186   7.441   7.256
26371SOL    HW279140   4.162   7.567   7.358
26372SOL     OW79141   4.297   8.318   6.615
26372SOL    HW179142   4.341   8.407   6.606
26372SOL    HW279143   4.234   8.318   6.692
26373SOL     OW79144   5.084   8.310   6.631
26373SOL    HW179145   5.009   8.310   6.565
26373SOL    HW279146   5.121   8.218   6.640
26374SOL     OW79147   4.933   7.973   5.861
26374SOL    HW179148   4.946   7.889   5.915
26374SOL    HW279149   4.904   8.047   5.921
26375SOL     OW79150   4.031   7.661   6.817
26375SOL    HW179151   4.008   7.698   6.907
26375SOL    HW279152   4.001   7.566   6.811
26376SOL     OW79153   3.761   8.758   6.868
26376SOL    HW179154   3.814   8.709   6.936
26376SOL    HW279155   3.783   8.856   6.873
26377SOL     OW79156   4.456   8.082   6.650
26377SOL    HW179157   4.515   8.056   6.574
26377SOL    HW279158   4.428   8.178   6.639
26378SOL     OW79159   5.452   8.383   7.440
26378SOL    HW179160   5.406   8.376   7.351
26378SOL    HW279161   5.390   8.427   7.506
26379SOL     OW79162   4.031   7.511   6.204
26379SOL    HW179163   4.020   7.605   6.237
26379SOL    HW279164   4.026   7.448   6.281
26380SOL     OW79165   5.346   7.815   5.960
26380SOL    HW179166   5.348   7.739   6.024
26380SOL    HW279167   5.298   7.892   6.000
26381SOL     OW79168   4.747   8.214   6.552
26381SOL    HW179169   4.762   8.235   6.648
26381SOL    HW279170   4.717   8.119   6.543
26382SOL     OW79171   4.704   9.021   7.286
26382SOL    HW179172   4.684   9.065   7.198
26382SOL    HW279173   4.743   8.930   7.270
26383SOL     OW79174   5.583   8.966   7.191
26383SOL    HW179175   5.597   8.993   7.096
26383SOL    HW279176   5.666   8.988   7.244
26384SOL     OW79177   4.074   8.346   7.390
26384SOL    HW179178   4.150   8.390   7.438
26384SOL    HW279179   4.109   8.299   7.308
26385SOL     OW79180   5.264   7.722   5.711
26385SOL    HW179181   5.203   7.647   5.734
26385SOL    HW279182   5.286   7.774   5.794
26386SOL     OW79183   5.027   8.286   5.628
26386SOL    HW179184   5.061   8.193   5.643
26386SOL    HW279185   5.045   8.313   5.533
26387SOL     OW79186   4.792   8.781   6.435
26387SOL    HW179187   4.799   8.697   6.380
26387SOL    HW279188   4.854   8.850   6.399
26388SOL     OW79189   4.043   8.258   6.535
26388SOL    HW179190   4.136   8.294   6.540
26388SOL    HW279191   4.037   8.173   6.587
26389SOL     OW79192   4.063   7.957   6.592
26389SOL    HW179193   4.011   7.874   6.575
26389SOL    HW279194   4.140   7.962   6.528
26390SOL     OW79195   4.862   7.828   7.264
26390SOL    HW179196   4.817   7.891   7.328
26390SOL    HW279197   4.955   7.859   7.247
26391SOL     OW79198   4.884   7.655   7.063
26391SOL    HW179199   4.884   7.719   7.140
26391SOL    HW279200   4.912   7.703   6.980
26392SOL     OW79201   3.732   8.774   5.786
26392SOL    HW179202   3.639   8.795   5.755
26392SOL    HW279203   3.742   8.675   5.799
26393SOL     OW79204   3.812   9.249   6.513
26393SOL    HW179205   3.770   9.163   6.486
26393SOL    HW279206   3.906   9.252   6.479
26394SOL     OW79207   4.228   9.016   6.496
26394SOL    HW179208   4.294   9.090   6.505
26394SOL    HW279209   4.272   8.937   6.454
26395SOL     OW79210   4.726   8.244   6.824
26395SOL    HW179211   4.767   8.212   6.910
26395SOL    HW279212   4.630   8.217   6.821
26396SOL     OW79213   3.764   7.992   6.700
26396SOL    HW179214   3.849   7.959   6.659
26396SOL    HW279215   3.777   8.007   6.798
26397SOL     OW79216   3.913   7.968   7.308
26397SOL    HW179217   3.972   7.928   7.238
26397SOL    HW279218   3.855   8.039   7.267
26398SOL     OW79219   5.093   8.398   7.246
26398SOL    HW179220   5.132   8.487   7.266
26398SOL    HW279221   5.103   8.378   7.149
26399SOL     OW79222   4.539   8.020   5.911
26399SOL    HW179223   4.546   7.931   5.865
26399SOL    HW279224   4.445   8.054   5.903
26400SOL     OW79225   5.381   8.052   6.792
26400SOL    HW179226   5.343   7.983   6.854
26400SOL    HW279227   5.463   8.016   6.748
26401SOL     OW79228   3.976   9.012   7.330
26401SOL    HW179229   3.946   9.069   7.406
26401SOL    HW279230   3.969   8.915   7.356
26402SOL     OW79231   4.395   7.912   6.855
26402SOL    HW179232   4.361   7.823   6.825
26402SOL    HW279233   4.421   7.966   6.775
26403SOL     OW79234   4.654   9.126   7.051
26403SOL    HW179235   4.630   9.108   6.956
26403SOL    HW279236   4.684   9.220   7.061
26404SOL     OW79237   4.197   7.948   5.777
26404SOL    HW179238   4.258   8.028   5.781
26404SOL    HW279239   4.102   7.979   5.784
26405SOL     OW79240   3.883   8.585   7.052
26405SOL    HW179241   3.905   8.524   7.128
26405SOL    HW279242   3.893   8.536   6.966
26406SOL     OW79243   5.071   8.507   6.820
26406SOL    HW179244   5.095   8.444   6.746
26406SOL    HW279245   4.981   8.547   6.802
26407SOL     OW79246   5.026   8.303   5.895
26407SOL    HW179247   4.940   8.272   5.937
26407SOL    HW279248   5.022   8.289   5.796
26408SOL     OW79249   5.483   9.195   6.740
26408SOL    HW179250   5.544   9.225   6.667
26408SOL    HW279251   5.445   9.106   6.718
26409SOL     OW79252   4.976   9.179   6.714
26409SOL    HW179253   5.060   9.184   6.660
26409SOL    HW279254   4.953   9.083   6.732
26410SOL     OW79255   3.807   8.706   6.608
26410SOL    HW179256   3.802   8.705   6.708
26410SOL    HW279257   3.724   8.665   6.570
26411SOL     OW79258   4.412   9.110   7.302
26411SOL    HW179259   4.356   9.191   7.311
26411SOL    HW279260   4.464   9.114   7.216
26412SOL     OW79261   5.450   7.583   6.109
26412SOL    HW179262   5.523   7.566   6.042
26412SOL    HW279263   5.419   7.496   6.147
26413SOL     OW79264   5.112   9.021   6.063
26413SOL    HW179265   5.179   9.033   5.989
26413SOL    HW279266   5.072   9.110   6.086
26414SOL     OW79267   3.854   9.242   7.437
26414SOL    HW179268   3.813   9.168   7.490
26414SOL    HW279269   3.918   9.293   7.495
26415SOL     OW79270   5.004   8.375   6.258
26415SOL    HW179271   5.064   8.294   6.260
26415SOL    HW279272   5.044   8.444   6.198
26416SOL     OW79273   4.554   8.721   7.008
26416SOL    HW179274   4.549   8.754   7.103
26416SOL    HW279275   4.468   8.740   6.962
26417SOL     OW79276   4.396   9.064   5.740
26417SOL    HW179277   4.405   9.074   5.641
26417SOL    HW279278   4.356   8.975   5.761
26418SOL     OW79279   5.374   9.168   6.980
26418SOL    HW179280   5.427   9.178   6.896
26418SOL    HW279281   5.347   9.258   7.014
26419SOL     OW79282   5.565   7.623   6.549
26419SOL    HW179283   5.604   7.538   6.513
26419SOL    HW279284   5.467   7.625   6.530
26420SOL     OW79285   3.987   7.774   6.306
26420SOL    HW179286   3.908   7.825   6.272
26420SOL    HW279287   3.978   7.759   6.404
26421SOL     OW79288   4.918   9.060   5.617
26421SOL    HW179289   4.924   8.967   5.654
26421SOL    HW279290   4.859   9.060   5.537
26422SOL     OW79291   4.546   8.450   6.958
26422SOL    HW179292   4.586   8.449   6.866
26422SOL    HW279293   4.556   8.542   6.998
26423SOL     OW79294   4.640   8.358   5.877
26423SOL    HW179295   4.703   8.396   5.809
26423SOL    HW279296   4.680   8.275   5.916
26424SOL     OW79297   5.228   9.055   5.630
26424SOL    HW179298   5.136   9.092   5.637
26424SOL    HW279299   5.266   9.075   5.540
26425SOL     OW79300   4.096   8.736   7.076
26425SOL    HW179301   4.083   8.829   7.042
26425SOL    HW279302   4.012   8.684   7.063
26426SOL     OW79303   5.338   8.740   6.875
26426SOL    HW179304   5.398   8.743   6.955
26426SOL    HW279305   5.263   8.804   6.888
26427SOL     OW79306   4.763   8.546   6.282
26427SOL    HW179307   4.693   8.499   6.336
26427SOL    HW279308   4.822   8.478   6.239
26428SOL     OW79309   4.738   7.684   6.557
26428SOL    HW179310   4.730   7.648   6.464
26428SOL    HW279311   4.736   7.608   6.622
26429SOL     OW79312   4.314   8.935   6.077
26429SOL    HW179313   4.356   8.877   6.007
26429SOL    HW279314   4.270   9.014   6.033
26430SOL     OW79315   5.433   7.833   6.967
26430SOL    HW179316   5.506   7.902   6.971
26430SOL    HW279317   5.461   7.758   6.908
26431SOL     OW79318   3.979   8.796   5.876
26431SOL    HW179319   3.883   8.797   5.849
26431SOL    HW279320   3.991   8.849   5.960
26432SOL     OW79321   3.829   8.461   7.312
26432SOL    HW179322   3.752   8.428   7.366
26432SOL    HW279323   3.914   8.431   7.354
26433SOL     OW79324   4.396   7.651   7.075
26433SOL    HW179325   4.486   7.635   7.035
26433SOL    HW279326   4.404   7.656   7.174
26434SOL     OW79327   3.799   7.793   5.619
26434SOL    HW179328   3.707   7.765   5.590
26434SOL    HW279329   3.830   7.870   5.563
26435SOL     OW79330   5.164   8.304   6.984
26435SOL    HW179331   5.107   8.356   6.921
26435SOL    HW279332   5.260   8.316   6.960
26436SOL     OW79333   3.796   7.614   5.904
26436SOL    HW179334   3.779   7.697   5.850
26436SOL    HW279335   3.886   7.577   5.882
26437SOL     OW79336   4.907   8.783   5.705
26437SOL    HW179337   4.808   8.772   5.707
26437SOL    HW279338   4.941   8.798   5.798
26438SOL     OW79339   4.337   8.290   7.017
26438SOL    HW179340   4.393   8.371   7.000
26438SOL    HW279341   4.396   8.210   7.020
26439SOL     OW79342   5.217   9.215   6.545
26439SOL    HW179343   5.250   9.279   6.476
26439SOL    HW279344   5.283   9.209   6.620
26440SOL     OW79345   4.440   8.013   7.294
26440SOL    HW179346   4.459   8.078   7.368
26440SOL    HW279347   4.500   7.933   7.303
26441SOL     OW79348   5.174   8.668   7.219
26441SOL    HW179349   5.165   8.658   7.318
26441SOL    HW279350   5.270   8.661   7.193
26442SOL     OW79351   4.114   9.189   7.146
26442SOL    HW179352   4.023   9.230   7.144
26442SOL    HW279353   4.107   9.095   7.178
26443SOL     OW79354   5.398   8.331   6.840
26443SOL    HW179355   5.371   8.242   6.803
26443SOL    HW279356   5.399   8.399   6.767
26444SOL     OW79357   4.949   7.773   6.035
26444SOL    HW179358   5.014   7.699   6.024
26444SOL    HW279359   4.969   7.823   6.119
26445SOL     OW79360   4.318   8.193   6.238
26445SOL    HW179361   4.368   8.278   6.219
26445SOL    HW279362   4.230   8.195   6.190
26446SOL     OW79363   5.501   7.790   7.228
26446SOL    HW179364   5.484   7.821   7.134
26446SOL    HW279365   5.417   7.753   7.266
26447SOL     OW79366   5.454   8.382   7.103
26447SOL    HW179367   5.492   8.473   7.118
26447SOL    HW279368   5.446   8.365   7.004
26448SOL     OW79369   4.583   8.822   5.602
26448SOL    HW179370   4.537   8.837   5.690
26448SOL    HW279371   4.627   8.907   5.572
26449SOL     OW79372   4.385   9.238   6.539
26449SOL    HW179373   4.339   9.326   6.526
26449SOL    HW279374   4.484   9.250   6.532
26450SOL     OW79375   4.583   8.404   6.447
26450SOL    HW179376   4.637   8.335   6.495
26450SOL    HW279377   4.551   8.473   6.513
26451SOL     OW79378   4.807   8.432   5.673
26451SOL    HW179379   4.784   8.485   5.591
26451SOL    HW279380   4.888   8.376   5.654
26452SOL     OW79381   5.585   9.017   6.437
26452SOL    HW179382   5.514   9.005   6.367
26452SOL    HW279383   5.586   8.938   6.497
26453SOL     OW79384   3.945   8.762   7.430
26453SOL    HW179385   3.880   8.689   7.409
26453SOL    HW279386   3.949   8.776   7.528
26454SOL     OW79387   3.803   8.688   6.239
26454SOL    HW179388   3.802   8.641   6.327
26454SOL    HW279389   3.885   8.660   6.188
26455SOL     OW79390   4.396   8.839   7.210
26455SOL    HW179391   4.318   8.789   7.248
26455SOL    HW279392   4.393   8.934   7.241
26456SOL     OW79393   5.548   7.640   6.813
26456SOL    HW179394   5.544   7.550   6.857
26456SOL    HW279395   5.551   7.629   6.714
26457SOL     OW79396   4.152   7.872   6.106
26457SOL    HW179397   4.182   7.800   6.044
26457SOL    HW279398   4.113   7.832   6.189
26458SOL     OW79399   5.429   8.935   6.690
26458SOL    HW179400   5.336   8.910   6.663
26458SOL    HW279401   5.455   8.885   6.772
26459SOL     OW79402   4.041   7.995   6.866
26459SOL    HW179403   4.079   7.936   6.938
26459SOL    HW279404   4.081   7.969   6.778
26460SOL     OW79405   4.536   9.034   6.273
26460SOL    HW179406   4.568   9.044   6.179
26460SOL    HW279407   4.457   8.972   6.275
26461SOL     OW79408   5.148   7.662   6.698
26461SOL    HW179409   5.200   7.597   6.753
26461SOL    HW279410   5.099   7.725   6.759
26462SOL     OW79411   4.725   7.482   6.740
26462SOL    HW179412   4.662   7.410   6.709
26462SOL    HW279413   4.818   7.446   6.740
26463SOL     OW79414   4.494   8.778   5.887
26463SOL    HW179415   4.448   8.691   5.904
26463SOL    HW279416   4.585   8.775   5.928
26464SOL     OW79417   4.342   9.015   6.870
26464SOL    HW179418   4.337   9.097   6.927
26464SOL    HW279419   4.431   9.012   6.825
26465SOL     OW79420   5.076   7.500   5.754
26465SOL    HW179421   5.111   7.459   5.670
26465SOL    HW279422   4.986   7.462   5.774
26466SOL     OW79423   5.024   7.901   6.277
26466SOL    HW179424   4.965   7.981   6.281
26466SOL    HW279425   5.039   7.866   6.370
26467SOL     OW79426   5.317   7.669   6.468
26467SOL    HW179427   5.233   7.668   6.522
26467SOL    HW279428   5.319   7.752   6.412
26468SOL     OW79429   3.763   8.525   5.886
26468SOL    HW179430   3.862   8.514   5.877
26468SOL    HW279431   3.723   8.439   5.918
26469SOL     OW79432   4.599   9.094   5.923
26469SOL    HW179433   4.522   9.059   5.869
26469SOL    HW279434   4.567   9.165   5.985
26470SOL     OW79435   3.954   8.076   7.561
26470SOL    HW179436   3.861   8.074   7.598
26470SOL    HW279437   3.955   8.037   7.469
26471SOL     OW79438   3.949   7.723   8.444
26471SOL    HW179439   3.984   7.706   8.536
26471SOL    HW279440   3.861   7.678   8.432
26472SOL     OW79441   3.743   7.816   8.095
26472SOL    HW179442   3.661   7.859   8.134
26472SOL    HW279443   3.715   7.743   8.032
26473SOL     OW79444   4.293   8.723   8.613
26473SOL    HW179445   4.200   8.716   8.576
26473SOL    HW279446   4.304   8.812   8.657
26474SOL     OW79447   5.279   8.959   8.151
26474SOL    HW179448   5.222   8.943   8.232
26474SOL    HW279449   5.220   8.969   8.071
26475SOL     OW79450   4.859   8.151   8.165
26475SOL    HW179451   4.916   8.229   8.140
26475SOL    HW279452   4.799   8.177   8.241
26476SOL     OW79453   5.479   8.055   7.679
26476SOL    HW179454   5.467   8.042   7.580
26476SOL    HW279455   5.449   7.974   7.728
26477SOL     OW79456   4.492   8.592   8.471
26477SOL    HW179457   4.414   8.609   8.531
26477SOL    HW279458   4.526   8.679   8.435
26478SOL     OW79459   4.574   8.246   9.271
26478SOL    HW179460   4.570   8.322   9.336
26478SOL    HW279461   4.596   8.282   9.180
26479SOL     OW79462   4.409   8.460   8.113
26479SOL    HW179463   4.478   8.444   8.183
26479SOL    HW279464   4.336   8.517   8.151
26480SOL     OW79465   4.410   8.609   9.251
26480SOL    HW179466   4.470   8.688   9.265
26480SOL    HW279467   4.324   8.640   9.210
26481SOL     OW79468   4.059   8.883   8.509
26481SOL    HW179469   3.981   8.852   8.456
26481SOL    HW279470   4.117   8.941   8.452
26482SOL     OW79471   5.184   8.953   8.787
26482SOL    HW179472   5.208   9.047   8.813
26482SOL    HW279473   5.168   8.899   8.869
26483SOL     OW79474   4.162   7.840   8.947
26483SOL    HW179475   4.244   7.784   8.956
26483SOL    HW279476   4.081   7.782   8.951
26484SOL     OW79477   5.327   7.895   8.185
26484SOL    HW179478   5.253   7.941   8.135
26484SOL    HW279479   5.378   7.963   8.238
26485SOL     OW79480   3.955   9.161   7.931
26485SOL    HW179481   3.989   9.238   7.985
26485SOL    HW279482   3.999   9.161   7.841
26486SOL     OW79483   4.851   8.789   9.138
26486SOL    HW179484   4.898   8.789   9.226
26486SOL    HW279485   4.803   8.702   9.127
26487SOL     OW79486   3.954   8.882   7.986
26487SOL    HW179487   3.928   8.978   7.986
26487SOL    HW279488   3.883   8.828   8.031
26488SOL     OW79489   3.964   8.539   8.334
26488SOL    HW179490   3.978   8.455   8.386
26488SOL    HW279491   3.909   8.603   8.389
26489SOL     OW79492   4.344   9.234   8.887
26489SOL    HW179493   4.252   9.217   8.922
26489SOL    HW279494   4.372   9.326   8.913
26490SOL     OW79495   4.330   8.412   7.571
26490SOL    HW179496   4.337   8.496   7.517
26490SOL    HW279497   4.376   8.425   7.659
26491SOL     OW79498   5.318   7.562   8.928
26491SOL    HW179499   5.300   7.629   8.856
26491SOL    HW279500   5.315   7.608   9.017
26492SOL     OW79501   3.846   8.091   8.011
26492SOL    HW179502   3.801   8.003   8.028
26492SOL    HW279503   3.845   8.145   8.095
26493SOL     OW79504   5.566   9.215   7.807
26493SOL    HW179505   5.620   9.186   7.887
26493SOL    HW279506   5.596   9.305   7.778
26494SOL     OW79507   3.751   9.044   7.565
26494SOL    HW179508   3.732   8.948   7.586
26494SOL    HW279509   3.718   9.102   7.640
26495SOL     OW79510   5.413   8.370   8.060
26495SOL    HW179511   5.508   8.341   8.068
26495SOL    HW279512   5.405   8.435   7.985
26496SOL     OW79513   5.365   8.556   7.880
26496SOL    HW179514   5.451   8.558   7.828
26496SOL    HW279515   5.379   8.603   7.968
26497SOL     OW79516   3.837   8.185   9.045
26497SOL    HW179517   3.925   8.172   9.090
26497SOL    HW279518   3.824   8.282   9.023
26498SOL     OW79519   4.337   8.813   8.174
26498SOL    HW179520   4.288   8.726   8.183
26498SOL    HW279521   4.314   8.856   8.087
26499SOL     OW79522   5.017   8.676   8.871
26499SOL    HW179523   5.054   8.603   8.813
26499SOL    HW279524   5.069   8.681   8.956
26500SOL     OW79525   4.533   7.452   7.950
26500SOL    HW179526   4.573   7.543   7.941
26500SOL    HW279527   4.433   7.460   7.956
26501SOL     OW79528   3.921   8.424   8.712
26501SOL    HW179529   4.010   8.379   8.698
26501SOL    HW279530   3.848   8.359   8.693
26502SOL     OW79531   5.249   8.447   7.638
26502SOL    HW179532   5.186   8.371   7.651
26502SOL    HW279533   5.297   8.465   7.724
26503SOL     OW79534   4.911   9.240   9.064
26503SOL    HW179535   4.935   9.300   8.988
26503SOL    HW279536   4.918   9.145   9.034
26504SOL     OW79537   4.041   7.699   9.249
26504SOL    HW179538   4.112   7.770   9.255
26504SOL    HW279539   3.953   7.738   9.277
26505SOL     OW79540   5.190   8.865   8.401
26505SOL    HW179541   5.131   8.871   8.481
26505SOL    HW279542   5.175   8.777   8.355
26506SOL     OW79543   5.391   9.162   8.020
26506SOL    HW179544   5.350   9.139   7.932
26506SOL    HW279545   5.373   9.088   8.085
26507SOL     OW79546   4.322   8.177   7.718
26507SOL    HW179547   4.346   8.246   7.650
26507SOL    HW279548   4.244   8.210   7.772
26508SOL     OW79549   5.005   7.793   8.392
26508SOL    HW179550   4.919   7.743   8.379
26508SOL    HW279551   5.067   7.739   8.448
26509SOL     OW79552   5.300   9.110   7.755
26509SOL    HW179553   5.389   9.156   7.758
26509SOL    HW279554   5.279   9.086   7.660
26510SOL     OW79555   4.531   8.053   8.913
26510SOL    HW179556   4.484   8.050   9.002
26510SOL    HW279557   4.480   7.998   8.847
26511SOL     OW79558   5.118   7.917   9.122
26511SOL    HW179559   5.098   7.960   9.210
26511SOL    HW279560   5.196   7.855   9.131
26512SOL     OW79561   4.697   8.338   9.020
26512SOL    HW179562   4.743   8.254   8.991
26512SOL    HW279563   4.641   8.372   8.945
26513SOL     OW79564   4.715   7.858   8.690
26513SOL    HW179565   4.638   7.892   8.744
26513SOL    HW279566   4.681   7.807   8.611
26514SOL     OW79567   4.765   8.149   7.877
26514SOL    HW179568   4.791   8.145   7.973
26514SOL    HW279569   4.680   8.098   7.863
26515SOL     OW79570   3.800   8.259   8.237
26515SOL    HW179571   3.899   8.247   8.246
26515SOL    HW279572   3.776   8.354   8.258
26516SOL     OW79573   3.854   9.269   9.019
26516SOL    HW179574   3.844   9.254   9.118
26516SOL    HW279575   3.768   9.305   8.983
26517SOL     OW79576   4.589   7.796   7.643
26517SOL    HW179577   4.648   7.859   7.594
26517SOL    HW279578   4.608   7.702   7.614
26518SOL     OW79579   5.443   8.033   9.279
26518SOL    HW179580   5.417   8.122   9.243
26518SOL    HW279581   5.441   7.965   9.206
26519SOL     OW79582   5.086   8.592   7.993
26519SOL    HW179583   5.169   8.563   7.945
26519SOL    HW279584   5.037   8.659   7.937
26520SOL     OW79585   4.274   7.644   8.333
26520SOL    HW179586   4.269   7.639   8.433
26520SOL    HW279587   4.276   7.740   8.304
26521SOL     OW79588   4.732   8.904   7.925
26521SOL    HW179589   4.686   8.976   7.873
26521SOL    HW279590   4.728   8.924   8.023
26522SOL     OW79591   4.075   9.249   8.301
26522SOL    HW179592   4.125   9.163   8.307
26522SOL    HW279593   4.140   9.326   8.298
26523SOL     OW79594   5.519   8.514   8.321
26523SOL    HW179595   5.457   8.499   8.245
26523SOL    HW279596   5.467   8.525   8.406
26524SOL     OW79597   4.951   8.998   8.954
26524SOL    HW179598   4.957   8.921   9.018
26524SOL    HW279599   4.899   8.972   8.874
26525SOL     OW79600   4.045   8.391   7.690
26525SOL    HW179601   4.127   8.430   7.648
26525SOL    HW279602   4.018   8.309   7.641
26526SOL     OW79603   5.182   8.183   8.176
26526SOL    HW179604   5.177   8.118   8.251
26526SOL    HW279605   5.262   8.242   8.189
26527SOL     OW79606   4.185   8.714   9.175
26527SOL    HW179607   4.135   8.715   9.089
26527SOL    HW279608   4.122   8.696   9.251
26528SOL     OW79609   4.835   9.224   7.685
26528SOL    HW179610   4.775   9.162   7.735
26528SOL    HW279611   4.866   9.180   7.600
26529SOL     OW79612   3.926   7.733   8.946
26529SOL    HW179613   3.846   7.793   8.933
26529SOL    HW279614   3.916   7.684   9.032
26530SOL     OW79615   5.356   8.825   7.529
26530SOL    HW179616   5.324   8.919   7.519
26530SOL    HW279617   5.280   8.762   7.517
26531SOL     OW79618   4.188   9.191   7.771
26531SOL    HW179619   4.221   9.230   7.857
26531SOL    HW279620   4.264   9.184   7.706
26532SOL     OW79621   5.124   7.555   7.874
26532SOL    HW179622   5.100   7.518   7.784
26532SOL    HW279623   5.223   7.571   7.878
26533SOL     OW79624   3.973   9.233   8.689
26533SOL    HW179625   4.030   9.168   8.739
26533SOL    HW279626   3.957   9.200   8.596
26534SOL     OW79627   4.664   9.146   8.352
26534SOL    HW179628   4.744   9.089   8.373
26534SOL    HW279629   4.615   9.106   8.275
26535SOL     OW79630   4.106   8.148   7.928
26535SOL    HW179631   4.151   8.058   7.925
26535SOL    HW279632   4.012   8.137   7.961
26536SOL     OW79633   5.271   7.670   9.177
26536SOL    HW179634   5.266   7.707   9.269
26536SOL    HW279635   5.199   7.601   9.165
26537SOL     OW79636   4.338   7.570   7.565
26537SOL    HW179637   4.436   7.548   7.572
26537SOL    HW279638   4.307   7.553   7.472
26538SOL     OW79639   4.505   7.712   9.197
26538SOL    HW179640   4.572   7.651   9.240
26538SOL    HW279641   4.432   7.731   9.262
26539SOL     OW79642   4.612   8.962   8.643
26539SOL    HW179643   4.589   8.937   8.549
26539SOL    HW279644   4.673   8.893   8.682
26540SOL     OW79645   5.075   8.038   8.881
26540SOL    HW179646   5.103   7.995   8.966
26540SOL    HW279647   5.100   8.134   8.882
26541SOL     OW79648   4.527   8.850   8.372
26541SOL    HW179649   4.617   8.864   8.330
26541SOL    HW279650   4.456   8.852   8.301
26542SOL     OW79651   4.646   7.951   8.347
26542SOL    HW179652   4.621   7.942   8.251
26542SOL    HW279653   4.694   7.869   8.378
26543SOL     OW79654   4.263   7.512   7.960
26543SOL    HW179655   4.182   7.513   8.018
26543SOL    HW279656   4.266   7.595   7.905
26544SOL     OW79657   5.158   8.636   7.489
26544SOL    HW179658   5.190   8.560   7.546
26544SOL    HW279659   5.066   8.663   7.519
26545SOL     OW79660   4.021   7.483   7.619
26545SOL    HW179661   4.070   7.567   7.598
26545SOL    HW279662   4.083   7.418   7.664
26546SOL     OW79663   4.659   7.684   7.928
26546SOL    HW179664   4.611   7.725   7.850
26546SOL    HW279665   4.758   7.682   7.909
26547SOL     OW79666   4.800   8.131   8.912
26547SOL    HW179667   4.720   8.070   8.915
26547SOL    HW279668   4.881   8.078   8.888
26548SOL     OW79669   4.951   9.018   8.241
26548SOL    HW179670   4.972   9.092   8.176
26548SOL    HW279671   5.019   9.018   8.314
26549SOL     OW79672   4.183   8.600   8.189
26549SOL    HW179673   4.112   8.573   8.254
26549SOL    HW279674   4.157   8.572   8.096
26550SOL     OW79675   4.995   9.245   8.039
26550SOL    HW179676   5.039   9.309   7.975
26550SOL    HW279677   4.945   9.297   8.109
26551SOL     OW79678   4.756   7.997   7.464
26551SOL    HW179679   4.715   8.079   7.425
26551SOL    HW279680   4.820   8.023   7.537
26552SOL     OW79681   3.802   8.004   8.834
26552SOL    HW179682   3.894   8.003   8.793
26552SOL    HW279683   3.796   8.078   8.901
26553SOL     OW79684   4.285   7.670   8.595
26553SOL    HW179685   4.323   7.586   8.632
26553SOL    HW279686   4.197   7.689   8.639
26554SOL     OW79687   4.590   7.902   8.090
26554SOL    HW179688   4.558   7.974   8.028
26554SOL    HW279689   4.614   7.821   8.037
26555SOL     OW79690   4.741   7.487   8.201
26555SOL    HW179691   4.669   7.492   8.132
26555SOL    HW279692   4.717   7.418   8.270
26556SOL     OW79693   5.153   8.621   8.315
26556SOL    HW179694   5.098   8.537   8.308
26556SOL    HW279695   5.179   8.650   8.223
26557SOL     OW79696   5.190   8.038   8.440
26557SOL    HW179697   5.160   7.943   8.447
26557SOL    HW279698   5.263   8.054   8.506
26558SOL     OW79699   5.581   8.281   7.825
26558SOL    HW179700   5.623   8.217   7.889
26558SOL    HW279701   5.543   8.230   7.747
26559SOL     OW79702   4.212   8.833   7.622
26559SOL    HW179703   4.125   8.818   7.669
26559SOL    HW279704   4.195   8.859   7.527
26560SOL     OW79705   5.388   8.728   8.105
26560SOL    HW179706   5.487   8.736   8.119
26560SOL    HW279707   5.343   8.812   8.136
26561SOL     OW79708   5.114   8.023   7.526
26561SOL    HW179709   5.060   8.002   7.607
26561SOL    HW279710   5.205   7.982   7.535
26562SOL     OW79711   4.251   7.704   7.776
26562SOL    HW179712   4.278   7.645   7.701
26562SOL    HW279713   4.251   7.799   7.745
26563SOL     OW79714   5.478   8.671   9.036
26563SOL    HW179715   5.569   8.632   9.023
26563SOL    HW279716   5.486   8.767   9.060
26564SOL     OW79717   4.788   8.795   8.788
26564SOL    HW179718   4.708   8.772   8.843
26564SOL    HW279719   4.871   8.769   8.837
26565SOL     OW79720   5.316   9.077   9.073
26565SOL    HW179721   5.343   9.111   8.983
26565SOL    HW279722   5.395   9.039   9.119
26566SOL     OW79723   4.835   8.643   8.548
26566SOL    HW179724   4.795   8.687   8.629
26566SOL    HW279725   4.794   8.680   8.465
26567SOL     OW79726   5.362   8.547   8.527
26567SOL    HW179727   5.367   8.628   8.586
26567SOL    HW279728   5.276   8.549   8.476
26568SOL     OW79729   4.639   7.537   8.850
26568SOL    HW179730   4.664   7.517   8.755
26568SOL    HW279731   4.711   7.593   8.892
26569SOL     OW79732   4.704   8.564   9.167
26569SOL    HW179733   4.605   8.570   9.177
26569SOL    HW279734   4.727   8.484   9.111
26570SOL     OW79735   4.429   8.498   7.816
26570SOL    HW179736   4.415   8.505   7.915
26570SOL    HW279737   4.513   8.447   7.798
26571SOL     OW79738   4.134   8.261   8.699
26571SOL    HW179739   4.220   8.273   8.749
26571SOL    HW279740   4.092   8.174   8.726
26572SOL     OW79741   4.998   7.834   8.710
26572SOL    HW179742   5.019   7.908   8.774
26572SOL    HW279743   4.909   7.851   8.667
26573SOL     OW79744   3.788   9.012   8.779
26573SOL    HW179745   3.742   9.094   8.745
26573SOL    HW279746   3.886   9.031   8.788
26574SOL     OW79747   4.091   8.548   7.949
26574SOL    HW179748   4.084   8.631   7.893
26574SOL    HW279749   4.095   8.468   7.889
26575SOL     OW79750   4.290   7.985   8.313
26575SOL    HW179751   4.302   8.051   8.239
26575SOL    HW279752   4.336   8.019   8.396
26576SOL     OW79753   4.976   8.796   7.836
26576SOL    HW179754   5.026   8.873   7.876
26576SOL    HW279755   4.881   8.798   7.868
26577SOL     OW79756   4.996   8.893   8.590
26577SOL    HW179757   5.043   8.906   8.677
26577SOL    HW279758   4.930   8.819   8.599
26578SOL     OW79759   5.306   8.087   7.920
26578SOL    HW179760   5.275   8.148   7.993
26578SOL    HW279761   5.356   8.139   7.851
26579SOL     OW79762   4.078   8.958   8.777
26579SOL    HW179763   4.057   8.914   8.690
26579SOL    HW279764   4.175   8.984   8.780
26580SOL     OW79765   4.126   8.199   9.046
26580SOL    HW179766   4.194   8.254   8.999
26580SOL    HW279767   4.166   8.111   9.073
26581SOL     OW79768   5.311   8.227   9.118
26581SOL    HW179769   5.219   8.265   9.113
26581SOL    HW279770   5.371   8.274   9.053
26582SOL     OW79771   4.737   7.553   9.218
26582SOL    HW179772   4.743   7.638   9.166
26582SOL    HW279773   4.769   7.477   9.161
26583SOL     OW79774   4.228   7.498   9.188
26583SOL    HW179775   4.186   7.441   9.118
26583SOL    HW279776   4.162   7.567   9.220
26584SOL     OW79777   4.297   8.318   8.477
26584SOL    HW179778   4.341   8.407   8.468
26584SOL    HW279779   4.234   8.318   8.554
26585SOL     OW79780   5.084   8.310   8.493
26585SOL    HW179781   5.009   8.310   8.427
26585SOL    HW279782   5.121   8.218   8.502
26586SOL     OW79783   4.933   7.973   7.723
26586SOL    HW179784   4.946   7.889   7.777
26586SOL    HW279785   4.904   8.047   7.783
26587SOL     OW79786   4.031   7.661   8.679
26587SOL    HW179787   4.008   7.698   8.769
26587SOL    HW279788   4.001   7.566   8.673
26588SOL     OW79789   3.761   8.758   8.730
26588SOL    HW179790   3.814   8.709   8.798
26588SOL    HW279791   3.783   8.856   8.735
26589SOL     OW79792   4.456   8.082   8.512
26589SOL    HW179793   4.515   8.056   8.436
26589SOL    HW279794   4.428   8.178   8.501
26590SOL     OW79795   5.452   8.383   9.302
26590SOL    HW179796   5.406   8.376   9.213
26590SOL    HW279797   5.390   8.427   9.368
26591SOL     OW79798   4.031   7.511   8.066
26591SOL    HW179799   4.020   7.605   8.099
26591SOL    HW279800   4.026   7.448   8.143
26592SOL     OW79801   5.346   7.815   7.822
26592SOL    HW179802   5.348   7.739   7.886
26592SOL    HW279803   5.298   7.892   7.862
26593SOL     OW79804   4.747   8.214   8.414
26593SOL    HW179805   4.762   8.235   8.510
26593SOL    HW279806   4.717   8.119   8.405
26594SOL     OW79807   4.704   9.021   9.148
26594SOL    HW179808   4.684   9.065   9.060
26594SOL    HW279809   4.743   8.930   9.132
26595SOL     OW79810   5.583   8.966   9.053
26595SOL    HW179811   5.597   8.993   8.958
26595SOL    HW279812   5.666   8.988   9.106
26596SOL     OW79813   4.074   8.346   9.252
26596SOL    HW179814   4.150   8.390   9.300
26596SOL    HW279815   4.109   8.299   9.170
26597SOL     OW79816   5.264   7.722   7.573
26597SOL    HW179817   5.203   7.647   7.596
26597SOL    HW279818   5.286   7.774   7.656
26598SOL     OW79819   5.027   8.286   7.490
26598SOL    HW179820   5.061   8.193   7.505
26598SOL    HW279821   5.045   8.313   7.395
26599SOL     OW79822   4.792   8.781   8.297
26599SOL    HW179823   4.799   8.697   8.242
26599SOL    HW279824   4.854   8.850   8.261
26600SOL     OW79825   4.043   8.258   8.397
26600SOL    HW179826   4.136   8.294   8.402
26600SOL    HW279827   4.037   8.173   8.449
26601SOL     OW79828   4.063   7.957   8.454
26601SOL    HW179829   4.011   7.874   8.437
26601SOL    HW279830   4.140   7.962   8.390
26602SOL     OW79831   4.862   7.828   9.126
26602SOL    HW179832   4.817   7.891   9.190
26602SOL    HW279833   4.955   7.859   9.109
26603SOL     OW79834   4.884   7.655   8.925
26603SOL    HW179835   4.884   7.719   9.002
26603SOL    HW279836   4.912   7.703   8.842
26604SOL     OW79837   3.732   8.774   7.648
26604SOL    HW179838   3.639   8.795   7.617
26604SOL    HW279839   3.742   8.675   7.661
26605SOL     OW79840   3.812   9.249   8.375
26605SOL    HW179841   3.770   9.163   8.348
26605SOL    HW279842   3.906   9.252   8.341
26606SOL     OW79843   4.228   9.016   8.358
26606SOL    HW179844   4.294   9.090   8.367
26606SOL    HW279845   4.272   8.937   8.316
26607SOL     OW79846   4.726   8.244   8.686
26607SOL    HW179847   4.767   8.212   8.772
26607SOL    HW279848   4.630   8.217   8.683
26608SOL     OW79849   3.764   7.992   8.562
26608SOL    HW179850   3.849   7.959   8.521
26608SOL    HW279851   3.777   8.007   8.660
26609SOL     OW79852   3.913   7.968   9.170
26609SOL    HW179853   3.972   7.928   9.100
26609SOL    HW279854   3.855   8.039   9.129
26610SOL     OW79855   5.093   8.398   9.108
26610SOL    HW179856   5.132   8.487   9.128
26610SOL    HW279857   5.103   8.378   9.011
26611SOL     OW79858   4.539   8.020   7.773
26611SOL    HW179859   4.546   7.931   7.727
26611SOL    HW279860   4.445   8.054   7.765
26612SOL     OW79861   5.381   8.052   8.654
26612SOL    HW179862   5.343   7.983   8.716
26612SOL    HW279863   5.463   8.016   8.610
26613SOL     OW79864   3.976   9.012   9.192
26613SOL    HW179865   3.946   9.069   9.268
26613SOL    HW279866   3.969   8.915   9.218
26614SOL     OW79867   4.395   7.912   8.717
26614SOL    HW179868   4.361   7.823   8.687
26614SOL    HW279869   4.421   7.966   8.637
26615SOL     OW79870   4.654   9.126   8.913
26615SOL    HW179871   4.630   9.108   8.818
26615SOL    HW279872   4.684   9.220   8.923
26616SOL     OW79873   4.197   7.948   7.639
26616SOL    HW179874   4.258   8.028   7.643
26616SOL    HW279875   4.102   7.979   7.646
26617SOL     OW79876   3.883   8.585   8.914
26617SOL    HW179877   3.905   8.524   8.990
26617SOL    HW279878   3.893   8.536   8.828
26618SOL     OW79879   5.071   8.507   8.682
26618SOL    HW179880   5.095   8.444   8.608
26618SOL    HW279881   4.981   8.547   8.664
26619SOL     OW79882   5.026   8.303   7.757
26619SOL    HW179883   4.940   8.272   7.799
26619SOL    HW279884   5.022   8.289   7.658
26620SOL     OW79885   5.483   9.195   8.602
26620SOL    HW179886   5.544   9.225   8.529
26620SOL    HW279887   5.445   9.106   8.580
26621SOL     OW79888   4.976   9.179   8.576
26621SOL    HW179889   5.060   9.184   8.522
26621SOL    HW279890   4.953   9.083   8.594
26622SOL     OW79891   3.807   8.706   8.470
26622SOL    HW179892   3.802   8.705   8.570
26622SOL    HW279893   3.724   8.665   8.432
26623SOL     OW79894   4.412   9.110   9.164
26623SOL    HW179895   4.356   9.191   9.173
26623SOL    HW279896   4.464   9.114   9.078
26624SOL     OW79897   5.450   7.583   7.971
26624SOL    HW179898   5.523   7.566   7.904
26624SOL    HW279899   5.419   7.496   8.009
26625SOL     OW79900   5.112   9.021   7.925
26625SOL    HW179901   5.179   9.033   7.851
26625SOL    HW279902   5.072   9.110   7.948
26626SOL     OW79903   3.854   9.242   9.299
26626SOL    HW179904   3.813   9.168   9.352
26626SOL    HW279905   3.918   9.293   9.357
26627SOL     OW79906   5.004   8.375   8.120
26627SOL    HW179907   5.064   8.294   8.122
26627SOL    HW279908   5.044   8.444   8.060
26628SOL     OW79909   4.554   8.721   8.870
26628SOL    HW179910   4.549   8.754   8.965
26628SOL    HW279911   4.468   8.740   8.824
26629SOL     OW79912   4.396   9.064   7.602
26629SOL    HW179913   4.405   9.074   7.503
26629SOL    HW279914   4.356   8.975   7.623
26630SOL     OW79915   5.374   9.168   8.842
26630SOL    HW179916   5.427   9.178   8.758
26630SOL    HW279917   5.347   9.258   8.876
26631SOL     OW79918   5.565   7.623   8.411
26631SOL    HW179919   5.604   7.538   8.375
26631SOL    HW279920   5.467   7.625   8.392
26632SOL     OW79921   3.987   7.774   8.168
26632SOL    HW179922   3.908   7.825   8.134
26632SOL    HW279923   3.978   7.759   8.266
26633SOL     OW79924   4.918   9.060   7.479
26633SOL    HW179925   4.924   8.967   7.516
26633SOL    HW279926   4.859   9.060   7.399
26634SOL     OW79927   4.546   8.450   8.820
26634SOL    HW179928   4.586   8.449   8.728
26634SOL    HW279929   4.556   8.542   8.860
26635SOL     OW79930   4.640   8.358   7.739
26635SOL    HW179931   4.703   8.396   7.671
26635SOL    HW279932   4.680   8.275   7.778
26636SOL     OW79933   5.228   9.055   7.492
26636SOL    HW179934   5.136   9.092   7.499
26636SOL    HW279935   5.266   9.075   7.402
26637SOL     OW79936   4.096   8.736   8.938
26637SOL    HW179937   4.083   8.829   8.904
26637SOL    HW279938   4.012   8.684   8.925
26638SOL     OW79939   5.338   8.740   8.737
26638SOL    HW179940   5.398   8.743   8.817
26638SOL    HW279941   5.263   8.804   8.750
26639SOL     OW79942   4.763   8.546   8.144
26639SOL    HW179943   4.693   8.499   8.198
26639SOL    HW279944   4.822   8.478   8.101
26640SOL     OW79945   4.738   7.684   8.419
26640SOL    HW179946   4.730   7.648   8.326
26640SOL    HW279947   4.736   7.608   8.484
26641SOL     OW79948   4.314   8.935   7.939
26641SOL    HW179949   4.356   8.877   7.869
26641SOL    HW279950   4.270   9.014   7.895
26642SOL     OW79951   5.433   7.833   8.829
26642SOL    HW179952   5.506   7.902   8.833
26642SOL    HW279953   5.461   7.758   8.770
26643SOL     OW79954   3.979   8.796   7.738
26643SOL    HW179955   3.883   8.797   7.711
26643SOL    HW279956   3.991   8.849   7.822
26644SOL     OW79957   3.829   8.461   9.174
26644SOL    HW179958   3.752   8.428   9.228
26644SOL    HW279959   3.914   8.431   9.216
26645SOL     OW79960   4.396   7.651   8.937
26645SOL    HW179961   4.486   7.635   8.897
26645SOL    HW279962   4.404   7.656   9.036
26646SOL     OW79963   3.799   7.793   7.481
26646SOL    HW179964   3.707   7.765   7.452
26646SOL    HW279965   3.830   7.870   7.425
26647SOL     OW79966   5.164   8.304   8.846
26647SOL    HW179967   5.107   8.356   8.783
26647SOL    HW279968   5.260   8.316   8.822
26648SOL     OW79969   3.796   7.614   7.766
26648SOL    HW179970   3.779   7.697   7.712
26648SOL    HW279971   3.886   7.577   7.744
26649SOL     OW79972   4.907   8.783   7.567
26649SOL    HW179973   4.808   8.772   7.569
26649SOL    HW279974   4.941   8.798   7.660
26650SOL     OW79975   4.337   8.290   8.879
26650SOL    HW179976   4.393   8.371   8.862
26650SOL    HW279977   4.396   8.210   8.882
26651SOL     OW79978   5.217   9.215   8.407
26651SOL    HW179979   5.250   9.279   8.338
26651SOL    HW279980   5.283   9.209   8.482
26652SOL     OW79981   4.440   8.013   9.156
26652SOL    HW179982   4.459   8.078   9.230
26652SOL    HW279983   4.500   7.933   9.165
26653SOL     OW79984   5.174   8.668   9.081
26653SOL    HW179985   5.165   8.658   9.180
26653SOL    HW279986   5.270   8.661   9.055
26654SOL     OW79987   4.114   9.189   9.008
26654SOL    HW179988   4.023   9.230   9.006
26654SOL    HW279989   4.107   9.095   9.040
26655SOL     OW79990   5.398   8.331   8.702
26655SOL    HW179991   5.371   8.242   8.665
26655SOL    HW279992   5.399   8.399   8.629
26656SOL     OW79993   4.949   7.773   7.897
26656SOL    HW179994   5.014   7.699   7.886
26656SOL    HW279995   4.969   7.823   7.981
26657SOL     OW79996   4.318   8.193   8.100
26657SOL    HW179997   4.368   8.278   8.081
26657SOL    HW279998   4.230   8.195   8.052
26658SOL     OW79999   5.501   7.790   9.090
26658SOL    HW180000   5.484   7.821   8.996
26658SOL    HW280001   5.417   7.753   9.128
26659SOL     OW80002   5.454   8.382   8.965
26659SOL    HW180003   5.492   8.473   8.980
26659SOL    HW280004   5.446   8.365   8.866
26660SOL     OW80005   4.583   8.822   7.464
26660SOL    HW180006   4.537   8.837   7.552
26660SOL    HW280007   4.627   8.907   7.434
26661SOL     OW80008   4.385   9.238   8.401
26661SOL    HW180009   4.339   9.326   8.388
26661SOL    HW280010   4.484   9.250   8.394
26662SOL     OW80011   4.583   8.404   8.309
26662SOL    HW180012   4.637   8.335   8.357
26662SOL    HW280013   4.551   8.473   8.375
26663SOL     OW80014   4.807   8.432   7.535
26663SOL    HW180015   4.784   8.485   7.453
26663SOL    HW280016   4.888   8.376   7.516
26664SOL     OW80017   5.585   9.017   8.299
26664SOL    HW180018   5.514   9.005   8.229
26664SOL    HW280019   5.586   8.938   8.359
26665SOL     OW80020   3.945   8.762   9.292
26665SOL    HW180021   3.880   8.689   9.271
26665SOL    HW280022   3.949   8.776   9.390
26666SOL     OW80023   3.803   8.688   8.101
26666SOL    HW180024   3.802   8.641   8.189
26666SOL    HW280025   3.885   8.660   8.050
26667SOL     OW80026   4.396   8.839   9.072
26667SOL    HW180027   4.318   8.789   9.110
26667SOL    HW280028   4.393   8.934   9.103
26668SOL     OW80029   5.548   7.640   8.675
26668SOL    HW180030   5.544   7.550   8.719
26668SOL    HW280031   5.551   7.629   8.576
26669SOL     OW80032   4.152   7.872   7.968
26669SOL    HW180033   4.182   7.800   7.906
26669SOL    HW280034   4.113   7.832   8.051
26670SOL     OW80035   5.429   8.935   8.552
26670SOL    HW180036   5.336   8.910   8.525
26670SOL    HW280037   5.455   8.885   8.634
26671SOL     OW80038   4.041   7.995   8.728
26671SOL    HW180039   4.079   7.936   8.800
26671SOL    HW280040   4.081   7.969   8.640
26672SOL     OW80041   4.536   9.034   8.135
26672SOL    HW180042   4.568   9.044   8.041
26672SOL    HW280043   4.457   8.972   8.137
26673SOL     OW80044   5.148   7.662   8.560
26673SOL    HW180045   5.200   7.597   8.615
26673SOL    HW280046   5.099   7.725   8.621
26674SOL     OW80047   4.725   7.482   8.602
26674SOL    HW180048   4.662   7.410   8.571
26674SOL    HW280049   4.818   7.446   8.602
26675SOL     OW80050   4.494   8.778   7.749
26675SOL    HW180051   4.448   8.691   7.766
26675SOL    HW280052   4.585   8.775   7.790
26676SOL     OW80053   4.342   9.015   8.732
26676SOL    HW180054   4.337   9.097   8.789
26676SOL    HW280055   4.431   9.012   8.687
26677SOL     OW80056   5.076   7.500   7.616
26677SOL    HW180057   5.111   7.459   7.532
26677SOL    HW280058   4.986   7.462   7.636
26678SOL     OW80059   5.024   7.901   8.139
26678SOL    HW180060   4.965   7.981   8.143
26678SOL    HW280061   5.039   7.866   8.232
26679SOL     OW80062   5.317   7.669   8.330
26679SOL    HW180063   5.233   7.668   8.384
26679SOL    HW280064   5.319   7.752   8.274
26680SOL     OW80065   3.763   8.525   7.748
26680SOL    HW180066   3.862   8.514   7.739
26680SOL    HW280067   3.723   8.439   7.780
26681SOL     OW80068   4.599   9.094   7.785
26681SOL    HW180069   4.522   9.059   7.731
26681SOL    HW280070   4.567   9.165   7.847
26682SOL     OW80071   3.954   8.076   9.423
26682SOL    HW180072   3.861   8.074   9.460
26682SOL    HW280073   3.955   8.037   9.331
26683SOL     OW80074   3.949   7.723  10.306
26683SOL    HW180075   3.984   7.706  10.398
26683SOL    HW280076   3.861   7.678  10.294
26684SOL     OW80077   3.743   7.816   9.957
26684SOL    HW180078   3.661   7.859   9.996
26684SOL    HW280079   3.715   7.743   9.894
26685SOL     OW80080   4.293   8.723  10.475
26685SOL    HW180081   4.200   8.716  10.438
26685SOL    HW280082   4.304   8.812  10.519
26686SOL     OW80083   5.279   8.959  10.013
26686SOL    HW180084   5.222   8.943  10.094
26686SOL    HW280085   5.220   8.969   9.933
26687SOL     OW80086   4.859   8.151  10.027
26687SOL    HW180087   4.916   8.229  10.002
26687SOL    HW280088   4.799   8.177  10.103
26688SOL     OW80089   5.479   8.055   9.541
26688SOL    HW180090   5.467   8.042   9.442
26688SOL    HW280091   5.449   7.974   9.590
26689SOL     OW80092   4.492   8.592  10.333
26689SOL    HW180093   4.414   8.609  10.393
26689SOL    HW280094   4.526   8.679  10.297
26690SOL     OW80095   4.574   8.246  11.133
26690SOL    HW180096   4.570   8.322  11.198
26690SOL    HW280097   4.596   8.282  11.042
26691SOL     OW80098   4.409   8.460   9.975
26691SOL    HW180099   4.478   8.444  10.045
26691SOL    HW280100   4.336   8.517  10.013
26692SOL     OW80101   4.410   8.609  11.113
26692SOL    HW180102   4.470   8.688  11.127
26692SOL    HW280103   4.324   8.640  11.072
26693SOL     OW80104   4.059   8.883  10.371
26693SOL    HW180105   3.981   8.852  10.318
26693SOL    HW280106   4.117   8.941  10.314
26694SOL     OW80107   5.184   8.953  10.649
26694SOL    HW180108   5.208   9.047  10.675
26694SOL    HW280109   5.168   8.899  10.731
26695SOL     OW80110   4.162   7.840  10.809
26695SOL    HW180111   4.244   7.784  10.818
26695SOL    HW280112   4.081   7.782  10.813
26696SOL     OW80113   5.327   7.895  10.047
26696SOL    HW180114   5.253   7.941   9.997
26696SOL    HW280115   5.378   7.963  10.100
26697SOL     OW80116   3.955   9.161   9.793
26697SOL    HW180117   3.989   9.238   9.847
26697SOL    HW280118   3.999   9.161   9.703
26698SOL     OW80119   4.851   8.789  11.000
26698SOL    HW180120   4.898   8.789  11.088
26698SOL    HW280121   4.803   8.702  10.989
26699SOL     OW80122   3.954   8.882   9.848
26699SOL    HW180123   3.928   8.978   9.848
26699SOL    HW280124   3.883   8.828   9.893
26700SOL     OW80125   3.964   8.539  10.196
26700SOL    HW180126   3.978   8.455  10.248
26700SOL    HW280127   3.909   8.603  10.251
26701SOL     OW80128   4.344   9.234  10.749
26701SOL    HW180129   4.252   9.217  10.784
26701SOL    HW280130   4.372   9.326  10.775
26702SOL     OW80131   4.330   8.412   9.433
26702SOL    HW180132   4.337   8.496   9.379
26702SOL    HW280133   4.376   8.425   9.521
26703SOL     OW80134   5.318   7.562  10.790
26703SOL    HW180135   5.300   7.629  10.718
26703SOL    HW280136   5.315   7.608  10.879
26704SOL     OW80137   3.846   8.091   9.873
26704SOL    HW180138   3.801   8.003   9.890
26704SOL    HW280139   3.845   8.145   9.957
26705SOL     OW80140   5.566   9.215   9.669
26705SOL    HW180141   5.620   9.186   9.749
26705SOL    HW280142   5.596   9.305   9.640
26706SOL     OW80143   3.751   9.044   9.427
26706SOL    HW180144   3.732   8.948   9.448
26706SOL    HW280145   3.718   9.102   9.502
26707SOL     OW80146   5.413   8.370   9.922
26707SOL    HW180147   5.508   8.341   9.930
26707SOL    HW280148   5.405   8.435   9.847
26708SOL     OW80149   5.365   8.556   9.742
26708SOL    HW180150   5.451   8.558   9.690
26708SOL    HW280151   5.379   8.603   9.830
26709SOL     OW80152   3.837   8.185  10.907
26709SOL    HW180153   3.925   8.172  10.952
26709SOL    HW280154   3.824   8.282  10.885
26710SOL     OW80155   4.337   8.813  10.036
26710SOL    HW180156   4.288   8.726  10.045
26710SOL    HW280157   4.314   8.856   9.949
26711SOL     OW80158   5.017   8.676  10.733
26711SOL    HW180159   5.054   8.603  10.675
26711SOL    HW280160   5.069   8.681  10.818
26712SOL     OW80161   4.533   7.452   9.812
26712SOL    HW180162   4.573   7.543   9.803
26712SOL    HW280163   4.433   7.460   9.818
26713SOL     OW80164   3.921   8.424  10.574
26713SOL    HW180165   4.010   8.379  10.560
26713SOL    HW280166   3.848   8.359  10.555
26714SOL     OW80167   5.249   8.447   9.500
26714SOL    HW180168   5.186   8.371   9.513
26714SOL    HW280169   5.297   8.465   9.586
26715SOL     OW80170   4.911   9.240  10.926
26715SOL    HW180171   4.935   9.300  10.850
26715SOL    HW280172   4.918   9.145  10.896
26716SOL     OW80173   4.041   7.699  11.111
26716SOL    HW180174   4.112   7.770  11.117
26716SOL    HW280175   3.953   7.738  11.139
26717SOL     OW80176   5.190   8.865  10.263
26717SOL    HW180177   5.131   8.871  10.343
26717SOL    HW280178   5.175   8.777  10.217
26718SOL     OW80179   5.391   9.162   9.882
26718SOL    HW180180   5.350   9.139   9.794
26718SOL    HW280181   5.373   9.088   9.947
26719SOL     OW80182   4.322   8.177   9.580
26719SOL    HW180183   4.346   8.246   9.512
26719SOL    HW280184   4.244   8.210   9.634
26720SOL     OW80185   5.005   7.793  10.254
26720SOL    HW180186   4.919   7.743  10.241
26720SOL    HW280187   5.067   7.739  10.310
26721SOL     OW80188   5.300   9.110   9.617
26721SOL    HW180189   5.389   9.156   9.620
26721SOL    HW280190   5.279   9.086   9.522
26722SOL     OW80191   4.531   8.053  10.775
26722SOL    HW180192   4.484   8.050  10.864
26722SOL    HW280193   4.480   7.998  10.709
26723SOL     OW80194   5.118   7.917  10.984
26723SOL    HW180195   5.098   7.960  11.072
26723SOL    HW280196   5.196   7.855  10.993
26724SOL     OW80197   4.697   8.338  10.882
26724SOL    HW180198   4.743   8.254  10.853
26724SOL    HW280199   4.641   8.372  10.807
26725SOL     OW80200   4.715   7.858  10.552
26725SOL    HW180201   4.638   7.892  10.606
26725SOL    HW280202   4.681   7.807  10.473
26726SOL     OW80203   4.765   8.149   9.739
26726SOL    HW180204   4.791   8.145   9.835
26726SOL    HW280205   4.680   8.098   9.725
26727SOL     OW80206   3.800   8.259  10.099
26727SOL    HW180207   3.899   8.247  10.108
26727SOL    HW280208   3.776   8.354  10.120
26728SOL     OW80209   3.854   9.269  10.881
26728SOL    HW180210   3.844   9.254  10.980
26728SOL    HW280211   3.768   9.305  10.845
26729SOL     OW80212   4.589   7.796   9.505
26729SOL    HW180213   4.648   7.859   9.456
26729SOL    HW280214   4.608   7.702   9.476
26730SOL     OW80215   5.443   8.033  11.141
26730SOL    HW180216   5.417   8.122  11.105
26730SOL    HW280217   5.441   7.965  11.068
26731SOL     OW80218   5.086   8.592   9.855
26731SOL    HW180219   5.169   8.563   9.807
26731SOL    HW280220   5.037   8.659   9.799
26732SOL     OW80221   4.274   7.644  10.195
26732SOL    HW180222   4.269   7.639  10.295
26732SOL    HW280223   4.276   7.740  10.166
26733SOL     OW80224   4.732   8.904   9.787
26733SOL    HW180225   4.686   8.976   9.735
26733SOL    HW280226   4.728   8.924   9.885
26734SOL     OW80227   4.075   9.249  10.163
26734SOL    HW180228   4.125   9.163  10.169
26734SOL    HW280229   4.140   9.326  10.160
26735SOL     OW80230   5.519   8.514  10.183
26735SOL    HW180231   5.457   8.499  10.107
26735SOL    HW280232   5.467   8.525  10.268
26736SOL     OW80233   4.951   8.998  10.816
26736SOL    HW180234   4.957   8.921  10.880
26736SOL    HW280235   4.899   8.972  10.736
26737SOL     OW80236   4.045   8.391   9.552
26737SOL    HW180237   4.127   8.430   9.510
26737SOL    HW280238   4.018   8.309   9.503
26738SOL     OW80239   5.182   8.183  10.038
26738SOL    HW180240   5.177   8.118  10.113
26738SOL    HW280241   5.262   8.242  10.051
26739SOL     OW80242   4.185   8.714  11.037
26739SOL    HW180243   4.135   8.715  10.951
26739SOL    HW280244   4.122   8.696  11.113
26740SOL     OW80245   4.835   9.224   9.547
26740SOL    HW180246   4.775   9.162   9.597
26740SOL    HW280247   4.866   9.180   9.462
26741SOL     OW80248   3.926   7.733  10.808
26741SOL    HW180249   3.846   7.793  10.795
26741SOL    HW280250   3.916   7.684  10.894
26742SOL     OW80251   5.356   8.825   9.391
26742SOL    HW180252   5.324   8.919   9.381
26742SOL    HW280253   5.280   8.762   9.379
26743SOL     OW80254   4.188   9.191   9.633
26743SOL    HW180255   4.221   9.230   9.719
26743SOL    HW280256   4.264   9.184   9.568
26744SOL     OW80257   5.124   7.555   9.736
26744SOL    HW180258   5.100   7.518   9.646
26744SOL    HW280259   5.223   7.571   9.740
26745SOL     OW80260   3.973   9.233  10.551
26745SOL    HW180261   4.030   9.168  10.601
26745SOL    HW280262   3.957   9.200  10.458
26746SOL     OW80263   4.664   9.146  10.214
26746SOL    HW180264   4.744   9.089  10.235
26746SOL    HW280265   4.615   9.106  10.137
26747SOL     OW80266   4.106   8.148   9.790
26747SOL    HW180267   4.151   8.058   9.787
26747SOL    HW280268   4.012   8.137   9.823
26748SOL     OW80269   5.271   7.670  11.039
26748SOL    HW180270   5.266   7.707  11.131
26748SOL    HW280271   5.199   7.601  11.027
26749SOL     OW80272   4.338   7.570   9.427
26749SOL    HW180273   4.436   7.548   9.434
26749SOL    HW280274   4.307   7.553   9.334
26750SOL     OW80275   4.505   7.712  11.059
26750SOL    HW180276   4.572   7.651  11.102
26750SOL    HW280277   4.432   7.731  11.124
26751SOL     OW80278   4.612   8.962  10.505
26751SOL    HW180279   4.589   8.937  10.411
26751SOL    HW280280   4.673   8.893  10.544
26752SOL     OW80281   5.075   8.038  10.743
26752SOL    HW180282   5.103   7.995  10.828
26752SOL    HW280283   5.100   8.134  10.744
26753SOL     OW80284   4.527   8.850  10.234
26753SOL    HW180285   4.617   8.864  10.192
26753SOL    HW280286   4.456   8.852  10.163
26754SOL     OW80287   4.646   7.951  10.209
26754SOL    HW180288   4.621   7.942  10.113
26754SOL    HW280289   4.694   7.869  10.240
26755SOL     OW80290   4.263   7.512   9.822
26755SOL    HW180291   4.182   7.513   9.880
26755SOL    HW280292   4.266   7.595   9.767
26756SOL     OW80293   5.158   8.636   9.351
26756SOL    HW180294   5.190   8.560   9.408
26756SOL    HW280295   5.066   8.663   9.381
26757SOL     OW80296   4.021   7.483   9.481
26757SOL    HW180297   4.070   7.567   9.460
26757SOL    HW280298   4.083   7.418   9.526
26758SOL     OW80299   4.659   7.684   9.790
26758SOL    HW180300   4.611   7.725   9.712
26758SOL    HW280301   4.758   7.682   9.771
26759SOL     OW80302   4.800   8.131  10.774
26759SOL    HW180303   4.720   8.070  10.777
26759SOL    HW280304   4.881   8.078  10.750
26760SOL     OW80305   4.951   9.018  10.103
26760SOL    HW180306   4.972   9.092  10.038
26760SOL    HW280307   5.019   9.018  10.176
26761SOL     OW80308   4.183   8.600  10.051
26761SOL    HW180309   4.112   8.573  10.116
26761SOL    HW280310   4.157   8.572   9.958
26762SOL     OW80311   4.995   9.245   9.901
26762SOL    HW180312   5.039   9.309   9.837
26762SOL    HW280313   4.945   9.297   9.971
26763SOL     OW80314   4.756   7.997   9.326
26763SOL    HW180315   4.715   8.079   9.287
26763SOL    HW280316   4.820   8.023   9.399
26764SOL     OW80317   3.802   8.004  10.696
26764SOL    HW180318   3.894   8.003  10.655
26764SOL    HW280319   3.796   8.078  10.763
26765SOL     OW80320   4.285   7.670  10.457
26765SOL    HW180321   4.323   7.586  10.494
26765SOL    HW280322   4.197   7.689  10.501
26766SOL     OW80323   4.590   7.902   9.952
26766SOL    HW180324   4.558   7.974   9.890
26766SOL    HW280325   4.614   7.821   9.899
26767SOL     OW80326   4.741   7.487  10.063
26767SOL    HW180327   4.669   7.492   9.994
26767SOL    HW280328   4.717   7.418  10.132
26768SOL     OW80329   5.153   8.621  10.177
26768SOL    HW180330   5.098   8.537  10.170
26768SOL    HW280331   5.179   8.650  10.085
26769SOL     OW80332   5.190   8.038  10.302
26769SOL    HW180333   5.160   7.943  10.309
26769SOL    HW280334   5.263   8.054  10.368
26770SOL     OW80335   5.581   8.281   9.687
26770SOL    HW180336   5.623   8.217   9.751
26770SOL    HW280337   5.543   8.230   9.609
26771SOL     OW80338   4.212   8.833   9.484
26771SOL    HW180339   4.125   8.818   9.531
26771SOL    HW280340   4.195   8.859   9.389
26772SOL     OW80341   5.388   8.728   9.967
26772SOL    HW180342   5.487   8.736   9.981
26772SOL    HW280343   5.343   8.812   9.998
26773SOL     OW80344   5.114   8.023   9.388
26773SOL    HW180345   5.060   8.002   9.469
26773SOL    HW280346   5.205   7.982   9.397
26774SOL     OW80347   4.251   7.704   9.638
26774SOL    HW180348   4.278   7.645   9.563
26774SOL    HW280349   4.251   7.799   9.607
26775SOL     OW80350   5.478   8.671  10.898
26775SOL    HW180351   5.569   8.632  10.885
26775SOL    HW280352   5.486   8.767  10.922
26776SOL     OW80353   4.788   8.795  10.650
26776SOL    HW180354   4.708   8.772  10.705
26776SOL    HW280355   4.871   8.769  10.699
26777SOL     OW80356   5.316   9.077  10.935
26777SOL    HW180357   5.343   9.111  10.845
26777SOL    HW280358   5.395   9.039  10.981
26778SOL     OW80359   4.835   8.643  10.410
26778SOL    HW180360   4.795   8.687  10.491
26778SOL    HW280361   4.794   8.680  10.327
26779SOL     OW80362   5.362   8.547  10.389
26779SOL    HW180363   5.367   8.628  10.448
26779SOL    HW280364   5.276   8.549  10.338
26780SOL     OW80365   4.639   7.537  10.712
26780SOL    HW180366   4.664   7.517  10.617
26780SOL    HW280367   4.711   7.593  10.754
26781SOL     OW80368   4.704   8.564  11.029
26781SOL    HW180369   4.605   8.570  11.039
26781SOL    HW280370   4.727   8.484  10.973
26782SOL     OW80371   4.429   8.498   9.678
26782SOL    HW180372   4.415   8.505   9.777
26782SOL    HW280373   4.513   8.447   9.660
26783SOL     OW80374   4.134   8.261  10.561
26783SOL    HW180375   4.220   8.273  10.611
26783SOL    HW280376   4.092   8.174  10.588
26784SOL     OW80377   4.998   7.834  10.572
26784SOL    HW180378   5.019   7.908  10.636
26784SOL    HW280379   4.909   7.851  10.529
26785SOL     OW80380   3.788   9.012  10.641
26785SOL    HW180381   3.742   9.094  10.607
26785SOL    HW280382   3.886   9.031  10.650
26786SOL     OW80383   4.091   8.548   9.811
26786SOL    HW180384   4.084   8.631   9.755
26786SOL    HW280385   4.095   8.468   9.751
26787SOL     OW80386   4.290   7.985  10.175
26787SOL    HW180387   4.302   8.051  10.101
26787SOL    HW280388   4.336   8.019  10.258
26788SOL     OW80389   4.976   8.796   9.698
26788SOL    HW180390   5.026   8.873   9.738
26788SOL    HW280391   4.881   8.798   9.730
26789SOL     OW80392   4.996   8.893  10.452
26789SOL    HW180393   5.043   8.906  10.539
26789SOL    HW280394   4.930   8.819  10.461
26790SOL     OW80395   5.306   8.087   9.782
26790SOL    HW180396   5.275   8.148   9.855
26790SOL    HW280397   5.356   8.139   9.713
26791SOL     OW80398   4.078   8.958  10.639
26791SOL    HW180399   4.057   8.914  10.552
26791SOL    HW280400   4.175   8.984  10.642
26792SOL     OW80401   4.126   8.199  10.908
26792SOL    HW180402   4.194   8.254  10.861
26792SOL    HW280403   4.166   8.111  10.935
26793SOL     OW80404   5.311   8.227  10.980
26793SOL    HW180405   5.219   8.265  10.975
26793SOL    HW280406   5.371   8.274  10.915
26794SOL     OW80407   4.737   7.553  11.080
26794SOL    HW180408   4.743   7.638  11.028
26794SOL    HW280409   4.769   7.477  11.023
26795SOL     OW80410   4.228   7.498  11.050
26795SOL    HW180411   4.186   7.441  10.980
26795SOL    HW280412   4.162   7.567  11.082
26796SOL     OW80413   4.297   8.318  10.339
26796SOL    HW180414   4.341   8.407  10.330
26796SOL    HW280415   4.234   8.318  10.416
26797SOL     OW80416   5.084   8.310  10.355
26797SOL    HW180417   5.009   8.310  10.289
26797SOL    HW280418   5.121   8.218  10.364
26798SOL     OW80419   4.933   7.973   9.585
26798SOL    HW180420   4.946   7.889   9.639
26798SOL    HW280421   4.904   8.047   9.645
26799SOL     OW80422   4.031   7.661  10.541
26799SOL    HW180423   4.008   7.698  10.631
26799SOL    HW280424   4.001   7.566  10.535
26800SOL     OW80425   3.761   8.758  10.592
26800SOL    HW180426   3.814   8.709  10.660
26800SOL    HW280427   3.783   8.856  10.597
26801SOL     OW80428   4.456   8.082  10.374
26801SOL    HW180429   4.515   8.056  10.298
26801SOL    HW280430   4.428   8.178  10.363
26802SOL     OW80431   5.452   8.383  11.164
26802SOL    HW180432   5.406   8.376  11.075
26802SOL    HW280433   5.390   8.427  11.230
26803SOL     OW80434   4.031   7.511   9.928
26803SOL    HW180435   4.020   7.605   9.961
26803SOL    HW280436   4.026   7.448  10.005
26804SOL     OW80437   5.346   7.815   9.684
26804SOL    HW180438   5.348   7.739   9.748
26804SOL    HW280439   5.298   7.892   9.724
26805SOL     OW80440   4.747   8.214  10.276
26805SOL    HW180441   4.762   8.235  10.372
26805SOL    HW280442   4.717   8.119  10.267
26806SOL     OW80443   4.704   9.021  11.010
26806SOL    HW180444   4.684   9.065  10.922
26806SOL    HW280445   4.743   8.930  10.994
26807SOL     OW80446   5.583   8.966  10.915
26807SOL    HW180447   5.597   8.993  10.820
26807SOL    HW280448   5.666   8.988  10.968
26808SOL     OW80449   4.074   8.346  11.114
26808SOL    HW180450   4.150   8.390  11.162
26808SOL    HW280451   4.109   8.299  11.032
26809SOL     OW80452   5.264   7.722   9.435
26809SOL    HW180453   5.203   7.647   9.458
26809SOL    HW280454   5.286   7.774   9.518
26810SOL     OW80455   5.027   8.286   9.352
26810SOL    HW180456   5.061   8.193   9.367
26810SOL    HW280457   5.045   8.313   9.257
26811SOL     OW80458   4.792   8.781  10.159
26811SOL    HW180459   4.799   8.697  10.104
26811SOL    HW280460   4.854   8.850  10.123
26812SOL     OW80461   4.043   8.258  10.259
26812SOL    HW180462   4.136   8.294  10.264
26812SOL    HW280463   4.037   8.173  10.311
26813SOL     OW80464   4.063   7.957  10.316
26813SOL    HW180465   4.011   7.874  10.299
26813SOL    HW280466   4.140   7.962  10.252
26814SOL     OW80467   4.862   7.828  10.988
26814SOL    HW180468   4.817   7.891  11.052
26814SOL    HW280469   4.955   7.859  10.971
26815SOL     OW80470   4.884   7.655  10.787
26815SOL    HW180471   4.884   7.719  10.864
26815SOL    HW280472   4.912   7.703  10.704
26816SOL     OW80473   3.732   8.774   9.510
26816SOL    HW180474   3.639   8.795   9.479
26816SOL    HW280475   3.742   8.675   9.523
26817SOL     OW80476   3.812   9.249  10.237
26817SOL    HW180477   3.770   9.163  10.210
26817SOL    HW280478   3.906   9.252  10.203
26818SOL     OW80479   4.228   9.016  10.220
26818SOL    HW180480   4.294   9.090  10.229
26818SOL    HW280481   4.272   8.937  10.178
26819SOL     OW80482   4.726   8.244  10.548
26819SOL    HW180483   4.767   8.212  10.634
26819SOL    HW280484   4.630   8.217  10.545
26820SOL     OW80485   3.764   7.992  10.424
26820SOL    HW180486   3.849   7.959  10.383
26820SOL    HW280487   3.777   8.007  10.522
26821SOL     OW80488   3.913   7.968  11.032
26821SOL    HW180489   3.972   7.928  10.962
26821SOL    HW280490   3.855   8.039  10.991
26822SOL     OW80491   5.093   8.398  10.970
26822SOL    HW180492   5.132   8.487  10.990
26822SOL    HW280493   5.103   8.378  10.873
26823SOL     OW80494   4.539   8.020   9.635
26823SOL    HW180495   4.546   7.931   9.589
26823SOL    HW280496   4.445   8.054   9.627
26824SOL     OW80497   5.381   8.052  10.516
26824SOL    HW180498   5.343   7.983  10.578
26824SOL    HW280499   5.463   8.016  10.472
26825SOL     OW80500   3.976   9.012  11.054
26825SOL    HW180501   3.946   9.069  11.130
26825SOL    HW280502   3.969   8.915  11.080
26826SOL     OW80503   4.395   7.912  10.579
26826SOL    HW180504   4.361   7.823  10.549
26826SOL    HW280505   4.421   7.966  10.499
26827SOL     OW80506   4.654   9.126  10.775
26827SOL    HW180507   4.630   9.108  10.680
26827SOL    HW280508   4.684   9.220  10.785
26828SOL     OW80509   4.197   7.948   9.501
26828SOL    HW180510   4.258   8.028   9.505
26828SOL    HW280511   4.102   7.979   9.508
26829SOL     OW80512   3.883   8.585  10.776
26829SOL    HW180513   3.905   8.524  10.852
26829SOL    HW280514   3.893   8.536  10.690
26830SOL     OW80515   5.071   8.507  10.544
26830SOL    HW180516   5.095   8.444  10.470
26830SOL    HW280517   4.981   8.547  10.526
26831SOL     OW80518   5.026   8.303   9.619
26831SOL    HW180519   4.940   8.272   9.661
26831SOL    HW280520   5.022   8.289   9.520
26832SOL     OW80521   5.483   9.195  10.464
26832SOL    HW180522   5.544   9.225  10.391
26832SOL    HW280523   5.445   9.106  10.442
26833SOL     OW80524   4.976   9.179  10.438
26833SOL    HW180525   5.060   9.184  10.384
26833SOL    HW280526   4.953   9.083  10.456
26834SOL     OW80527   3.807   8.706  10.332
26834SOL    HW180528   3.802   8.705  10.432
26834SOL    HW280529   3.724   8.665  10.294
26835SOL     OW80530   4.412   9.110  11.026
26835SOL    HW180531   4.356   9.191  11.035
26835SOL    HW280532   4.464   9.114  10.940
26836SOL     OW80533   5.450   7.583   9.833
26836SOL    HW180534   5.523   7.566   9.766
26836SOL    HW280535   5.419   7.496   9.871
26837SOL     OW80536   5.112   9.021   9.787
26837SOL    HW180537   5.179   9.033   9.713
26837SOL    HW280538   5.072   9.110   9.810
26838SOL     OW80539   3.854   9.242  11.161
26838SOL    HW180540   3.813   9.168  11.214
26838SOL    HW280541   3.918   9.293  11.219
26839SOL     OW80542   5.004   8.375   9.982
26839SOL    HW180543   5.064   8.294   9.984
26839SOL    HW280544   5.044   8.444   9.922
26840SOL     OW80545   4.554   8.721  10.732
26840SOL    HW180546   4.549   8.754  10.827
26840SOL    HW280547   4.468   8.740  10.686
26841SOL     OW80548   4.396   9.064   9.464
26841SOL    HW180549   4.405   9.074   9.365
26841SOL    HW280550   4.356   8.975   9.485
26842SOL     OW80551   5.374   9.168  10.704
26842SOL    HW180552   5.427   9.178  10.620
26842SOL    HW280553   5.347   9.258  10.738
26843SOL     OW80554   5.565   7.623  10.273
26843SOL    HW180555   5.604   7.538  10.237
26843SOL    HW280556   5.467   7.625  10.254
26844SOL     OW80557   3.987   7.774  10.030
26844SOL    HW180558   3.908   7.825   9.996
26844SOL    HW280559   3.978   7.759  10.128
26845SOL     OW80560   4.918   9.060   9.341
26845SOL    HW180561   4.924   8.967   9.378
26845SOL    HW280562   4.859   9.060   9.261
26846SOL     OW80563   4.546   8.450  10.682
26846SOL    HW180564   4.586   8.449  10.590
26846SOL    HW280565   4.556   8.542  10.722
26847SOL     OW80566   4.640   8.358   9.601
26847SOL    HW180567   4.703   8.396   9.533
26847SOL    HW280568   4.680   8.275   9.640
26848SOL     OW80569   5.228   9.055   9.354
26848SOL    HW180570   5.136   9.092   9.361
26848SOL    HW280571   5.266   9.075   9.264
26849SOL     OW80572   4.096   8.736  10.800
26849SOL    HW180573   4.083   8.829  10.766
26849SOL    HW280574   4.012   8.684  10.787
26850SOL     OW80575   5.338   8.740  10.599
26850SOL    HW180576   5.398   8.743  10.679
26850SOL    HW280577   5.263   8.804  10.612
26851SOL     OW80578   4.763   8.546  10.006
26851SOL    HW180579   4.693   8.499  10.060
26851SOL    HW280580   4.822   8.478   9.963
26852SOL     OW80581   4.738   7.684  10.281
26852SOL    HW180582   4.730   7.648  10.188
26852SOL    HW280583   4.736   7.608  10.346
26853SOL     OW80584   4.314   8.935   9.801
26853SOL    HW180585   4.356   8.877   9.731
26853SOL    HW280586   4.270   9.014   9.757
26854SOL     OW80587   5.433   7.833  10.691
26854SOL    HW180588   5.506   7.902  10.695
26854SOL    HW280589   5.461   7.758  10.632
26855SOL     OW80590   3.979   8.796   9.600
26855SOL    HW180591   3.883   8.797   9.573
26855SOL    HW280592   3.991   8.849   9.684
26856SOL     OW80593   3.829   8.461  11.036
26856SOL    HW180594   3.752   8.428  11.090
26856SOL    HW280595   3.914   8.431  11.078
26857SOL     OW80596   4.396   7.651  10.799
26857SOL    HW180597   4.486   7.635  10.759
26857SOL    HW280598   4.404   7.656  10.898
26858SOL     OW80599   3.799   7.793   9.343
26858SOL    HW180600   3.707   7.765   9.314
26858SOL    HW280601   3.830   7.870   9.287
26859SOL     OW80602   5.164   8.304  10.708
26859SOL    HW180603   5.107   8.356  10.645
26859SOL    HW280604   5.260   8.316  10.684
26860SOL     OW80605   3.796   7.614   9.628
26860SOL    HW180606   3.779   7.697   9.574
26860SOL    HW280607   3.886   7.577   9.606
26861SOL     OW80608   4.907   8.783   9.429
26861SOL    HW180609   4.808   8.772   9.431
26861SOL    HW280610   4.941   8.798   9.522
26862SOL     OW80611   4.337   8.290  10.741
26862SOL    HW180612   4.393   8.371  10.724
26862SOL    HW280613   4.396   8.210  10.744
26863SOL     OW80614   5.217   9.215  10.269
26863SOL    HW180615   5.250   9.279  10.200
26863SOL    HW280616   5.283   9.209  10.344
26864SOL     OW80617   4.440   8.013  11.018
26864SOL    HW180618   4.459   8.078  11.092
26864SOL    HW280619   4.500   7.933  11.027
26865SOL     OW80620   5.174   8.668  10.943
26865SOL    HW180621   5.165   8.658  11.042
26865SOL    HW280622   5.270   8.661  10.917
26866SOL     OW80623   4.114   9.189  10.870
26866SOL    HW180624   4.023   9.230  10.868
26866SOL    HW280625   4.107   9.095  10.902
26867SOL     OW80626   5.398   8.331  10.564
26867SOL    HW180627   5.371   8.242  10.527
26867SOL    HW280628   5.399   8.399  10.491
26868SOL     OW80629   4.949   7.773   9.759
26868SOL    HW180630   5.014   7.699   9.748
26868SOL    HW280631   4.969   7.823   9.843
26869SOL     OW80632   4.318   8.193   9.962
26869SOL    HW180633   4.368   8.278   9.943
26869SOL    HW280634   4.230   8.195   9.914
26870SOL     OW80635   5.501   7.790  10.952
26870SOL    HW180636   5.484   7.821  10.858
26870SOL    HW280637   5.417   7.753  10.990
26871SOL     OW80638   5.454   8.382  10.827
26871SOL    HW180639   5.492   8.473  10.842
26871SOL    HW280640   5.446   8.365  10.728
26872SOL     OW80641   4.583   8.822   9.326
26872SOL    HW180642   4.537   8.837   9.414
26872SOL    HW280643   4.627   8.907   9.296
26873SOL     OW80644   4.385   9.238  10.263
26873SOL    HW180645   4.339   9.326  10.250
26873SOL    HW280646   4.484   9.250  10.256
26874SOL     OW80647   4.583   8.404  10.171
26874SOL    HW180648   4.637   8.335  10.219
26874SOL    HW280649   4.551   8.473  10.237
26875SOL     OW80650   4.807   8.432   9.397
26875SOL    HW180651   4.784   8.485   9.315
26875SOL    HW280652   4.888   8.376   9.378
26876SOL     OW80653   5.585   9.017  10.161
26876SOL    HW180654   5.514   9.005  10.091
26876SOL    HW280655   5.586   8.938  10.221
26877SOL     OW80656   3.945   8.762  11.154
26877SOL    HW180657   3.880   8.689  11.133
26877SOL    HW280658   3.949   8.776  11.252
26878SOL     OW80659   3.803   8.688   9.963
26878SOL    HW180660   3.802   8.641  10.051
26878SOL    HW280661   3.885   8.660   9.912
26879SOL     OW80662   4.396   8.839  10.934
26879SOL    HW180663   4.318   8.789  10.972
26879SOL    HW280664   4.393   8.934  10.965
26880SOL     OW80665   5.548   7.640  10.537
26880SOL    HW180666   5.544   7.550  10.581
26880SOL    HW280667   5.551   7.629  10.438
26881SOL     OW80668   4.152   7.872   9.830
26881SOL    HW180669   4.182   7.800   9.768
26881SOL    HW280670   4.113   7.832   9.913
26882SOL     OW80671   5.429   8.935  10.414
26882SOL    HW180672   5.336   8.910  10.387
26882SOL    HW280673   5.455   8.885  10.496
26883SOL     OW80674   4.041   7.995  10.590
26883SOL    HW180675   4.079   7.936  10.662
26883SOL    HW280676   4.081   7.969  10.502
26884SOL     OW80677   4.536   9.034   9.997
26884SOL    HW180678   4.568   9.044   9.903
26884SOL    HW280679   4.457   8.972   9.999
26885SOL     OW80680   5.148   7.662  10.422
26885SOL    HW180681   5.200   7.597  10.477
26885SOL    HW280682   5.099   7.725  10.483
26886SOL     OW80683   4.725   7.482  10.464
26886SOL    HW180684   4.662   7.410  10.433
26886SOL    HW280685   4.818   7.446  10.464
26887SOL     OW80686   4.494   8.778   9.611
26887SOL    HW180687   4.448   8.691   9.628
26887SOL    HW280688   4.585   8.775   9.652
26888SOL     OW80689   4.342   9.015  10.594
26888SOL    HW180690   4.337   9.097  10.651
26888SOL    HW280691   4.431   9.012  10.549
26889SOL     OW80692   5.076   7.500   9.478
26889SOL    HW180693   5.111   7.459   9.394
26889SOL    HW280694   4.986   7.462   9.498
26890SOL     OW80695   5.024   7.901  10.001
26890SOL    HW180696   4.965   7.981  10.005
26890SOL    HW280697   5.039   7.866  10.094
26891SOL     OW80698   5.317   7.669  10.192
26891SOL    HW180699   5.233   7.668  10.246
26891SOL    HW280700   5.319   7.752  10.136
26892SOL     OW80701   3.763   8.525   9.610
26892SOL    HW180702   3.862   8.514   9.601
26892SOL    HW280703   3.723   8.439   9.642
26893SOL     OW80704   4.599   9.094   9.647
26893SOL    HW180705   4.522   9.059   9.593
26893SOL    HW280706   4.567   9.165   9.709
26894SOL     OW80707   3.954   8.076  11.285
26894SOL    HW180708   3.861   8.074  11.322
26894SOL    HW280709   3.955   8.037  11.193
26895SOL     OW80710   3.949   7.723  12.168
26895SOL    HW180711   3.984   7.706  12.260
26895SOL    HW280712   3.861   7.678  12.156
26896SOL     OW80713   3.743   7.816  11.819
26896SOL    HW180714   3.661   7.859  11.858
26896SOL    HW280715   3.715   7.743  11.756
26897SOL     OW80716   4.293   8.723  12.337
26897SOL    HW180717   4.200   8.716  12.300
26897SOL    HW280718   4.304   8.812  12.381
26898SOL     OW80719   5.279   8.959  11.875
26898SOL    HW180720   5.222   8.943  11.956
26898SOL    HW280721   5.220   8.969  11.795
26899SOL     OW80722   4.859   8.151  11.889
26899SOL    HW180723   4.916   8.229  11.864
26899SOL    HW280724   4.799   8.177  11.965
26900SOL     OW80725   5.479   8.055  11.403
26900SOL    HW180726   5.467   8.042  11.304
26900SOL    HW280727   5.449   7.974  11.452
26901SOL     OW80728   4.492   8.592  12.195
26901SOL    HW180729   4.414   8.609  12.255
26901SOL    HW280730   4.526   8.679  12.159
26902SOL     OW80731   4.409   8.460  11.837
26902SOL    HW180732   4.478   8.444  11.907
26902SOL    HW280733   4.336   8.517  11.875
26903SOL     OW80734   4.059   8.883  12.233
26903SOL    HW180735   3.981   8.852  12.180
26903SOL    HW280736   4.117   8.941  12.176
26904SOL     OW80737   5.184   8.953  12.511
26904SOL    HW180738   5.208   9.047  12.537
26904SOL    HW280739   5.168   8.899  12.593
26905SOL     OW80740   4.162   7.840  12.671
26905SOL    HW180741   4.244   7.784  12.680
26905SOL    HW280742   4.081   7.782  12.675
26906SOL     OW80743   5.327   7.895  11.909
26906SOL    HW180744   5.253   7.941  11.859
26906SOL    HW280745   5.378   7.963  11.962
26907SOL     OW80746   3.955   9.161  11.655
26907SOL    HW180747   3.989   9.238  11.709
26907SOL    HW280748   3.999   9.161  11.565
26908SOL     OW80749   3.954   8.882  11.710
26908SOL    HW180750   3.928   8.978  11.710
26908SOL    HW280751   3.883   8.828  11.755
26909SOL     OW80752   3.964   8.539  12.058
26909SOL    HW180753   3.978   8.455  12.110
26909SOL    HW280754   3.909   8.603  12.113
26910SOL     OW80755   4.344   9.234  12.611
26910SOL    HW180756   4.252   9.217  12.646
26910SOL    HW280757   4.372   9.326  12.637
26911SOL     OW80758   4.330   8.412  11.295
26911SOL    HW180759   4.337   8.496  11.241
26911SOL    HW280760   4.376   8.425  11.383
26912SOL     OW80761   5.318   7.562  12.652
26912SOL    HW180762   5.300   7.629  12.580
26912SOL    HW280763   5.315   7.608  12.741
26913SOL     OW80764   3.846   8.091  11.735
26913SOL    HW180765   3.801   8.003  11.752
26913SOL    HW280766   3.845   8.145  11.819
26914SOL     OW80767   5.566   9.215  11.531
26914SOL    HW180768   5.620   9.186  11.611
26914SOL    HW280769   5.596   9.305  11.502
26915SOL     OW80770   3.751   9.044  11.289
26915SOL    HW180771   3.732   8.948  11.310
26915SOL    HW280772   3.718   9.102  11.364
26916SOL     OW80773   5.413   8.370  11.784
26916SOL    HW180774   5.508   8.341  11.792
26916SOL    HW280775   5.405   8.435  11.709
26917SOL     OW80776   5.365   8.556  11.604
26917SOL    HW180777   5.451   8.558  11.552
26917SOL    HW280778   5.379   8.603  11.692
26918SOL     OW80779   4.337   8.813  11.898
26918SOL    HW180780   4.288   8.726  11.907
26918SOL    HW280781   4.314   8.856  11.811
26919SOL     OW80782   4.533   7.452  11.674
26919SOL    HW180783   4.573   7.543  11.665
26919SOL    HW280784   4.433   7.460  11.680
26920SOL     OW80785   3.921   8.424  12.436
26920SOL    HW180786   4.010   8.379  12.422
26920SOL    HW280787   3.848   8.359  12.417
26921SOL     OW80788   5.249   8.447  11.362
26921SOL    HW180789   5.186   8.371  11.375
26921SOL    HW280790   5.297   8.465  11.448
26922SOL     OW80791   4.041   7.699  12.973
26922SOL    HW180792   4.112   7.770  12.979
26922SOL    HW280793   3.953   7.738  13.001
26923SOL     OW80794   5.190   8.865  12.125
26923SOL    HW180795   5.131   8.871  12.205
26923SOL    HW280796   5.175   8.777  12.079
26924SOL     OW80797   5.391   9.162  11.744
26924SOL    HW180798   5.350   9.139  11.656
26924SOL    HW280799   5.373   9.088  11.809
26925SOL     OW80800   4.322   8.177  11.442
26925SOL    HW180801   4.346   8.246  11.374
26925SOL    HW280802   4.244   8.210  11.496
26926SOL     OW80803   5.005   7.793  12.116
26926SOL    HW180804   4.919   7.743  12.103
26926SOL    HW280805   5.067   7.739  12.172
26927SOL     OW80806   5.300   9.110  11.479
26927SOL    HW180807   5.389   9.156  11.482
26927SOL    HW280808   5.279   9.086  11.384
26928SOL     OW80809   4.531   8.053  12.637
26928SOL    HW180810   4.484   8.050  12.726
26928SOL    HW280811   4.480   7.998  12.571
26929SOL     OW80812   4.715   7.858  12.414
26929SOL    HW180813   4.638   7.892  12.468
26929SOL    HW280814   4.681   7.807  12.335
26930SOL     OW80815   4.765   8.149  11.601
26930SOL    HW180816   4.791   8.145  11.697
26930SOL    HW280817   4.680   8.098  11.587
26931SOL     OW80818   3.800   8.259  11.961
26931SOL    HW180819   3.899   8.247  11.970
26931SOL    HW280820   3.776   8.354  11.982
26932SOL     OW80821   3.854   9.269  12.743
26932SOL    HW180822   3.844   9.254  12.842
26932SOL    HW280823   3.768   9.305  12.707
26933SOL     OW80824   4.589   7.796  11.367
26933SOL    HW180825   4.648   7.859  11.318
26933SOL    HW280826   4.608   7.702  11.338
26934SOL     OW80827   5.086   8.592  11.717
26934SOL    HW180828   5.169   8.563  11.669
26934SOL    HW280829   5.037   8.659  11.661
26935SOL     OW80830   4.274   7.644  12.057
26935SOL    HW180831   4.269   7.639  12.157
26935SOL    HW280832   4.276   7.740  12.028
26936SOL     OW80833   4.732   8.904  11.649
26936SOL    HW180834   4.686   8.976  11.597
26936SOL    HW280835   4.728   8.924  11.747
26937SOL     OW80836   4.075   9.249  12.025
26937SOL    HW180837   4.125   9.163  12.031
26937SOL    HW280838   4.140   9.326  12.022
26938SOL     OW80839   5.519   8.514  12.045
26938SOL    HW180840   5.457   8.499  11.969
26938SOL    HW280841   5.467   8.525  12.130
26939SOL     OW80842   4.045   8.391  11.414
26939SOL    HW180843   4.127   8.430  11.372
26939SOL    HW280844   4.018   8.309  11.365
26940SOL     OW80845   5.182   8.183  11.900
26940SOL    HW180846   5.177   8.118  11.975
26940SOL    HW280847   5.262   8.242  11.913
26941SOL     OW80848   4.835   9.224  11.409
26941SOL    HW180849   4.775   9.162  11.459
26941SOL    HW280850   4.866   9.180  11.324
26942SOL     OW80851   3.926   7.733  12.670
26942SOL    HW180852   3.846   7.793  12.657
26942SOL    HW280853   3.916   7.684  12.756
26943SOL     OW80854   5.356   8.825  11.253
26943SOL    HW180855   5.324   8.919  11.243
26943SOL    HW280856   5.280   8.762  11.241
26944SOL     OW80857   4.188   9.191  11.495
26944SOL    HW180858   4.221   9.230  11.581
26944SOL    HW280859   4.264   9.184  11.430
26945SOL     OW80860   5.124   7.555  11.598
26945SOL    HW180861   5.100   7.518  11.508
26945SOL    HW280862   5.223   7.571  11.602
26946SOL     OW80863   3.973   9.233  12.413
26946SOL    HW180864   4.030   9.168  12.463
26946SOL    HW280865   3.957   9.200  12.320
26947SOL     OW80866   4.664   9.146  12.076
26947SOL    HW180867   4.744   9.089  12.097
26947SOL    HW280868   4.615   9.106  11.999
26948SOL     OW80869   4.106   8.148  11.652
26948SOL    HW180870   4.151   8.058  11.649
26948SOL    HW280871   4.012   8.137  11.685
26949SOL     OW80872   4.338   7.570  11.289
26949SOL    HW180873   4.436   7.548  11.296
26949SOL    HW280874   4.307   7.553  11.196
26950SOL     OW80875   4.612   8.962  12.367
26950SOL    HW180876   4.589   8.937  12.273
26950SOL    HW280877   4.673   8.893  12.406
26951SOL     OW80878   4.527   8.850  12.096
26951SOL    HW180879   4.617   8.864  12.054
26951SOL    HW280880   4.456   8.852  12.025
26952SOL     OW80881   4.646   7.951  12.071
26952SOL    HW180882   4.621   7.942  11.975
26952SOL    HW280883   4.694   7.869  12.102
26953SOL     OW80884   4.263   7.512  11.684
26953SOL    HW180885   4.182   7.513  11.742
26953SOL    HW280886   4.266   7.595  11.629
26954SOL     OW80887   5.158   8.636  11.213
26954SOL    HW180888   5.190   8.560  11.270
26954SOL    HW280889   5.066   8.663  11.243
26955SOL     OW80890   4.021   7.483  11.343
26955SOL    HW180891   4.070   7.567  11.322
26955SOL    HW280892   4.083   7.418  11.388
26956SOL     OW80893   4.659   7.684  11.652
26956SOL    HW180894   4.611   7.725  11.574
26956SOL    HW280895   4.758   7.682  11.633
26957SOL     OW80896   4.951   9.018  11.965
26957SOL    HW180897   4.972   9.092  11.900
26957SOL    HW280898   5.019   9.018  12.038
26958SOL     OW80899   4.183   8.600  11.913
26958SOL    HW180900   4.112   8.573  11.978
26958SOL    HW280901   4.157   8.572  11.820
26959SOL     OW80902   4.995   9.245  11.763
26959SOL    HW180903   5.039   9.309  11.699
26959SOL    HW280904   4.945   9.297  11.833
26960SOL     OW80905   4.756   7.997  11.188
26960SOL    HW180906   4.715   8.079  11.149
26960SOL    HW280907   4.820   8.023  11.261
26961SOL     OW80908   3.802   8.004  12.558
26961SOL    HW180909   3.894   8.003  12.517
26961SOL    HW280910   3.796   8.078  12.625
26962SOL     OW80911   4.285   7.670  12.319
26962SOL    HW180912   4.323   7.586  12.356
26962SOL    HW280913   4.197   7.689  12.363
26963SOL     OW80914   4.590   7.902  11.814
26963SOL    HW180915   4.558   7.974  11.752
26963SOL    HW280916   4.614   7.821  11.761
26964SOL     OW80917   4.741   7.487  11.925
26964SOL    HW180918   4.669   7.492  11.856
26964SOL    HW280919   4.717   7.418  11.994
26965SOL     OW80920   5.153   8.621  12.039
26965SOL    HW180921   5.098   8.537  12.032
26965SOL    HW280922   5.179   8.650  11.947
26966SOL     OW80923   5.190   8.038  12.164
26966SOL    HW180924   5.160   7.943  12.171
26966SOL    HW280925   5.263   8.054  12.230
26967SOL     OW80926   5.581   8.281  11.549
26967SOL    HW180927   5.623   8.217  11.613
26967SOL    HW280928   5.543   8.230  11.471
26968SOL     OW80929   4.212   8.833  11.346
26968SOL    HW180930   4.125   8.818  11.393
26968SOL    HW280931   4.195   8.859  11.251
26969SOL     OW80932   5.388   8.728  11.829
26969SOL    HW180933   5.487   8.736  11.843
26969SOL    HW280934   5.343   8.812  11.860
26970SOL     OW80935   5.114   8.023  11.250
26970SOL    HW180936   5.060   8.002  11.331
26970SOL    HW280937   5.205   7.982  11.259
26971SOL     OW80938   4.251   7.704  11.500
26971SOL    HW180939   4.278   7.645  11.425
26971SOL    HW280940   4.251   7.799  11.469
26972SOL     OW80941   4.788   8.795  12.512
26972SOL    HW180942   4.708   8.772  12.567
26972SOL    HW280943   4.871   8.769  12.561
26973SOL     OW80944   4.835   8.643  12.272
26973SOL    HW180945   4.795   8.687  12.353
26973SOL    HW280946   4.794   8.680  12.189
26974SOL     OW80947   5.362   8.547  12.251
26974SOL    HW180948   5.367   8.628  12.310
26974SOL    HW280949   5.276   8.549  12.200
26975SOL     OW80950   4.639   7.537  12.574
26975SOL    HW180951   4.664   7.517  12.479
26975SOL    HW280952   4.711   7.593  12.616
26976SOL     OW80953   4.429   8.498  11.540
26976SOL    HW180954   4.415   8.505  11.639
26976SOL    HW280955   4.513   8.447  11.522
26977SOL     OW80956   4.134   8.261  12.423
26977SOL    HW180957   4.220   8.273  12.473
26977SOL    HW280958   4.092   8.174  12.450
26978SOL     OW80959   4.998   7.834  12.434
26978SOL    HW180960   5.019   7.908  12.498
26978SOL    HW280961   4.909   7.851  12.391
26979SOL     OW80962   3.788   9.012  12.503
26979SOL    HW180963   3.742   9.094  12.469
26979SOL    HW280964   3.886   9.031  12.512
26980SOL     OW80965   4.091   8.548  11.673
26980SOL    HW180966   4.084   8.631  11.617
26980SOL    HW280967   4.095   8.468  11.613
26981SOL     OW80968   4.290   7.985  12.037
26981SOL    HW180969   4.302   8.051  11.963
26981SOL    HW280970   4.336   8.019  12.120
26982SOL     OW80971   4.976   8.796  11.560
26982SOL    HW180972   5.026   8.873  11.600
26982SOL    HW280973   4.881   8.798  11.592
26983SOL     OW80974   4.996   8.893  12.314
26983SOL    HW180975   5.043   8.906  12.401
26983SOL    HW280976   4.930   8.819  12.323
26984SOL     OW80977   5.306   8.087  11.644
26984SOL    HW180978   5.275   8.148  11.717
26984SOL    HW280979   5.356   8.139  11.575
26985SOL     OW80980   4.078   8.958  12.501
26985SOL    HW180981   4.057   8.914  12.414
26985SOL    HW280982   4.175   8.984  12.504
26986SOL     OW80983   4.126   8.199  12.770
26986SOL    HW180984   4.194   8.254  12.723
26986SOL    HW280985   4.166   8.111  12.797
26987SOL     OW80986   5.311   8.227  12.842
26987SOL    HW180987   5.219   8.265  12.837
26987SOL    HW280988   5.371   8.274  12.777
26988SOL     OW80989   4.297   8.318  12.201
26988SOL    HW180990   4.341   8.407  12.192
26988SOL    HW280991   4.234   8.318  12.278
26989SOL     OW80992   5.084   8.310  12.217
26989SOL    HW180993   5.009   8.310  12.151
26989SOL    HW280994   5.121   8.218  12.226
26990SOL     OW80995   4.933   7.973  11.447
26990SOL    HW180996   4.946   7.889  11.501
26990SOL    HW280997   4.904   8.047  11.507
26991SOL     OW80998   4.031   7.661  12.403
26991SOL    HW180999   4.008   7.698  12.493
26991SOL    HW281000   4.001   7.566  12.397
26992SOL     OW81001   3.761   8.758  12.454
26992SOL    HW181002   3.814   8.709  12.522
26992SOL    HW281003   3.783   8.856  12.459
26993SOL     OW81004   4.456   8.082  12.236
26993SOL    HW181005   4.515   8.056  12.160
26993SOL    HW281006   4.428   8.178  12.225
26994SOL     OW81007   4.031   7.511  11.790
26994SOL    HW181008   4.020   7.605  11.823
26994SOL    HW281009   4.026   7.448  11.867
26995SOL     OW81010   5.346   7.815  11.546
26995SOL    HW181011   5.348   7.739  11.610
26995SOL    HW281012   5.298   7.892  11.586
26996SOL     OW81013   4.747   8.214  12.138
26996SOL    HW181014   4.762   8.235  12.234
26996SOL    HW281015   4.717   8.119  12.129
26997SOL     OW81016   4.704   9.021  12.872
26997SOL    HW181017   4.684   9.065  12.784
26997SOL    HW281018   4.743   8.930  12.856
26998SOL     OW81019   5.264   7.722  11.297
26998SOL    HW181020   5.203   7.647  11.320
26998SOL    HW281021   5.286   7.774  11.380
26999SOL     OW81022   5.027   8.286  11.214
26999SOL    HW181023   5.061   8.193  11.229
26999SOL    HW281024   5.045   8.313  11.119
27000SOL     OW81025   4.792   8.781  12.021
27000SOL    HW181026   4.799   8.697  11.966
27000SOL    HW281027   4.854   8.850  11.985
27001SOL     OW81028   4.043   8.258  12.121
27001SOL    HW181029   4.136   8.294  12.126
27001SOL    HW281030   4.037   8.173  12.173
27002SOL     OW81031   4.063   7.957  12.178
27002SOL    HW181032   4.011   7.874  12.161
27002SOL    HW281033   4.140   7.962  12.114
27003SOL     OW81034   4.862   7.828  12.850
27003SOL    HW181035   4.817   7.891  12.914
27003SOL    HW281036   4.955   7.859  12.833
27004SOL     OW81037   4.884   7.655  12.649
27004SOL    HW181038   4.884   7.719  12.726
27004SOL    HW281039   4.912   7.703  12.566
27005SOL     OW81040   3.732   8.774  11.372
27005SOL    HW181041   3.639   8.795  11.341
27005SOL    HW281042   3.742   8.675  11.385
27006SOL     OW81043   3.812   9.249  12.099
27006SOL    HW181044   3.770   9.163  12.072
27006SOL    HW281045   3.906   9.252  12.065
27007SOL     OW81046   4.228   9.016  12.082
27007SOL    HW181047   4.294   9.090  12.091
27007SOL    HW281048   4.272   8.937  12.040
27008SOL     OW81049   4.726   8.244  12.410
27008SOL    HW181050   4.767   8.212  12.496
27008SOL    HW281051   4.630   8.217  12.407
27009SOL     OW81052   3.764   7.992  12.286
27009SOL    HW181053   3.849   7.959  12.245
27009SOL    HW281054   3.777   8.007  12.384
27010SOL     OW81055   4.539   8.020  11.497
27010SOL    HW181056   4.546   7.931  11.451
27010SOL    HW281057   4.445   8.054  11.489
27011SOL     OW81058   5.381   8.052  12.378
27011SOL    HW181059   5.343   7.983  12.440
27011SOL    HW281060   5.463   8.016  12.334
27012SOL     OW81061   4.395   7.912  12.441
27012SOL    HW181062   4.361   7.823  12.411
27012SOL    HW281063   4.421   7.966  12.361
27013SOL     OW81064   4.654   9.126  12.637
27013SOL    HW181065   4.630   9.108  12.542
27013SOL    HW281066   4.684   9.220  12.647
27014SOL     OW81067   4.197   7.948  11.363
27014SOL    HW181068   4.258   8.028  11.367
27014SOL    HW281069   4.102   7.979  11.370
27015SOL     OW81070   3.883   8.585  12.638
27015SOL    HW181071   3.905   8.524  12.714
27015SOL    HW281072   3.893   8.536  12.552
27016SOL     OW81073   5.071   8.507  12.406
27016SOL    HW181074   5.095   8.444  12.332
27016SOL    HW281075   4.981   8.547  12.388
27017SOL     OW81076   5.026   8.303  11.481
27017SOL    HW181077   4.940   8.272  11.523
27017SOL    HW281078   5.022   8.289  11.382
27018SOL     OW81079   5.483   9.195  12.326
27018SOL    HW181080   5.544   9.225  12.253
27018SOL    HW281081   5.445   9.106  12.304
27019SOL     OW81082   4.976   9.179  12.300
27019SOL    HW181083   5.060   9.184  12.246
27019SOL    HW281084   4.953   9.083  12.318
27020SOL     OW81085   3.807   8.706  12.194
27020SOL    HW181086   3.802   8.705  12.294
27020SOL    HW281087   3.724   8.665  12.156
27021SOL     OW81088   5.450   7.583  11.695
27021SOL    HW181089   5.523   7.566  11.628
27021SOL    HW281090   5.419   7.496  11.733
27022SOL     OW81091   5.112   9.021  11.649
27022SOL    HW181092   5.179   9.033  11.575
27022SOL    HW281093   5.072   9.110  11.672
27023SOL     OW81094   5.004   8.375  11.844
27023SOL    HW181095   5.064   8.294  11.846
27023SOL    HW281096   5.044   8.444  11.784
27024SOL     OW81097   4.396   9.064  11.326
27024SOL    HW181098   4.405   9.074  11.227
27024SOL    HW281099   4.356   8.975  11.347
27025SOL     OW81100   5.374   9.168  12.566
27025SOL    HW181101   5.427   9.178  12.482
27025SOL    HW281102   5.347   9.258  12.600
27026SOL     OW81103   5.565   7.623  12.135
27026SOL    HW181104   5.604   7.538  12.099
27026SOL    HW281105   5.467   7.625  12.116
27027SOL     OW81106   3.987   7.774  11.892
27027SOL    HW181107   3.908   7.825  11.858
27027SOL    HW281108   3.978   7.759  11.990
27028SOL     OW81109   4.918   9.060  11.203
27028SOL    HW181110   4.924   8.967  11.240
27028SOL    HW281111   4.859   9.060  11.123
27029SOL     OW81112   4.546   8.450  12.544
27029SOL    HW181113   4.586   8.449  12.452
27029SOL    HW281114   4.556   8.542  12.584
27030SOL     OW81115   4.640   8.358  11.463
27030SOL    HW181116   4.703   8.396  11.395
27030SOL    HW281117   4.680   8.275  11.502
27031SOL     OW81118   5.228   9.055  11.216
27031SOL    HW181119   5.136   9.092  11.223
27031SOL    HW281120   5.266   9.075  11.126
27032SOL     OW81121   4.096   8.736  12.662
27032SOL    HW181122   4.083   8.829  12.628
27032SOL    HW281123   4.012   8.684  12.649
27033SOL     OW81124   5.338   8.740  12.461
27033SOL    HW181125   5.398   8.743  12.541
27033SOL    HW281126   5.263   8.804  12.474
27034SOL     OW81127   4.763   8.546  11.868
27034SOL    HW181128   4.693   8.499  11.922
27034SOL    HW281129   4.822   8.478  11.825
27035SOL     OW81130   4.738   7.684  12.143
27035SOL    HW181131   4.730   7.648  12.050
27035SOL    HW281132   4.736   7.608  12.208
27036SOL     OW81133   4.314   8.935  11.663
27036SOL    HW181134   4.356   8.877  11.593
27036SOL    HW281135   4.270   9.014  11.619
27037SOL     OW81136   5.433   7.833  12.553
27037SOL    HW181137   5.506   7.902  12.557
27037SOL    HW281138   5.461   7.758  12.494
27038SOL     OW81139   3.979   8.796  11.462
27038SOL    HW181140   3.883   8.797  11.435
27038SOL    HW281141   3.991   8.849  11.546
27039SOL     OW81142   3.799   7.793  11.205
27039SOL    HW181143   3.707   7.765  11.176
27039SOL    HW281144   3.830   7.870  11.149
27040SOL     OW81145   5.164   8.304  12.570
27040SOL    HW181146   5.107   8.356  12.507
27040SOL    HW281147   5.260   8.316  12.546
27041SOL     OW81148   3.796   7.614  11.490
27041SOL    HW181149   3.779   7.697  11.436
27041SOL    HW281150   3.886   7.577  11.468
27042SOL     OW81151   4.907   8.783  11.291
27042SOL    HW181152   4.808   8.772  11.293
27042SOL    HW281153   4.941   8.798  11.384
27043SOL     OW81154   4.337   8.290  12.603
27043SOL    HW181155   4.393   8.371  12.586
27043SOL    HW281156   4.396   8.210  12.606
27044SOL     OW81157   5.217   9.215  12.131
27044SOL    HW181158   5.250   9.279  12.062
27044SOL    HW281159   5.283   9.209  12.206
27045SOL     OW81160   4.114   9.189  12.732
27045SOL    HW181161   4.023   9.230  12.730
27045SOL    HW281162   4.107   9.095  12.764
27046SOL     OW81163   5.398   8.331  12.426
27046SOL    HW181164   5.371   8.242  12.389
27046SOL    HW281165   5.399   8.399  12.353
27047SOL     OW81166   4.949   7.773  11.621
27047SOL    HW181167   5.014   7.699  11.610
27047SOL    HW281168   4.969   7.823  11.705
27048SOL     OW81169   4.318   8.193  11.824
27048SOL    HW181170   4.368   8.278  11.805
27048SOL    HW281171   4.230   8.195  11.776
27049SOL     OW81172   5.501   7.790  12.814
27049SOL    HW181173   5.484   7.821  12.720
27049SOL    HW281174   5.417   7.753  12.852
27050SOL     OW81175   5.454   8.382  12.689
27050SOL    HW181176   5.492   8.473  12.704
27050SOL    HW281177   5.446   8.365  12.590
27051SOL     OW81178   4.583   8.822  11.188
27051SOL    HW181179   4.537   8.837  11.276
27051SOL    HW281180   4.627   8.907  11.158
27052SOL     OW81181   4.385   9.238  12.125
27052SOL    HW181182   4.339   9.326  12.112
27052SOL    HW281183   4.484   9.250  12.118
27053SOL     OW81184   4.583   8.404  12.033
27053SOL    HW181185   4.637   8.335  12.081
27053SOL    HW281186   4.551   8.473  12.099
27054SOL     OW81187   4.807   8.432  11.259
27054SOL    HW181188   4.784   8.485  11.177
27054SOL    HW281189   4.888   8.376  11.240
27055SOL     OW81190   5.585   9.017  12.023
27055SOL    HW181191   5.514   9.005  11.953
27055SOL    HW281192   5.586   8.938  12.083
27056SOL     OW81193   3.803   8.688  11.825
27056SOL    HW181194   3.802   8.641  11.913
27056SOL    HW281195   3.885   8.660  11.774
27057SOL     OW81196   5.548   7.640  12.399
27057SOL    HW181197   5.544   7.550  12.443
27057SOL    HW281198   5.551   7.629  12.300
27058SOL     OW81199   4.152   7.872  11.692
27058SOL    HW181200   4.182   7.800  11.630
27058SOL    HW281201   4.113   7.832  11.775
27059SOL     OW81202   5.429   8.935  12.276
27059SOL    HW181203   5.336   8.910  12.249
27059SOL    HW281204   5.455   8.885  12.358
27060SOL     OW81205   4.041   7.995  12.452
27060SOL    HW181206   4.079   7.936  12.524
27060SOL    HW281207   4.081   7.969  12.364
27061SOL     OW81208   4.536   9.034  11.859
27061SOL    HW181209   4.568   9.044  11.765
27061SOL    HW281210   4.457   8.972  11.861
27062SOL     OW81211   5.148   7.662  12.284
27062SOL    HW181212   5.200   7.597  12.339
27062SOL    HW281213   5.099   7.725  12.345
27063SOL     OW81214   4.725   7.482  12.326
27063SOL    HW181215   4.662   7.410  12.295
27063SOL    HW281216   4.818   7.446  12.326
27064SOL     OW81217   4.494   8.778  11.473
27064SOL    HW181218   4.448   8.691  11.490
27064SOL    HW281219   4.585   8.775  11.514
27065SOL     OW81220   4.342   9.015  12.456
27065SOL    HW181221   4.337   9.097  12.513
27065SOL    HW281222   4.431   9.012  12.411
27066SOL     OW81223   5.076   7.500  11.340
27066SOL    HW181224   5.111   7.459  11.256
27066SOL    HW281225   4.986   7.462  11.360
27067SOL     OW81226   5.024   7.901  11.863
27067SOL    HW181227   4.965   7.981  11.867
27067SOL    HW281228   5.039   7.866  11.956
27068SOL     OW81229   5.317   7.669  12.054
27068SOL    HW181230   5.233   7.668  12.108
27068SOL    HW281231   5.319   7.752  11.998
27069SOL     OW81232   3.763   8.525  11.472
27069SOL    HW181233   3.862   8.514  11.463
27069SOL    HW281234   3.723   8.439  11.504
27070SOL     OW81235   4.599   9.094  11.509
27070SOL    HW181236   4.522   9.059  11.455
27070SOL    HW281237   4.567   9.165  11.571
27071SOL     OW81238   3.954   9.938   0.113
27071SOL    HW181239   3.861   9.936   0.150
27071SOL    HW281240   3.955   9.899   0.021
27072SOL     OW81241   3.949   9.585   0.996
27072SOL    HW181242   3.984   9.568   1.088
27072SOL    HW281243   3.861   9.540   0.984
27073SOL     OW81244   3.743   9.678   0.647
27073SOL    HW181245   3.661   9.721   0.686
27073SOL    HW281246   3.715   9.605   0.584
27074SOL     OW81247   4.293  10.585   1.165
27074SOL    HW181248   4.200  10.578   1.128
27074SOL    HW281249   4.304  10.674   1.209
27075SOL     OW81250   5.279  10.821   0.703
27075SOL    HW181251   5.222  10.805   0.784
27075SOL    HW281252   5.220  10.831   0.623
27076SOL     OW81253   4.859  10.013   0.717
27076SOL    HW181254   4.916  10.091   0.692
27076SOL    HW281255   4.799  10.039   0.793
27077SOL     OW81256   5.479   9.917   0.231
27077SOL    HW181257   5.467   9.904   0.132
27077SOL    HW281258   5.449   9.836   0.280
27078SOL     OW81259   4.492  10.454   1.023
27078SOL    HW181260   4.414  10.471   1.083
27078SOL    HW281261   4.526  10.541   0.987
27079SOL     OW81262   4.574  10.108   1.823
27079SOL    HW181263   4.570  10.184   1.888
27079SOL    HW281264   4.596  10.144   1.732
27080SOL     OW81265   4.409  10.322   0.665
27080SOL    HW181266   4.478  10.306   0.735
27080SOL    HW281267   4.336  10.379   0.703
27081SOL     OW81268   4.410  10.471   1.803
27081SOL    HW181269   4.470  10.550   1.817
27081SOL    HW281270   4.324  10.502   1.762
27082SOL     OW81271   4.059  10.745   1.061
27082SOL    HW181272   3.981  10.714   1.008
27082SOL    HW281273   4.117  10.803   1.004
27083SOL     OW81274   5.184  10.815   1.339
27083SOL    HW181275   5.208  10.909   1.365
27083SOL    HW281276   5.168  10.761   1.421
27084SOL     OW81277   4.162   9.702   1.499
27084SOL    HW181278   4.244   9.646   1.508
27084SOL    HW281279   4.081   9.644   1.503
27085SOL     OW81280   5.327   9.757   0.737
27085SOL    HW181281   5.253   9.803   0.687
27085SOL    HW281282   5.378   9.825   0.790
27086SOL     OW81283   3.955  11.023   0.483
27086SOL    HW181284   3.989  11.100   0.537
27086SOL    HW281285   3.999  11.023   0.393
27087SOL     OW81286   4.851  10.651   1.690
27087SOL    HW181287   4.898  10.651   1.778
27087SOL    HW281288   4.803  10.564   1.679
27088SOL     OW81289   3.954  10.744   0.538
27088SOL    HW181290   3.928  10.840   0.538
27088SOL    HW281291   3.883  10.690   0.583
27089SOL     OW81292   3.964  10.401   0.886
27089SOL    HW181293   3.978  10.317   0.938
27089SOL    HW281294   3.909  10.465   0.941
27090SOL     OW81295   4.344  11.096   1.439
27090SOL    HW181296   4.252  11.079   1.474
27090SOL    HW281297   4.372  11.188   1.465
27091SOL     OW81298   4.330  10.274   0.123
27091SOL    HW181299   4.337  10.358   0.069
27091SOL    HW281300   4.376  10.287   0.211
27092SOL     OW81301   5.318   9.424   1.480
27092SOL    HW181302   5.300   9.491   1.408
27092SOL    HW281303   5.315   9.470   1.569
27093SOL     OW81304   3.846   9.953   0.563
27093SOL    HW181305   3.801   9.865   0.580
27093SOL    HW281306   3.845  10.007   0.647
27094SOL     OW81307   5.566  11.077   0.359
27094SOL    HW181308   5.620  11.048   0.439
27094SOL    HW281309   5.596  11.167   0.330
27095SOL     OW81310   3.751  10.906   0.117
27095SOL    HW181311   3.732  10.810   0.138
27095SOL    HW281312   3.718  10.964   0.192
27096SOL     OW81313   5.413  10.232   0.612
27096SOL    HW181314   5.508  10.203   0.620
27096SOL    HW281315   5.405  10.297   0.537
27097SOL     OW81316   5.365  10.418   0.432
27097SOL    HW181317   5.451  10.420   0.380
27097SOL    HW281318   5.379  10.465   0.520
27098SOL     OW81319   3.837  10.047   1.597
27098SOL    HW181320   3.925  10.034   1.642
27098SOL    HW281321   3.824  10.144   1.575
27099SOL     OW81322   4.337  10.675   0.726
27099SOL    HW181323   4.288  10.588   0.735
27099SOL    HW281324   4.314  10.718   0.639
27100SOL     OW81325   5.017  10.538   1.423
27100SOL    HW181326   5.054  10.465   1.365
27100SOL    HW281327   5.069  10.543   1.508
27101SOL     OW81328   4.533   9.314   0.502
27101SOL    HW181329   4.573   9.405   0.493
27101SOL    HW281330   4.433   9.322   0.508
27102SOL     OW81331   3.921  10.286   1.264
27102SOL    HW181332   4.010  10.241   1.250
27102SOL    HW281333   3.848  10.221   1.245
27103SOL     OW81334   5.249  10.309   0.190
27103SOL    HW181335   5.186  10.233   0.203
27103SOL    HW281336   5.297  10.327   0.276
27104SOL     OW81337   4.911  11.102   1.616
27104SOL    HW181338   4.935  11.162   1.540
27104SOL    HW281339   4.918  11.007   1.586
27105SOL     OW81340   4.041   9.561   1.801
27105SOL    HW181341   4.112   9.632   1.807
27105SOL    HW281342   3.953   9.600   1.829
27106SOL     OW81343   5.190  10.727   0.953
27106SOL    HW181344   5.131  10.733   1.033
27106SOL    HW281345   5.175  10.639   0.907
27107SOL     OW81346   5.391  11.024   0.572
27107SOL    HW181347   5.350  11.001   0.484
27107SOL    HW281348   5.373  10.950   0.637
27108SOL     OW81349   4.322  10.039   0.270
27108SOL    HW181350   4.346  10.108   0.202
27108SOL    HW281351   4.244  10.072   0.324
27109SOL     OW81352   5.005   9.655   0.944
27109SOL    HW181353   4.919   9.605   0.931
27109SOL    HW281354   5.067   9.601   1.000
27110SOL     OW81355   5.300  10.972   0.307
27110SOL    HW181356   5.389  11.018   0.310
27110SOL    HW281357   5.279  10.948   0.212
27111SOL     OW81358   4.531   9.915   1.465
27111SOL    HW181359   4.484   9.912   1.554
27111SOL    HW281360   4.480   9.860   1.399
27112SOL     OW81361   5.118   9.779   1.674
27112SOL    HW181362   5.098   9.822   1.762
27112SOL    HW281363   5.196   9.717   1.683
27113SOL     OW81364   4.697  10.200   1.572
27113SOL    HW181365   4.743  10.116   1.543
27113SOL    HW281366   4.641  10.234   1.497
27114SOL     OW81367   4.715   9.720   1.242
27114SOL    HW181368   4.638   9.754   1.296
27114SOL    HW281369   4.681   9.669   1.163
27115SOL     OW81370   4.765  10.011   0.429
27115SOL    HW181371   4.791  10.007   0.525
27115SOL    HW281372   4.680   9.960   0.415
27116SOL     OW81373   3.800  10.121   0.789
27116SOL    HW181374   3.899  10.109   0.798
27116SOL    HW281375   3.776  10.216   0.810
27117SOL     OW81376   3.854  11.131   1.571
27117SOL    HW181377   3.844  11.116   1.670
27117SOL    HW281378   3.768  11.167   1.535
27118SOL     OW81379   4.589   9.658   0.195
27118SOL    HW181380   4.648   9.721   0.146
27118SOL    HW281381   4.608   9.564   0.166
27119SOL     OW81382   5.443   9.895   1.831
27119SOL    HW181383   5.417   9.984   1.795
27119SOL    HW281384   5.441   9.827   1.758
27120SOL     OW81385   5.086  10.454   0.545
27120SOL    HW181386   5.169  10.425   0.497
27120SOL    HW281387   5.037  10.521   0.489
27121SOL     OW81388   4.274   9.506   0.885
27121SOL    HW181389   4.269   9.501   0.985
27121SOL    HW281390   4.276   9.602   0.856
27122SOL     OW81391   4.732  10.766   0.477
27122SOL    HW181392   4.686  10.838   0.425
27122SOL    HW281393   4.728  10.786   0.575
27123SOL     OW81394   4.075  11.111   0.853
27123SOL    HW181395   4.125  11.025   0.859
27123SOL    HW281396   4.140  11.188   0.850
27124SOL     OW81397   5.519  10.376   0.873
27124SOL    HW181398   5.457  10.361   0.797
27124SOL    HW281399   5.467  10.387   0.958
27125SOL     OW81400   4.951  10.860   1.506
27125SOL    HW181401   4.957  10.783   1.570
27125SOL    HW281402   4.899  10.834   1.426
27126SOL     OW81403   4.045  10.253   0.242
27126SOL    HW181404   4.127  10.292   0.200
27126SOL    HW281405   4.018  10.171   0.193
27127SOL     OW81406   5.182  10.045   0.728
27127SOL    HW181407   5.177   9.980   0.803
27127SOL    HW281408   5.262  10.104   0.741
27128SOL     OW81409   4.185  10.576   1.727
27128SOL    HW181410   4.135  10.577   1.641
27128SOL    HW281411   4.122  10.558   1.803
27129SOL     OW81412   4.835  11.086   0.237
27129SOL    HW181413   4.775  11.024   0.287
27129SOL    HW281414   4.866  11.042   0.152
27130SOL     OW81415   3.926   9.595   1.498
27130SOL    HW181416   3.846   9.655   1.485
27130SOL    HW281417   3.916   9.546   1.584
27131SOL     OW81418   5.356  10.687   0.081
27131SOL    HW181419   5.324  10.781   0.071
27131SOL    HW281420   5.280  10.624   0.069
27132SOL     OW81421   4.188  11.053   0.323
27132SOL    HW181422   4.221  11.092   0.409
27132SOL    HW281423   4.264  11.046   0.258
27133SOL     OW81424   5.124   9.417   0.426
27133SOL    HW181425   5.100   9.380   0.336
27133SOL    HW281426   5.223   9.433   0.430
27134SOL     OW81427   3.973  11.095   1.241
27134SOL    HW181428   4.030  11.030   1.291
27134SOL    HW281429   3.957  11.062   1.148
27135SOL     OW81430   4.664  11.008   0.904
27135SOL    HW181431   4.744  10.951   0.925
27135SOL    HW281432   4.615  10.968   0.827
27136SOL     OW81433   4.106  10.010   0.480
27136SOL    HW181434   4.151   9.920   0.477
27136SOL    HW281435   4.012   9.999   0.513
27137SOL     OW81436   5.271   9.532   1.729
27137SOL    HW181437   5.266   9.569   1.821
27137SOL    HW281438   5.199   9.463   1.717
27138SOL     OW81439   4.338   9.432   0.117
27138SOL    HW181440   4.436   9.410   0.124
27138SOL    HW281441   4.307   9.415   0.024
27139SOL     OW81442   4.505   9.574   1.749
27139SOL    HW181443   4.572   9.513   1.792
27139SOL    HW281444   4.432   9.593   1.814
27140SOL     OW81445   4.612  10.824   1.195
27140SOL    HW181446   4.589  10.799   1.101
27140SOL    HW281447   4.673  10.755   1.234
27141SOL     OW81448   5.075   9.900   1.433
27141SOL    HW181449   5.103   9.857   1.518
27141SOL    HW281450   5.100   9.996   1.434
27142SOL     OW81451   4.527  10.712   0.924
27142SOL    HW181452   4.617  10.726   0.882
27142SOL    HW281453   4.456  10.714   0.853
27143SOL     OW81454   4.646   9.813   0.899
27143SOL    HW181455   4.621   9.804   0.803
27143SOL    HW281456   4.694   9.731   0.930
27144SOL     OW81457   4.263   9.374   0.512
27144SOL    HW181458   4.182   9.375   0.570
27144SOL    HW281459   4.266   9.457   0.457
27145SOL     OW81460   5.158  10.498   0.041
27145SOL    HW181461   5.190  10.422   0.098
27145SOL    HW281462   5.066  10.525   0.071
27146SOL     OW81463   4.021   9.345   0.171
27146SOL    HW181464   4.070   9.429   0.150
27146SOL    HW281465   4.083   9.280   0.216
27147SOL     OW81466   4.659   9.546   0.480
27147SOL    HW181467   4.611   9.587   0.402
27147SOL    HW281468   4.758   9.544   0.461
27148SOL     OW81469   4.800   9.993   1.464
27148SOL    HW181470   4.720   9.932   1.467
27148SOL    HW281471   4.881   9.940   1.440
27149SOL     OW81472   4.951  10.880   0.793
27149SOL    HW181473   4.972  10.954   0.728
27149SOL    HW281474   5.019  10.880   0.866
27150SOL     OW81475   4.183  10.462   0.741
27150SOL    HW181476   4.112  10.435   0.806
27150SOL    HW281477   4.157  10.434   0.648
27151SOL     OW81478   4.995  11.107   0.591
27151SOL    HW181479   5.039  11.171   0.527
27151SOL    HW281480   4.945  11.159   0.661
27152SOL     OW81481   4.756   9.859   0.016
27152SOL    HW181482   4.715   9.941  -0.023
27152SOL    HW281483   4.820   9.885   0.089
27153SOL     OW81484   3.802   9.866   1.386
27153SOL    HW181485   3.894   9.865   1.345
27153SOL    HW281486   3.796   9.940   1.453
27154SOL     OW81487   4.285   9.532   1.147
27154SOL    HW181488   4.323   9.448   1.184
27154SOL    HW281489   4.197   9.551   1.191
27155SOL     OW81490   4.590   9.764   0.642
27155SOL    HW181491   4.558   9.836   0.580
27155SOL    HW281492   4.614   9.683   0.589
27156SOL     OW81493   4.741   9.349   0.753
27156SOL    HW181494   4.669   9.354   0.684
27156SOL    HW281495   4.717   9.280   0.822
27157SOL     OW81496   5.153  10.483   0.867
27157SOL    HW181497   5.098  10.399   0.860
27157SOL    HW281498   5.179  10.512   0.775
27158SOL     OW81499   5.190   9.900   0.992
27158SOL    HW181500   5.160   9.805   0.999
27158SOL    HW281501   5.263   9.916   1.058
27159SOL     OW81502   5.581  10.143   0.377
27159SOL    HW181503   5.623  10.079   0.441
27159SOL    HW281504   5.543  10.092   0.299
27160SOL     OW81505   4.212  10.695   0.174
27160SOL    HW181506   4.125  10.680   0.221
27160SOL    HW281507   4.195  10.721   0.079
27161SOL     OW81508   5.388  10.590   0.657
27161SOL    HW181509   5.487  10.598   0.671
27161SOL    HW281510   5.343  10.674   0.688
27162SOL     OW81511   5.114   9.885   0.078
27162SOL    HW181512   5.060   9.864   0.159
27162SOL    HW281513   5.205   9.844   0.087
27163SOL     OW81514   4.251   9.566   0.328
27163SOL    HW181515   4.278   9.507   0.253
27163SOL    HW281516   4.251   9.661   0.297
27164SOL     OW81517   5.478  10.533   1.588
27164SOL    HW181518   5.569  10.494   1.575
27164SOL    HW281519   5.486  10.629   1.612
27165SOL     OW81520   4.788  10.657   1.340
27165SOL    HW181521   4.708  10.634   1.395
27165SOL    HW281522   4.871  10.631   1.389
27166SOL     OW81523   5.316  10.939   1.625
27166SOL    HW181524   5.343  10.973   1.535
27166SOL    HW281525   5.395  10.901   1.671
27167SOL     OW81526   4.835  10.505   1.100
27167SOL    HW181527   4.795  10.549   1.181
27167SOL    HW281528   4.794  10.542   1.017
27168SOL     OW81529   5.362  10.409   1.079
27168SOL    HW181530   5.367  10.490   1.138
27168SOL    HW281531   5.276  10.411   1.028
27169SOL     OW81532   4.639   9.399   1.402
27169SOL    HW181533   4.664   9.379   1.307
27169SOL    HW281534   4.711   9.455   1.444
27170SOL     OW81535   4.704  10.426   1.719
27170SOL    HW181536   4.605  10.432   1.729
27170SOL    HW281537   4.727  10.346   1.663
27171SOL     OW81538   4.429  10.360   0.368
27171SOL    HW181539   4.415  10.367   0.467
27171SOL    HW281540   4.513  10.309   0.350
27172SOL     OW81541   4.134  10.123   1.251
27172SOL    HW181542   4.220  10.135   1.301
27172SOL    HW281543   4.092  10.036   1.278
27173SOL     OW81544   4.998   9.696   1.262
27173SOL    HW181545   5.019   9.770   1.326
27173SOL    HW281546   4.909   9.713   1.219
27174SOL     OW81547   3.788  10.874   1.331
27174SOL    HW181548   3.742  10.956   1.297
27174SOL    HW281549   3.886  10.893   1.340
27175SOL     OW81550   4.091  10.410   0.501
27175SOL    HW181551   4.084  10.493   0.445
27175SOL    HW281552   4.095  10.330   0.441
27176SOL     OW81553   4.290   9.847   0.865
27176SOL    HW181554   4.302   9.913   0.791
27176SOL    HW281555   4.336   9.881   0.948
27177SOL     OW81556   4.976  10.658   0.388
27177SOL    HW181557   5.026  10.735   0.428
27177SOL    HW281558   4.881  10.660   0.420
27178SOL     OW81559   4.996  10.755   1.142
27178SOL    HW181560   5.043  10.768   1.229
27178SOL    HW281561   4.930  10.681   1.151
27179SOL     OW81562   5.306   9.949   0.472
27179SOL    HW181563   5.275  10.010   0.545
27179SOL    HW281564   5.356  10.001   0.403
27180SOL     OW81565   4.078  10.820   1.329
27180SOL    HW181566   4.057  10.776   1.242
27180SOL    HW281567   4.175  10.846   1.332
27181SOL     OW81568   4.126  10.061   1.598
27181SOL    HW181569   4.194  10.116   1.551
27181SOL    HW281570   4.166   9.973   1.625
27182SOL     OW81571   5.311  10.089   1.670
27182SOL    HW181572   5.219  10.127   1.665
27182SOL    HW281573   5.371  10.136   1.605
27183SOL     OW81574   4.737   9.415   1.770
27183SOL    HW181575   4.743   9.500   1.718
27183SOL    HW281576   4.769   9.339   1.713
27184SOL     OW81577   4.228   9.360   1.740
27184SOL    HW181578   4.186   9.303   1.670
27184SOL    HW281579   4.162   9.429   1.772
27185SOL     OW81580   4.297  10.180   1.029
27185SOL    HW181581   4.341  10.269   1.020
27185SOL    HW281582   4.234  10.180   1.106
27186SOL     OW81583   5.084  10.172   1.045
27186SOL    HW181584   5.009  10.172   0.979
27186SOL    HW281585   5.121  10.080   1.054
27187SOL     OW81586   4.933   9.835   0.275
27187SOL    HW181587   4.946   9.751   0.329
27187SOL    HW281588   4.904   9.909   0.335
27188SOL     OW81589   4.031   9.523   1.231
27188SOL    HW181590   4.008   9.560   1.321
27188SOL    HW281591   4.001   9.428   1.225
27189SOL     OW81592   3.761  10.620   1.282
27189SOL    HW181593   3.814  10.571   1.350
27189SOL    HW281594   3.783  10.718   1.287
27190SOL     OW81595   4.456   9.944   1.064
27190SOL    HW181596   4.515   9.918   0.988
27190SOL    HW281597   4.428  10.040   1.053
27191SOL     OW81598   5.452  10.245   1.854
27191SOL    HW181599   5.406  10.238   1.765
27191SOL    HW281600   5.390  10.289   1.920
27192SOL     OW81601   4.031   9.373   0.618
27192SOL    HW181602   4.020   9.467   0.651
27192SOL    HW281603   4.026   9.310   0.695
27193SOL     OW81604   5.346   9.677   0.374
27193SOL    HW181605   5.348   9.601   0.438
27193SOL    HW281606   5.298   9.754   0.414
27194SOL     OW81607   4.747  10.076   0.966
27194SOL    HW181608   4.762  10.097   1.062
27194SOL    HW281609   4.717   9.981   0.957
27195SOL     OW81610   4.704  10.883   1.700
27195SOL    HW181611   4.684  10.927   1.612
27195SOL    HW281612   4.743  10.792   1.684
27196SOL     OW81613   5.583  10.828   1.605
27196SOL    HW181614   5.597  10.855   1.510
27196SOL    HW281615   5.666  10.850   1.658
27197SOL     OW81616   4.074  10.208   1.804
27197SOL    HW181617   4.150  10.252   1.852
27197SOL    HW281618   4.109  10.161   1.722
27198SOL     OW81619   5.264   9.584   0.125
27198SOL    HW181620   5.203   9.509   0.148
27198SOL    HW281621   5.286   9.636   0.208
27199SOL     OW81622   5.027  10.148   0.042
27199SOL    HW181623   5.061  10.055   0.057
27199SOL    HW281624   5.045  10.175  -0.053
27200SOL     OW81625   4.792  10.643   0.849
27200SOL    HW181626   4.799  10.559   0.794
27200SOL    HW281627   4.854  10.712   0.813
27201SOL     OW81628   4.043  10.120   0.949
27201SOL    HW181629   4.136  10.156   0.954
27201SOL    HW281630   4.037  10.035   1.001
27202SOL     OW81631   4.063   9.819   1.006
27202SOL    HW181632   4.011   9.736   0.989
27202SOL    HW281633   4.140   9.824   0.942
27203SOL     OW81634   4.862   9.690   1.678
27203SOL    HW181635   4.817   9.753   1.742
27203SOL    HW281636   4.955   9.721   1.661
27204SOL     OW81637   4.884   9.517   1.477
27204SOL    HW181638   4.884   9.581   1.554
27204SOL    HW281639   4.912   9.565   1.394
27205SOL     OW81640   3.732  10.636   0.200
27205SOL    HW181641   3.639  10.657   0.169
27205SOL    HW281642   3.742  10.537   0.213
27206SOL     OW81643   3.812  11.111   0.927
27206SOL    HW181644   3.770  11.025   0.900
27206SOL    HW281645   3.906  11.114   0.893
27207SOL     OW81646   4.228  10.878   0.910
27207SOL    HW181647   4.294  10.952   0.919
27207SOL    HW281648   4.272  10.799   0.868
27208SOL     OW81649   4.726  10.106   1.238
27208SOL    HW181650   4.767  10.074   1.324
27208SOL    HW281651   4.630  10.079   1.235
27209SOL     OW81652   3.764   9.854   1.114
27209SOL    HW181653   3.849   9.821   1.073
27209SOL    HW281654   3.777   9.869   1.212
27210SOL     OW81655   3.913   9.830   1.722
27210SOL    HW181656   3.972   9.790   1.652
27210SOL    HW281657   3.855   9.901   1.681
27211SOL     OW81658   5.093  10.260   1.660
27211SOL    HW181659   5.132  10.349   1.680
27211SOL    HW281660   5.103  10.240   1.563
27212SOL     OW81661   4.539   9.882   0.325
27212SOL    HW181662   4.546   9.793   0.279
27212SOL    HW281663   4.445   9.916   0.317
27213SOL     OW81664   5.381   9.914   1.206
27213SOL    HW181665   5.343   9.845   1.268
27213SOL    HW281666   5.463   9.878   1.162
27214SOL     OW81667   3.976  10.874   1.744
27214SOL    HW181668   3.946  10.931   1.820
27214SOL    HW281669   3.969  10.777   1.770
27215SOL     OW81670   4.395   9.774   1.269
27215SOL    HW181671   4.361   9.685   1.239
27215SOL    HW281672   4.421   9.828   1.189
27216SOL     OW81673   4.654  10.988   1.465
27216SOL    HW181674   4.630  10.970   1.370
27216SOL    HW281675   4.684  11.082   1.475
27217SOL     OW81676   4.197   9.810   0.191
27217SOL    HW181677   4.258   9.890   0.195
27217SOL    HW281678   4.102   9.841   0.198
27218SOL     OW81679   3.883  10.447   1.466
27218SOL    HW181680   3.905  10.386   1.542
27218SOL    HW281681   3.893  10.398   1.380
27219SOL     OW81682   5.071  10.369   1.234
27219SOL    HW181683   5.095  10.306   1.160
27219SOL    HW281684   4.981  10.409   1.216
27220SOL     OW81685   5.026  10.165   0.309
27220SOL    HW181686   4.940  10.134   0.351
27220SOL    HW281687   5.022  10.151   0.210
27221SOL     OW81688   5.483  11.057   1.154
27221SOL    HW181689   5.544  11.087   1.081
27221SOL    HW281690   5.445  10.968   1.132
27222SOL     OW81691   4.976  11.041   1.128
27222SOL    HW181692   5.060  11.046   1.074
27222SOL    HW281693   4.953  10.945   1.146
27223SOL     OW81694   3.807  10.568   1.022
27223SOL    HW181695   3.802  10.567   1.122
27223SOL    HW281696   3.724  10.527   0.984
27224SOL     OW81697   4.412  10.972   1.716
27224SOL    HW181698   4.356  11.053   1.725
27224SOL    HW281699   4.464  10.976   1.630
27225SOL     OW81700   4.627   9.396   0.133
27225SOL    HW181701   4.678   9.397   0.047
27225SOL    HW281702   4.683   9.354   0.204
27226SOL     OW81703   5.450   9.445   0.523
27226SOL    HW181704   5.523   9.428   0.456
27226SOL    HW281705   5.419   9.358   0.561
27227SOL     OW81706   5.112  10.883   0.477
27227SOL    HW181707   5.179  10.895   0.403
27227SOL    HW281708   5.072  10.972   0.500
27228SOL     OW81709   3.854  11.104   1.851
27228SOL    HW181710   3.813  11.030   1.904
27228SOL    HW281711   3.918  11.155   1.909
27229SOL     OW81712   5.004  10.237   0.672
27229SOL    HW181713   5.064  10.156   0.674
27229SOL    HW281714   5.044  10.306   0.612
27230SOL     OW81715   4.554  10.583   1.422
27230SOL    HW181716   4.549  10.616   1.517
27230SOL    HW281717   4.468  10.602   1.376
27231SOL     OW81718   4.396  10.926   0.154
27231SOL    HW181719   4.405  10.936   0.055
27231SOL    HW281720   4.356  10.837   0.175
27232SOL     OW81721   5.374  11.030   1.394
27232SOL    HW181722   5.427  11.040   1.310
27232SOL    HW281723   5.347  11.120   1.428
27233SOL     OW81724   5.565   9.485   0.963
27233SOL    HW181725   5.604   9.400   0.927
27233SOL    HW281726   5.467   9.487   0.944
27234SOL     OW81727   3.987   9.636   0.720
27234SOL    HW181728   3.908   9.687   0.686
27234SOL    HW281729   3.978   9.621   0.818
27235SOL     OW81730   4.918  10.922   0.031
27235SOL    HW181731   4.924  10.829   0.068
27235SOL    HW281732   4.859  10.922  -0.049
27236SOL     OW81733   4.546  10.312   1.372
27236SOL    HW181734   4.586  10.311   1.280
27236SOL    HW281735   4.556  10.404   1.412
27237SOL     OW81736   4.640  10.220   0.291
27237SOL    HW181737   4.703  10.258   0.223
27237SOL    HW281738   4.680  10.137   0.330
27238SOL     OW81739   5.228  10.917   0.044
27238SOL    HW181740   5.136  10.954   0.051
27238SOL    HW281741   5.266  10.937  -0.046
27239SOL     OW81742   4.096  10.598   1.490
27239SOL    HW181743   4.083  10.691   1.456
27239SOL    HW281744   4.012  10.546   1.477
27240SOL     OW81745   5.338  10.602   1.289
27240SOL    HW181746   5.398  10.605   1.369
27240SOL    HW281747   5.263  10.666   1.302
27241SOL     OW81748   4.763  10.408   0.696
27241SOL    HW181749   4.693  10.361   0.750
27241SOL    HW281750   4.822  10.340   0.653
27242SOL     OW81751   4.738   9.546   0.971
27242SOL    HW181752   4.730   9.510   0.878
27242SOL    HW281753   4.736   9.470   1.036
27243SOL     OW81754   4.314  10.797   0.491
27243SOL    HW181755   4.356  10.739   0.421
27243SOL    HW281756   4.270  10.876   0.447
27244SOL     OW81757   5.433   9.695   1.381
27244SOL    HW181758   5.506   9.764   1.385
27244SOL    HW281759   5.461   9.620   1.322
27245SOL     OW81760   3.979  10.658   0.290
27245SOL    HW181761   3.883  10.659   0.263
27245SOL    HW281762   3.991  10.711   0.374
27246SOL     OW81763   3.829  10.323   1.726
27246SOL    HW181764   3.752  10.290   1.780
27246SOL    HW281765   3.914  10.293   1.768
27247SOL     OW81766   4.396   9.513   1.489
27247SOL    HW181767   4.486   9.497   1.449
27247SOL    HW281768   4.404   9.518   1.588
27248SOL     OW81769   5.164  10.166   1.398
27248SOL    HW181770   5.107  10.218   1.335
27248SOL    HW281771   5.260  10.178   1.374
27249SOL     OW81772   3.796   9.476   0.318
27249SOL    HW181773   3.779   9.559   0.264
27249SOL    HW281774   3.886   9.439   0.296
27250SOL     OW81775   4.907  10.645   0.119
27250SOL    HW181776   4.808  10.634   0.121
27250SOL    HW281777   4.941  10.660   0.212
27251SOL     OW81778   4.337  10.152   1.431
27251SOL    HW181779   4.393  10.233   1.414
27251SOL    HW281780   4.396  10.072   1.434
27252SOL     OW81781   5.217  11.077   0.959
27252SOL    HW181782   5.250  11.141   0.890
27252SOL    HW281783   5.283  11.071   1.034
27253SOL     OW81784   4.440   9.875   1.708
27253SOL    HW181785   4.459   9.940   1.782
27253SOL    HW281786   4.500   9.795   1.717
27254SOL     OW81787   5.174  10.530   1.633
27254SOL    HW181788   5.165  10.520   1.732
27254SOL    HW281789   5.270  10.523   1.607
27255SOL     OW81790   4.114  11.051   1.560
27255SOL    HW181791   4.023  11.092   1.558
27255SOL    HW281792   4.107  10.957   1.592
27256SOL     OW81793   5.398  10.193   1.254
27256SOL    HW181794   5.371  10.104   1.217
27256SOL    HW281795   5.399  10.261   1.181
27257SOL     OW81796   4.949   9.635   0.449
27257SOL    HW181797   5.014   9.561   0.438
27257SOL    HW281798   4.969   9.685   0.533
27258SOL     OW81799   4.318  10.055   0.652
27258SOL    HW181800   4.368  10.140   0.633
27258SOL    HW281801   4.230  10.057   0.604
27259SOL     OW81802   5.501   9.652   1.642
27259SOL    HW181803   5.484   9.683   1.548
27259SOL    HW281804   5.417   9.615   1.680
27260SOL     OW81805   5.454  10.244   1.517
27260SOL    HW181806   5.492  10.335   1.532
27260SOL    HW281807   5.446  10.227   1.418
27261SOL     OW81808   4.583  10.684   0.016
27261SOL    HW181809   4.537  10.699   0.104
27261SOL    HW281810   4.627  10.769  -0.014
27262SOL     OW81811   4.385  11.100   0.953
27262SOL    HW181812   4.339  11.188   0.940
27262SOL    HW281813   4.484  11.112   0.946
27263SOL     OW81814   4.583  10.266   0.861
27263SOL    HW181815   4.637  10.197   0.909
27263SOL    HW281816   4.551  10.335   0.927
27264SOL     OW81817   4.807  10.294   0.087
27264SOL    HW181818   4.784  10.347   0.005
27264SOL    HW281819   4.888  10.238   0.068
27265SOL     OW81820   5.585  10.879   0.851
27265SOL    HW181821   5.514  10.867   0.781
27265SOL    HW281822   5.586  10.800   0.911
27266SOL     OW81823   3.945  10.624   1.844
27266SOL    HW181824   3.880  10.551   1.823
27266SOL    HW281825   3.949  10.638   1.942
27267SOL     OW81826   3.803  10.550   0.653
27267SOL    HW181827   3.802  10.503   0.741
27267SOL    HW281828   3.885  10.522   0.602
27268SOL     OW81829   4.396  10.701   1.624
27268SOL    HW181830   4.318  10.651   1.662
27268SOL    HW281831   4.393  10.796   1.655
27269SOL     OW81832   5.548   9.502   1.227
27269SOL    HW181833   5.544   9.412   1.271
27269SOL    HW281834   5.551   9.491   1.128
27270SOL     OW81835   4.152   9.734   0.520
27270SOL    HW181836   4.182   9.662   0.458
27270SOL    HW281837   4.113   9.694   0.603
27271SOL     OW81838   5.429  10.797   1.104
27271SOL    HW181839   5.336  10.772   1.077
27271SOL    HW281840   5.455  10.747   1.186
27272SOL     OW81841   4.041   9.857   1.280
27272SOL    HW181842   4.079   9.798   1.352
27272SOL    HW281843   4.081   9.831   1.192
27273SOL     OW81844   4.536  10.896   0.687
27273SOL    HW181845   4.568  10.906   0.593
27273SOL    HW281846   4.457  10.834   0.689
27274SOL     OW81847   5.148   9.524   1.112
27274SOL    HW181848   5.200   9.459   1.167
27274SOL    HW281849   5.099   9.587   1.173
27275SOL     OW81850   4.725   9.344   1.154
27275SOL    HW181851   4.662   9.272   1.123
27275SOL    HW281852   4.818   9.308   1.154
27276SOL     OW81853   4.494  10.640   0.301
27276SOL    HW181854   4.448  10.553   0.318
27276SOL    HW281855   4.585  10.637   0.342
27277SOL     OW81856   4.342  10.877   1.284
27277SOL    HW181857   4.337  10.959   1.341
27277SOL    HW281858   4.431  10.874   1.239
27278SOL     OW81859   5.076   9.362   0.168
27278SOL    HW181860   5.111   9.321   0.084
27278SOL    HW281861   4.986   9.324   0.188
27279SOL     OW81862   5.024   9.763   0.691
27279SOL    HW181863   4.965   9.843   0.695
27279SOL    HW281864   5.039   9.728   0.784
27280SOL     OW81865   5.317   9.531   0.882
27280SOL    HW181866   5.233   9.530   0.936
27280SOL    HW281867   5.319   9.614   0.826
27281SOL     OW81868   3.763  10.387   0.300
27281SOL    HW181869   3.862  10.376   0.291
27281SOL    HW281870   3.723  10.301   0.332
27282SOL     OW81871   4.599  10.956   0.337
27282SOL    HW181872   4.522  10.921   0.283
27282SOL    HW281873   4.567  11.027   0.399
27283SOL     OW81874   3.954   9.938   1.975
27283SOL    HW181875   3.861   9.936   2.012
27283SOL    HW281876   3.955   9.899   1.883
27284SOL     OW81877   3.949   9.585   2.858
27284SOL    HW181878   3.984   9.568   2.950
27284SOL    HW281879   3.861   9.540   2.846
27285SOL     OW81880   3.743   9.678   2.509
27285SOL    HW181881   3.661   9.721   2.548
27285SOL    HW281882   3.715   9.605   2.446
27286SOL     OW81883   4.293  10.585   3.027
27286SOL    HW181884   4.200  10.578   2.990
27286SOL    HW281885   4.304  10.674   3.071
27287SOL     OW81886   5.279  10.821   2.565
27287SOL    HW181887   5.222  10.805   2.646
27287SOL    HW281888   5.220  10.831   2.485
27288SOL     OW81889   4.859  10.013   2.579
27288SOL    HW181890   4.916  10.091   2.554
27288SOL    HW281891   4.799  10.039   2.655
27289SOL     OW81892   5.479   9.917   2.093
27289SOL    HW181893   5.467   9.904   1.994
27289SOL    HW281894   5.449   9.836   2.142
27290SOL     OW81895   4.492  10.454   2.885
27290SOL    HW181896   4.414  10.471   2.945
27290SOL    HW281897   4.526  10.541   2.849
27291SOL     OW81898   4.574  10.108   3.685
27291SOL    HW181899   4.570  10.184   3.750
27291SOL    HW281900   4.596  10.144   3.594
27292SOL     OW81901   4.409  10.322   2.527
27292SOL    HW181902   4.478  10.306   2.597
27292SOL    HW281903   4.336  10.379   2.565
27293SOL     OW81904   4.410  10.471   3.665
27293SOL    HW181905   4.470  10.550   3.679
27293SOL    HW281906   4.324  10.502   3.624
27294SOL     OW81907   4.059  10.745   2.923
27294SOL    HW181908   3.981  10.714   2.870
27294SOL    HW281909   4.117  10.803   2.866
27295SOL     OW81910   5.184  10.815   3.201
27295SOL    HW181911   5.208  10.909   3.227
27295SOL    HW281912   5.168  10.761   3.283
27296SOL     OW81913   4.162   9.702   3.361
27296SOL    HW181914   4.244   9.646   3.370
27296SOL    HW281915   4.081   9.644   3.365
27297SOL     OW81916   5.327   9.757   2.599
27297SOL    HW181917   5.253   9.803   2.549
27297SOL    HW281918   5.378   9.825   2.652
27298SOL     OW81919   3.955  11.023   2.345
27298SOL    HW181920   3.989  11.100   2.399
27298SOL    HW281921   3.999  11.023   2.255
27299SOL     OW81922   4.851  10.651   3.552
27299SOL    HW181923   4.898  10.651   3.640
27299SOL    HW281924   4.803  10.564   3.541
27300SOL     OW81925   3.954  10.744   2.400
27300SOL    HW181926   3.928  10.840   2.400
27300SOL    HW281927   3.883  10.690   2.445
27301SOL     OW81928   3.964  10.401   2.748
27301SOL    HW181929   3.978  10.317   2.800
27301SOL    HW281930   3.909  10.465   2.803
27302SOL     OW81931   4.344  11.096   3.301
27302SOL    HW181932   4.252  11.079   3.336
27302SOL    HW281933   4.372  11.188   3.327
27303SOL     OW81934   4.330  10.274   1.985
27303SOL    HW181935   4.337  10.358   1.931
27303SOL    HW281936   4.376  10.287   2.073
27304SOL     OW81937   5.318   9.424   3.342
27304SOL    HW181938   5.300   9.491   3.270
27304SOL    HW281939   5.315   9.470   3.431
27305SOL     OW81940   3.846   9.953   2.425
27305SOL    HW181941   3.801   9.865   2.442
27305SOL    HW281942   3.845  10.007   2.509
27306SOL     OW81943   5.566  11.077   2.221
27306SOL    HW181944   5.620  11.048   2.301
27306SOL    HW281945   5.596  11.167   2.192
27307SOL     OW81946   3.751  10.906   1.979
27307SOL    HW181947   3.732  10.810   2.000
27307SOL    HW281948   3.718  10.964   2.054
27308SOL     OW81949   5.413  10.232   2.474
27308SOL    HW181950   5.508  10.203   2.482
27308SOL    HW281951   5.405  10.297   2.399
27309SOL     OW81952   5.365  10.418   2.294
27309SOL    HW181953   5.451  10.420   2.242
27309SOL    HW281954   5.379  10.465   2.382
27310SOL     OW81955   3.837  10.047   3.459
27310SOL    HW181956   3.925  10.034   3.504
27310SOL    HW281957   3.824  10.144   3.437
27311SOL     OW81958   4.337  10.675   2.588
27311SOL    HW181959   4.288  10.588   2.597
27311SOL    HW281960   4.314  10.718   2.501
27312SOL     OW81961   5.017  10.538   3.285
27312SOL    HW181962   5.054  10.465   3.227
27312SOL    HW281963   5.069  10.543   3.370
27313SOL     OW81964   4.533   9.314   2.364
27313SOL    HW181965   4.573   9.405   2.355
27313SOL    HW281966   4.433   9.322   2.370
27314SOL     OW81967   3.921  10.286   3.126
27314SOL    HW181968   4.010  10.241   3.112
27314SOL    HW281969   3.848  10.221   3.107
27315SOL     OW81970   5.249  10.309   2.052
27315SOL    HW181971   5.186  10.233   2.065
27315SOL    HW281972   5.297  10.327   2.138
27316SOL     OW81973   4.911  11.102   3.478
27316SOL    HW181974   4.935  11.162   3.402
27316SOL    HW281975   4.918  11.007   3.448
27317SOL     OW81976   4.041   9.561   3.663
27317SOL    HW181977   4.112   9.632   3.669
27317SOL    HW281978   3.953   9.600   3.691
27318SOL     OW81979   5.190  10.727   2.815
27318SOL    HW181980   5.131  10.733   2.895
27318SOL    HW281981   5.175  10.639   2.769
27319SOL     OW81982   5.391  11.024   2.434
27319SOL    HW181983   5.350  11.001   2.346
27319SOL    HW281984   5.373  10.950   2.499
27320SOL     OW81985   4.322  10.039   2.132
27320SOL    HW181986   4.346  10.108   2.064
27320SOL    HW281987   4.244  10.072   2.186
27321SOL     OW81988   5.005   9.655   2.806
27321SOL    HW181989   4.919   9.605   2.793
27321SOL    HW281990   5.067   9.601   2.862
27322SOL     OW81991   5.300  10.972   2.169
27322SOL    HW181992   5.389  11.018   2.172
27322SOL    HW281993   5.279  10.948   2.074
27323SOL     OW81994   4.531   9.915   3.327
27323SOL    HW181995   4.484   9.912   3.416
27323SOL    HW281996   4.480   9.860   3.261
27324SOL     OW81997   5.118   9.779   3.536
27324SOL    HW181998   5.098   9.822   3.624
27324SOL    HW281999   5.196   9.717   3.545
27325SOL     OW82000   4.697  10.200   3.434
27325SOL    HW182001   4.743  10.116   3.405
27325SOL    HW282002   4.641  10.234   3.359
27326SOL     OW82003   4.715   9.720   3.104
27326SOL    HW182004   4.638   9.754   3.158
27326SOL    HW282005   4.681   9.669   3.025
27327SOL     OW82006   4.765  10.011   2.291
27327SOL    HW182007   4.791  10.007   2.387
27327SOL    HW282008   4.680   9.960   2.277
27328SOL     OW82009   3.800  10.121   2.651
27328SOL    HW182010   3.899  10.109   2.660
27328SOL    HW282011   3.776  10.216   2.672
27329SOL     OW82012   3.854  11.131   3.433
27329SOL    HW182013   3.844  11.116   3.532
27329SOL    HW282014   3.768  11.167   3.397
27330SOL     OW82015   4.589   9.658   2.057
27330SOL    HW182016   4.648   9.721   2.008
27330SOL    HW282017   4.608   9.564   2.028
27331SOL     OW82018   5.443   9.895   3.693
27331SOL    HW182019   5.417   9.984   3.657
27331SOL    HW282020   5.441   9.827   3.620
27332SOL     OW82021   5.086  10.454   2.407
27332SOL    HW182022   5.169  10.425   2.359
27332SOL    HW282023   5.037  10.521   2.351
27333SOL     OW82024   4.274   9.506   2.747
27333SOL    HW182025   4.269   9.501   2.847
27333SOL    HW282026   4.276   9.602   2.718
27334SOL     OW82027   4.732  10.766   2.339
27334SOL    HW182028   4.686  10.838   2.287
27334SOL    HW282029   4.728  10.786   2.437
27335SOL     OW82030   4.075  11.111   2.715
27335SOL    HW182031   4.125  11.025   2.721
27335SOL    HW282032   4.140  11.188   2.712
27336SOL     OW82033   5.519  10.376   2.735
27336SOL    HW182034   5.457  10.361   2.659
27336SOL    HW282035   5.467  10.387   2.820
27337SOL     OW82036   4.951  10.860   3.368
27337SOL    HW182037   4.957  10.783   3.432
27337SOL    HW282038   4.899  10.834   3.288
27338SOL     OW82039   4.045  10.253   2.104
27338SOL    HW182040   4.127  10.292   2.062
27338SOL    HW282041   4.018  10.171   2.055
27339SOL     OW82042   5.182  10.045   2.590
27339SOL    HW182043   5.177   9.980   2.665
27339SOL    HW282044   5.262  10.104   2.603
27340SOL     OW82045   4.185  10.576   3.589
27340SOL    HW182046   4.135  10.577   3.503
27340SOL    HW282047   4.122  10.558   3.665
27341SOL     OW82048   4.835  11.086   2.099
27341SOL    HW182049   4.775  11.024   2.149
27341SOL    HW282050   4.866  11.042   2.014
27342SOL     OW82051   3.926   9.595   3.360
27342SOL    HW182052   3.846   9.655   3.347
27342SOL    HW282053   3.916   9.546   3.446
27343SOL     OW82054   5.356  10.687   1.943
27343SOL    HW182055   5.324  10.781   1.933
27343SOL    HW282056   5.280  10.624   1.931
27344SOL     OW82057   4.188  11.053   2.185
27344SOL    HW182058   4.221  11.092   2.271
27344SOL    HW282059   4.264  11.046   2.120
27345SOL     OW82060   5.124   9.417   2.288
27345SOL    HW182061   5.100   9.380   2.198
27345SOL    HW282062   5.223   9.433   2.292
27346SOL     OW82063   3.973  11.095   3.103
27346SOL    HW182064   4.030  11.030   3.153
27346SOL    HW282065   3.957  11.062   3.010
27347SOL     OW82066   4.664  11.008   2.766
27347SOL    HW182067   4.744  10.951   2.787
27347SOL    HW282068   4.615  10.968   2.689
27348SOL     OW82069   4.106  10.010   2.342
27348SOL    HW182070   4.151   9.920   2.339
27348SOL    HW282071   4.012   9.999   2.375
27349SOL     OW82072   5.271   9.532   3.591
27349SOL    HW182073   5.266   9.569   3.683
27349SOL    HW282074   5.199   9.463   3.579
27350SOL     OW82075   4.338   9.432   1.979
27350SOL    HW182076   4.436   9.410   1.986
27350SOL    HW282077   4.307   9.415   1.886
27351SOL     OW82078   4.505   9.574   3.611
27351SOL    HW182079   4.572   9.513   3.654
27351SOL    HW282080   4.432   9.593   3.676
27352SOL     OW82081   4.612  10.824   3.057
27352SOL    HW182082   4.589  10.799   2.963
27352SOL    HW282083   4.673  10.755   3.096
27353SOL     OW82084   5.075   9.900   3.295
27353SOL    HW182085   5.103   9.857   3.380
27353SOL    HW282086   5.100   9.996   3.296
27354SOL     OW82087   4.527  10.712   2.786
27354SOL    HW182088   4.617  10.726   2.744
27354SOL    HW282089   4.456  10.714   2.715
27355SOL     OW82090   4.646   9.813   2.761
27355SOL    HW182091   4.621   9.804   2.665
27355SOL    HW282092   4.694   9.731   2.792
27356SOL     OW82093   4.263   9.374   2.374
27356SOL    HW182094   4.182   9.375   2.432
27356SOL    HW282095   4.266   9.457   2.319
27357SOL     OW82096   5.158  10.498   1.903
27357SOL    HW182097   5.190  10.422   1.960
27357SOL    HW282098   5.066  10.525   1.933
27358SOL     OW82099   4.021   9.345   2.033
27358SOL    HW182100   4.070   9.429   2.012
27358SOL    HW282101   4.083   9.280   2.078
27359SOL     OW82102   4.659   9.546   2.342
27359SOL    HW182103   4.611   9.587   2.264
27359SOL    HW282104   4.758   9.544   2.323
27360SOL     OW82105   4.800   9.993   3.326
27360SOL    HW182106   4.720   9.932   3.329
27360SOL    HW282107   4.881   9.940   3.302
27361SOL     OW82108   4.951  10.880   2.655
27361SOL    HW182109   4.972  10.954   2.590
27361SOL    HW282110   5.019  10.880   2.728
27362SOL     OW82111   4.183  10.462   2.603
27362SOL    HW182112   4.112  10.435   2.668
27362SOL    HW282113   4.157  10.434   2.510
27363SOL     OW82114   4.995  11.107   2.453
27363SOL    HW182115   5.039  11.171   2.389
27363SOL    HW282116   4.945  11.159   2.523
27364SOL     OW82117   4.756   9.859   1.878
27364SOL    HW182118   4.715   9.941   1.839
27364SOL    HW282119   4.820   9.885   1.951
27365SOL     OW82120   3.802   9.866   3.248
27365SOL    HW182121   3.894   9.865   3.207
27365SOL    HW282122   3.796   9.940   3.315
27366SOL     OW82123   4.285   9.532   3.009
27366SOL    HW182124   4.323   9.448   3.046
27366SOL    HW282125   4.197   9.551   3.053
27367SOL     OW82126   4.590   9.764   2.504
27367SOL    HW182127   4.558   9.836   2.442
27367SOL    HW282128   4.614   9.683   2.451
27368SOL     OW82129   4.741   9.349   2.615
27368SOL    HW182130   4.669   9.354   2.546
27368SOL    HW282131   4.717   9.280   2.684
27369SOL     OW82132   5.153  10.483   2.729
27369SOL    HW182133   5.098  10.399   2.722
27369SOL    HW282134   5.179  10.512   2.637
27370SOL     OW82135   5.190   9.900   2.854
27370SOL    HW182136   5.160   9.805   2.861
27370SOL    HW282137   5.263   9.916   2.920
27371SOL     OW82138   5.581  10.143   2.239
27371SOL    HW182139   5.623  10.079   2.303
27371SOL    HW282140   5.543  10.092   2.161
27372SOL     OW82141   4.212  10.695   2.036
27372SOL    HW182142   4.125  10.680   2.083
27372SOL    HW282143   4.195  10.721   1.941
27373SOL     OW82144   5.388  10.590   2.519
27373SOL    HW182145   5.487  10.598   2.533
27373SOL    HW282146   5.343  10.674   2.550
27374SOL     OW82147   5.114   9.885   1.940
27374SOL    HW182148   5.060   9.864   2.021
27374SOL    HW282149   5.205   9.844   1.949
27375SOL     OW82150   4.251   9.566   2.190
27375SOL    HW182151   4.278   9.507   2.115
27375SOL    HW282152   4.251   9.661   2.159
27376SOL     OW82153   5.478  10.533   3.450
27376SOL    HW182154   5.569  10.494   3.437
27376SOL    HW282155   5.486  10.629   3.474
27377SOL     OW82156   4.788  10.657   3.202
27377SOL    HW182157   4.708  10.634   3.257
27377SOL    HW282158   4.871  10.631   3.251
27378SOL     OW82159   5.316  10.939   3.487
27378SOL    HW182160   5.343  10.973   3.397
27378SOL    HW282161   5.395  10.901   3.533
27379SOL     OW82162   4.835  10.505   2.962
27379SOL    HW182163   4.795  10.549   3.043
27379SOL    HW282164   4.794  10.542   2.879
27380SOL     OW82165   5.362  10.409   2.941
27380SOL    HW182166   5.367  10.490   3.000
27380SOL    HW282167   5.276  10.411   2.890
27381SOL     OW82168   4.639   9.399   3.264
27381SOL    HW182169   4.664   9.379   3.169
27381SOL    HW282170   4.711   9.455   3.306
27382SOL     OW82171   4.704  10.426   3.581
27382SOL    HW182172   4.605  10.432   3.591
27382SOL    HW282173   4.727  10.346   3.525
27383SOL     OW82174   4.429  10.360   2.230
27383SOL    HW182175   4.415  10.367   2.329
27383SOL    HW282176   4.513  10.309   2.212
27384SOL     OW82177   4.134  10.123   3.113
27384SOL    HW182178   4.220  10.135   3.163
27384SOL    HW282179   4.092  10.036   3.140
27385SOL     OW82180   4.998   9.696   3.124
27385SOL    HW182181   5.019   9.770   3.188
27385SOL    HW282182   4.909   9.713   3.081
27386SOL     OW82183   3.788  10.874   3.193
27386SOL    HW182184   3.742  10.956   3.159
27386SOL    HW282185   3.886  10.893   3.202
27387SOL     OW82186   4.091  10.410   2.363
27387SOL    HW182187   4.084  10.493   2.307
27387SOL    HW282188   4.095  10.330   2.303
27388SOL     OW82189   4.290   9.847   2.727
27388SOL    HW182190   4.302   9.913   2.653
27388SOL    HW282191   4.336   9.881   2.810
27389SOL     OW82192   4.976  10.658   2.250
27389SOL    HW182193   5.026  10.735   2.290
27389SOL    HW282194   4.881  10.660   2.282
27390SOL     OW82195   4.996  10.755   3.004
27390SOL    HW182196   5.043  10.768   3.091
27390SOL    HW282197   4.930  10.681   3.013
27391SOL     OW82198   5.306   9.949   2.334
27391SOL    HW182199   5.275  10.010   2.407
27391SOL    HW282200   5.356  10.001   2.265
27392SOL     OW82201   4.078  10.820   3.191
27392SOL    HW182202   4.057  10.776   3.104
27392SOL    HW282203   4.175  10.846   3.194
27393SOL     OW82204   4.126  10.061   3.460
27393SOL    HW182205   4.194  10.116   3.413
27393SOL    HW282206   4.166   9.973   3.487
27394SOL     OW82207   5.311  10.089   3.532
27394SOL    HW182208   5.219  10.127   3.527
27394SOL    HW282209   5.371  10.136   3.467
27395SOL     OW82210   4.737   9.415   3.632
27395SOL    HW182211   4.743   9.500   3.580
27395SOL    HW282212   4.769   9.339   3.575
27396SOL     OW82213   4.228   9.360   3.602
27396SOL    HW182214   4.186   9.303   3.532
27396SOL    HW282215   4.162   9.429   3.634
27397SOL     OW82216   4.297  10.180   2.891
27397SOL    HW182217   4.341  10.269   2.882
27397SOL    HW282218   4.234  10.180   2.968
27398SOL     OW82219   5.084  10.172   2.907
27398SOL    HW182220   5.009  10.172   2.841
27398SOL    HW282221   5.121  10.080   2.916
27399SOL     OW82222   4.933   9.835   2.137
27399SOL    HW182223   4.946   9.751   2.191
27399SOL    HW282224   4.904   9.909   2.197
27400SOL     OW82225   4.031   9.523   3.093
27400SOL    HW182226   4.008   9.560   3.183
27400SOL    HW282227   4.001   9.428   3.087
27401SOL     OW82228   3.761  10.620   3.144
27401SOL    HW182229   3.814  10.571   3.212
27401SOL    HW282230   3.783  10.718   3.149
27402SOL     OW82231   4.456   9.944   2.926
27402SOL    HW182232   4.515   9.918   2.850
27402SOL    HW282233   4.428  10.040   2.915
27403SOL     OW82234   5.452  10.245   3.716
27403SOL    HW182235   5.406  10.238   3.627
27403SOL    HW282236   5.390  10.289   3.782
27404SOL     OW82237   4.031   9.373   2.480
27404SOL    HW182238   4.020   9.467   2.513
27404SOL    HW282239   4.026   9.310   2.557
27405SOL     OW82240   5.346   9.677   2.236
27405SOL    HW182241   5.348   9.601   2.300
27405SOL    HW282242   5.298   9.754   2.276
27406SOL     OW82243   4.747  10.076   2.828
27406SOL    HW182244   4.762  10.097   2.924
27406SOL    HW282245   4.717   9.981   2.819
27407SOL     OW82246   4.704  10.883   3.562
27407SOL    HW182247   4.684  10.927   3.474
27407SOL    HW282248   4.743  10.792   3.546
27408SOL     OW82249   5.583  10.828   3.467
27408SOL    HW182250   5.597  10.855   3.372
27408SOL    HW282251   5.666  10.850   3.520
27409SOL     OW82252   4.074  10.208   3.666
27409SOL    HW182253   4.150  10.252   3.714
27409SOL    HW282254   4.109  10.161   3.584
27410SOL     OW82255   5.264   9.584   1.987
27410SOL    HW182256   5.203   9.509   2.010
27410SOL    HW282257   5.286   9.636   2.070
27411SOL     OW82258   5.027  10.148   1.904
27411SOL    HW182259   5.061  10.055   1.919
27411SOL    HW282260   5.045  10.175   1.809
27412SOL     OW82261   4.792  10.643   2.711
27412SOL    HW182262   4.799  10.559   2.656
27412SOL    HW282263   4.854  10.712   2.675
27413SOL     OW82264   4.043  10.120   2.811
27413SOL    HW182265   4.136  10.156   2.816
27413SOL    HW282266   4.037  10.035   2.863
27414SOL     OW82267   4.063   9.819   2.868
27414SOL    HW182268   4.011   9.736   2.851
27414SOL    HW282269   4.140   9.824   2.804
27415SOL     OW82270   4.862   9.690   3.540
27415SOL    HW182271   4.817   9.753   3.604
27415SOL    HW282272   4.955   9.721   3.523
27416SOL     OW82273   4.884   9.517   3.339
27416SOL    HW182274   4.884   9.581   3.416
27416SOL    HW282275   4.912   9.565   3.256
27417SOL     OW82276   3.732  10.636   2.062
27417SOL    HW182277   3.639  10.657   2.031
27417SOL    HW282278   3.742  10.537   2.075
27418SOL     OW82279   3.812  11.111   2.789
27418SOL    HW182280   3.770  11.025   2.762
27418SOL    HW282281   3.906  11.114   2.755
27419SOL     OW82282   4.228  10.878   2.772
27419SOL    HW182283   4.294  10.952   2.781
27419SOL    HW282284   4.272  10.799   2.730
27420SOL     OW82285   4.726  10.106   3.100
27420SOL    HW182286   4.767  10.074   3.186
27420SOL    HW282287   4.630  10.079   3.097
27421SOL     OW82288   3.764   9.854   2.976
27421SOL    HW182289   3.849   9.821   2.935
27421SOL    HW282290   3.777   9.869   3.074
27422SOL     OW82291   3.913   9.830   3.584
27422SOL    HW182292   3.972   9.790   3.514
27422SOL    HW282293   3.855   9.901   3.543
27423SOL     OW82294   5.093  10.260   3.522
27423SOL    HW182295   5.132  10.349   3.542
27423SOL    HW282296   5.103  10.240   3.425
27424SOL     OW82297   4.539   9.882   2.187
27424SOL    HW182298   4.546   9.793   2.141
27424SOL    HW282299   4.445   9.916   2.179
27425SOL     OW82300   5.381   9.914   3.068
27425SOL    HW182301   5.343   9.845   3.130
27425SOL    HW282302   5.463   9.878   3.024
27426SOL     OW82303   3.976  10.874   3.606
27426SOL    HW182304   3.946  10.931   3.682
27426SOL    HW282305   3.969  10.777   3.632
27427SOL     OW82306   4.395   9.774   3.131
27427SOL    HW182307   4.361   9.685   3.101
27427SOL    HW282308   4.421   9.828   3.051
27428SOL     OW82309   4.654  10.988   3.327
27428SOL    HW182310   4.630  10.970   3.232
27428SOL    HW282311   4.684  11.082   3.337
27429SOL     OW82312   4.197   9.810   2.053
27429SOL    HW182313   4.258   9.890   2.057
27429SOL    HW282314   4.102   9.841   2.060
27430SOL     OW82315   3.883  10.447   3.328
27430SOL    HW182316   3.905  10.386   3.404
27430SOL    HW282317   3.893  10.398   3.242
27431SOL     OW82318   5.071  10.369   3.096
27431SOL    HW182319   5.095  10.306   3.022
27431SOL    HW282320   4.981  10.409   3.078
27432SOL     OW82321   5.026  10.165   2.171
27432SOL    HW182322   4.940  10.134   2.213
27432SOL    HW282323   5.022  10.151   2.072
27433SOL     OW82324   5.483  11.057   3.016
27433SOL    HW182325   5.544  11.087   2.943
27433SOL    HW282326   5.445  10.968   2.994
27434SOL     OW82327   4.976  11.041   2.990
27434SOL    HW182328   5.060  11.046   2.936
27434SOL    HW282329   4.953  10.945   3.008
27435SOL     OW82330   3.807  10.568   2.884
27435SOL    HW182331   3.802  10.567   2.984
27435SOL    HW282332   3.724  10.527   2.846
27436SOL     OW82333   4.412  10.972   3.578
27436SOL    HW182334   4.356  11.053   3.587
27436SOL    HW282335   4.464  10.976   3.492
27437SOL     OW82336   5.450   9.445   2.385
27437SOL    HW182337   5.523   9.428   2.318
27437SOL    HW282338   5.419   9.358   2.423
27438SOL     OW82339   5.112  10.883   2.339
27438SOL    HW182340   5.179  10.895   2.265
27438SOL    HW282341   5.072  10.972   2.362
27439SOL     OW82342   3.854  11.104   3.713
27439SOL    HW182343   3.813  11.030   3.766
27439SOL    HW282344   3.918  11.155   3.771
27440SOL     OW82345   5.004  10.237   2.534
27440SOL    HW182346   5.064  10.156   2.536
27440SOL    HW282347   5.044  10.306   2.474
27441SOL     OW82348   4.554  10.583   3.284
27441SOL    HW182349   4.549  10.616   3.379
27441SOL    HW282350   4.468  10.602   3.238
27442SOL     OW82351   4.396  10.926   2.016
27442SOL    HW182352   4.405  10.936   1.917
27442SOL    HW282353   4.356  10.837   2.037
27443SOL     OW82354   5.374  11.030   3.256
27443SOL    HW182355   5.427  11.040   3.172
27443SOL    HW282356   5.347  11.120   3.290
27444SOL     OW82357   5.565   9.485   2.825
27444SOL    HW182358   5.604   9.400   2.789
27444SOL    HW282359   5.467   9.487   2.806
27445SOL     OW82360   3.987   9.636   2.582
27445SOL    HW182361   3.908   9.687   2.548
27445SOL    HW282362   3.978   9.621   2.680
27446SOL     OW82363   4.918  10.922   1.893
27446SOL    HW182364   4.924  10.829   1.930
27446SOL    HW282365   4.859  10.922   1.813
27447SOL     OW82366   4.546  10.312   3.234
27447SOL    HW182367   4.586  10.311   3.142
27447SOL    HW282368   4.556  10.404   3.274
27448SOL     OW82369   4.640  10.220   2.153
27448SOL    HW182370   4.703  10.258   2.085
27448SOL    HW282371   4.680  10.137   2.192
27449SOL     OW82372   5.228  10.917   1.906
27449SOL    HW182373   5.136  10.954   1.913
27449SOL    HW282374   5.266  10.937   1.816
27450SOL     OW82375   4.096  10.598   3.352
27450SOL    HW182376   4.083  10.691   3.318
27450SOL    HW282377   4.012  10.546   3.339
27451SOL     OW82378   5.338  10.602   3.151
27451SOL    HW182379   5.398  10.605   3.231
27451SOL    HW282380   5.263  10.666   3.164
27452SOL     OW82381   4.763  10.408   2.558
27452SOL    HW182382   4.693  10.361   2.612
27452SOL    HW282383   4.822  10.340   2.515
27453SOL     OW82384   4.738   9.546   2.833
27453SOL    HW182385   4.730   9.510   2.740
27453SOL    HW282386   4.736   9.470   2.898
27454SOL     OW82387   4.314  10.797   2.353
27454SOL    HW182388   4.356  10.739   2.283
27454SOL    HW282389   4.270  10.876   2.309
27455SOL     OW82390   5.433   9.695   3.243
27455SOL    HW182391   5.506   9.764   3.247
27455SOL    HW282392   5.461   9.620   3.184
27456SOL     OW82393   3.979  10.658   2.152
27456SOL    HW182394   3.883  10.659   2.125
27456SOL    HW282395   3.991  10.711   2.236
27457SOL     OW82396   3.829  10.323   3.588
27457SOL    HW182397   3.752  10.290   3.642
27457SOL    HW282398   3.914  10.293   3.630
27458SOL     OW82399   4.396   9.513   3.351
27458SOL    HW182400   4.486   9.497   3.311
27458SOL    HW282401   4.404   9.518   3.450
27459SOL     OW82402   3.799   9.655   1.895
27459SOL    HW182403   3.707   9.627   1.866
27459SOL    HW282404   3.830   9.732   1.839
27460SOL     OW82405   5.164  10.166   3.260
27460SOL    HW182406   5.107  10.218   3.197
27460SOL    HW282407   5.260  10.178   3.236
27461SOL     OW82408   3.796   9.476   2.180
27461SOL    HW182409   3.779   9.559   2.126
27461SOL    HW282410   3.886   9.439   2.158
27462SOL     OW82411   4.907  10.645   1.981
27462SOL    HW182412   4.808  10.634   1.983
27462SOL    HW282413   4.941  10.660   2.074
27463SOL     OW82414   4.337  10.152   3.293
27463SOL    HW182415   4.393  10.233   3.276
27463SOL    HW282416   4.396  10.072   3.296
27464SOL     OW82417   5.217  11.077   2.821
27464SOL    HW182418   5.250  11.141   2.752
27464SOL    HW282419   5.283  11.071   2.896
27465SOL     OW82420   4.440   9.875   3.570
27465SOL    HW182421   4.459   9.940   3.644
27465SOL    HW282422   4.500   9.795   3.579
27466SOL     OW82423   5.174  10.530   3.495
27466SOL    HW182424   5.165  10.520   3.594
27466SOL    HW282425   5.270  10.523   3.469
27467SOL     OW82426   4.114  11.051   3.422
27467SOL    HW182427   4.023  11.092   3.420
27467SOL    HW282428   4.107  10.957   3.454
27468SOL     OW82429   5.398  10.193   3.116
27468SOL    HW182430   5.371  10.104   3.079
27468SOL    HW282431   5.399  10.261   3.043
27469SOL     OW82432   4.949   9.635   2.311
27469SOL    HW182433   5.014   9.561   2.300
27469SOL    HW282434   4.969   9.685   2.395
27470SOL     OW82435   4.318  10.055   2.514
27470SOL    HW182436   4.368  10.140   2.495
27470SOL    HW282437   4.230  10.057   2.466
27471SOL     OW82438   5.501   9.652   3.504
27471SOL    HW182439   5.484   9.683   3.410
27471SOL    HW282440   5.417   9.615   3.542
27472SOL     OW82441   5.454  10.244   3.379
27472SOL    HW182442   5.492  10.335   3.394
27472SOL    HW282443   5.446  10.227   3.280
27473SOL     OW82444   4.583  10.684   1.878
27473SOL    HW182445   4.537  10.699   1.966
27473SOL    HW282446   4.627  10.769   1.848
27474SOL     OW82447   4.385  11.100   2.815
27474SOL    HW182448   4.339  11.188   2.802
27474SOL    HW282449   4.484  11.112   2.808
27475SOL     OW82450   4.583  10.266   2.723
27475SOL    HW182451   4.637  10.197   2.771
27475SOL    HW282452   4.551  10.335   2.789
27476SOL     OW82453   4.807  10.294   1.949
27476SOL    HW182454   4.784  10.347   1.867
27476SOL    HW282455   4.888  10.238   1.930
27477SOL     OW82456   5.585  10.879   2.713
27477SOL    HW182457   5.514  10.867   2.643
27477SOL    HW282458   5.586  10.800   2.773
27478SOL     OW82459   3.945  10.624   3.706
27478SOL    HW182460   3.880  10.551   3.685
27478SOL    HW282461   3.949  10.638   3.804
27479SOL     OW82462   3.803  10.550   2.515
27479SOL    HW182463   3.802  10.503   2.603
27479SOL    HW282464   3.885  10.522   2.464
27480SOL     OW82465   4.396  10.701   3.486
27480SOL    HW182466   4.318  10.651   3.524
27480SOL    HW282467   4.393  10.796   3.517
27481SOL     OW82468   5.548   9.502   3.089
27481SOL    HW182469   5.544   9.412   3.133
27481SOL    HW282470   5.551   9.491   2.990
27482SOL     OW82471   4.152   9.734   2.382
27482SOL    HW182472   4.182   9.662   2.320
27482SOL    HW282473   4.113   9.694   2.465
27483SOL     OW82474   5.429  10.797   2.966
27483SOL    HW182475   5.336  10.772   2.939
27483SOL    HW282476   5.455  10.747   3.048
27484SOL     OW82477   4.041   9.857   3.142
27484SOL    HW182478   4.079   9.798   3.214
27484SOL    HW282479   4.081   9.831   3.054
27485SOL     OW82480   4.536  10.896   2.549
27485SOL    HW182481   4.568  10.906   2.455
27485SOL    HW282482   4.457  10.834   2.551
27486SOL     OW82483   5.148   9.524   2.974
27486SOL    HW182484   5.200   9.459   3.029
27486SOL    HW282485   5.099   9.587   3.035
27487SOL     OW82486   4.725   9.344   3.016
27487SOL    HW182487   4.662   9.272   2.985
27487SOL    HW282488   4.818   9.308   3.016
27488SOL     OW82489   4.494  10.640   2.163
27488SOL    HW182490   4.448  10.553   2.180
27488SOL    HW282491   4.585  10.637   2.204
27489SOL     OW82492   4.342  10.877   3.146
27489SOL    HW182493   4.337  10.959   3.203
27489SOL    HW282494   4.431  10.874   3.101
27490SOL     OW82495   5.076   9.362   2.030
27490SOL    HW182496   5.111   9.321   1.946
27490SOL    HW282497   4.986   9.324   2.050
27491SOL     OW82498   5.024   9.763   2.553
27491SOL    HW182499   4.965   9.843   2.557
27491SOL    HW282500   5.039   9.728   2.646
27492SOL     OW82501   5.317   9.531   2.744
27492SOL    HW182502   5.233   9.530   2.798
27492SOL    HW282503   5.319   9.614   2.688
27493SOL     OW82504   3.763  10.387   2.162
27493SOL    HW182505   3.862  10.376   2.153
27493SOL    HW282506   3.723  10.301   2.194
27494SOL     OW82507   4.599  10.956   2.199
27494SOL    HW182508   4.522  10.921   2.145
27494SOL    HW282509   4.567  11.027   2.261
27495SOL     OW82510   3.954   9.938   3.837
27495SOL    HW182511   3.861   9.936   3.874
27495SOL    HW282512   3.955   9.899   3.745
27496SOL     OW82513   3.949   9.585   4.720
27496SOL    HW182514   3.984   9.568   4.812
27496SOL    HW282515   3.861   9.540   4.708
27497SOL     OW82516   3.743   9.678   4.371
27497SOL    HW182517   3.661   9.721   4.410
27497SOL    HW282518   3.715   9.605   4.308
27498SOL     OW82519   4.293  10.585   4.889
27498SOL    HW182520   4.200  10.578   4.852
27498SOL    HW282521   4.304  10.674   4.933
27499SOL     OW82522   5.279  10.821   4.427
27499SOL    HW182523   5.222  10.805   4.508
27499SOL    HW282524   5.220  10.831   4.347
27500SOL     OW82525   4.859  10.013   4.441
27500SOL    HW182526   4.916  10.091   4.416
27500SOL    HW282527   4.799  10.039   4.517
27501SOL     OW82528   5.479   9.917   3.955
27501SOL    HW182529   5.467   9.904   3.856
27501SOL    HW282530   5.449   9.836   4.004
27502SOL     OW82531   4.492  10.454   4.747
27502SOL    HW182532   4.414  10.471   4.807
27502SOL    HW282533   4.526  10.541   4.711
27503SOL     OW82534   4.574  10.108   5.547
27503SOL    HW182535   4.570  10.184   5.612
27503SOL    HW282536   4.596  10.144   5.456
27504SOL     OW82537   4.409  10.322   4.389
27504SOL    HW182538   4.478  10.306   4.459
27504SOL    HW282539   4.336  10.379   4.427
27505SOL     OW82540   4.410  10.471   5.527
27505SOL    HW182541   4.470  10.550   5.541
27505SOL    HW282542   4.324  10.502   5.486
27506SOL     OW82543   4.059  10.745   4.785
27506SOL    HW182544   3.981  10.714   4.732
27506SOL    HW282545   4.117  10.803   4.728
27507SOL     OW82546   5.184  10.815   5.063
27507SOL    HW182547   5.208  10.909   5.089
27507SOL    HW282548   5.168  10.761   5.145
27508SOL     OW82549   4.162   9.702   5.223
27508SOL    HW182550   4.244   9.646   5.232
27508SOL    HW282551   4.081   9.644   5.227
27509SOL     OW82552   5.327   9.757   4.461
27509SOL    HW182553   5.253   9.803   4.411
27509SOL    HW282554   5.378   9.825   4.514
27510SOL     OW82555   3.955  11.023   4.207
27510SOL    HW182556   3.989  11.100   4.261
27510SOL    HW282557   3.999  11.023   4.117
27511SOL     OW82558   4.851  10.651   5.414
27511SOL    HW182559   4.898  10.651   5.502
27511SOL    HW282560   4.803  10.564   5.403
27512SOL     OW82561   3.954  10.744   4.262
27512SOL    HW182562   3.928  10.840   4.262
27512SOL    HW282563   3.883  10.690   4.307
27513SOL     OW82564   3.964  10.401   4.610
27513SOL    HW182565   3.978  10.317   4.662
27513SOL    HW282566   3.909  10.465   4.665
27514SOL     OW82567   4.344  11.096   5.163
27514SOL    HW182568   4.252  11.079   5.198
27514SOL    HW282569   4.372  11.188   5.189
27515SOL     OW82570   4.330  10.274   3.847
27515SOL    HW182571   4.337  10.358   3.793
27515SOL    HW282572   4.376  10.287   3.935
27516SOL     OW82573   5.318   9.424   5.204
27516SOL    HW182574   5.300   9.491   5.132
27516SOL    HW282575   5.315   9.470   5.293
27517SOL     OW82576   3.846   9.953   4.287
27517SOL    HW182577   3.801   9.865   4.304
27517SOL    HW282578   3.845  10.007   4.371
27518SOL     OW82579   5.566  11.077   4.083
27518SOL    HW182580   5.620  11.048   4.163
27518SOL    HW282581   5.596  11.167   4.054
27519SOL     OW82582   3.751  10.906   3.841
27519SOL    HW182583   3.732  10.810   3.862
27519SOL    HW282584   3.718  10.964   3.916
27520SOL     OW82585   5.413  10.232   4.336
27520SOL    HW182586   5.508  10.203   4.344
27520SOL    HW282587   5.405  10.297   4.261
27521SOL     OW82588   5.365  10.418   4.156
27521SOL    HW182589   5.451  10.420   4.104
27521SOL    HW282590   5.379  10.465   4.244
27522SOL     OW82591   3.837  10.047   5.321
27522SOL    HW182592   3.925  10.034   5.366
27522SOL    HW282593   3.824  10.144   5.299
27523SOL     OW82594   4.337  10.675   4.450
27523SOL    HW182595   4.288  10.588   4.459
27523SOL    HW282596   4.314  10.718   4.363
27524SOL     OW82597   5.017  10.538   5.147
27524SOL    HW182598   5.054  10.465   5.089
27524SOL    HW282599   5.069  10.543   5.232
27525SOL     OW82600   4.533   9.314   4.226
27525SOL    HW182601   4.573   9.405   4.217
27525SOL    HW282602   4.433   9.322   4.232
27526SOL     OW82603   3.921  10.286   4.988
27526SOL    HW182604   4.010  10.241   4.974
27526SOL    HW282605   3.848  10.221   4.969
27527SOL     OW82606   5.249  10.309   3.914
27527SOL    HW182607   5.186  10.233   3.927
27527SOL    HW282608   5.297  10.327   4.000
27528SOL     OW82609   4.911  11.102   5.340
27528SOL    HW182610   4.935  11.162   5.264
27528SOL    HW282611   4.918  11.007   5.310
27529SOL     OW82612   4.041   9.561   5.525
27529SOL    HW182613   4.112   9.632   5.531
27529SOL    HW282614   3.953   9.600   5.553
27530SOL     OW82615   5.190  10.727   4.677
27530SOL    HW182616   5.131  10.733   4.757
27530SOL    HW282617   5.175  10.639   4.631
27531SOL     OW82618   5.391  11.024   4.296
27531SOL    HW182619   5.350  11.001   4.208
27531SOL    HW282620   5.373  10.950   4.361
27532SOL     OW82621   4.322  10.039   3.994
27532SOL    HW182622   4.346  10.108   3.926
27532SOL    HW282623   4.244  10.072   4.048
27533SOL     OW82624   5.005   9.655   4.668
27533SOL    HW182625   4.919   9.605   4.655
27533SOL    HW282626   5.067   9.601   4.724
27534SOL     OW82627   5.300  10.972   4.031
27534SOL    HW182628   5.389  11.018   4.034
27534SOL    HW282629   5.279  10.948   3.936
27535SOL     OW82630   4.531   9.915   5.189
27535SOL    HW182631   4.484   9.912   5.278
27535SOL    HW282632   4.480   9.860   5.123
27536SOL     OW82633   5.118   9.779   5.398
27536SOL    HW182634   5.098   9.822   5.486
27536SOL    HW282635   5.196   9.717   5.407
27537SOL     OW82636   4.697  10.200   5.296
27537SOL    HW182637   4.743  10.116   5.267
27537SOL    HW282638   4.641  10.234   5.221
27538SOL     OW82639   4.715   9.720   4.966
27538SOL    HW182640   4.638   9.754   5.020
27538SOL    HW282641   4.681   9.669   4.887
27539SOL     OW82642   4.765  10.011   4.153
27539SOL    HW182643   4.791  10.007   4.249
27539SOL    HW282644   4.680   9.960   4.139
27540SOL     OW82645   3.800  10.121   4.513
27540SOL    HW182646   3.899  10.109   4.522
27540SOL    HW282647   3.776  10.216   4.534
27541SOL     OW82648   3.854  11.131   5.295
27541SOL    HW182649   3.844  11.116   5.394
27541SOL    HW282650   3.768  11.167   5.259
27542SOL     OW82651   4.589   9.658   3.919
27542SOL    HW182652   4.648   9.721   3.870
27542SOL    HW282653   4.608   9.564   3.890
27543SOL     OW82654   5.443   9.895   5.555
27543SOL    HW182655   5.417   9.984   5.519
27543SOL    HW282656   5.441   9.827   5.482
27544SOL     OW82657   5.086  10.454   4.269
27544SOL    HW182658   5.169  10.425   4.221
27544SOL    HW282659   5.037  10.521   4.213
27545SOL     OW82660   4.274   9.506   4.609
27545SOL    HW182661   4.269   9.501   4.709
27545SOL    HW282662   4.276   9.602   4.580
27546SOL     OW82663   4.732  10.766   4.201
27546SOL    HW182664   4.686  10.838   4.149
27546SOL    HW282665   4.728  10.786   4.299
27547SOL     OW82666   4.075  11.111   4.577
27547SOL    HW182667   4.125  11.025   4.583
27547SOL    HW282668   4.140  11.188   4.574
27548SOL     OW82669   5.519  10.376   4.597
27548SOL    HW182670   5.457  10.361   4.521
27548SOL    HW282671   5.467  10.387   4.682
27549SOL     OW82672   4.951  10.860   5.230
27549SOL    HW182673   4.957  10.783   5.294
27549SOL    HW282674   4.899  10.834   5.150
27550SOL     OW82675   4.045  10.253   3.966
27550SOL    HW182676   4.127  10.292   3.924
27550SOL    HW282677   4.018  10.171   3.917
27551SOL     OW82678   5.182  10.045   4.452
27551SOL    HW182679   5.177   9.980   4.527
27551SOL    HW282680   5.262  10.104   4.465
27552SOL     OW82681   4.185  10.576   5.451
27552SOL    HW182682   4.135  10.577   5.365
27552SOL    HW282683   4.122  10.558   5.527
27553SOL     OW82684   4.835  11.086   3.961
27553SOL    HW182685   4.775  11.024   4.011
27553SOL    HW282686   4.866  11.042   3.876
27554SOL     OW82687   3.926   9.595   5.222
27554SOL    HW182688   3.846   9.655   5.209
27554SOL    HW282689   3.916   9.546   5.308
27555SOL     OW82690   5.356  10.687   3.805
27555SOL    HW182691   5.324  10.781   3.795
27555SOL    HW282692   5.280  10.624   3.793
27556SOL     OW82693   4.188  11.053   4.047
27556SOL    HW182694   4.221  11.092   4.133
27556SOL    HW282695   4.264  11.046   3.982
27557SOL     OW82696   5.124   9.417   4.150
27557SOL    HW182697   5.100   9.380   4.060
27557SOL    HW282698   5.223   9.433   4.154
27558SOL     OW82699   3.973  11.095   4.965
27558SOL    HW182700   4.030  11.030   5.015
27558SOL    HW282701   3.957  11.062   4.872
27559SOL     OW82702   4.664  11.008   4.628
27559SOL    HW182703   4.744  10.951   4.649
27559SOL    HW282704   4.615  10.968   4.551
27560SOL     OW82705   4.106  10.010   4.204
27560SOL    HW182706   4.151   9.920   4.201
27560SOL    HW282707   4.012   9.999   4.237
27561SOL     OW82708   5.271   9.532   5.453
27561SOL    HW182709   5.266   9.569   5.545
27561SOL    HW282710   5.199   9.463   5.441
27562SOL     OW82711   4.338   9.432   3.841
27562SOL    HW182712   4.436   9.410   3.848
27562SOL    HW282713   4.307   9.415   3.748
27563SOL     OW82714   4.505   9.574   5.473
27563SOL    HW182715   4.572   9.513   5.516
27563SOL    HW282716   4.432   9.593   5.538
27564SOL     OW82717   4.612  10.824   4.919
27564SOL    HW182718   4.589  10.799   4.825
27564SOL    HW282719   4.673  10.755   4.958
27565SOL     OW82720   5.075   9.900   5.157
27565SOL    HW182721   5.103   9.857   5.242
27565SOL    HW282722   5.100   9.996   5.158
27566SOL     OW82723   4.527  10.712   4.648
27566SOL    HW182724   4.617  10.726   4.606
27566SOL    HW282725   4.456  10.714   4.577
27567SOL     OW82726   4.646   9.813   4.623
27567SOL    HW182727   4.621   9.804   4.527
27567SOL    HW282728   4.694   9.731   4.654
27568SOL     OW82729   4.263   9.374   4.236
27568SOL    HW182730   4.182   9.375   4.294
27568SOL    HW282731   4.266   9.457   4.181
27569SOL     OW82732   5.158  10.498   3.765
27569SOL    HW182733   5.190  10.422   3.822
27569SOL    HW282734   5.066  10.525   3.795
27570SOL     OW82735   4.021   9.345   3.895
27570SOL    HW182736   4.070   9.429   3.874
27570SOL    HW282737   4.083   9.280   3.940
27571SOL     OW82738   4.659   9.546   4.204
27571SOL    HW182739   4.611   9.587   4.126
27571SOL    HW282740   4.758   9.544   4.185
27572SOL     OW82741   4.800   9.993   5.188
27572SOL    HW182742   4.720   9.932   5.191
27572SOL    HW282743   4.881   9.940   5.164
27573SOL     OW82744   4.951  10.880   4.517
27573SOL    HW182745   4.972  10.954   4.452
27573SOL    HW282746   5.019  10.880   4.590
27574SOL     OW82747   4.183  10.462   4.465
27574SOL    HW182748   4.112  10.435   4.530
27574SOL    HW282749   4.157  10.434   4.372
27575SOL     OW82750   4.995  11.107   4.315
27575SOL    HW182751   5.039  11.171   4.251
27575SOL    HW282752   4.945  11.159   4.385
27576SOL     OW82753   4.756   9.859   3.740
27576SOL    HW182754   4.715   9.941   3.701
27576SOL    HW282755   4.820   9.885   3.813
27577SOL     OW82756   3.802   9.866   5.110
27577SOL    HW182757   3.894   9.865   5.069
27577SOL    HW282758   3.796   9.940   5.177
27578SOL     OW82759   4.285   9.532   4.871
27578SOL    HW182760   4.323   9.448   4.908
27578SOL    HW282761   4.197   9.551   4.915
27579SOL     OW82762   4.590   9.764   4.366
27579SOL    HW182763   4.558   9.836   4.304
27579SOL    HW282764   4.614   9.683   4.313
27580SOL     OW82765   4.741   9.349   4.477
27580SOL    HW182766   4.669   9.354   4.408
27580SOL    HW282767   4.717   9.280   4.546
27581SOL     OW82768   5.153  10.483   4.591
27581SOL    HW182769   5.098  10.399   4.584
27581SOL    HW282770   5.179  10.512   4.499
27582SOL     OW82771   5.190   9.900   4.716
27582SOL    HW182772   5.160   9.805   4.723
27582SOL    HW282773   5.263   9.916   4.782
27583SOL     OW82774   5.581  10.143   4.101
27583SOL    HW182775   5.623  10.079   4.165
27583SOL    HW282776   5.543  10.092   4.023
27584SOL     OW82777   4.212  10.695   3.898
27584SOL    HW182778   4.125  10.680   3.945
27584SOL    HW282779   4.195  10.721   3.803
27585SOL     OW82780   5.388  10.590   4.381
27585SOL    HW182781   5.487  10.598   4.395
27585SOL    HW282782   5.343  10.674   4.412
27586SOL     OW82783   5.114   9.885   3.802
27586SOL    HW182784   5.060   9.864   3.883
27586SOL    HW282785   5.205   9.844   3.811
27587SOL     OW82786   4.251   9.566   4.052
27587SOL    HW182787   4.278   9.507   3.977
27587SOL    HW282788   4.251   9.661   4.021
27588SOL     OW82789   5.478  10.533   5.312
27588SOL    HW182790   5.569  10.494   5.299
27588SOL    HW282791   5.486  10.629   5.336
27589SOL     OW82792   4.788  10.657   5.064
27589SOL    HW182793   4.708  10.634   5.119
27589SOL    HW282794   4.871  10.631   5.113
27590SOL     OW82795   5.316  10.939   5.349
27590SOL    HW182796   5.343  10.973   5.259
27590SOL    HW282797   5.395  10.901   5.395
27591SOL     OW82798   4.835  10.505   4.824
27591SOL    HW182799   4.795  10.549   4.905
27591SOL    HW282800   4.794  10.542   4.741
27592SOL     OW82801   5.362  10.409   4.803
27592SOL    HW182802   5.367  10.490   4.862
27592SOL    HW282803   5.276  10.411   4.752
27593SOL     OW82804   4.639   9.399   5.126
27593SOL    HW182805   4.664   9.379   5.031
27593SOL    HW282806   4.711   9.455   5.168
27594SOL     OW82807   4.704  10.426   5.443
27594SOL    HW182808   4.605  10.432   5.453
27594SOL    HW282809   4.727  10.346   5.387
27595SOL     OW82810   4.429  10.360   4.092
27595SOL    HW182811   4.415  10.367   4.191
27595SOL    HW282812   4.513  10.309   4.074
27596SOL     OW82813   4.134  10.123   4.975
27596SOL    HW182814   4.220  10.135   5.025
27596SOL    HW282815   4.092  10.036   5.002
27597SOL     OW82816   4.998   9.696   4.986
27597SOL    HW182817   5.019   9.770   5.050
27597SOL    HW282818   4.909   9.713   4.943
27598SOL     OW82819   3.788  10.874   5.055
27598SOL    HW182820   3.742  10.956   5.021
27598SOL    HW282821   3.886  10.893   5.064
27599SOL     OW82822   4.091  10.410   4.225
27599SOL    HW182823   4.084  10.493   4.169
27599SOL    HW282824   4.095  10.330   4.165
27600SOL     OW82825   4.290   9.847   4.589
27600SOL    HW182826   4.302   9.913   4.515
27600SOL    HW282827   4.336   9.881   4.672
27601SOL     OW82828   4.976  10.658   4.112
27601SOL    HW182829   5.026  10.735   4.152
27601SOL    HW282830   4.881  10.660   4.144
27602SOL     OW82831   4.996  10.755   4.866
27602SOL    HW182832   5.043  10.768   4.953
27602SOL    HW282833   4.930  10.681   4.875
27603SOL     OW82834   5.306   9.949   4.196
27603SOL    HW182835   5.275  10.010   4.269
27603SOL    HW282836   5.356  10.001   4.127
27604SOL     OW82837   4.078  10.820   5.053
27604SOL    HW182838   4.057  10.776   4.966
27604SOL    HW282839   4.175  10.846   5.056
27605SOL     OW82840   4.126  10.061   5.322
27605SOL    HW182841   4.194  10.116   5.275
27605SOL    HW282842   4.166   9.973   5.349
27606SOL     OW82843   5.311  10.089   5.394
27606SOL    HW182844   5.219  10.127   5.389
27606SOL    HW282845   5.371  10.136   5.329
27607SOL     OW82846   4.737   9.415   5.494
27607SOL    HW182847   4.743   9.500   5.442
27607SOL    HW282848   4.769   9.339   5.437
27608SOL     OW82849   4.228   9.360   5.464
27608SOL    HW182850   4.186   9.303   5.394
27608SOL    HW282851   4.162   9.429   5.496
27609SOL     OW82852   4.297  10.180   4.753
27609SOL    HW182853   4.341  10.269   4.744
27609SOL    HW282854   4.234  10.180   4.830
27610SOL     OW82855   5.084  10.172   4.769
27610SOL    HW182856   5.009  10.172   4.703
27610SOL    HW282857   5.121  10.080   4.778
27611SOL     OW82858   4.933   9.835   3.999
27611SOL    HW182859   4.946   9.751   4.053
27611SOL    HW282860   4.904   9.909   4.059
27612SOL     OW82861   4.031   9.523   4.955
27612SOL    HW182862   4.008   9.560   5.045
27612SOL    HW282863   4.001   9.428   4.949
27613SOL     OW82864   3.761  10.620   5.006
27613SOL    HW182865   3.814  10.571   5.074
27613SOL    HW282866   3.783  10.718   5.011
27614SOL     OW82867   4.456   9.944   4.788
27614SOL    HW182868   4.515   9.918   4.712
27614SOL    HW282869   4.428  10.040   4.777
27615SOL     OW82870   5.452  10.245   5.578
27615SOL    HW182871   5.406  10.238   5.489
27615SOL    HW282872   5.390  10.289   5.644
27616SOL     OW82873   4.031   9.373   4.342
27616SOL    HW182874   4.020   9.467   4.375
27616SOL    HW282875   4.026   9.310   4.419
27617SOL     OW82876   5.346   9.677   4.098
27617SOL    HW182877   5.348   9.601   4.162
27617SOL    HW282878   5.298   9.754   4.138
27618SOL     OW82879   4.747  10.076   4.690
27618SOL    HW182880   4.762  10.097   4.786
27618SOL    HW282881   4.717   9.981   4.681
27619SOL     OW82882   4.704  10.883   5.424
27619SOL    HW182883   4.684  10.927   5.336
27619SOL    HW282884   4.743  10.792   5.408
27620SOL     OW82885   5.583  10.828   5.329
27620SOL    HW182886   5.597  10.855   5.234
27620SOL    HW282887   5.666  10.850   5.382
27621SOL     OW82888   4.074  10.208   5.528
27621SOL    HW182889   4.150  10.252   5.576
27621SOL    HW282890   4.109  10.161   5.446
27622SOL     OW82891   5.264   9.584   3.849
27622SOL    HW182892   5.203   9.509   3.872
27622SOL    HW282893   5.286   9.636   3.932
27623SOL     OW82894   5.027  10.148   3.766
27623SOL    HW182895   5.061  10.055   3.781
27623SOL    HW282896   5.045  10.175   3.671
27624SOL     OW82897   4.792  10.643   4.573
27624SOL    HW182898   4.799  10.559   4.518
27624SOL    HW282899   4.854  10.712   4.537
27625SOL     OW82900   4.043  10.120   4.673
27625SOL    HW182901   4.136  10.156   4.678
27625SOL    HW282902   4.037  10.035   4.725
27626SOL     OW82903   4.063   9.819   4.730
27626SOL    HW182904   4.011   9.736   4.713
27626SOL    HW282905   4.140   9.824   4.666
27627SOL     OW82906   4.862   9.690   5.402
27627SOL    HW182907   4.817   9.753   5.466
27627SOL    HW282908   4.955   9.721   5.385
27628SOL     OW82909   4.884   9.517   5.201
27628SOL    HW182910   4.884   9.581   5.278
27628SOL    HW282911   4.912   9.565   5.118
27629SOL     OW82912   3.732  10.636   3.924
27629SOL    HW182913   3.639  10.657   3.893
27629SOL    HW282914   3.742  10.537   3.937
27630SOL     OW82915   3.812  11.111   4.651
27630SOL    HW182916   3.770  11.025   4.624
27630SOL    HW282917   3.906  11.114   4.617
27631SOL     OW82918   4.228  10.878   4.634
27631SOL    HW182919   4.294  10.952   4.643
27631SOL    HW282920   4.272  10.799   4.592
27632SOL     OW82921   4.726  10.106   4.962
27632SOL    HW182922   4.767  10.074   5.048
27632SOL    HW282923   4.630  10.079   4.959
27633SOL     OW82924   3.764   9.854   4.838
27633SOL    HW182925   3.849   9.821   4.797
27633SOL    HW282926   3.777   9.869   4.936
27634SOL     OW82927   3.913   9.830   5.446
27634SOL    HW182928   3.972   9.790   5.376
27634SOL    HW282929   3.855   9.901   5.405
27635SOL     OW82930   5.093  10.260   5.384
27635SOL    HW182931   5.132  10.349   5.404
27635SOL    HW282932   5.103  10.240   5.287
27636SOL     OW82933   4.539   9.882   4.049
27636SOL    HW182934   4.546   9.793   4.003
27636SOL    HW282935   4.445   9.916   4.041
27637SOL     OW82936   5.381   9.914   4.930
27637SOL    HW182937   5.343   9.845   4.992
27637SOL    HW282938   5.463   9.878   4.886
27638SOL     OW82939   3.976  10.874   5.468
27638SOL    HW182940   3.946  10.931   5.544
27638SOL    HW282941   3.969  10.777   5.494
27639SOL     OW82942   4.395   9.774   4.993
27639SOL    HW182943   4.361   9.685   4.963
27639SOL    HW282944   4.421   9.828   4.913
27640SOL     OW82945   4.654  10.988   5.189
27640SOL    HW182946   4.630  10.970   5.094
27640SOL    HW282947   4.684  11.082   5.199
27641SOL     OW82948   4.197   9.810   3.915
27641SOL    HW182949   4.258   9.890   3.919
27641SOL    HW282950   4.102   9.841   3.922
27642SOL     OW82951   3.883  10.447   5.190
27642SOL    HW182952   3.905  10.386   5.266
27642SOL    HW282953   3.893  10.398   5.104
27643SOL     OW82954   5.071  10.369   4.958
27643SOL    HW182955   5.095  10.306   4.884
27643SOL    HW282956   4.981  10.409   4.940
27644SOL     OW82957   5.026  10.165   4.033
27644SOL    HW182958   4.940  10.134   4.075
27644SOL    HW282959   5.022  10.151   3.934
27645SOL     OW82960   5.483  11.057   4.878
27645SOL    HW182961   5.544  11.087   4.805
27645SOL    HW282962   5.445  10.968   4.856
27646SOL     OW82963   4.976  11.041   4.852
27646SOL    HW182964   5.060  11.046   4.798
27646SOL    HW282965   4.953  10.945   4.870
27647SOL     OW82966   3.807  10.568   4.746
27647SOL    HW182967   3.802  10.567   4.846
27647SOL    HW282968   3.724  10.527   4.708
27648SOL     OW82969   4.412  10.972   5.440
27648SOL    HW182970   4.356  11.053   5.449
27648SOL    HW282971   4.464  10.976   5.354
27649SOL     OW82972   5.450   9.445   4.247
27649SOL    HW182973   5.523   9.428   4.180
27649SOL    HW282974   5.419   9.358   4.285
27650SOL     OW82975   5.112  10.883   4.201
27650SOL    HW182976   5.179  10.895   4.127
27650SOL    HW282977   5.072  10.972   4.224
27651SOL     OW82978   3.854  11.104   5.575
27651SOL    HW182979   3.813  11.030   5.628
27651SOL    HW282980   3.918  11.155   5.633
27652SOL     OW82981   5.004  10.237   4.396
27652SOL    HW182982   5.064  10.156   4.398
27652SOL    HW282983   5.044  10.306   4.336
27653SOL     OW82984   4.554  10.583   5.146
27653SOL    HW182985   4.549  10.616   5.241
27653SOL    HW282986   4.468  10.602   5.100
27654SOL     OW82987   4.396  10.926   3.878
27654SOL    HW182988   4.405  10.936   3.779
27654SOL    HW282989   4.356  10.837   3.899
27655SOL     OW82990   5.374  11.030   5.118
27655SOL    HW182991   5.427  11.040   5.034
27655SOL    HW282992   5.347  11.120   5.152
27656SOL     OW82993   5.565   9.485   4.687
27656SOL    HW182994   5.604   9.400   4.651
27656SOL    HW282995   5.467   9.487   4.668
27657SOL     OW82996   3.987   9.636   4.444
27657SOL    HW182997   3.908   9.687   4.410
27657SOL    HW282998   3.978   9.621   4.542
27658SOL     OW82999   4.918  10.922   3.755
27658SOL    HW183000   4.924  10.829   3.792
27658SOL    HW283001   4.859  10.922   3.675
27659SOL     OW83002   4.546  10.312   5.096
27659SOL    HW183003   4.586  10.311   5.004
27659SOL    HW283004   4.556  10.404   5.136
27660SOL     OW83005   4.640  10.220   4.015
27660SOL    HW183006   4.703  10.258   3.947
27660SOL    HW283007   4.680  10.137   4.054
27661SOL     OW83008   5.228  10.917   3.768
27661SOL    HW183009   5.136  10.954   3.775
27661SOL    HW283010   5.266  10.937   3.678
27662SOL     OW83011   4.096  10.598   5.214
27662SOL    HW183012   4.083  10.691   5.180
27662SOL    HW283013   4.012  10.546   5.201
27663SOL     OW83014   5.338  10.602   5.013
27663SOL    HW183015   5.398  10.605   5.093
27663SOL    HW283016   5.263  10.666   5.026
27664SOL     OW83017   4.763  10.408   4.420
27664SOL    HW183018   4.693  10.361   4.474
27664SOL    HW283019   4.822  10.340   4.377
27665SOL     OW83020   4.738   9.546   4.695
27665SOL    HW183021   4.730   9.510   4.602
27665SOL    HW283022   4.736   9.470   4.760
27666SOL     OW83023   4.314  10.797   4.215
27666SOL    HW183024   4.356  10.739   4.145
27666SOL    HW283025   4.270  10.876   4.171
27667SOL     OW83026   5.433   9.695   5.105
27667SOL    HW183027   5.506   9.764   5.109
27667SOL    HW283028   5.461   9.620   5.046
27668SOL     OW83029   3.979  10.658   4.014
27668SOL    HW183030   3.883  10.659   3.987
27668SOL    HW283031   3.991  10.711   4.098
27669SOL     OW83032   3.829  10.323   5.450
27669SOL    HW183033   3.752  10.290   5.504
27669SOL    HW283034   3.914  10.293   5.492
27670SOL     OW83035   4.396   9.513   5.213
27670SOL    HW183036   4.486   9.497   5.173
27670SOL    HW283037   4.404   9.518   5.312
27671SOL     OW83038   3.799   9.655   3.757
27671SOL    HW183039   3.707   9.627   3.728
27671SOL    HW283040   3.830   9.732   3.701
27672SOL     OW83041   5.164  10.166   5.122
27672SOL    HW183042   5.107  10.218   5.059
27672SOL    HW283043   5.260  10.178   5.098
27673SOL     OW83044   3.796   9.476   4.042
27673SOL    HW183045   3.779   9.559   3.988
27673SOL    HW283046   3.886   9.439   4.020
27674SOL     OW83047   4.907  10.645   3.843
27674SOL    HW183048   4.808  10.634   3.845
27674SOL    HW283049   4.941  10.660   3.936
27675SOL     OW83050   4.337  10.152   5.155
27675SOL    HW183051   4.393  10.233   5.138
27675SOL    HW283052   4.396  10.072   5.158
27676SOL     OW83053   5.217  11.077   4.683
27676SOL    HW183054   5.250  11.141   4.614
27676SOL    HW283055   5.283  11.071   4.758
27677SOL     OW83056   4.440   9.875   5.432
27677SOL    HW183057   4.459   9.940   5.506
27677SOL    HW283058   4.500   9.795   5.441
27678SOL     OW83059   5.174  10.530   5.357
27678SOL    HW183060   5.165  10.520   5.456
27678SOL    HW283061   5.270  10.523   5.331
27679SOL     OW83062   4.114  11.051   5.284
27679SOL    HW183063   4.023  11.092   5.282
27679SOL    HW283064   4.107  10.957   5.316
27680SOL     OW83065   5.398  10.193   4.978
27680SOL    HW183066   5.371  10.104   4.941
27680SOL    HW283067   5.399  10.261   4.905
27681SOL     OW83068   4.949   9.635   4.173
27681SOL    HW183069   5.014   9.561   4.162
27681SOL    HW283070   4.969   9.685   4.257
27682SOL     OW83071   4.318  10.055   4.376
27682SOL    HW183072   4.368  10.140   4.357
27682SOL    HW283073   4.230  10.057   4.328
27683SOL     OW83074   5.501   9.652   5.366
27683SOL    HW183075   5.484   9.683   5.272
27683SOL    HW283076   5.417   9.615   5.404
27684SOL     OW83077   5.454  10.244   5.241
27684SOL    HW183078   5.492  10.335   5.256
27684SOL    HW283079   5.446  10.227   5.142
27685SOL     OW83080   4.583  10.684   3.740
27685SOL    HW183081   4.537  10.699   3.828
27685SOL    HW283082   4.627  10.769   3.710
27686SOL     OW83083   4.385  11.100   4.677
27686SOL    HW183084   4.339  11.188   4.664
27686SOL    HW283085   4.484  11.112   4.670
27687SOL     OW83086   4.583  10.266   4.585
27687SOL    HW183087   4.637  10.197   4.633
27687SOL    HW283088   4.551  10.335   4.651
27688SOL     OW83089   4.807  10.294   3.811
27688SOL    HW183090   4.784  10.347   3.729
27688SOL    HW283091   4.888  10.238   3.792
27689SOL     OW83092   5.585  10.879   4.575
27689SOL    HW183093   5.514  10.867   4.505
27689SOL    HW283094   5.586  10.800   4.635
27690SOL     OW83095   3.945  10.624   5.568
27690SOL    HW183096   3.880  10.551   5.547
27690SOL    HW283097   3.949  10.638   5.666
27691SOL     OW83098   3.803  10.550   4.377
27691SOL    HW183099   3.802  10.503   4.465
27691SOL    HW283100   3.885  10.522   4.326
27692SOL     OW83101   4.396  10.701   5.348
27692SOL    HW183102   4.318  10.651   5.386
27692SOL    HW283103   4.393  10.796   5.379
27693SOL     OW83104   5.548   9.502   4.951
27693SOL    HW183105   5.544   9.412   4.995
27693SOL    HW283106   5.551   9.491   4.852
27694SOL     OW83107   4.152   9.734   4.244
27694SOL    HW183108   4.182   9.662   4.182
27694SOL    HW283109   4.113   9.694   4.327
27695SOL     OW83110   5.429  10.797   4.828
27695SOL    HW183111   5.336  10.772   4.801
27695SOL    HW283112   5.455  10.747   4.910
27696SOL     OW83113   4.041   9.857   5.004
27696SOL    HW183114   4.079   9.798   5.076
27696SOL    HW283115   4.081   9.831   4.916
27697SOL     OW83116   4.536  10.896   4.411
27697SOL    HW183117   4.568  10.906   4.317
27697SOL    HW283118   4.457  10.834   4.413
27698SOL     OW83119   5.148   9.524   4.836
27698SOL    HW183120   5.200   9.459   4.891
27698SOL    HW283121   5.099   9.587   4.897
27699SOL     OW83122   4.725   9.344   4.878
27699SOL    HW183123   4.662   9.272   4.847
27699SOL    HW283124   4.818   9.308   4.878
27700SOL     OW83125   4.494  10.640   4.025
27700SOL    HW183126   4.448  10.553   4.042
27700SOL    HW283127   4.585  10.637   4.066
27701SOL     OW83128   4.342  10.877   5.008
27701SOL    HW183129   4.337  10.959   5.065
27701SOL    HW283130   4.431  10.874   4.963
27702SOL     OW83131   5.076   9.362   3.892
27702SOL    HW183132   5.111   9.321   3.808
27702SOL    HW283133   4.986   9.324   3.912
27703SOL     OW83134   5.024   9.763   4.415
27703SOL    HW183135   4.965   9.843   4.419
27703SOL    HW283136   5.039   9.728   4.508
27704SOL     OW83137   5.317   9.531   4.606
27704SOL    HW183138   5.233   9.530   4.660
27704SOL    HW283139   5.319   9.614   4.550
27705SOL     OW83140   3.763  10.387   4.024
27705SOL    HW183141   3.862  10.376   4.015
27705SOL    HW283142   3.723  10.301   4.056
27706SOL     OW83143   4.599  10.956   4.061
27706SOL    HW183144   4.522  10.921   4.007
27706SOL    HW283145   4.567  11.027   4.123
27707SOL     OW83146   3.954   9.938   5.699
27707SOL    HW183147   3.861   9.936   5.736
27707SOL    HW283148   3.955   9.899   5.607
27708SOL     OW83149   3.949   9.585   6.582
27708SOL    HW183150   3.984   9.568   6.674
27708SOL    HW283151   3.861   9.540   6.570
27709SOL     OW83152   3.743   9.678   6.233
27709SOL    HW183153   3.661   9.721   6.272
27709SOL    HW283154   3.715   9.605   6.170
27710SOL     OW83155   4.293  10.585   6.751
27710SOL    HW183156   4.200  10.578   6.714
27710SOL    HW283157   4.304  10.674   6.795
27711SOL     OW83158   5.279  10.821   6.289
27711SOL    HW183159   5.222  10.805   6.370
27711SOL    HW283160   5.220  10.831   6.209
27712SOL     OW83161   4.859  10.013   6.303
27712SOL    HW183162   4.916  10.091   6.278
27712SOL    HW283163   4.799  10.039   6.379
27713SOL     OW83164   5.479   9.917   5.817
27713SOL    HW183165   5.467   9.904   5.718
27713SOL    HW283166   5.449   9.836   5.866
27714SOL     OW83167   4.492  10.454   6.609
27714SOL    HW183168   4.414  10.471   6.669
27714SOL    HW283169   4.526  10.541   6.573
27715SOL     OW83170   4.574  10.108   7.409
27715SOL    HW183171   4.570  10.184   7.474
27715SOL    HW283172   4.596  10.144   7.318
27716SOL     OW83173   4.409  10.322   6.251
27716SOL    HW183174   4.478  10.306   6.321
27716SOL    HW283175   4.336  10.379   6.289
27717SOL     OW83176   4.410  10.471   7.389
27717SOL    HW183177   4.470  10.550   7.403
27717SOL    HW283178   4.324  10.502   7.348
27718SOL     OW83179   4.059  10.745   6.647
27718SOL    HW183180   3.981  10.714   6.594
27718SOL    HW283181   4.117  10.803   6.590
27719SOL     OW83182   5.184  10.815   6.925
27719SOL    HW183183   5.208  10.909   6.951
27719SOL    HW283184   5.168  10.761   7.007
27720SOL     OW83185   4.162   9.702   7.085
27720SOL    HW183186   4.244   9.646   7.094
27720SOL    HW283187   4.081   9.644   7.089
27721SOL     OW83188   5.327   9.757   6.323
27721SOL    HW183189   5.253   9.803   6.273
27721SOL    HW283190   5.378   9.825   6.376
27722SOL     OW83191   3.955  11.023   6.069
27722SOL    HW183192   3.989  11.100   6.123
27722SOL    HW283193   3.999  11.023   5.979
27723SOL     OW83194   4.851  10.651   7.276
27723SOL    HW183195   4.898  10.651   7.364
27723SOL    HW283196   4.803  10.564   7.265
27724SOL     OW83197   3.954  10.744   6.124
27724SOL    HW183198   3.928  10.840   6.124
27724SOL    HW283199   3.883  10.690   6.169
27725SOL     OW83200   3.964  10.401   6.472
27725SOL    HW183201   3.978  10.317   6.524
27725SOL    HW283202   3.909  10.465   6.527
27726SOL     OW83203   4.344  11.096   7.025
27726SOL    HW183204   4.252  11.079   7.060
27726SOL    HW283205   4.372  11.188   7.051
27727SOL     OW83206   4.330  10.274   5.709
27727SOL    HW183207   4.337  10.358   5.655
27727SOL    HW283208   4.376  10.287   5.797
27728SOL     OW83209   5.318   9.424   7.066
27728SOL    HW183210   5.300   9.491   6.994
27728SOL    HW283211   5.315   9.470   7.155
27729SOL     OW83212   3.846   9.953   6.149
27729SOL    HW183213   3.801   9.865   6.166
27729SOL    HW283214   3.845  10.007   6.233
27730SOL     OW83215   5.566  11.077   5.945
27730SOL    HW183216   5.620  11.048   6.025
27730SOL    HW283217   5.596  11.167   5.916
27731SOL     OW83218   3.751  10.906   5.703
27731SOL    HW183219   3.732  10.810   5.724
27731SOL    HW283220   3.718  10.964   5.778
27732SOL     OW83221   5.413  10.232   6.198
27732SOL    HW183222   5.508  10.203   6.206
27732SOL    HW283223   5.405  10.297   6.123
27733SOL     OW83224   5.365  10.418   6.018
27733SOL    HW183225   5.451  10.420   5.966
27733SOL    HW283226   5.379  10.465   6.106
27734SOL     OW83227   3.837  10.047   7.183
27734SOL    HW183228   3.925  10.034   7.228
27734SOL    HW283229   3.824  10.144   7.161
27735SOL     OW83230   4.337  10.675   6.312
27735SOL    HW183231   4.288  10.588   6.321
27735SOL    HW283232   4.314  10.718   6.225
27736SOL     OW83233   5.017  10.538   7.009
27736SOL    HW183234   5.054  10.465   6.951
27736SOL    HW283235   5.069  10.543   7.094
27737SOL     OW83236   4.533   9.314   6.088
27737SOL    HW183237   4.573   9.405   6.079
27737SOL    HW283238   4.433   9.322   6.094
27738SOL     OW83239   3.921  10.286   6.850
27738SOL    HW183240   4.010  10.241   6.836
27738SOL    HW283241   3.848  10.221   6.831
27739SOL     OW83242   5.249  10.309   5.776
27739SOL    HW183243   5.186  10.233   5.789
27739SOL    HW283244   5.297  10.327   5.862
27740SOL     OW83245   4.911  11.102   7.202
27740SOL    HW183246   4.935  11.162   7.126
27740SOL    HW283247   4.918  11.007   7.172
27741SOL     OW83248   4.041   9.561   7.387
27741SOL    HW183249   4.112   9.632   7.393
27741SOL    HW283250   3.953   9.600   7.415
27742SOL     OW83251   5.190  10.727   6.539
27742SOL    HW183252   5.131  10.733   6.619
27742SOL    HW283253   5.175  10.639   6.493
27743SOL     OW83254   5.391  11.024   6.158
27743SOL    HW183255   5.350  11.001   6.070
27743SOL    HW283256   5.373  10.950   6.223
27744SOL     OW83257   4.322  10.039   5.856
27744SOL    HW183258   4.346  10.108   5.788
27744SOL    HW283259   4.244  10.072   5.910
27745SOL     OW83260   5.005   9.655   6.530
27745SOL    HW183261   4.919   9.605   6.517
27745SOL    HW283262   5.067   9.601   6.586
27746SOL     OW83263   5.300  10.972   5.893
27746SOL    HW183264   5.389  11.018   5.896
27746SOL    HW283265   5.279  10.948   5.798
27747SOL     OW83266   4.531   9.915   7.051
27747SOL    HW183267   4.484   9.912   7.140
27747SOL    HW283268   4.480   9.860   6.985
27748SOL     OW83269   5.118   9.779   7.260
27748SOL    HW183270   5.098   9.822   7.348
27748SOL    HW283271   5.196   9.717   7.269
27749SOL     OW83272   4.697  10.200   7.158
27749SOL    HW183273   4.743  10.116   7.129
27749SOL    HW283274   4.641  10.234   7.083
27750SOL     OW83275   4.715   9.720   6.828
27750SOL    HW183276   4.638   9.754   6.882
27750SOL    HW283277   4.681   9.669   6.749
27751SOL     OW83278   4.765  10.011   6.015
27751SOL    HW183279   4.791  10.007   6.111
27751SOL    HW283280   4.680   9.960   6.001
27752SOL     OW83281   3.800  10.121   6.375
27752SOL    HW183282   3.899  10.109   6.384
27752SOL    HW283283   3.776  10.216   6.396
27753SOL     OW83284   3.854  11.131   7.157
27753SOL    HW183285   3.844  11.116   7.256
27753SOL    HW283286   3.768  11.167   7.121
27754SOL     OW83287   4.589   9.658   5.781
27754SOL    HW183288   4.648   9.721   5.732
27754SOL    HW283289   4.608   9.564   5.752
27755SOL     OW83290   5.443   9.895   7.417
27755SOL    HW183291   5.417   9.984   7.381
27755SOL    HW283292   5.441   9.827   7.344
27756SOL     OW83293   5.086  10.454   6.131
27756SOL    HW183294   5.169  10.425   6.083
27756SOL    HW283295   5.037  10.521   6.075
27757SOL     OW83296   4.274   9.506   6.471
27757SOL    HW183297   4.269   9.501   6.571
27757SOL    HW283298   4.276   9.602   6.442
27758SOL     OW83299   4.732  10.766   6.063
27758SOL    HW183300   4.686  10.838   6.011
27758SOL    HW283301   4.728  10.786   6.161
27759SOL     OW83302   4.075  11.111   6.439
27759SOL    HW183303   4.125  11.025   6.445
27759SOL    HW283304   4.140  11.188   6.436
27760SOL     OW83305   5.519  10.376   6.459
27760SOL    HW183306   5.457  10.361   6.383
27760SOL    HW283307   5.467  10.387   6.544
27761SOL     OW83308   4.951  10.860   7.092
27761SOL    HW183309   4.957  10.783   7.156
27761SOL    HW283310   4.899  10.834   7.012
27762SOL     OW83311   4.045  10.253   5.828
27762SOL    HW183312   4.127  10.292   5.786
27762SOL    HW283313   4.018  10.171   5.779
27763SOL     OW83314   5.182  10.045   6.314
27763SOL    HW183315   5.177   9.980   6.389
27763SOL    HW283316   5.262  10.104   6.327
27764SOL     OW83317   4.185  10.576   7.313
27764SOL    HW183318   4.135  10.577   7.227
27764SOL    HW283319   4.122  10.558   7.389
27765SOL     OW83320   4.835  11.086   5.823
27765SOL    HW183321   4.775  11.024   5.873
27765SOL    HW283322   4.866  11.042   5.738
27766SOL     OW83323   3.926   9.595   7.084
27766SOL    HW183324   3.846   9.655   7.071
27766SOL    HW283325   3.916   9.546   7.170
27767SOL     OW83326   5.356  10.687   5.667
27767SOL    HW183327   5.324  10.781   5.657
27767SOL    HW283328   5.280  10.624   5.655
27768SOL     OW83329   4.188  11.053   5.909
27768SOL    HW183330   4.221  11.092   5.995
27768SOL    HW283331   4.264  11.046   5.844
27769SOL     OW83332   5.124   9.417   6.012
27769SOL    HW183333   5.100   9.380   5.922
27769SOL    HW283334   5.223   9.433   6.016
27770SOL     OW83335   3.973  11.095   6.827
27770SOL    HW183336   4.030  11.030   6.877
27770SOL    HW283337   3.957  11.062   6.734
27771SOL     OW83338   4.664  11.008   6.490
27771SOL    HW183339   4.744  10.951   6.511
27771SOL    HW283340   4.615  10.968   6.413
27772SOL     OW83341   4.106  10.010   6.066
27772SOL    HW183342   4.151   9.920   6.063
27772SOL    HW283343   4.012   9.999   6.099
27773SOL     OW83344   5.271   9.532   7.315
27773SOL    HW183345   5.266   9.569   7.407
27773SOL    HW283346   5.199   9.463   7.303
27774SOL     OW83347   4.338   9.432   5.703
27774SOL    HW183348   4.436   9.410   5.710
27774SOL    HW283349   4.307   9.415   5.610
27775SOL     OW83350   4.505   9.574   7.335
27775SOL    HW183351   4.572   9.513   7.378
27775SOL    HW283352   4.432   9.593   7.400
27776SOL     OW83353   4.612  10.824   6.781
27776SOL    HW183354   4.589  10.799   6.687
27776SOL    HW283355   4.673  10.755   6.820
27777SOL     OW83356   5.075   9.900   7.019
27777SOL    HW183357   5.103   9.857   7.104
27777SOL    HW283358   5.100   9.996   7.020
27778SOL     OW83359   4.527  10.712   6.510
27778SOL    HW183360   4.617  10.726   6.468
27778SOL    HW283361   4.456  10.714   6.439
27779SOL     OW83362   4.646   9.813   6.485
27779SOL    HW183363   4.621   9.804   6.389
27779SOL    HW283364   4.694   9.731   6.516
27780SOL     OW83365   4.263   9.374   6.098
27780SOL    HW183366   4.182   9.375   6.156
27780SOL    HW283367   4.266   9.457   6.043
27781SOL     OW83368   5.158  10.498   5.627
27781SOL    HW183369   5.190  10.422   5.684
27781SOL    HW283370   5.066  10.525   5.657
27782SOL     OW83371   4.021   9.345   5.757
27782SOL    HW183372   4.070   9.429   5.736
27782SOL    HW283373   4.083   9.280   5.802
27783SOL     OW83374   4.659   9.546   6.066
27783SOL    HW183375   4.611   9.587   5.988
27783SOL    HW283376   4.758   9.544   6.047
27784SOL     OW83377   4.800   9.993   7.050
27784SOL    HW183378   4.720   9.932   7.053
27784SOL    HW283379   4.881   9.940   7.026
27785SOL     OW83380   4.951  10.880   6.379
27785SOL    HW183381   4.972  10.954   6.314
27785SOL    HW283382   5.019  10.880   6.452
27786SOL     OW83383   4.183  10.462   6.327
27786SOL    HW183384   4.112  10.435   6.392
27786SOL    HW283385   4.157  10.434   6.234
27787SOL     OW83386   4.995  11.107   6.177
27787SOL    HW183387   5.039  11.171   6.113
27787SOL    HW283388   4.945  11.159   6.247
27788SOL     OW83389   4.756   9.859   5.602
27788SOL    HW183390   4.715   9.941   5.563
27788SOL    HW283391   4.820   9.885   5.675
27789SOL     OW83392   3.802   9.866   6.972
27789SOL    HW183393   3.894   9.865   6.931
27789SOL    HW283394   3.796   9.940   7.039
27790SOL     OW83395   4.285   9.532   6.733
27790SOL    HW183396   4.323   9.448   6.770
27790SOL    HW283397   4.197   9.551   6.777
27791SOL     OW83398   4.590   9.764   6.228
27791SOL    HW183399   4.558   9.836   6.166
27791SOL    HW283400   4.614   9.683   6.175
27792SOL     OW83401   4.741   9.349   6.339
27792SOL    HW183402   4.669   9.354   6.270
27792SOL    HW283403   4.717   9.280   6.408
27793SOL     OW83404   5.153  10.483   6.453
27793SOL    HW183405   5.098  10.399   6.446
27793SOL    HW283406   5.179  10.512   6.361
27794SOL     OW83407   5.190   9.900   6.578
27794SOL    HW183408   5.160   9.805   6.585
27794SOL    HW283409   5.263   9.916   6.644
27795SOL     OW83410   5.581  10.143   5.963
27795SOL    HW183411   5.623  10.079   6.027
27795SOL    HW283412   5.543  10.092   5.885
27796SOL     OW83413   4.212  10.695   5.760
27796SOL    HW183414   4.125  10.680   5.807
27796SOL    HW283415   4.195  10.721   5.665
27797SOL     OW83416   5.388  10.590   6.243
27797SOL    HW183417   5.487  10.598   6.257
27797SOL    HW283418   5.343  10.674   6.274
27798SOL     OW83419   5.114   9.885   5.664
27798SOL    HW183420   5.060   9.864   5.745
27798SOL    HW283421   5.205   9.844   5.673
27799SOL     OW83422   4.251   9.566   5.914
27799SOL    HW183423   4.278   9.507   5.839
27799SOL    HW283424   4.251   9.661   5.883
27800SOL     OW83425   5.478  10.533   7.174
27800SOL    HW183426   5.569  10.494   7.161
27800SOL    HW283427   5.486  10.629   7.198
27801SOL     OW83428   4.788  10.657   6.926
27801SOL    HW183429   4.708  10.634   6.981
27801SOL    HW283430   4.871  10.631   6.975
27802SOL     OW83431   5.316  10.939   7.211
27802SOL    HW183432   5.343  10.973   7.121
27802SOL    HW283433   5.395  10.901   7.257
27803SOL     OW83434   4.835  10.505   6.686
27803SOL    HW183435   4.795  10.549   6.767
27803SOL    HW283436   4.794  10.542   6.603
27804SOL     OW83437   5.362  10.409   6.665
27804SOL    HW183438   5.367  10.490   6.724
27804SOL    HW283439   5.276  10.411   6.614
27805SOL     OW83440   4.639   9.399   6.988
27805SOL    HW183441   4.664   9.379   6.893
27805SOL    HW283442   4.711   9.455   7.030
27806SOL     OW83443   4.704  10.426   7.305
27806SOL    HW183444   4.605  10.432   7.315
27806SOL    HW283445   4.727  10.346   7.249
27807SOL     OW83446   4.429  10.360   5.954
27807SOL    HW183447   4.415  10.367   6.053
27807SOL    HW283448   4.513  10.309   5.936
27808SOL     OW83449   4.134  10.123   6.837
27808SOL    HW183450   4.220  10.135   6.887
27808SOL    HW283451   4.092  10.036   6.864
27809SOL     OW83452   4.998   9.696   6.848
27809SOL    HW183453   5.019   9.770   6.912
27809SOL    HW283454   4.909   9.713   6.805
27810SOL     OW83455   3.788  10.874   6.917
27810SOL    HW183456   3.742  10.956   6.883
27810SOL    HW283457   3.886  10.893   6.926
27811SOL     OW83458   4.091  10.410   6.087
27811SOL    HW183459   4.084  10.493   6.031
27811SOL    HW283460   4.095  10.330   6.027
27812SOL     OW83461   4.290   9.847   6.451
27812SOL    HW183462   4.302   9.913   6.377
27812SOL    HW283463   4.336   9.881   6.534
27813SOL     OW83464   4.976  10.658   5.974
27813SOL    HW183465   5.026  10.735   6.014
27813SOL    HW283466   4.881  10.660   6.006
27814SOL     OW83467   4.996  10.755   6.728
27814SOL    HW183468   5.043  10.768   6.815
27814SOL    HW283469   4.930  10.681   6.737
27815SOL     OW83470   5.306   9.949   6.058
27815SOL    HW183471   5.275  10.010   6.131
27815SOL    HW283472   5.356  10.001   5.989
27816SOL     OW83473   4.078  10.820   6.915
27816SOL    HW183474   4.057  10.776   6.828
27816SOL    HW283475   4.175  10.846   6.918
27817SOL     OW83476   4.126  10.061   7.184
27817SOL    HW183477   4.194  10.116   7.137
27817SOL    HW283478   4.166   9.973   7.211
27818SOL     OW83479   5.311  10.089   7.256
27818SOL    HW183480   5.219  10.127   7.251
27818SOL    HW283481   5.371  10.136   7.191
27819SOL     OW83482   4.737   9.415   7.356
27819SOL    HW183483   4.743   9.500   7.304
27819SOL    HW283484   4.769   9.339   7.299
27820SOL     OW83485   4.228   9.360   7.326
27820SOL    HW183486   4.186   9.303   7.256
27820SOL    HW283487   4.162   9.429   7.358
27821SOL     OW83488   4.297  10.180   6.615
27821SOL    HW183489   4.341  10.269   6.606
27821SOL    HW283490   4.234  10.180   6.692
27822SOL     OW83491   5.084  10.172   6.631
27822SOL    HW183492   5.009  10.172   6.565
27822SOL    HW283493   5.121  10.080   6.640
27823SOL     OW83494   4.933   9.835   5.861
27823SOL    HW183495   4.946   9.751   5.915
27823SOL    HW283496   4.904   9.909   5.921
27824SOL     OW83497   4.031   9.523   6.817
27824SOL    HW183498   4.008   9.560   6.907
27824SOL    HW283499   4.001   9.428   6.811
27825SOL     OW83500   3.761  10.620   6.868
27825SOL    HW183501   3.814  10.571   6.936
27825SOL    HW283502   3.783  10.718   6.873
27826SOL     OW83503   4.456   9.944   6.650
27826SOL    HW183504   4.515   9.918   6.574
27826SOL    HW283505   4.428  10.040   6.639
27827SOL     OW83506   5.452  10.245   7.440
27827SOL    HW183507   5.406  10.238   7.351
27827SOL    HW283508   5.390  10.289   7.506
27828SOL     OW83509   4.031   9.373   6.204
27828SOL    HW183510   4.020   9.467   6.237
27828SOL    HW283511   4.026   9.310   6.281
27829SOL     OW83512   5.346   9.677   5.960
27829SOL    HW183513   5.348   9.601   6.024
27829SOL    HW283514   5.298   9.754   6.000
27830SOL     OW83515   4.747  10.076   6.552
27830SOL    HW183516   4.762  10.097   6.648
27830SOL    HW283517   4.717   9.981   6.543
27831SOL     OW83518   4.704  10.883   7.286
27831SOL    HW183519   4.684  10.927   7.198
27831SOL    HW283520   4.743  10.792   7.270
27832SOL     OW83521   5.583  10.828   7.191
27832SOL    HW183522   5.597  10.855   7.096
27832SOL    HW283523   5.666  10.850   7.244
27833SOL     OW83524   4.074  10.208   7.390
27833SOL    HW183525   4.150  10.252   7.438
27833SOL    HW283526   4.109  10.161   7.308
27834SOL     OW83527   5.264   9.584   5.711
27834SOL    HW183528   5.203   9.509   5.734
27834SOL    HW283529   5.286   9.636   5.794
27835SOL     OW83530   5.027  10.148   5.628
27835SOL    HW183531   5.061  10.055   5.643
27835SOL    HW283532   5.045  10.175   5.533
27836SOL     OW83533   4.792  10.643   6.435
27836SOL    HW183534   4.799  10.559   6.380
27836SOL    HW283535   4.854  10.712   6.399
27837SOL     OW83536   4.043  10.120   6.535
27837SOL    HW183537   4.136  10.156   6.540
27837SOL    HW283538   4.037  10.035   6.587
27838SOL     OW83539   4.063   9.819   6.592
27838SOL    HW183540   4.011   9.736   6.575
27838SOL    HW283541   4.140   9.824   6.528
27839SOL     OW83542   4.862   9.690   7.264
27839SOL    HW183543   4.817   9.753   7.328
27839SOL    HW283544   4.955   9.721   7.247
27840SOL     OW83545   4.884   9.517   7.063
27840SOL    HW183546   4.884   9.581   7.140
27840SOL    HW283547   4.912   9.565   6.980
27841SOL     OW83548   3.732  10.636   5.786
27841SOL    HW183549   3.639  10.657   5.755
27841SOL    HW283550   3.742  10.537   5.799
27842SOL     OW83551   3.812  11.111   6.513
27842SOL    HW183552   3.770  11.025   6.486
27842SOL    HW283553   3.906  11.114   6.479
27843SOL     OW83554   4.228  10.878   6.496
27843SOL    HW183555   4.294  10.952   6.505
27843SOL    HW283556   4.272  10.799   6.454
27844SOL     OW83557   4.726  10.106   6.824
27844SOL    HW183558   4.767  10.074   6.910
27844SOL    HW283559   4.630  10.079   6.821
27845SOL     OW83560   3.764   9.854   6.700
27845SOL    HW183561   3.849   9.821   6.659
27845SOL    HW283562   3.777   9.869   6.798
27846SOL     OW83563   3.913   9.830   7.308
27846SOL    HW183564   3.972   9.790   7.238
27846SOL    HW283565   3.855   9.901   7.267
27847SOL     OW83566   5.093  10.260   7.246
27847SOL    HW183567   5.132  10.349   7.266
27847SOL    HW283568   5.103  10.240   7.149
27848SOL     OW83569   4.539   9.882   5.911
27848SOL    HW183570   4.546   9.793   5.865
27848SOL    HW283571   4.445   9.916   5.903
27849SOL     OW83572   5.381   9.914   6.792
27849SOL    HW183573   5.343   9.845   6.854
27849SOL    HW283574   5.463   9.878   6.748
27850SOL     OW83575   3.976  10.874   7.330
27850SOL    HW183576   3.946  10.931   7.406
27850SOL    HW283577   3.969  10.777   7.356
27851SOL     OW83578   4.395   9.774   6.855
27851SOL    HW183579   4.361   9.685   6.825
27851SOL    HW283580   4.421   9.828   6.775
27852SOL     OW83581   4.654  10.988   7.051
27852SOL    HW183582   4.630  10.970   6.956
27852SOL    HW283583   4.684  11.082   7.061
27853SOL     OW83584   4.197   9.810   5.777
27853SOL    HW183585   4.258   9.890   5.781
27853SOL    HW283586   4.102   9.841   5.784
27854SOL     OW83587   3.883  10.447   7.052
27854SOL    HW183588   3.905  10.386   7.128
27854SOL    HW283589   3.893  10.398   6.966
27855SOL     OW83590   5.071  10.369   6.820
27855SOL    HW183591   5.095  10.306   6.746
27855SOL    HW283592   4.981  10.409   6.802
27856SOL     OW83593   5.026  10.165   5.895
27856SOL    HW183594   4.940  10.134   5.937
27856SOL    HW283595   5.022  10.151   5.796
27857SOL     OW83596   5.483  11.057   6.740
27857SOL    HW183597   5.544  11.087   6.667
27857SOL    HW283598   5.445  10.968   6.718
27858SOL     OW83599   4.976  11.041   6.714
27858SOL    HW183600   5.060  11.046   6.660
27858SOL    HW283601   4.953  10.945   6.732
27859SOL     OW83602   3.807  10.568   6.608
27859SOL    HW183603   3.802  10.567   6.708
27859SOL    HW283604   3.724  10.527   6.570
27860SOL     OW83605   4.412  10.972   7.302
27860SOL    HW183606   4.356  11.053   7.311
27860SOL    HW283607   4.464  10.976   7.216
27861SOL     OW83608   5.450   9.445   6.109
27861SOL    HW183609   5.523   9.428   6.042
27861SOL    HW283610   5.419   9.358   6.147
27862SOL     OW83611   5.112  10.883   6.063
27862SOL    HW183612   5.179  10.895   5.989
27862SOL    HW283613   5.072  10.972   6.086
27863SOL     OW83614   3.854  11.104   7.437
27863SOL    HW183615   3.813  11.030   7.490
27863SOL    HW283616   3.918  11.155   7.495
27864SOL     OW83617   5.004  10.237   6.258
27864SOL    HW183618   5.064  10.156   6.260
27864SOL    HW283619   5.044  10.306   6.198
27865SOL     OW83620   4.554  10.583   7.008
27865SOL    HW183621   4.549  10.616   7.103
27865SOL    HW283622   4.468  10.602   6.962
27866SOL     OW83623   4.396  10.926   5.740
27866SOL    HW183624   4.405  10.936   5.641
27866SOL    HW283625   4.356  10.837   5.761
27867SOL     OW83626   5.374  11.030   6.980
27867SOL    HW183627   5.427  11.040   6.896
27867SOL    HW283628   5.347  11.120   7.014
27868SOL     OW83629   5.565   9.485   6.549
27868SOL    HW183630   5.604   9.400   6.513
27868SOL    HW283631   5.467   9.487   6.530
27869SOL     OW83632   3.987   9.636   6.306
27869SOL    HW183633   3.908   9.687   6.272
27869SOL    HW283634   3.978   9.621   6.404
27870SOL     OW83635   4.918  10.922   5.617
27870SOL    HW183636   4.924  10.829   5.654
27870SOL    HW283637   4.859  10.922   5.537
27871SOL     OW83638   4.546  10.312   6.958
27871SOL    HW183639   4.586  10.311   6.866
27871SOL    HW283640   4.556  10.404   6.998
27872SOL     OW83641   4.640  10.220   5.877
27872SOL    HW183642   4.703  10.258   5.809
27872SOL    HW283643   4.680  10.137   5.916
27873SOL     OW83644   5.228  10.917   5.630
27873SOL    HW183645   5.136  10.954   5.637
27873SOL    HW283646   5.266  10.937   5.540
27874SOL     OW83647   4.096  10.598   7.076
27874SOL    HW183648   4.083  10.691   7.042
27874SOL    HW283649   4.012  10.546   7.063
27875SOL     OW83650   5.338  10.602   6.875
27875SOL    HW183651   5.398  10.605   6.955
27875SOL    HW283652   5.263  10.666   6.888
27876SOL     OW83653   4.763  10.408   6.282
27876SOL    HW183654   4.693  10.361   6.336
27876SOL    HW283655   4.822  10.340   6.239
27877SOL     OW83656   4.738   9.546   6.557
27877SOL    HW183657   4.730   9.510   6.464
27877SOL    HW283658   4.736   9.470   6.622
27878SOL     OW83659   4.314  10.797   6.077
27878SOL    HW183660   4.356  10.739   6.007
27878SOL    HW283661   4.270  10.876   6.033
27879SOL     OW83662   5.433   9.695   6.967
27879SOL    HW183663   5.506   9.764   6.971
27879SOL    HW283664   5.461   9.620   6.908
27880SOL     OW83665   3.979  10.658   5.876
27880SOL    HW183666   3.883  10.659   5.849
27880SOL    HW283667   3.991  10.711   5.960
27881SOL     OW83668   3.829  10.323   7.312
27881SOL    HW183669   3.752  10.290   7.366
27881SOL    HW283670   3.914  10.293   7.354
27882SOL     OW83671   4.396   9.513   7.075
27882SOL    HW183672   4.486   9.497   7.035
27882SOL    HW283673   4.404   9.518   7.174
27883SOL     OW83674   3.799   9.655   5.619
27883SOL    HW183675   3.707   9.627   5.590
27883SOL    HW283676   3.830   9.732   5.563
27884SOL     OW83677   5.164  10.166   6.984
27884SOL    HW183678   5.107  10.218   6.921
27884SOL    HW283679   5.260  10.178   6.960
27885SOL     OW83680   3.796   9.476   5.904
27885SOL    HW183681   3.779   9.559   5.850
27885SOL    HW283682   3.886   9.439   5.882
27886SOL     OW83683   4.907  10.645   5.705
27886SOL    HW183684   4.808  10.634   5.707
27886SOL    HW283685   4.941  10.660   5.798
27887SOL     OW83686   4.337  10.152   7.017
27887SOL    HW183687   4.393  10.233   7.000
27887SOL    HW283688   4.396  10.072   7.020
27888SOL     OW83689   5.217  11.077   6.545
27888SOL    HW183690   5.250  11.141   6.476
27888SOL    HW283691   5.283  11.071   6.620
27889SOL     OW83692   4.440   9.875   7.294
27889SOL    HW183693   4.459   9.940   7.368
27889SOL    HW283694   4.500   9.795   7.303
27890SOL     OW83695   5.174  10.530   7.219
27890SOL    HW183696   5.165  10.520   7.318
27890SOL    HW283697   5.270  10.523   7.193
27891SOL     OW83698   4.114  11.051   7.146
27891SOL    HW183699   4.023  11.092   7.144
27891SOL    HW283700   4.107  10.957   7.178
27892SOL     OW83701   5.398  10.193   6.840
27892SOL    HW183702   5.371  10.104   6.803
27892SOL    HW283703   5.399  10.261   6.767
27893SOL     OW83704   4.949   9.635   6.035
27893SOL    HW183705   5.014   9.561   6.024
27893SOL    HW283706   4.969   9.685   6.119
27894SOL     OW83707   4.318  10.055   6.238
27894SOL    HW183708   4.368  10.140   6.219
27894SOL    HW283709   4.230  10.057   6.190
27895SOL     OW83710   5.501   9.652   7.228
27895SOL    HW183711   5.484   9.683   7.134
27895SOL    HW283712   5.417   9.615   7.266
27896SOL     OW83713   5.454  10.244   7.103
27896SOL    HW183714   5.492  10.335   7.118
27896SOL    HW283715   5.446  10.227   7.004
27897SOL     OW83716   4.583  10.684   5.602
27897SOL    HW183717   4.537  10.699   5.690
27897SOL    HW283718   4.627  10.769   5.572
27898SOL     OW83719   4.385  11.100   6.539
27898SOL    HW183720   4.339  11.188   6.526
27898SOL    HW283721   4.484  11.112   6.532
27899SOL     OW83722   4.583  10.266   6.447
27899SOL    HW183723   4.637  10.197   6.495
27899SOL    HW283724   4.551  10.335   6.513
27900SOL     OW83725   4.807  10.294   5.673
27900SOL    HW183726   4.784  10.347   5.591
27900SOL    HW283727   4.888  10.238   5.654
27901SOL     OW83728   5.585  10.879   6.437
27901SOL    HW183729   5.514  10.867   6.367
27901SOL    HW283730   5.586  10.800   6.497
27902SOL     OW83731   3.945  10.624   7.430
27902SOL    HW183732   3.880  10.551   7.409
27902SOL    HW283733   3.949  10.638   7.528
27903SOL     OW83734   3.803  10.550   6.239
27903SOL    HW183735   3.802  10.503   6.327
27903SOL    HW283736   3.885  10.522   6.188
27904SOL     OW83737   4.396  10.701   7.210
27904SOL    HW183738   4.318  10.651   7.248
27904SOL    HW283739   4.393  10.796   7.241
27905SOL     OW83740   5.548   9.502   6.813
27905SOL    HW183741   5.544   9.412   6.857
27905SOL    HW283742   5.551   9.491   6.714
27906SOL     OW83743   4.152   9.734   6.106
27906SOL    HW183744   4.182   9.662   6.044
27906SOL    HW283745   4.113   9.694   6.189
27907SOL     OW83746   5.429  10.797   6.690
27907SOL    HW183747   5.336  10.772   6.663
27907SOL    HW283748   5.455  10.747   6.772
27908SOL     OW83749   4.041   9.857   6.866
27908SOL    HW183750   4.079   9.798   6.938
27908SOL    HW283751   4.081   9.831   6.778
27909SOL     OW83752   4.536  10.896   6.273
27909SOL    HW183753   4.568  10.906   6.179
27909SOL    HW283754   4.457  10.834   6.275
27910SOL     OW83755   5.148   9.524   6.698
27910SOL    HW183756   5.200   9.459   6.753
27910SOL    HW283757   5.099   9.587   6.759
27911SOL     OW83758   4.725   9.344   6.740
27911SOL    HW183759   4.662   9.272   6.709
27911SOL    HW283760   4.818   9.308   6.740
27912SOL     OW83761   4.494  10.640   5.887
27912SOL    HW183762   4.448  10.553   5.904
27912SOL    HW283763   4.585  10.637   5.928
27913SOL     OW83764   4.342  10.877   6.870
27913SOL    HW183765   4.337  10.959   6.927
27913SOL    HW283766   4.431  10.874   6.825
27914SOL     OW83767   5.076   9.362   5.754
27914SOL    HW183768   5.111   9.321   5.670
27914SOL    HW283769   4.986   9.324   5.774
27915SOL     OW83770   5.024   9.763   6.277
27915SOL    HW183771   4.965   9.843   6.281
27915SOL    HW283772   5.039   9.728   6.370
27916SOL     OW83773   5.317   9.531   6.468
27916SOL    HW183774   5.233   9.530   6.522
27916SOL    HW283775   5.319   9.614   6.412
27917SOL     OW83776   3.763  10.387   5.886
27917SOL    HW183777   3.862  10.376   5.877
27917SOL    HW283778   3.723  10.301   5.918
27918SOL     OW83779   4.599  10.956   5.923
27918SOL    HW183780   4.522  10.921   5.869
27918SOL    HW283781   4.567  11.027   5.985
27919SOL     OW83782   3.954   9.938   7.561
27919SOL    HW183783   3.861   9.936   7.598
27919SOL    HW283784   3.955   9.899   7.469
27920SOL     OW83785   3.949   9.585   8.444
27920SOL    HW183786   3.984   9.568   8.536
27920SOL    HW283787   3.861   9.540   8.432
27921SOL     OW83788   3.743   9.678   8.095
27921SOL    HW183789   3.661   9.721   8.134
27921SOL    HW283790   3.715   9.605   8.032
27922SOL     OW83791   4.293  10.585   8.613
27922SOL    HW183792   4.200  10.578   8.576
27922SOL    HW283793   4.304  10.674   8.657
27923SOL     OW83794   5.279  10.821   8.151
27923SOL    HW183795   5.222  10.805   8.232
27923SOL    HW283796   5.220  10.831   8.071
27924SOL     OW83797   4.859  10.013   8.165
27924SOL    HW183798   4.916  10.091   8.140
27924SOL    HW283799   4.799  10.039   8.241
27925SOL     OW83800   5.479   9.917   7.679
27925SOL    HW183801   5.467   9.904   7.580
27925SOL    HW283802   5.449   9.836   7.728
27926SOL     OW83803   4.492  10.454   8.471
27926SOL    HW183804   4.414  10.471   8.531
27926SOL    HW283805   4.526  10.541   8.435
27927SOL     OW83806   4.574  10.108   9.271
27927SOL    HW183807   4.570  10.184   9.336
27927SOL    HW283808   4.596  10.144   9.180
27928SOL     OW83809   4.409  10.322   8.113
27928SOL    HW183810   4.478  10.306   8.183
27928SOL    HW283811   4.336  10.379   8.151
27929SOL     OW83812   4.410  10.471   9.251
27929SOL    HW183813   4.470  10.550   9.265
27929SOL    HW283814   4.324  10.502   9.210
27930SOL     OW83815   4.059  10.745   8.509
27930SOL    HW183816   3.981  10.714   8.456
27930SOL    HW283817   4.117  10.803   8.452
27931SOL     OW83818   5.184  10.815   8.787
27931SOL    HW183819   5.208  10.909   8.813
27931SOL    HW283820   5.168  10.761   8.869
27932SOL     OW83821   4.162   9.702   8.947
27932SOL    HW183822   4.244   9.646   8.956
27932SOL    HW283823   4.081   9.644   8.951
27933SOL     OW83824   5.327   9.757   8.185
27933SOL    HW183825   5.253   9.803   8.135
27933SOL    HW283826   5.378   9.825   8.238
27934SOL     OW83827   3.955  11.023   7.931
27934SOL    HW183828   3.989  11.100   7.985
27934SOL    HW283829   3.999  11.023   7.841
27935SOL     OW83830   4.851  10.651   9.138
27935SOL    HW183831   4.898  10.651   9.226
27935SOL    HW283832   4.803  10.564   9.127
27936SOL     OW83833   3.954  10.744   7.986
27936SOL    HW183834   3.928  10.840   7.986
27936SOL    HW283835   3.883  10.690   8.031
27937SOL     OW83836   3.964  10.401   8.334
27937SOL    HW183837   3.978  10.317   8.386
27937SOL    HW283838   3.909  10.465   8.389
27938SOL     OW83839   4.344  11.096   8.887
27938SOL    HW183840   4.252  11.079   8.922
27938SOL    HW283841   4.372  11.188   8.913
27939SOL     OW83842   4.330  10.274   7.571
27939SOL    HW183843   4.337  10.358   7.517
27939SOL    HW283844   4.376  10.287   7.659
27940SOL     OW83845   5.318   9.424   8.928
27940SOL    HW183846   5.300   9.491   8.856
27940SOL    HW283847   5.315   9.470   9.017
27941SOL     OW83848   3.846   9.953   8.011
27941SOL    HW183849   3.801   9.865   8.028
27941SOL    HW283850   3.845  10.007   8.095
27942SOL     OW83851   5.566  11.077   7.807
27942SOL    HW183852   5.620  11.048   7.887
27942SOL    HW283853   5.596  11.167   7.778
27943SOL     OW83854   3.751  10.906   7.565
27943SOL    HW183855   3.732  10.810   7.586
27943SOL    HW283856   3.718  10.964   7.640
27944SOL     OW83857   5.413  10.232   8.060
27944SOL    HW183858   5.508  10.203   8.068
27944SOL    HW283859   5.405  10.297   7.985
27945SOL     OW83860   5.365  10.418   7.880
27945SOL    HW183861   5.451  10.420   7.828
27945SOL    HW283862   5.379  10.465   7.968
27946SOL     OW83863   3.837  10.047   9.045
27946SOL    HW183864   3.925  10.034   9.090
27946SOL    HW283865   3.824  10.144   9.023
27947SOL     OW83866   4.337  10.675   8.174
27947SOL    HW183867   4.288  10.588   8.183
27947SOL    HW283868   4.314  10.718   8.087
27948SOL     OW83869   5.017  10.538   8.871
27948SOL    HW183870   5.054  10.465   8.813
27948SOL    HW283871   5.069  10.543   8.956
27949SOL     OW83872   4.533   9.314   7.950
27949SOL    HW183873   4.573   9.405   7.941
27949SOL    HW283874   4.433   9.322   7.956
27950SOL     OW83875   3.921  10.286   8.712
27950SOL    HW183876   4.010  10.241   8.698
27950SOL    HW283877   3.848  10.221   8.693
27951SOL     OW83878   5.249  10.309   7.638
27951SOL    HW183879   5.186  10.233   7.651
27951SOL    HW283880   5.297  10.327   7.724
27952SOL     OW83881   4.911  11.102   9.064
27952SOL    HW183882   4.935  11.162   8.988
27952SOL    HW283883   4.918  11.007   9.034
27953SOL     OW83884   4.041   9.561   9.249
27953SOL    HW183885   4.112   9.632   9.255
27953SOL    HW283886   3.953   9.600   9.277
27954SOL     OW83887   5.190  10.727   8.401
27954SOL    HW183888   5.131  10.733   8.481
27954SOL    HW283889   5.175  10.639   8.355
27955SOL     OW83890   5.391  11.024   8.020
27955SOL    HW183891   5.350  11.001   7.932
27955SOL    HW283892   5.373  10.950   8.085
27956SOL     OW83893   4.322  10.039   7.718
27956SOL    HW183894   4.346  10.108   7.650
27956SOL    HW283895   4.244  10.072   7.772
27957SOL     OW83896   5.005   9.655   8.392
27957SOL    HW183897   4.919   9.605   8.379
27957SOL    HW283898   5.067   9.601   8.448
27958SOL     OW83899   5.300  10.972   7.755
27958SOL    HW183900   5.389  11.018   7.758
27958SOL    HW283901   5.279  10.948   7.660
27959SOL     OW83902   4.531   9.915   8.913
27959SOL    HW183903   4.484   9.912   9.002
27959SOL    HW283904   4.480   9.860   8.847
27960SOL     OW83905   5.118   9.779   9.122
27960SOL    HW183906   5.098   9.822   9.210
27960SOL    HW283907   5.196   9.717   9.131
27961SOL     OW83908   4.697  10.200   9.020
27961SOL    HW183909   4.743  10.116   8.991
27961SOL    HW283910   4.641  10.234   8.945
27962SOL     OW83911   4.715   9.720   8.690
27962SOL    HW183912   4.638   9.754   8.744
27962SOL    HW283913   4.681   9.669   8.611
27963SOL     OW83914   4.765  10.011   7.877
27963SOL    HW183915   4.791  10.007   7.973
27963SOL    HW283916   4.680   9.960   7.863
27964SOL     OW83917   3.800  10.121   8.237
27964SOL    HW183918   3.899  10.109   8.246
27964SOL    HW283919   3.776  10.216   8.258
27965SOL     OW83920   3.854  11.131   9.019
27965SOL    HW183921   3.844  11.116   9.118
27965SOL    HW283922   3.768  11.167   8.983
27966SOL     OW83923   4.589   9.658   7.643
27966SOL    HW183924   4.648   9.721   7.594
27966SOL    HW283925   4.608   9.564   7.614
27967SOL     OW83926   5.443   9.895   9.279
27967SOL    HW183927   5.417   9.984   9.243
27967SOL    HW283928   5.441   9.827   9.206
27968SOL     OW83929   5.086  10.454   7.993
27968SOL    HW183930   5.169  10.425   7.945
27968SOL    HW283931   5.037  10.521   7.937
27969SOL     OW83932   4.274   9.506   8.333
27969SOL    HW183933   4.269   9.501   8.433
27969SOL    HW283934   4.276   9.602   8.304
27970SOL     OW83935   4.732  10.766   7.925
27970SOL    HW183936   4.686  10.838   7.873
27970SOL    HW283937   4.728  10.786   8.023
27971SOL     OW83938   4.075  11.111   8.301
27971SOL    HW183939   4.125  11.025   8.307
27971SOL    HW283940   4.140  11.188   8.298
27972SOL     OW83941   5.519  10.376   8.321
27972SOL    HW183942   5.457  10.361   8.245
27972SOL    HW283943   5.467  10.387   8.406
27973SOL     OW83944   4.951  10.860   8.954
27973SOL    HW183945   4.957  10.783   9.018
27973SOL    HW283946   4.899  10.834   8.874
27974SOL     OW83947   4.045  10.253   7.690
27974SOL    HW183948   4.127  10.292   7.648
27974SOL    HW283949   4.018  10.171   7.641
27975SOL     OW83950   5.182  10.045   8.176
27975SOL    HW183951   5.177   9.980   8.251
27975SOL    HW283952   5.262  10.104   8.189
27976SOL     OW83953   4.185  10.576   9.175
27976SOL    HW183954   4.135  10.577   9.089
27976SOL    HW283955   4.122  10.558   9.251
27977SOL     OW83956   4.835  11.086   7.685
27977SOL    HW183957   4.775  11.024   7.735
27977SOL    HW283958   4.866  11.042   7.600
27978SOL     OW83959   3.926   9.595   8.946
27978SOL    HW183960   3.846   9.655   8.933
27978SOL    HW283961   3.916   9.546   9.032
27979SOL     OW83962   5.356  10.687   7.529
27979SOL    HW183963   5.324  10.781   7.519
27979SOL    HW283964   5.280  10.624   7.517
27980SOL     OW83965   4.188  11.053   7.771
27980SOL    HW183966   4.221  11.092   7.857
27980SOL    HW283967   4.264  11.046   7.706
27981SOL     OW83968   5.124   9.417   7.874
27981SOL    HW183969   5.100   9.380   7.784
27981SOL    HW283970   5.223   9.433   7.878
27982SOL     OW83971   3.973  11.095   8.689
27982SOL    HW183972   4.030  11.030   8.739
27982SOL    HW283973   3.957  11.062   8.596
27983SOL     OW83974   4.664  11.008   8.352
27983SOL    HW183975   4.744  10.951   8.373
27983SOL    HW283976   4.615  10.968   8.275
27984SOL     OW83977   4.106  10.010   7.928
27984SOL    HW183978   4.151   9.920   7.925
27984SOL    HW283979   4.012   9.999   7.961
27985SOL     OW83980   5.271   9.532   9.177
27985SOL    HW183981   5.266   9.569   9.269
27985SOL    HW283982   5.199   9.463   9.165
27986SOL     OW83983   4.338   9.432   7.565
27986SOL    HW183984   4.436   9.410   7.572
27986SOL    HW283985   4.307   9.415   7.472
27987SOL     OW83986   4.505   9.574   9.197
27987SOL    HW183987   4.572   9.513   9.240
27987SOL    HW283988   4.432   9.593   9.262
27988SOL     OW83989   4.612  10.824   8.643
27988SOL    HW183990   4.589  10.799   8.549
27988SOL    HW283991   4.673  10.755   8.682
27989SOL     OW83992   5.075   9.900   8.881
27989SOL    HW183993   5.103   9.857   8.966
27989SOL    HW283994   5.100   9.996   8.882
27990SOL     OW83995   4.527  10.712   8.372
27990SOL    HW183996   4.617  10.726   8.330
27990SOL    HW283997   4.456  10.714   8.301
27991SOL     OW83998   4.646   9.813   8.347
27991SOL    HW183999   4.621   9.804   8.251
27991SOL    HW284000   4.694   9.731   8.378
27992SOL     OW84001   4.263   9.374   7.960
27992SOL    HW184002   4.182   9.375   8.018
27992SOL    HW284003   4.266   9.457   7.905
27993SOL     OW84004   5.158  10.498   7.489
27993SOL    HW184005   5.190  10.422   7.546
27993SOL    HW284006   5.066  10.525   7.519
27994SOL     OW84007   4.021   9.345   7.619
27994SOL    HW184008   4.070   9.429   7.598
27994SOL    HW284009   4.083   9.280   7.664
27995SOL     OW84010   4.659   9.546   7.928
27995SOL    HW184011   4.611   9.587   7.850
27995SOL    HW284012   4.758   9.544   7.909
27996SOL     OW84013   4.800   9.993   8.912
27996SOL    HW184014   4.720   9.932   8.915
27996SOL    HW284015   4.881   9.940   8.888
27997SOL     OW84016   4.951  10.880   8.241
27997SOL    HW184017   4.972  10.954   8.176
27997SOL    HW284018   5.019  10.880   8.314
27998SOL     OW84019   4.183  10.462   8.189
27998SOL    HW184020   4.112  10.435   8.254
27998SOL    HW284021   4.157  10.434   8.096
27999SOL     OW84022   4.995  11.107   8.039
27999SOL    HW184023   5.039  11.171   7.975
27999SOL    HW284024   4.945  11.159   8.109
28000SOL     OW84025   4.756   9.859   7.464
28000SOL    HW184026   4.715   9.941   7.425
28000SOL    HW284027   4.820   9.885   7.537
28001SOL     OW84028   3.802   9.866   8.834
28001SOL    HW184029   3.894   9.865   8.793
28001SOL    HW284030   3.796   9.940   8.901
28002SOL     OW84031   4.285   9.532   8.595
28002SOL    HW184032   4.323   9.448   8.632
28002SOL    HW284033   4.197   9.551   8.639
28003SOL     OW84034   4.590   9.764   8.090
28003SOL    HW184035   4.558   9.836   8.028
28003SOL    HW284036   4.614   9.683   8.037
28004SOL     OW84037   4.741   9.349   8.201
28004SOL    HW184038   4.669   9.354   8.132
28004SOL    HW284039   4.717   9.280   8.270
28005SOL     OW84040   5.153  10.483   8.315
28005SOL    HW184041   5.098  10.399   8.308
28005SOL    HW284042   5.179  10.512   8.223
28006SOL     OW84043   5.190   9.900   8.440
28006SOL    HW184044   5.160   9.805   8.447
28006SOL    HW284045   5.263   9.916   8.506
28007SOL     OW84046   5.581  10.143   7.825
28007SOL    HW184047   5.623  10.079   7.889
28007SOL    HW284048   5.543  10.092   7.747
28008SOL     OW84049   4.212  10.695   7.622
28008SOL    HW184050   4.125  10.680   7.669
28008SOL    HW284051   4.195  10.721   7.527
28009SOL     OW84052   5.388  10.590   8.105
28009SOL    HW184053   5.487  10.598   8.119
28009SOL    HW284054   5.343  10.674   8.136
28010SOL     OW84055   5.114   9.885   7.526
28010SOL    HW184056   5.060   9.864   7.607
28010SOL    HW284057   5.205   9.844   7.535
28011SOL     OW84058   4.251   9.566   7.776
28011SOL    HW184059   4.278   9.507   7.701
28011SOL    HW284060   4.251   9.661   7.745
28012SOL     OW84061   5.478  10.533   9.036
28012SOL    HW184062   5.569  10.494   9.023
28012SOL    HW284063   5.486  10.629   9.060
28013SOL     OW84064   4.788  10.657   8.788
28013SOL    HW184065   4.708  10.634   8.843
28013SOL    HW284066   4.871  10.631   8.837
28014SOL     OW84067   5.316  10.939   9.073
28014SOL    HW184068   5.343  10.973   8.983
28014SOL    HW284069   5.395  10.901   9.119
28015SOL     OW84070   4.835  10.505   8.548
28015SOL    HW184071   4.795  10.549   8.629
28015SOL    HW284072   4.794  10.542   8.465
28016SOL     OW84073   5.362  10.409   8.527
28016SOL    HW184074   5.367  10.490   8.586
28016SOL    HW284075   5.276  10.411   8.476
28017SOL     OW84076   4.639   9.399   8.850
28017SOL    HW184077   4.664   9.379   8.755
28017SOL    HW284078   4.711   9.455   8.892
28018SOL     OW84079   4.704  10.426   9.167
28018SOL    HW184080   4.605  10.432   9.177
28018SOL    HW284081   4.727  10.346   9.111
28019SOL     OW84082   4.429  10.360   7.816
28019SOL    HW184083   4.415  10.367   7.915
28019SOL    HW284084   4.513  10.309   7.798
28020SOL     OW84085   4.134  10.123   8.699
28020SOL    HW184086   4.220  10.135   8.749
28020SOL    HW284087   4.092  10.036   8.726
28021SOL     OW84088   4.998   9.696   8.710
28021SOL    HW184089   5.019   9.770   8.774
28021SOL    HW284090   4.909   9.713   8.667
28022SOL     OW84091   3.788  10.874   8.779
28022SOL    HW184092   3.742  10.956   8.745
28022SOL    HW284093   3.886  10.893   8.788
28023SOL     OW84094   4.091  10.410   7.949
28023SOL    HW184095   4.084  10.493   7.893
28023SOL    HW284096   4.095  10.330   7.889
28024SOL     OW84097   4.290   9.847   8.313
28024SOL    HW184098   4.302   9.913   8.239
28024SOL    HW284099   4.336   9.881   8.396
28025SOL     OW84100   4.976  10.658   7.836
28025SOL    HW184101   5.026  10.735   7.876
28025SOL    HW284102   4.881  10.660   7.868
28026SOL     OW84103   4.996  10.755   8.590
28026SOL    HW184104   5.043  10.768   8.677
28026SOL    HW284105   4.930  10.681   8.599
28027SOL     OW84106   5.306   9.949   7.920
28027SOL    HW184107   5.275  10.010   7.993
28027SOL    HW284108   5.356  10.001   7.851
28028SOL     OW84109   4.078  10.820   8.777
28028SOL    HW184110   4.057  10.776   8.690
28028SOL    HW284111   4.175  10.846   8.780
28029SOL     OW84112   4.126  10.061   9.046
28029SOL    HW184113   4.194  10.116   8.999
28029SOL    HW284114   4.166   9.973   9.073
28030SOL     OW84115   5.311  10.089   9.118
28030SOL    HW184116   5.219  10.127   9.113
28030SOL    HW284117   5.371  10.136   9.053
28031SOL     OW84118   4.737   9.415   9.218
28031SOL    HW184119   4.743   9.500   9.166
28031SOL    HW284120   4.769   9.339   9.161
28032SOL     OW84121   4.228   9.360   9.188
28032SOL    HW184122   4.186   9.303   9.118
28032SOL    HW284123   4.162   9.429   9.220
28033SOL     OW84124   4.297  10.180   8.477
28033SOL    HW184125   4.341  10.269   8.468
28033SOL    HW284126   4.234  10.180   8.554
28034SOL     OW84127   5.084  10.172   8.493
28034SOL    HW184128   5.009  10.172   8.427
28034SOL    HW284129   5.121  10.080   8.502
28035SOL     OW84130   4.933   9.835   7.723
28035SOL    HW184131   4.946   9.751   7.777
28035SOL    HW284132   4.904   9.909   7.783
28036SOL     OW84133   4.031   9.523   8.679
28036SOL    HW184134   4.008   9.560   8.769
28036SOL    HW284135   4.001   9.428   8.673
28037SOL     OW84136   3.761  10.620   8.730
28037SOL    HW184137   3.814  10.571   8.798
28037SOL    HW284138   3.783  10.718   8.735
28038SOL     OW84139   4.456   9.944   8.512
28038SOL    HW184140   4.515   9.918   8.436
28038SOL    HW284141   4.428  10.040   8.501
28039SOL     OW84142   5.452  10.245   9.302
28039SOL    HW184143   5.406  10.238   9.213
28039SOL    HW284144   5.390  10.289   9.368
28040SOL     OW84145   4.031   9.373   8.066
28040SOL    HW184146   4.020   9.467   8.099
28040SOL    HW284147   4.026   9.310   8.143
28041SOL     OW84148   5.346   9.677   7.822
28041SOL    HW184149   5.348   9.601   7.886
28041SOL    HW284150   5.298   9.754   7.862
28042SOL     OW84151   4.747  10.076   8.414
28042SOL    HW184152   4.762  10.097   8.510
28042SOL    HW284153   4.717   9.981   8.405
28043SOL     OW84154   4.704  10.883   9.148
28043SOL    HW184155   4.684  10.927   9.060
28043SOL    HW284156   4.743  10.792   9.132
28044SOL     OW84157   5.583  10.828   9.053
28044SOL    HW184158   5.597  10.855   8.958
28044SOL    HW284159   5.666  10.850   9.106
28045SOL     OW84160   4.074  10.208   9.252
28045SOL    HW184161   4.150  10.252   9.300
28045SOL    HW284162   4.109  10.161   9.170
28046SOL     OW84163   5.264   9.584   7.573
28046SOL    HW184164   5.203   9.509   7.596
28046SOL    HW284165   5.286   9.636   7.656
28047SOL     OW84166   5.027  10.148   7.490
28047SOL    HW184167   5.061  10.055   7.505
28047SOL    HW284168   5.045  10.175   7.395
28048SOL     OW84169   4.792  10.643   8.297
28048SOL    HW184170   4.799  10.559   8.242
28048SOL    HW284171   4.854  10.712   8.261
28049SOL     OW84172   4.043  10.120   8.397
28049SOL    HW184173   4.136  10.156   8.402
28049SOL    HW284174   4.037  10.035   8.449
28050SOL     OW84175   4.063   9.819   8.454
28050SOL    HW184176   4.011   9.736   8.437
28050SOL    HW284177   4.140   9.824   8.390
28051SOL     OW84178   4.862   9.690   9.126
28051SOL    HW184179   4.817   9.753   9.190
28051SOL    HW284180   4.955   9.721   9.109
28052SOL     OW84181   4.884   9.517   8.925
28052SOL    HW184182   4.884   9.581   9.002
28052SOL    HW284183   4.912   9.565   8.842
28053SOL     OW84184   3.732  10.636   7.648
28053SOL    HW184185   3.639  10.657   7.617
28053SOL    HW284186   3.742  10.537   7.661
28054SOL     OW84187   3.812  11.111   8.375
28054SOL    HW184188   3.770  11.025   8.348
28054SOL    HW284189   3.906  11.114   8.341
28055SOL     OW84190   4.228  10.878   8.358
28055SOL    HW184191   4.294  10.952   8.367
28055SOL    HW284192   4.272  10.799   8.316
28056SOL     OW84193   4.726  10.106   8.686
28056SOL    HW184194   4.767  10.074   8.772
28056SOL    HW284195   4.630  10.079   8.683
28057SOL     OW84196   3.764   9.854   8.562
28057SOL    HW184197   3.849   9.821   8.521
28057SOL    HW284198   3.777   9.869   8.660
28058SOL     OW84199   3.913   9.830   9.170
28058SOL    HW184200   3.972   9.790   9.100
28058SOL    HW284201   3.855   9.901   9.129
28059SOL     OW84202   5.093  10.260   9.108
28059SOL    HW184203   5.132  10.349   9.128
28059SOL    HW284204   5.103  10.240   9.011
28060SOL     OW84205   4.539   9.882   7.773
28060SOL    HW184206   4.546   9.793   7.727
28060SOL    HW284207   4.445   9.916   7.765
28061SOL     OW84208   5.381   9.914   8.654
28061SOL    HW184209   5.343   9.845   8.716
28061SOL    HW284210   5.463   9.878   8.610
28062SOL     OW84211   3.976  10.874   9.192
28062SOL    HW184212   3.946  10.931   9.268
28062SOL    HW284213   3.969  10.777   9.218
28063SOL     OW84214   4.395   9.774   8.717
28063SOL    HW184215   4.361   9.685   8.687
28063SOL    HW284216   4.421   9.828   8.637
28064SOL     OW84217   4.654  10.988   8.913
28064SOL    HW184218   4.630  10.970   8.818
28064SOL    HW284219   4.684  11.082   8.923
28065SOL     OW84220   4.197   9.810   7.639
28065SOL    HW184221   4.258   9.890   7.643
28065SOL    HW284222   4.102   9.841   7.646
28066SOL     OW84223   3.883  10.447   8.914
28066SOL    HW184224   3.905  10.386   8.990
28066SOL    HW284225   3.893  10.398   8.828
28067SOL     OW84226   5.071  10.369   8.682
28067SOL    HW184227   5.095  10.306   8.608
28067SOL    HW284228   4.981  10.409   8.664
28068SOL     OW84229   5.026  10.165   7.757
28068SOL    HW184230   4.940  10.134   7.799
28068SOL    HW284231   5.022  10.151   7.658
28069SOL     OW84232   5.483  11.057   8.602
28069SOL    HW184233   5.544  11.087   8.529
28069SOL    HW284234   5.445  10.968   8.580
28070SOL     OW84235   4.976  11.041   8.576
28070SOL    HW184236   5.060  11.046   8.522
28070SOL    HW284237   4.953  10.945   8.594
28071SOL     OW84238   3.807  10.568   8.470
28071SOL    HW184239   3.802  10.567   8.570
28071SOL    HW284240   3.724  10.527   8.432
28072SOL     OW84241   4.412  10.972   9.164
28072SOL    HW184242   4.356  11.053   9.173
28072SOL    HW284243   4.464  10.976   9.078
28073SOL     OW84244   5.450   9.445   7.971
28073SOL    HW184245   5.523   9.428   7.904
28073SOL    HW284246   5.419   9.358   8.009
28074SOL     OW84247   5.112  10.883   7.925
28074SOL    HW184248   5.179  10.895   7.851
28074SOL    HW284249   5.072  10.972   7.948
28075SOL     OW84250   3.854  11.104   9.299
28075SOL    HW184251   3.813  11.030   9.352
28075SOL    HW284252   3.918  11.155   9.357
28076SOL     OW84253   5.004  10.237   8.120
28076SOL    HW184254   5.064  10.156   8.122
28076SOL    HW284255   5.044  10.306   8.060
28077SOL     OW84256   4.554  10.583   8.870
28077SOL    HW184257   4.549  10.616   8.965
28077SOL    HW284258   4.468  10.602   8.824
28078SOL     OW84259   4.396  10.926   7.602
28078SOL    HW184260   4.405  10.936   7.503
28078SOL    HW284261   4.356  10.837   7.623
28079SOL     OW84262   5.374  11.030   8.842
28079SOL    HW184263   5.427  11.040   8.758
28079SOL    HW284264   5.347  11.120   8.876
28080SOL     OW84265   5.565   9.485   8.411
28080SOL    HW184266   5.604   9.400   8.375
28080SOL    HW284267   5.467   9.487   8.392
28081SOL     OW84268   3.987   9.636   8.168
28081SOL    HW184269   3.908   9.687   8.134
28081SOL    HW284270   3.978   9.621   8.266
28082SOL     OW84271   4.918  10.922   7.479
28082SOL    HW184272   4.924  10.829   7.516
28082SOL    HW284273   4.859  10.922   7.399
28083SOL     OW84274   4.546  10.312   8.820
28083SOL    HW184275   4.586  10.311   8.728
28083SOL    HW284276   4.556  10.404   8.860
28084SOL     OW84277   4.640  10.220   7.739
28084SOL    HW184278   4.703  10.258   7.671
28084SOL    HW284279   4.680  10.137   7.778
28085SOL     OW84280   5.228  10.917   7.492
28085SOL    HW184281   5.136  10.954   7.499
28085SOL    HW284282   5.266  10.937   7.402
28086SOL     OW84283   4.096  10.598   8.938
28086SOL    HW184284   4.083  10.691   8.904
28086SOL    HW284285   4.012  10.546   8.925
28087SOL     OW84286   5.338  10.602   8.737
28087SOL    HW184287   5.398  10.605   8.817
28087SOL    HW284288   5.263  10.666   8.750
28088SOL     OW84289   4.763  10.408   8.144
28088SOL    HW184290   4.693  10.361   8.198
28088SOL    HW284291   4.822  10.340   8.101
28089SOL     OW84292   4.738   9.546   8.419
28089SOL    HW184293   4.730   9.510   8.326
28089SOL    HW284294   4.736   9.470   8.484
28090SOL     OW84295   4.314  10.797   7.939
28090SOL    HW184296   4.356  10.739   7.869
28090SOL    HW284297   4.270  10.876   7.895
28091SOL     OW84298   5.433   9.695   8.829
28091SOL    HW184299   5.506   9.764   8.833
28091SOL    HW284300   5.461   9.620   8.770
28092SOL     OW84301   3.979  10.658   7.738
28092SOL    HW184302   3.883  10.659   7.711
28092SOL    HW284303   3.991  10.711   7.822
28093SOL     OW84304   3.829  10.323   9.174
28093SOL    HW184305   3.752  10.290   9.228
28093SOL    HW284306   3.914  10.293   9.216
28094SOL     OW84307   4.396   9.513   8.937
28094SOL    HW184308   4.486   9.497   8.897
28094SOL    HW284309   4.404   9.518   9.036
28095SOL     OW84310   3.799   9.655   7.481
28095SOL    HW184311   3.707   9.627   7.452
28095SOL    HW284312   3.830   9.732   7.425
28096SOL     OW84313   5.164  10.166   8.846
28096SOL    HW184314   5.107  10.218   8.783
28096SOL    HW284315   5.260  10.178   8.822
28097SOL     OW84316   3.796   9.476   7.766
28097SOL    HW184317   3.779   9.559   7.712
28097SOL    HW284318   3.886   9.439   7.744
28098SOL     OW84319   4.907  10.645   7.567
28098SOL    HW184320   4.808  10.634   7.569
28098SOL    HW284321   4.941  10.660   7.660
28099SOL     OW84322   4.337  10.152   8.879
28099SOL    HW184323   4.393  10.233   8.862
28099SOL    HW284324   4.396  10.072   8.882
28100SOL     OW84325   5.217  11.077   8.407
28100SOL    HW184326   5.250  11.141   8.338
28100SOL    HW284327   5.283  11.071   8.482
28101SOL     OW84328   4.440   9.875   9.156
28101SOL    HW184329   4.459   9.940   9.230
28101SOL    HW284330   4.500   9.795   9.165
28102SOL     OW84331   5.174  10.530   9.081
28102SOL    HW184332   5.165  10.520   9.180
28102SOL    HW284333   5.270  10.523   9.055
28103SOL     OW84334   4.114  11.051   9.008
28103SOL    HW184335   4.023  11.092   9.006
28103SOL    HW284336   4.107  10.957   9.040
28104SOL     OW84337   5.398  10.193   8.702
28104SOL    HW184338   5.371  10.104   8.665
28104SOL    HW284339   5.399  10.261   8.629
28105SOL     OW84340   4.949   9.635   7.897
28105SOL    HW184341   5.014   9.561   7.886
28105SOL    HW284342   4.969   9.685   7.981
28106SOL     OW84343   4.318  10.055   8.100
28106SOL    HW184344   4.368  10.140   8.081
28106SOL    HW284345   4.230  10.057   8.052
28107SOL     OW84346   5.501   9.652   9.090
28107SOL    HW184347   5.484   9.683   8.996
28107SOL    HW284348   5.417   9.615   9.128
28108SOL     OW84349   5.454  10.244   8.965
28108SOL    HW184350   5.492  10.335   8.980
28108SOL    HW284351   5.446  10.227   8.866
28109SOL     OW84352   4.583  10.684   7.464
28109SOL    HW184353   4.537  10.699   7.552
28109SOL    HW284354   4.627  10.769   7.434
28110SOL     OW84355   4.385  11.100   8.401
28110SOL    HW184356   4.339  11.188   8.388
28110SOL    HW284357   4.484  11.112   8.394
28111SOL     OW84358   4.583  10.266   8.309
28111SOL    HW184359   4.637  10.197   8.357
28111SOL    HW284360   4.551  10.335   8.375
28112SOL     OW84361   4.807  10.294   7.535
28112SOL    HW184362   4.784  10.347   7.453
28112SOL    HW284363   4.888  10.238   7.516
28113SOL     OW84364   5.585  10.879   8.299
28113SOL    HW184365   5.514  10.867   8.229
28113SOL    HW284366   5.586  10.800   8.359
28114SOL     OW84367   3.945  10.624   9.292
28114SOL    HW184368   3.880  10.551   9.271
28114SOL    HW284369   3.949  10.638   9.390
28115SOL     OW84370   3.803  10.550   8.101
28115SOL    HW184371   3.802  10.503   8.189
28115SOL    HW284372   3.885  10.522   8.050
28116SOL     OW84373   4.396  10.701   9.072
28116SOL    HW184374   4.318  10.651   9.110
28116SOL    HW284375   4.393  10.796   9.103
28117SOL     OW84376   5.548   9.502   8.675
28117SOL    HW184377   5.544   9.412   8.719
28117SOL    HW284378   5.551   9.491   8.576
28118SOL     OW84379   4.152   9.734   7.968
28118SOL    HW184380   4.182   9.662   7.906
28118SOL    HW284381   4.113   9.694   8.051
28119SOL     OW84382   5.429  10.797   8.552
28119SOL    HW184383   5.336  10.772   8.525
28119SOL    HW284384   5.455  10.747   8.634
28120SOL     OW84385   4.041   9.857   8.728
28120SOL    HW184386   4.079   9.798   8.800
28120SOL    HW284387   4.081   9.831   8.640
28121SOL     OW84388   4.536  10.896   8.135
28121SOL    HW184389   4.568  10.906   8.041
28121SOL    HW284390   4.457  10.834   8.137
28122SOL     OW84391   5.148   9.524   8.560
28122SOL    HW184392   5.200   9.459   8.615
28122SOL    HW284393   5.099   9.587   8.621
28123SOL     OW84394   4.725   9.344   8.602
28123SOL    HW184395   4.662   9.272   8.571
28123SOL    HW284396   4.818   9.308   8.602
28124SOL     OW84397   4.494  10.640   7.749
28124SOL    HW184398   4.448  10.553   7.766
28124SOL    HW284399   4.585  10.637   7.790
28125SOL     OW84400   4.342  10.877   8.732
28125SOL    HW184401   4.337  10.959   8.789
28125SOL    HW284402   4.431  10.874   8.687
28126SOL     OW84403   5.076   9.362   7.616
28126SOL    HW184404   5.111   9.321   7.532
28126SOL    HW284405   4.986   9.324   7.636
28127SOL     OW84406   5.024   9.763   8.139
28127SOL    HW184407   4.965   9.843   8.143
28127SOL    HW284408   5.039   9.728   8.232
28128SOL     OW84409   5.317   9.531   8.330
28128SOL    HW184410   5.233   9.530   8.384
28128SOL    HW284411   5.319   9.614   8.274
28129SOL     OW84412   3.763  10.387   7.748
28129SOL    HW184413   3.862  10.376   7.739
28129SOL    HW284414   3.723  10.301   7.780
28130SOL     OW84415   4.599  10.956   7.785
28130SOL    HW184416   4.522  10.921   7.731
28130SOL    HW284417   4.567  11.027   7.847
28131SOL     OW84418   3.954   9.938   9.423
28131SOL    HW184419   3.861   9.936   9.460
28131SOL    HW284420   3.955   9.899   9.331
28132SOL     OW84421   3.949   9.585  10.306
28132SOL    HW184422   3.984   9.568  10.398
28132SOL    HW284423   3.861   9.540  10.294
28133SOL     OW84424   3.743   9.678   9.957
28133SOL    HW184425   3.661   9.721   9.996
28133SOL    HW284426   3.715   9.605   9.894
28134SOL     OW84427   4.293  10.585  10.475
28134SOL    HW184428   4.200  10.578  10.438
28134SOL    HW284429   4.304  10.674  10.519
28135SOL     OW84430   5.279  10.821  10.013
28135SOL    HW184431   5.222  10.805  10.094
28135SOL    HW284432   5.220  10.831   9.933
28136SOL     OW84433   4.859  10.013  10.027
28136SOL    HW184434   4.916  10.091  10.002
28136SOL    HW284435   4.799  10.039  10.103
28137SOL     OW84436   5.479   9.917   9.541
28137SOL    HW184437   5.467   9.904   9.442
28137SOL    HW284438   5.449   9.836   9.590
28138SOL     OW84439   4.492  10.454  10.333
28138SOL    HW184440   4.414  10.471  10.393
28138SOL    HW284441   4.526  10.541  10.297
28139SOL     OW84442   4.574  10.108  11.133
28139SOL    HW184443   4.570  10.184  11.198
28139SOL    HW284444   4.596  10.144  11.042
28140SOL     OW84445   4.409  10.322   9.975
28140SOL    HW184446   4.478  10.306  10.045
28140SOL    HW284447   4.336  10.379  10.013
28141SOL     OW84448   4.410  10.471  11.113
28141SOL    HW184449   4.470  10.550  11.127
28141SOL    HW284450   4.324  10.502  11.072
28142SOL     OW84451   4.059  10.745  10.371
28142SOL    HW184452   3.981  10.714  10.318
28142SOL    HW284453   4.117  10.803  10.314
28143SOL     OW84454   5.184  10.815  10.649
28143SOL    HW184455   5.208  10.909  10.675
28143SOL    HW284456   5.168  10.761  10.731
28144SOL     OW84457   4.162   9.702  10.809
28144SOL    HW184458   4.244   9.646  10.818
28144SOL    HW284459   4.081   9.644  10.813
28145SOL     OW84460   5.327   9.757  10.047
28145SOL    HW184461   5.253   9.803   9.997
28145SOL    HW284462   5.378   9.825  10.100
28146SOL     OW84463   3.955  11.023   9.793
28146SOL    HW184464   3.989  11.100   9.847
28146SOL    HW284465   3.999  11.023   9.703
28147SOL     OW84466   4.851  10.651  11.000
28147SOL    HW184467   4.898  10.651  11.088
28147SOL    HW284468   4.803  10.564  10.989
28148SOL     OW84469   3.954  10.744   9.848
28148SOL    HW184470   3.928  10.840   9.848
28148SOL    HW284471   3.883  10.690   9.893
28149SOL     OW84472   3.964  10.401  10.196
28149SOL    HW184473   3.978  10.317  10.248
28149SOL    HW284474   3.909  10.465  10.251
28150SOL     OW84475   4.344  11.096  10.749
28150SOL    HW184476   4.252  11.079  10.784
28150SOL    HW284477   4.372  11.188  10.775
28151SOL     OW84478   4.330  10.274   9.433
28151SOL    HW184479   4.337  10.358   9.379
28151SOL    HW284480   4.376  10.287   9.521
28152SOL     OW84481   5.318   9.424  10.790
28152SOL    HW184482   5.300   9.491  10.718
28152SOL    HW284483   5.315   9.470  10.879
28153SOL     OW84484   3.846   9.953   9.873
28153SOL    HW184485   3.801   9.865   9.890
28153SOL    HW284486   3.845  10.007   9.957
28154SOL     OW84487   5.566  11.077   9.669
28154SOL    HW184488   5.620  11.048   9.749
28154SOL    HW284489   5.596  11.167   9.640
28155SOL     OW84490   3.751  10.906   9.427
28155SOL    HW184491   3.732  10.810   9.448
28155SOL    HW284492   3.718  10.964   9.502
28156SOL     OW84493   5.413  10.232   9.922
28156SOL    HW184494   5.508  10.203   9.930
28156SOL    HW284495   5.405  10.297   9.847
28157SOL     OW84496   5.365  10.418   9.742
28157SOL    HW184497   5.451  10.420   9.690
28157SOL    HW284498   5.379  10.465   9.830
28158SOL     OW84499   3.837  10.047  10.907
28158SOL    HW184500   3.925  10.034  10.952
28158SOL    HW284501   3.824  10.144  10.885
28159SOL     OW84502   4.337  10.675  10.036
28159SOL    HW184503   4.288  10.588  10.045
28159SOL    HW284504   4.314  10.718   9.949
28160SOL     OW84505   5.017  10.538  10.733
28160SOL    HW184506   5.054  10.465  10.675
28160SOL    HW284507   5.069  10.543  10.818
28161SOL     OW84508   4.533   9.314   9.812
28161SOL    HW184509   4.573   9.405   9.803
28161SOL    HW284510   4.433   9.322   9.818
28162SOL     OW84511   3.921  10.286  10.574
28162SOL    HW184512   4.010  10.241  10.560
28162SOL    HW284513   3.848  10.221  10.555
28163SOL     OW84514   5.249  10.309   9.500
28163SOL    HW184515   5.186  10.233   9.513
28163SOL    HW284516   5.297  10.327   9.586
28164SOL     OW84517   4.911  11.102  10.926
28164SOL    HW184518   4.935  11.162  10.850
28164SOL    HW284519   4.918  11.007  10.896
28165SOL     OW84520   4.041   9.561  11.111
28165SOL    HW184521   4.112   9.632  11.117
28165SOL    HW284522   3.953   9.600  11.139
28166SOL     OW84523   5.190  10.727  10.263
28166SOL    HW184524   5.131  10.733  10.343
28166SOL    HW284525   5.175  10.639  10.217
28167SOL     OW84526   5.391  11.024   9.882
28167SOL    HW184527   5.350  11.001   9.794
28167SOL    HW284528   5.373  10.950   9.947
28168SOL     OW84529   4.322  10.039   9.580
28168SOL    HW184530   4.346  10.108   9.512
28168SOL    HW284531   4.244  10.072   9.634
28169SOL     OW84532   5.005   9.655  10.254
28169SOL    HW184533   4.919   9.605  10.241
28169SOL    HW284534   5.067   9.601  10.310
28170SOL     OW84535   5.300  10.972   9.617
28170SOL    HW184536   5.389  11.018   9.620
28170SOL    HW284537   5.279  10.948   9.522
28171SOL     OW84538   4.531   9.915  10.775
28171SOL    HW184539   4.484   9.912  10.864
28171SOL    HW284540   4.480   9.860  10.709
28172SOL     OW84541   5.118   9.779  10.984
28172SOL    HW184542   5.098   9.822  11.072
28172SOL    HW284543   5.196   9.717  10.993
28173SOL     OW84544   4.697  10.200  10.882
28173SOL    HW184545   4.743  10.116  10.853
28173SOL    HW284546   4.641  10.234  10.807
28174SOL     OW84547   4.715   9.720  10.552
28174SOL    HW184548   4.638   9.754  10.606
28174SOL    HW284549   4.681   9.669  10.473
28175SOL     OW84550   4.765  10.011   9.739
28175SOL    HW184551   4.791  10.007   9.835
28175SOL    HW284552   4.680   9.960   9.725
28176SOL     OW84553   3.800  10.121  10.099
28176SOL    HW184554   3.899  10.109  10.108
28176SOL    HW284555   3.776  10.216  10.120
28177SOL     OW84556   3.854  11.131  10.881
28177SOL    HW184557   3.844  11.116  10.980
28177SOL    HW284558   3.768  11.167  10.845
28178SOL     OW84559   4.589   9.658   9.505
28178SOL    HW184560   4.648   9.721   9.456
28178SOL    HW284561   4.608   9.564   9.476
28179SOL     OW84562   5.443   9.895  11.141
28179SOL    HW184563   5.417   9.984  11.105
28179SOL    HW284564   5.441   9.827  11.068
28180SOL     OW84565   5.086  10.454   9.855
28180SOL    HW184566   5.169  10.425   9.807
28180SOL    HW284567   5.037  10.521   9.799
28181SOL     OW84568   4.274   9.506  10.195
28181SOL    HW184569   4.269   9.501  10.295
28181SOL    HW284570   4.276   9.602  10.166
28182SOL     OW84571   4.732  10.766   9.787
28182SOL    HW184572   4.686  10.838   9.735
28182SOL    HW284573   4.728  10.786   9.885
28183SOL     OW84574   4.075  11.111  10.163
28183SOL    HW184575   4.125  11.025  10.169
28183SOL    HW284576   4.140  11.188  10.160
28184SOL     OW84577   5.519  10.376  10.183
28184SOL    HW184578   5.457  10.361  10.107
28184SOL    HW284579   5.467  10.387  10.268
28185SOL     OW84580   4.951  10.860  10.816
28185SOL    HW184581   4.957  10.783  10.880
28185SOL    HW284582   4.899  10.834  10.736
28186SOL     OW84583   4.045  10.253   9.552
28186SOL    HW184584   4.127  10.292   9.510
28186SOL    HW284585   4.018  10.171   9.503
28187SOL     OW84586   5.182  10.045  10.038
28187SOL    HW184587   5.177   9.980  10.113
28187SOL    HW284588   5.262  10.104  10.051
28188SOL     OW84589   4.185  10.576  11.037
28188SOL    HW184590   4.135  10.577  10.951
28188SOL    HW284591   4.122  10.558  11.113
28189SOL     OW84592   4.835  11.086   9.547
28189SOL    HW184593   4.775  11.024   9.597
28189SOL    HW284594   4.866  11.042   9.462
28190SOL     OW84595   3.926   9.595  10.808
28190SOL    HW184596   3.846   9.655  10.795
28190SOL    HW284597   3.916   9.546  10.894
28191SOL     OW84598   5.356  10.687   9.391
28191SOL    HW184599   5.324  10.781   9.381
28191SOL    HW284600   5.280  10.624   9.379
28192SOL     OW84601   4.188  11.053   9.633
28192SOL    HW184602   4.221  11.092   9.719
28192SOL    HW284603   4.264  11.046   9.568
28193SOL     OW84604   5.124   9.417   9.736
28193SOL    HW184605   5.100   9.380   9.646
28193SOL    HW284606   5.223   9.433   9.740
28194SOL     OW84607   3.973  11.095  10.551
28194SOL    HW184608   4.030  11.030  10.601
28194SOL    HW284609   3.957  11.062  10.458
28195SOL     OW84610   4.664  11.008  10.214
28195SOL    HW184611   4.744  10.951  10.235
28195SOL    HW284612   4.615  10.968  10.137
28196SOL     OW84613   4.106  10.010   9.790
28196SOL    HW184614   4.151   9.920   9.787
28196SOL    HW284615   4.012   9.999   9.823
28197SOL     OW84616   5.271   9.532  11.039
28197SOL    HW184617   5.266   9.569  11.131
28197SOL    HW284618   5.199   9.463  11.027
28198SOL     OW84619   4.338   9.432   9.427
28198SOL    HW184620   4.436   9.410   9.434
28198SOL    HW284621   4.307   9.415   9.334
28199SOL     OW84622   4.505   9.574  11.059
28199SOL    HW184623   4.572   9.513  11.102
28199SOL    HW284624   4.432   9.593  11.124
28200SOL     OW84625   4.612  10.824  10.505
28200SOL    HW184626   4.589  10.799  10.411
28200SOL    HW284627   4.673  10.755  10.544
28201SOL     OW84628   5.075   9.900  10.743
28201SOL    HW184629   5.103   9.857  10.828
28201SOL    HW284630   5.100   9.996  10.744
28202SOL     OW84631   4.527  10.712  10.234
28202SOL    HW184632   4.617  10.726  10.192
28202SOL    HW284633   4.456  10.714  10.163
28203SOL     OW84634   4.646   9.813  10.209
28203SOL    HW184635   4.621   9.804  10.113
28203SOL    HW284636   4.694   9.731  10.240
28204SOL     OW84637   4.263   9.374   9.822
28204SOL    HW184638   4.182   9.375   9.880
28204SOL    HW284639   4.266   9.457   9.767
28205SOL     OW84640   5.158  10.498   9.351
28205SOL    HW184641   5.190  10.422   9.408
28205SOL    HW284642   5.066  10.525   9.381
28206SOL     OW84643   4.021   9.345   9.481
28206SOL    HW184644   4.070   9.429   9.460
28206SOL    HW284645   4.083   9.280   9.526
28207SOL     OW84646   4.659   9.546   9.790
28207SOL    HW184647   4.611   9.587   9.712
28207SOL    HW284648   4.758   9.544   9.771
28208SOL     OW84649   4.800   9.993  10.774
28208SOL    HW184650   4.720   9.932  10.777
28208SOL    HW284651   4.881   9.940  10.750
28209SOL     OW84652   4.951  10.880  10.103
28209SOL    HW184653   4.972  10.954  10.038
28209SOL    HW284654   5.019  10.880  10.176
28210SOL     OW84655   4.183  10.462  10.051
28210SOL    HW184656   4.112  10.435  10.116
28210SOL    HW284657   4.157  10.434   9.958
28211SOL     OW84658   4.995  11.107   9.901
28211SOL    HW184659   5.039  11.171   9.837
28211SOL    HW284660   4.945  11.159   9.971
28212SOL     OW84661   4.756   9.859   9.326
28212SOL    HW184662   4.715   9.941   9.287
28212SOL    HW284663   4.820   9.885   9.399
28213SOL     OW84664   3.802   9.866  10.696
28213SOL    HW184665   3.894   9.865  10.655
28213SOL    HW284666   3.796   9.940  10.763
28214SOL     OW84667   4.285   9.532  10.457
28214SOL    HW184668   4.323   9.448  10.494
28214SOL    HW284669   4.197   9.551  10.501
28215SOL     OW84670   4.590   9.764   9.952
28215SOL    HW184671   4.558   9.836   9.890
28215SOL    HW284672   4.614   9.683   9.899
28216SOL     OW84673   4.741   9.349  10.063
28216SOL    HW184674   4.669   9.354   9.994
28216SOL    HW284675   4.717   9.280  10.132
28217SOL     OW84676   5.153  10.483  10.177
28217SOL    HW184677   5.098  10.399  10.170
28217SOL    HW284678   5.179  10.512  10.085
28218SOL     OW84679   5.190   9.900  10.302
28218SOL    HW184680   5.160   9.805  10.309
28218SOL    HW284681   5.263   9.916  10.368
28219SOL     OW84682   5.581  10.143   9.687
28219SOL    HW184683   5.623  10.079   9.751
28219SOL    HW284684   5.543  10.092   9.609
28220SOL     OW84685   4.212  10.695   9.484
28220SOL    HW184686   4.125  10.680   9.531
28220SOL    HW284687   4.195  10.721   9.389
28221SOL     OW84688   5.388  10.590   9.967
28221SOL    HW184689   5.487  10.598   9.981
28221SOL    HW284690   5.343  10.674   9.998
28222SOL     OW84691   5.114   9.885   9.388
28222SOL    HW184692   5.060   9.864   9.469
28222SOL    HW284693   5.205   9.844   9.397
28223SOL     OW84694   4.251   9.566   9.638
28223SOL    HW184695   4.278   9.507   9.563
28223SOL    HW284696   4.251   9.661   9.607
28224SOL     OW84697   5.478  10.533  10.898
28224SOL    HW184698   5.569  10.494  10.885
28224SOL    HW284699   5.486  10.629  10.922
28225SOL     OW84700   4.788  10.657  10.650
28225SOL    HW184701   4.708  10.634  10.705
28225SOL    HW284702   4.871  10.631  10.699
28226SOL     OW84703   5.316  10.939  10.935
28226SOL    HW184704   5.343  10.973  10.845
28226SOL    HW284705   5.395  10.901  10.981
28227SOL     OW84706   4.835  10.505  10.410
28227SOL    HW184707   4.795  10.549  10.491
28227SOL    HW284708   4.794  10.542  10.327
28228SOL     OW84709   5.362  10.409  10.389
28228SOL    HW184710   5.367  10.490  10.448
28228SOL    HW284711   5.276  10.411  10.338
28229SOL     OW84712   4.639   9.399  10.712
28229SOL    HW184713   4.664   9.379  10.617
28229SOL    HW284714   4.711   9.455  10.754
28230SOL     OW84715   4.704  10.426  11.029
28230SOL    HW184716   4.605  10.432  11.039
28230SOL    HW284717   4.727  10.346  10.973
28231SOL     OW84718   4.429  10.360   9.678
28231SOL    HW184719   4.415  10.367   9.777
28231SOL    HW284720   4.513  10.309   9.660
28232SOL     OW84721   4.134  10.123  10.561
28232SOL    HW184722   4.220  10.135  10.611
28232SOL    HW284723   4.092  10.036  10.588
28233SOL     OW84724   4.998   9.696  10.572
28233SOL    HW184725   5.019   9.770  10.636
28233SOL    HW284726   4.909   9.713  10.529
28234SOL     OW84727   3.788  10.874  10.641
28234SOL    HW184728   3.742  10.956  10.607
28234SOL    HW284729   3.886  10.893  10.650
28235SOL     OW84730   4.091  10.410   9.811
28235SOL    HW184731   4.084  10.493   9.755
28235SOL    HW284732   4.095  10.330   9.751
28236SOL     OW84733   4.290   9.847  10.175
28236SOL    HW184734   4.302   9.913  10.101
28236SOL    HW284735   4.336   9.881  10.258
28237SOL     OW84736   4.976  10.658   9.698
28237SOL    HW184737   5.026  10.735   9.738
28237SOL    HW284738   4.881  10.660   9.730
28238SOL     OW84739   4.996  10.755  10.452
28238SOL    HW184740   5.043  10.768  10.539
28238SOL    HW284741   4.930  10.681  10.461
28239SOL     OW84742   5.306   9.949   9.782
28239SOL    HW184743   5.275  10.010   9.855
28239SOL    HW284744   5.356  10.001   9.713
28240SOL     OW84745   4.078  10.820  10.639
28240SOL    HW184746   4.057  10.776  10.552
28240SOL    HW284747   4.175  10.846  10.642
28241SOL     OW84748   4.126  10.061  10.908
28241SOL    HW184749   4.194  10.116  10.861
28241SOL    HW284750   4.166   9.973  10.935
28242SOL     OW84751   5.311  10.089  10.980
28242SOL    HW184752   5.219  10.127  10.975
28242SOL    HW284753   5.371  10.136  10.915
28243SOL     OW84754   4.737   9.415  11.080
28243SOL    HW184755   4.743   9.500  11.028
28243SOL    HW284756   4.769   9.339  11.023
28244SOL     OW84757   4.228   9.360  11.050
28244SOL    HW184758   4.186   9.303  10.980
28244SOL    HW284759   4.162   9.429  11.082
28245SOL     OW84760   4.297  10.180  10.339
28245SOL    HW184761   4.341  10.269  10.330
28245SOL    HW284762   4.234  10.180  10.416
28246SOL     OW84763   5.084  10.172  10.355
28246SOL    HW184764   5.009  10.172  10.289
28246SOL    HW284765   5.121  10.080  10.364
28247SOL     OW84766   4.933   9.835   9.585
28247SOL    HW184767   4.946   9.751   9.639
28247SOL    HW284768   4.904   9.909   9.645
28248SOL     OW84769   4.031   9.523  10.541
28248SOL    HW184770   4.008   9.560  10.631
28248SOL    HW284771   4.001   9.428  10.535
28249SOL     OW84772   3.761  10.620  10.592
28249SOL    HW184773   3.814  10.571  10.660
28249SOL    HW284774   3.783  10.718  10.597
28250SOL     OW84775   4.456   9.944  10.374
28250SOL    HW184776   4.515   9.918  10.298
28250SOL    HW284777   4.428  10.040  10.363
28251SOL     OW84778   5.452  10.245  11.164
28251SOL    HW184779   5.406  10.238  11.075
28251SOL    HW284780   5.390  10.289  11.230
28252SOL     OW84781   4.031   9.373   9.928
28252SOL    HW184782   4.020   9.467   9.961
28252SOL    HW284783   4.026   9.310  10.005
28253SOL     OW84784   5.346   9.677   9.684
28253SOL    HW184785   5.348   9.601   9.748
28253SOL    HW284786   5.298   9.754   9.724
28254SOL     OW84787   4.747  10.076  10.276
28254SOL    HW184788   4.762  10.097  10.372
28254SOL    HW284789   4.717   9.981  10.267
28255SOL     OW84790   4.704  10.883  11.010
28255SOL    HW184791   4.684  10.927  10.922
28255SOL    HW284792   4.743  10.792  10.994
28256SOL     OW84793   5.583  10.828  10.915
28256SOL    HW184794   5.597  10.855  10.820
28256SOL    HW284795   5.666  10.850  10.968
28257SOL     OW84796   4.074  10.208  11.114
28257SOL    HW184797   4.150  10.252  11.162
28257SOL    HW284798   4.109  10.161  11.032
28258SOL     OW84799   5.264   9.584   9.435
28258SOL    HW184800   5.203   9.509   9.458
28258SOL    HW284801   5.286   9.636   9.518
28259SOL     OW84802   5.027  10.148   9.352
28259SOL    HW184803   5.061  10.055   9.367
28259SOL    HW284804   5.045  10.175   9.257
28260SOL     OW84805   4.792  10.643  10.159
28260SOL    HW184806   4.799  10.559  10.104
28260SOL    HW284807   4.854  10.712  10.123
28261SOL     OW84808   4.043  10.120  10.259
28261SOL    HW184809   4.136  10.156  10.264
28261SOL    HW284810   4.037  10.035  10.311
28262SOL     OW84811   4.063   9.819  10.316
28262SOL    HW184812   4.011   9.736  10.299
28262SOL    HW284813   4.140   9.824  10.252
28263SOL     OW84814   4.862   9.690  10.988
28263SOL    HW184815   4.817   9.753  11.052
28263SOL    HW284816   4.955   9.721  10.971
28264SOL     OW84817   4.884   9.517  10.787
28264SOL    HW184818   4.884   9.581  10.864
28264SOL    HW284819   4.912   9.565  10.704
28265SOL     OW84820   3.732  10.636   9.510
28265SOL    HW184821   3.639  10.657   9.479
28265SOL    HW284822   3.742  10.537   9.523
28266SOL     OW84823   3.812  11.111  10.237
28266SOL    HW184824   3.770  11.025  10.210
28266SOL    HW284825   3.906  11.114  10.203
28267SOL     OW84826   4.228  10.878  10.220
28267SOL    HW184827   4.294  10.952  10.229
28267SOL    HW284828   4.272  10.799  10.178
28268SOL     OW84829   4.726  10.106  10.548
28268SOL    HW184830   4.767  10.074  10.634
28268SOL    HW284831   4.630  10.079  10.545
28269SOL     OW84832   3.764   9.854  10.424
28269SOL    HW184833   3.849   9.821  10.383
28269SOL    HW284834   3.777   9.869  10.522
28270SOL     OW84835   3.913   9.830  11.032
28270SOL    HW184836   3.972   9.790  10.962
28270SOL    HW284837   3.855   9.901  10.991
28271SOL     OW84838   5.093  10.260  10.970
28271SOL    HW184839   5.132  10.349  10.990
28271SOL    HW284840   5.103  10.240  10.873
28272SOL     OW84841   4.539   9.882   9.635
28272SOL    HW184842   4.546   9.793   9.589
28272SOL    HW284843   4.445   9.916   9.627
28273SOL     OW84844   5.381   9.914  10.516
28273SOL    HW184845   5.343   9.845  10.578
28273SOL    HW284846   5.463   9.878  10.472
28274SOL     OW84847   3.976  10.874  11.054
28274SOL    HW184848   3.946  10.931  11.130
28274SOL    HW284849   3.969  10.777  11.080
28275SOL     OW84850   4.395   9.774  10.579
28275SOL    HW184851   4.361   9.685  10.549
28275SOL    HW284852   4.421   9.828  10.499
28276SOL     OW84853   4.654  10.988  10.775
28276SOL    HW184854   4.630  10.970  10.680
28276SOL    HW284855   4.684  11.082  10.785
28277SOL     OW84856   4.197   9.810   9.501
28277SOL    HW184857   4.258   9.890   9.505
28277SOL    HW284858   4.102   9.841   9.508
28278SOL     OW84859   3.883  10.447  10.776
28278SOL    HW184860   3.905  10.386  10.852
28278SOL    HW284861   3.893  10.398  10.690
28279SOL     OW84862   5.071  10.369  10.544
28279SOL    HW184863   5.095  10.306  10.470
28279SOL    HW284864   4.981  10.409  10.526
28280SOL     OW84865   5.026  10.165   9.619
28280SOL    HW184866   4.940  10.134   9.661
28280SOL    HW284867   5.022  10.151   9.520
28281SOL     OW84868   5.483  11.057  10.464
28281SOL    HW184869   5.544  11.087  10.391
28281SOL    HW284870   5.445  10.968  10.442
28282SOL     OW84871   4.976  11.041  10.438
28282SOL    HW184872   5.060  11.046  10.384
28282SOL    HW284873   4.953  10.945  10.456
28283SOL     OW84874   3.807  10.568  10.332
28283SOL    HW184875   3.802  10.567  10.432
28283SOL    HW284876   3.724  10.527  10.294
28284SOL     OW84877   4.412  10.972  11.026
28284SOL    HW184878   4.356  11.053  11.035
28284SOL    HW284879   4.464  10.976  10.940
28285SOL     OW84880   5.450   9.445   9.833
28285SOL    HW184881   5.523   9.428   9.766
28285SOL    HW284882   5.419   9.358   9.871
28286SOL     OW84883   5.112  10.883   9.787
28286SOL    HW184884   5.179  10.895   9.713
28286SOL    HW284885   5.072  10.972   9.810
28287SOL     OW84886   3.854  11.104  11.161
28287SOL    HW184887   3.813  11.030  11.214
28287SOL    HW284888   3.918  11.155  11.219
28288SOL     OW84889   5.004  10.237   9.982
28288SOL    HW184890   5.064  10.156   9.984
28288SOL    HW284891   5.044  10.306   9.922
28289SOL     OW84892   4.554  10.583  10.732
28289SOL    HW184893   4.549  10.616  10.827
28289SOL    HW284894   4.468  10.602  10.686
28290SOL     OW84895   4.396  10.926   9.464
28290SOL    HW184896   4.405  10.936   9.365
28290SOL    HW284897   4.356  10.837   9.485
28291SOL     OW84898   5.374  11.030  10.704
28291SOL    HW184899   5.427  11.040  10.620
28291SOL    HW284900   5.347  11.120  10.738
28292SOL     OW84901   5.565   9.485  10.273
28292SOL    HW184902   5.604   9.400  10.237
28292SOL    HW284903   5.467   9.487  10.254
28293SOL     OW84904   3.987   9.636  10.030
28293SOL    HW184905   3.908   9.687   9.996
28293SOL    HW284906   3.978   9.621  10.128
28294SOL     OW84907   4.918  10.922   9.341
28294SOL    HW184908   4.924  10.829   9.378
28294SOL    HW284909   4.859  10.922   9.261
28295SOL     OW84910   4.546  10.312  10.682
28295SOL    HW184911   4.586  10.311  10.590
28295SOL    HW284912   4.556  10.404  10.722
28296SOL     OW84913   4.640  10.220   9.601
28296SOL    HW184914   4.703  10.258   9.533
28296SOL    HW284915   4.680  10.137   9.640
28297SOL     OW84916   5.228  10.917   9.354
28297SOL    HW184917   5.136  10.954   9.361
28297SOL    HW284918   5.266  10.937   9.264
28298SOL     OW84919   4.096  10.598  10.800
28298SOL    HW184920   4.083  10.691  10.766
28298SOL    HW284921   4.012  10.546  10.787
28299SOL     OW84922   5.338  10.602  10.599
28299SOL    HW184923   5.398  10.605  10.679
28299SOL    HW284924   5.263  10.666  10.612
28300SOL     OW84925   4.763  10.408  10.006
28300SOL    HW184926   4.693  10.361  10.060
28300SOL    HW284927   4.822  10.340   9.963
28301SOL     OW84928   4.738   9.546  10.281
28301SOL    HW184929   4.730   9.510  10.188
28301SOL    HW284930   4.736   9.470  10.346
28302SOL     OW84931   4.314  10.797   9.801
28302SOL    HW184932   4.356  10.739   9.731
28302SOL    HW284933   4.270  10.876   9.757
28303SOL     OW84934   5.433   9.695  10.691
28303SOL    HW184935   5.506   9.764  10.695
28303SOL    HW284936   5.461   9.620  10.632
28304SOL     OW84937   3.979  10.658   9.600
28304SOL    HW184938   3.883  10.659   9.573
28304SOL    HW284939   3.991  10.711   9.684
28305SOL     OW84940   3.829  10.323  11.036
28305SOL    HW184941   3.752  10.290  11.090
28305SOL    HW284942   3.914  10.293  11.078
28306SOL     OW84943   4.396   9.513  10.799
28306SOL    HW184944   4.486   9.497  10.759
28306SOL    HW284945   4.404   9.518  10.898
28307SOL     OW84946   3.799   9.655   9.343
28307SOL    HW184947   3.707   9.627   9.314
28307SOL    HW284948   3.830   9.732   9.287
28308SOL     OW84949   5.164  10.166  10.708
28308SOL    HW184950   5.107  10.218  10.645
28308SOL    HW284951   5.260  10.178  10.684
28309SOL     OW84952   3.796   9.476   9.628
28309SOL    HW184953   3.779   9.559   9.574
28309SOL    HW284954   3.886   9.439   9.606
28310SOL     OW84955   4.907  10.645   9.429
28310SOL    HW184956   4.808  10.634   9.431
28310SOL    HW284957   4.941  10.660   9.522
28311SOL     OW84958   4.337  10.152  10.741
28311SOL    HW184959   4.393  10.233  10.724
28311SOL    HW284960   4.396  10.072  10.744
28312SOL     OW84961   5.217  11.077  10.269
28312SOL    HW184962   5.250  11.141  10.200
28312SOL    HW284963   5.283  11.071  10.344
28313SOL     OW84964   4.440   9.875  11.018
28313SOL    HW184965   4.459   9.940  11.092
28313SOL    HW284966   4.500   9.795  11.027
28314SOL     OW84967   5.174  10.530  10.943
28314SOL    HW184968   5.165  10.520  11.042
28314SOL    HW284969   5.270  10.523  10.917
28315SOL     OW84970   4.114  11.051  10.870
28315SOL    HW184971   4.023  11.092  10.868
28315SOL    HW284972   4.107  10.957  10.902
28316SOL     OW84973   5.398  10.193  10.564
28316SOL    HW184974   5.371  10.104  10.527
28316SOL    HW284975   5.399  10.261  10.491
28317SOL     OW84976   4.949   9.635   9.759
28317SOL    HW184977   5.014   9.561   9.748
28317SOL    HW284978   4.969   9.685   9.843
28318SOL     OW84979   4.318  10.055   9.962
28318SOL    HW184980   4.368  10.140   9.943
28318SOL    HW284981   4.230  10.057   9.914
28319SOL     OW84982   5.501   9.652  10.952
28319SOL    HW184983   5.484   9.683  10.858
28319SOL    HW284984   5.417   9.615  10.990
28320SOL     OW84985   5.454  10.244  10.827
28320SOL    HW184986   5.492  10.335  10.842
28320SOL    HW284987   5.446  10.227  10.728
28321SOL     OW84988   4.583  10.684   9.326
28321SOL    HW184989   4.537  10.699   9.414
28321SOL    HW284990   4.627  10.769   9.296
28322SOL     OW84991   4.385  11.100  10.263
28322SOL    HW184992   4.339  11.188  10.250
28322SOL    HW284993   4.484  11.112  10.256
28323SOL     OW84994   4.583  10.266  10.171
28323SOL    HW184995   4.637  10.197  10.219
28323SOL    HW284996   4.551  10.335  10.237
28324SOL     OW84997   4.807  10.294   9.397
28324SOL    HW184998   4.784  10.347   9.315
28324SOL    HW284999   4.888  10.238   9.378
28325SOL     OW85000   5.585  10.879  10.161
28325SOL    HW185001   5.514  10.867  10.091
28325SOL    HW285002   5.586  10.800  10.221
28326SOL     OW85003   3.945  10.624  11.154
28326SOL    HW185004   3.880  10.551  11.133
28326SOL    HW285005   3.949  10.638  11.252
28327SOL     OW85006   3.803  10.550   9.963
28327SOL    HW185007   3.802  10.503  10.051
28327SOL    HW285008   3.885  10.522   9.912
28328SOL     OW85009   4.396  10.701  10.934
28328SOL    HW185010   4.318  10.651  10.972
28328SOL    HW285011   4.393  10.796  10.965
28329SOL     OW85012   5.548   9.502  10.537
28329SOL    HW185013   5.544   9.412  10.581
28329SOL    HW285014   5.551   9.491  10.438
28330SOL     OW85015   4.152   9.734   9.830
28330SOL    HW185016   4.182   9.662   9.768
28330SOL    HW285017   4.113   9.694   9.913
28331SOL     OW85018   5.429  10.797  10.414
28331SOL    HW185019   5.336  10.772  10.387
28331SOL    HW285020   5.455  10.747  10.496
28332SOL     OW85021   4.041   9.857  10.590
28332SOL    HW185022   4.079   9.798  10.662
28332SOL    HW285023   4.081   9.831  10.502
28333SOL     OW85024   4.536  10.896   9.997
28333SOL    HW185025   4.568  10.906   9.903
28333SOL    HW285026   4.457  10.834   9.999
28334SOL     OW85027   5.148   9.524  10.422
28334SOL    HW185028   5.200   9.459  10.477
28334SOL    HW285029   5.099   9.587  10.483
28335SOL     OW85030   4.725   9.344  10.464
28335SOL    HW185031   4.662   9.272  10.433
28335SOL    HW285032   4.818   9.308  10.464
28336SOL     OW85033   4.494  10.640   9.611
28336SOL    HW185034   4.448  10.553   9.628
28336SOL    HW285035   4.585  10.637   9.652
28337SOL     OW85036   4.342  10.877  10.594
28337SOL    HW185037   4.337  10.959  10.651
28337SOL    HW285038   4.431  10.874  10.549
28338SOL     OW85039   5.076   9.362   9.478
28338SOL    HW185040   5.111   9.321   9.394
28338SOL    HW285041   4.986   9.324   9.498
28339SOL     OW85042   5.024   9.763  10.001
28339SOL    HW185043   4.965   9.843  10.005
28339SOL    HW285044   5.039   9.728  10.094
28340SOL     OW85045   5.317   9.531  10.192
28340SOL    HW185046   5.233   9.530  10.246
28340SOL    HW285047   5.319   9.614  10.136
28341SOL     OW85048   3.763  10.387   9.610
28341SOL    HW185049   3.862  10.376   9.601
28341SOL    HW285050   3.723  10.301   9.642
28342SOL     OW85051   4.599  10.956   9.647
28342SOL    HW185052   4.522  10.921   9.593
28342SOL    HW285053   4.567  11.027   9.709
28343SOL     OW85054   3.954   9.938  11.285
28343SOL    HW185055   3.861   9.936  11.322
28343SOL    HW285056   3.955   9.899  11.193
28344SOL     OW85057   3.949   9.585  12.168
28344SOL    HW185058   3.984   9.568  12.260
28344SOL    HW285059   3.861   9.540  12.156
28345SOL     OW85060   3.743   9.678  11.819
28345SOL    HW185061   3.661   9.721  11.858
28345SOL    HW285062   3.715   9.605  11.756
28346SOL     OW85063   4.293  10.585  12.337
28346SOL    HW185064   4.200  10.578  12.300
28346SOL    HW285065   4.304  10.674  12.381
28347SOL     OW85066   5.279  10.821  11.875
28347SOL    HW185067   5.222  10.805  11.956
28347SOL    HW285068   5.220  10.831  11.795
28348SOL     OW85069   4.859  10.013  11.889
28348SOL    HW185070   4.916  10.091  11.864
28348SOL    HW285071   4.799  10.039  11.965
28349SOL     OW85072   5.479   9.917  11.403
28349SOL    HW185073   5.467   9.904  11.304
28349SOL    HW285074   5.449   9.836  11.452
28350SOL     OW85075   4.492  10.454  12.195
28350SOL    HW185076   4.414  10.471  12.255
28350SOL    HW285077   4.526  10.541  12.159
28351SOL     OW85078   4.409  10.322  11.837
28351SOL    HW185079   4.478  10.306  11.907
28351SOL    HW285080   4.336  10.379  11.875
28352SOL     OW85081   4.059  10.745  12.233
28352SOL    HW185082   3.981  10.714  12.180
28352SOL    HW285083   4.117  10.803  12.176
28353SOL     OW85084   5.184  10.815  12.511
28353SOL    HW185085   5.208  10.909  12.537
28353SOL    HW285086   5.168  10.761  12.593
28354SOL     OW85087   4.162   9.702  12.671
28354SOL    HW185088   4.244   9.646  12.680
28354SOL    HW285089   4.081   9.644  12.675
28355SOL     OW85090   5.327   9.757  11.909
28355SOL    HW185091   5.253   9.803  11.859
28355SOL    HW285092   5.378   9.825  11.962
28356SOL     OW85093   3.955  11.023  11.655
28356SOL    HW185094   3.989  11.100  11.709
28356SOL    HW285095   3.999  11.023  11.565
28357SOL     OW85096   3.954  10.744  11.710
28357SOL    HW185097   3.928  10.840  11.710
28357SOL    HW285098   3.883  10.690  11.755
28358SOL     OW85099   3.964  10.401  12.058
28358SOL    HW185100   3.978  10.317  12.110
28358SOL    HW285101   3.909  10.465  12.113
28359SOL     OW85102   4.344  11.096  12.611
28359SOL    HW185103   4.252  11.079  12.646
28359SOL    HW285104   4.372  11.188  12.637
28360SOL     OW85105   4.330  10.274  11.295
28360SOL    HW185106   4.337  10.358  11.241
28360SOL    HW285107   4.376  10.287  11.383
28361SOL     OW85108   5.318   9.424  12.652
28361SOL    HW185109   5.300   9.491  12.580
28361SOL    HW285110   5.315   9.470  12.741
28362SOL     OW85111   3.846   9.953  11.735
28362SOL    HW185112   3.801   9.865  11.752
28362SOL    HW285113   3.845  10.007  11.819
28363SOL     OW85114   5.566  11.077  11.531
28363SOL    HW185115   5.620  11.048  11.611
28363SOL    HW285116   5.596  11.167  11.502
28364SOL     OW85117   3.751  10.906  11.289
28364SOL    HW185118   3.732  10.810  11.310
28364SOL    HW285119   3.718  10.964  11.364
28365SOL     OW85120   5.413  10.232  11.784
28365SOL    HW185121   5.508  10.203  11.792
28365SOL    HW285122   5.405  10.297  11.709
28366SOL     OW85123   5.365  10.418  11.604
28366SOL    HW185124   5.451  10.420  11.552
28366SOL    HW285125   5.379  10.465  11.692
28367SOL     OW85126   4.337  10.675  11.898
28367SOL    HW185127   4.288  10.588  11.907
28367SOL    HW285128   4.314  10.718  11.811
28368SOL     OW85129   4.533   9.314  11.674
28368SOL    HW185130   4.573   9.405  11.665
28368SOL    HW285131   4.433   9.322  11.680
28369SOL     OW85132   3.921  10.286  12.436
28369SOL    HW185133   4.010  10.241  12.422
28369SOL    HW285134   3.848  10.221  12.417
28370SOL     OW85135   5.249  10.309  11.362
28370SOL    HW185136   5.186  10.233  11.375
28370SOL    HW285137   5.297  10.327  11.448
28371SOL     OW85138   4.041   9.561  12.973
28371SOL    HW185139   4.112   9.632  12.979
28371SOL    HW285140   3.953   9.600  13.001
28372SOL     OW85141   5.190  10.727  12.125
28372SOL    HW185142   5.131  10.733  12.205
28372SOL    HW285143   5.175  10.639  12.079
28373SOL     OW85144   5.391  11.024  11.744
28373SOL    HW185145   5.350  11.001  11.656
28373SOL    HW285146   5.373  10.950  11.809
28374SOL     OW85147   4.322  10.039  11.442
28374SOL    HW185148   4.346  10.108  11.374
28374SOL    HW285149   4.244  10.072  11.496
28375SOL     OW85150   5.005   9.655  12.116
28375SOL    HW185151   4.919   9.605  12.103
28375SOL    HW285152   5.067   9.601  12.172
28376SOL     OW85153   5.300  10.972  11.479
28376SOL    HW185154   5.389  11.018  11.482
28376SOL    HW285155   5.279  10.948  11.384
28377SOL     OW85156   4.531   9.915  12.637
28377SOL    HW185157   4.484   9.912  12.726
28377SOL    HW285158   4.480   9.860  12.571
28378SOL     OW85159   4.715   9.720  12.414
28378SOL    HW185160   4.638   9.754  12.468
28378SOL    HW285161   4.681   9.669  12.335
28379SOL     OW85162   4.765  10.011  11.601
28379SOL    HW185163   4.791  10.007  11.697
28379SOL    HW285164   4.680   9.960  11.587
28380SOL     OW85165   3.800  10.121  11.961
28380SOL    HW185166   3.899  10.109  11.970
28380SOL    HW285167   3.776  10.216  11.982
28381SOL     OW85168   3.854  11.131  12.743
28381SOL    HW185169   3.844  11.116  12.842
28381SOL    HW285170   3.768  11.167  12.707
28382SOL     OW85171   4.589   9.658  11.367
28382SOL    HW185172   4.648   9.721  11.318
28382SOL    HW285173   4.608   9.564  11.338
28383SOL     OW85174   5.086  10.454  11.717
28383SOL    HW185175   5.169  10.425  11.669
28383SOL    HW285176   5.037  10.521  11.661
28384SOL     OW85177   4.274   9.506  12.057
28384SOL    HW185178   4.269   9.501  12.157
28384SOL    HW285179   4.276   9.602  12.028
28385SOL     OW85180   4.732  10.766  11.649
28385SOL    HW185181   4.686  10.838  11.597
28385SOL    HW285182   4.728  10.786  11.747
28386SOL     OW85183   4.075  11.111  12.025
28386SOL    HW185184   4.125  11.025  12.031
28386SOL    HW285185   4.140  11.188  12.022
28387SOL     OW85186   5.519  10.376  12.045
28387SOL    HW185187   5.457  10.361  11.969
28387SOL    HW285188   5.467  10.387  12.130
28388SOL     OW85189   4.045  10.253  11.414
28388SOL    HW185190   4.127  10.292  11.372
28388SOL    HW285191   4.018  10.171  11.365
28389SOL     OW85192   5.182  10.045  11.900
28389SOL    HW185193   5.177   9.980  11.975
28389SOL    HW285194   5.262  10.104  11.913
28390SOL     OW85195   4.835  11.086  11.409
28390SOL    HW185196   4.775  11.024  11.459
28390SOL    HW285197   4.866  11.042  11.324
28391SOL     OW85198   3.926   9.595  12.670
28391SOL    HW185199   3.846   9.655  12.657
28391SOL    HW285200   3.916   9.546  12.756
28392SOL     OW85201   5.356  10.687  11.253
28392SOL    HW185202   5.324  10.781  11.243
28392SOL    HW285203   5.280  10.624  11.241
28393SOL     OW85204   4.188  11.053  11.495
28393SOL    HW185205   4.221  11.092  11.581
28393SOL    HW285206   4.264  11.046  11.430
28394SOL     OW85207   5.124   9.417  11.598
28394SOL    HW185208   5.100   9.380  11.508
28394SOL    HW285209   5.223   9.433  11.602
28395SOL     OW85210   3.973  11.095  12.413
28395SOL    HW185211   4.030  11.030  12.463
28395SOL    HW285212   3.957  11.062  12.320
28396SOL     OW85213   4.664  11.008  12.076
28396SOL    HW185214   4.744  10.951  12.097
28396SOL    HW285215   4.615  10.968  11.999
28397SOL     OW85216   4.106  10.010  11.652
28397SOL    HW185217   4.151   9.920  11.649
28397SOL    HW285218   4.012   9.999  11.685
28398SOL     OW85219   4.338   9.432  11.289
28398SOL    HW185220   4.436   9.410  11.296
28398SOL    HW285221   4.307   9.415  11.196
28399SOL     OW85222   4.612  10.824  12.367
28399SOL    HW185223   4.589  10.799  12.273
28399SOL    HW285224   4.673  10.755  12.406
28400SOL     OW85225   4.527  10.712  12.096
28400SOL    HW185226   4.617  10.726  12.054
28400SOL    HW285227   4.456  10.714  12.025
28401SOL     OW85228   4.646   9.813  12.071
28401SOL    HW185229   4.621   9.804  11.975
28401SOL    HW285230   4.694   9.731  12.102
28402SOL     OW85231   4.263   9.374  11.684
28402SOL    HW185232   4.182   9.375  11.742
28402SOL    HW285233   4.266   9.457  11.629
28403SOL     OW85234   5.158  10.498  11.213
28403SOL    HW185235   5.190  10.422  11.270
28403SOL    HW285236   5.066  10.525  11.243
28404SOL     OW85237   4.021   9.345  11.343
28404SOL    HW185238   4.070   9.429  11.322
28404SOL    HW285239   4.083   9.280  11.388
28405SOL     OW85240   4.659   9.546  11.652
28405SOL    HW185241   4.611   9.587  11.574
28405SOL    HW285242   4.758   9.544  11.633
28406SOL     OW85243   4.951  10.880  11.965
28406SOL    HW185244   4.972  10.954  11.900
28406SOL    HW285245   5.019  10.880  12.038
28407SOL     OW85246   4.183  10.462  11.913
28407SOL    HW185247   4.112  10.435  11.978
28407SOL    HW285248   4.157  10.434  11.820
28408SOL     OW85249   4.995  11.107  11.763
28408SOL    HW185250   5.039  11.171  11.699
28408SOL    HW285251   4.945  11.159  11.833
28409SOL     OW85252   4.756   9.859  11.188
28409SOL    HW185253   4.715   9.941  11.149
28409SOL    HW285254   4.820   9.885  11.261
28410SOL     OW85255   3.802   9.866  12.558
28410SOL    HW185256   3.894   9.865  12.517
28410SOL    HW285257   3.796   9.940  12.625
28411SOL     OW85258   4.285   9.532  12.319
28411SOL    HW185259   4.323   9.448  12.356
28411SOL    HW285260   4.197   9.551  12.363
28412SOL     OW85261   4.590   9.764  11.814
28412SOL    HW185262   4.558   9.836  11.752
28412SOL    HW285263   4.614   9.683  11.761
28413SOL     OW85264   4.741   9.349  11.925
28413SOL    HW185265   4.669   9.354  11.856
28413SOL    HW285266   4.717   9.280  11.994
28414SOL     OW85267   5.153  10.483  12.039
28414SOL    HW185268   5.098  10.399  12.032
28414SOL    HW285269   5.179  10.512  11.947
28415SOL     OW85270   5.190   9.900  12.164
28415SOL    HW185271   5.160   9.805  12.171
28415SOL    HW285272   5.263   9.916  12.230
28416SOL     OW85273   5.581  10.143  11.549
28416SOL    HW185274   5.623  10.079  11.613
28416SOL    HW285275   5.543  10.092  11.471
28417SOL     OW85276   4.212  10.695  11.346
28417SOL    HW185277   4.125  10.680  11.393
28417SOL    HW285278   4.195  10.721  11.251
28418SOL     OW85279   5.388  10.590  11.829
28418SOL    HW185280   5.487  10.598  11.843
28418SOL    HW285281   5.343  10.674  11.860
28419SOL     OW85282   5.114   9.885  11.250
28419SOL    HW185283   5.060   9.864  11.331
28419SOL    HW285284   5.205   9.844  11.259
28420SOL     OW85285   4.251   9.566  11.500
28420SOL    HW185286   4.278   9.507  11.425
28420SOL    HW285287   4.251   9.661  11.469
28421SOL     OW85288   4.788  10.657  12.512
28421SOL    HW185289   4.708  10.634  12.567
28421SOL    HW285290   4.871  10.631  12.561
28422SOL     OW85291   4.835  10.505  12.272
28422SOL    HW185292   4.795  10.549  12.353
28422SOL    HW285293   4.794  10.542  12.189
28423SOL     OW85294   5.362  10.409  12.251
28423SOL    HW185295   5.367  10.490  12.310
28423SOL    HW285296   5.276  10.411  12.200
28424SOL     OW85297   4.639   9.399  12.574
28424SOL    HW185298   4.664   9.379  12.479
28424SOL    HW285299   4.711   9.455  12.616
28425SOL     OW85300   4.429  10.360  11.540
28425SOL    HW185301   4.415  10.367  11.639
28425SOL    HW285302   4.513  10.309  11.522
28426SOL     OW85303   4.134  10.123  12.423
28426SOL    HW185304   4.220  10.135  12.473
28426SOL    HW285305   4.092  10.036  12.450
28427SOL     OW85306   4.998   9.696  12.434
28427SOL    HW185307   5.019   9.770  12.498
28427SOL    HW285308   4.909   9.713  12.391
28428SOL     OW85309   3.788  10.874  12.503
28428SOL    HW185310   3.742  10.956  12.469
28428SOL    HW285311   3.886  10.893  12.512
28429SOL     OW85312   4.091  10.410  11.673
28429SOL    HW185313   4.084  10.493  11.617
28429SOL    HW285314   4.095  10.330  11.613
28430SOL     OW85315   4.290   9.847  12.037
28430SOL    HW185316   4.302   9.913  11.963
28430SOL    HW285317   4.336   9.881  12.120
28431SOL     OW85318   4.976  10.658  11.560
28431SOL    HW185319   5.026  10.735  11.600
28431SOL    HW285320   4.881  10.660  11.592
28432SOL     OW85321   4.996  10.755  12.314
28432SOL    HW185322   5.043  10.768  12.401
28432SOL    HW285323   4.930  10.681  12.323
28433SOL     OW85324   5.306   9.949  11.644
28433SOL    HW185325   5.275  10.010  11.717
28433SOL    HW285326   5.356  10.001  11.575
28434SOL     OW85327   4.078  10.820  12.501
28434SOL    HW185328   4.057  10.776  12.414
28434SOL    HW285329   4.175  10.846  12.504
28435SOL     OW85330   4.126  10.061  12.770
28435SOL    HW185331   4.194  10.116  12.723
28435SOL    HW285332   4.166   9.973  12.797
28436SOL     OW85333   5.311  10.089  12.842
28436SOL    HW185334   5.219  10.127  12.837
28436SOL    HW285335   5.371  10.136  12.777
28437SOL     OW85336   4.297  10.180  12.201
28437SOL    HW185337   4.341  10.269  12.192
28437SOL    HW285338   4.234  10.180  12.278
28438SOL     OW85339   5.084  10.172  12.217
28438SOL    HW185340   5.009  10.172  12.151
28438SOL    HW285341   5.121  10.080  12.226
28439SOL     OW85342   4.933   9.835  11.447
28439SOL    HW185343   4.946   9.751  11.501
28439SOL    HW285344   4.904   9.909  11.507
28440SOL     OW85345   4.031   9.523  12.403
28440SOL    HW185346   4.008   9.560  12.493
28440SOL    HW285347   4.001   9.428  12.397
28441SOL     OW85348   3.761  10.620  12.454
28441SOL    HW185349   3.814  10.571  12.522
28441SOL    HW285350   3.783  10.718  12.459
28442SOL     OW85351   4.456   9.944  12.236
28442SOL    HW185352   4.515   9.918  12.160
28442SOL    HW285353   4.428  10.040  12.225
28443SOL     OW85354   4.031   9.373  11.790
28443SOL    HW185355   4.020   9.467  11.823
28443SOL    HW285356   4.026   9.310  11.867
28444SOL     OW85357   5.346   9.677  11.546
28444SOL    HW185358   5.348   9.601  11.610
28444SOL    HW285359   5.298   9.754  11.586
28445SOL     OW85360   4.747  10.076  12.138
28445SOL    HW185361   4.762  10.097  12.234
28445SOL    HW285362   4.717   9.981  12.129
28446SOL     OW85363   4.704  10.883  12.872
28446SOL    HW185364   4.684  10.927  12.784
28446SOL    HW285365   4.743  10.792  12.856
28447SOL     OW85366   5.264   9.584  11.297
28447SOL    HW185367   5.203   9.509  11.320
28447SOL    HW285368   5.286   9.636  11.380
28448SOL     OW85369   5.027  10.148  11.214
28448SOL    HW185370   5.061  10.055  11.229
28448SOL    HW285371   5.045  10.175  11.119
28449SOL     OW85372   4.792  10.643  12.021
28449SOL    HW185373   4.799  10.559  11.966
28449SOL    HW285374   4.854  10.712  11.985
28450SOL     OW85375   4.043  10.120  12.121
28450SOL    HW185376   4.136  10.156  12.126
28450SOL    HW285377   4.037  10.035  12.173
28451SOL     OW85378   4.063   9.819  12.178
28451SOL    HW185379   4.011   9.736  12.161
28451SOL    HW285380   4.140   9.824  12.114
28452SOL     OW85381   4.862   9.690  12.850
28452SOL    HW185382   4.817   9.753  12.914
28452SOL    HW285383   4.955   9.721  12.833
28453SOL     OW85384   4.884   9.517  12.649
28453SOL    HW185385   4.884   9.581  12.726
28453SOL    HW285386   4.912   9.565  12.566
28454SOL     OW85387   3.732  10.636  11.372
28454SOL    HW185388   3.639  10.657  11.341
28454SOL    HW285389   3.742  10.537  11.385
28455SOL     OW85390   3.812  11.111  12.099
28455SOL    HW185391   3.770  11.025  12.072
28455SOL    HW285392   3.906  11.114  12.065
28456SOL     OW85393   4.228  10.878  12.082
28456SOL    HW185394   4.294  10.952  12.091
28456SOL    HW285395   4.272  10.799  12.040
28457SOL     OW85396   4.726  10.106  12.410
28457SOL    HW185397   4.767  10.074  12.496
28457SOL    HW285398   4.630  10.079  12.407
28458SOL     OW85399   3.764   9.854  12.286
28458SOL    HW185400   3.849   9.821  12.245
28458SOL    HW285401   3.777   9.869  12.384
28459SOL     OW85402   4.539   9.882  11.497
28459SOL    HW185403   4.546   9.793  11.451
28459SOL    HW285404   4.445   9.916  11.489
28460SOL     OW85405   5.381   9.914  12.378
28460SOL    HW185406   5.343   9.845  12.440
28460SOL    HW285407   5.463   9.878  12.334
28461SOL     OW85408   4.395   9.774  12.441
28461SOL    HW185409   4.361   9.685  12.411
28461SOL    HW285410   4.421   9.828  12.361
28462SOL     OW85411   4.654  10.988  12.637
28462SOL    HW185412   4.630  10.970  12.542
28462SOL    HW285413   4.684  11.082  12.647
28463SOL     OW85414   4.197   9.810  11.363
28463SOL    HW185415   4.258   9.890  11.367
28463SOL    HW285416   4.102   9.841  11.370
28464SOL     OW85417   3.883  10.447  12.638
28464SOL    HW185418   3.905  10.386  12.714
28464SOL    HW285419   3.893  10.398  12.552
28465SOL     OW85420   5.071  10.369  12.406
28465SOL    HW185421   5.095  10.306  12.332
28465SOL    HW285422   4.981  10.409  12.388
28466SOL     OW85423   5.026  10.165  11.481
28466SOL    HW185424   4.940  10.134  11.523
28466SOL    HW285425   5.022  10.151  11.382
28467SOL     OW85426   5.483  11.057  12.326
28467SOL    HW185427   5.544  11.087  12.253
28467SOL    HW285428   5.445  10.968  12.304
28468SOL     OW85429   4.976  11.041  12.300
28468SOL    HW185430   5.060  11.046  12.246
28468SOL    HW285431   4.953  10.945  12.318
28469SOL     OW85432   3.807  10.568  12.194
28469SOL    HW185433   3.802  10.567  12.294
28469SOL    HW285434   3.724  10.527  12.156
28470SOL     OW85435   5.450   9.445  11.695
28470SOL    HW185436   5.523   9.428  11.628
28470SOL    HW285437   5.419   9.358  11.733
28471SOL     OW85438   5.112  10.883  11.649
28471SOL    HW185439   5.179  10.895  11.575
28471SOL    HW285440   5.072  10.972  11.672
28472SOL     OW85441   5.004  10.237  11.844
28472SOL    HW185442   5.064  10.156  11.846
28472SOL    HW285443   5.044  10.306  11.784
28473SOL     OW85444   4.396  10.926  11.326
28473SOL    HW185445   4.405  10.936  11.227
28473SOL    HW285446   4.356  10.837  11.347
28474SOL     OW85447   5.374  11.030  12.566
28474SOL    HW185448   5.427  11.040  12.482
28474SOL    HW285449   5.347  11.120  12.600
28475SOL     OW85450   5.565   9.485  12.135
28475SOL    HW185451   5.604   9.400  12.099
28475SOL    HW285452   5.467   9.487  12.116
28476SOL     OW85453   3.987   9.636  11.892
28476SOL    HW185454   3.908   9.687  11.858
28476SOL    HW285455   3.978   9.621  11.990
28477SOL     OW85456   4.918  10.922  11.203
28477SOL    HW185457   4.924  10.829  11.240
28477SOL    HW285458   4.859  10.922  11.123
28478SOL     OW85459   4.546  10.312  12.544
28478SOL    HW185460   4.586  10.311  12.452
28478SOL    HW285461   4.556  10.404  12.584
28479SOL     OW85462   4.640  10.220  11.463
28479SOL    HW185463   4.703  10.258  11.395
28479SOL    HW285464   4.680  10.137  11.502
28480SOL     OW85465   5.228  10.917  11.216
28480SOL    HW185466   5.136  10.954  11.223
28480SOL    HW285467   5.266  10.937  11.126
28481SOL     OW85468   4.096  10.598  12.662
28481SOL    HW185469   4.083  10.691  12.628
28481SOL    HW285470   4.012  10.546  12.649
28482SOL     OW85471   5.338  10.602  12.461
28482SOL    HW185472   5.398  10.605  12.541
28482SOL    HW285473   5.263  10.666  12.474
28483SOL     OW85474   4.763  10.408  11.868
28483SOL    HW185475   4.693  10.361  11.922
28483SOL    HW285476   4.822  10.340  11.825
28484SOL     OW85477   4.738   9.546  12.143
28484SOL    HW185478   4.730   9.510  12.050
28484SOL    HW285479   4.736   9.470  12.208
28485SOL     OW85480   4.314  10.797  11.663
28485SOL    HW185481   4.356  10.739  11.593
28485SOL    HW285482   4.270  10.876  11.619
28486SOL     OW85483   5.433   9.695  12.553
28486SOL    HW185484   5.506   9.764  12.557
28486SOL    HW285485   5.461   9.620  12.494
28487SOL     OW85486   3.979  10.658  11.462
28487SOL    HW185487   3.883  10.659  11.435
28487SOL    HW285488   3.991  10.711  11.546
28488SOL     OW85489   3.799   9.655  11.205
28488SOL    HW185490   3.707   9.627  11.176
28488SOL    HW285491   3.830   9.732  11.149
28489SOL     OW85492   5.164  10.166  12.570
28489SOL    HW185493   5.107  10.218  12.507
28489SOL    HW285494   5.260  10.178  12.546
28490SOL     OW85495   3.796   9.476  11.490
28490SOL    HW185496   3.779   9.559  11.436
28490SOL    HW285497   3.886   9.439  11.468
28491SOL     OW85498   4.907  10.645  11.291
28491SOL    HW185499   4.808  10.634  11.293
28491SOL    HW285500   4.941  10.660  11.384
28492SOL     OW85501   4.337  10.152  12.603
28492SOL    HW185502   4.393  10.233  12.586
28492SOL    HW285503   4.396  10.072  12.606
28493SOL     OW85504   5.217  11.077  12.131
28493SOL    HW185505   5.250  11.141  12.062
28493SOL    HW285506   5.283  11.071  12.206
28494SOL     OW85507   4.114  11.051  12.732
28494SOL    HW185508   4.023  11.092  12.730
28494SOL    HW285509   4.107  10.957  12.764
28495SOL     OW85510   5.398  10.193  12.426
28495SOL    HW185511   5.371  10.104  12.389
28495SOL    HW285512   5.399  10.261  12.353
28496SOL     OW85513   4.949   9.635  11.621
28496SOL    HW185514   5.014   9.561  11.610
28496SOL    HW285515   4.969   9.685  11.705
28497SOL     OW85516   4.318  10.055  11.824
28497SOL    HW185517   4.368  10.140  11.805
28497SOL    HW285518   4.230  10.057  11.776
28498SOL     OW85519   5.501   9.652  12.814
28498SOL    HW185520   5.484   9.683  12.720
28498SOL    HW285521   5.417   9.615  12.852
28499SOL     OW85522   5.454  10.244  12.689
28499SOL    HW185523   5.492  10.335  12.704
28499SOL    HW285524   5.446  10.227  12.590
28500SOL     OW85525   4.583  10.684  11.188
28500SOL    HW185526   4.537  10.699  11.276
28500SOL    HW285527   4.627  10.769  11.158
28501SOL     OW85528   4.385  11.100  12.125
28501SOL    HW185529   4.339  11.188  12.112
28501SOL    HW285530   4.484  11.112  12.118
28502SOL     OW85531   4.583  10.266  12.033
28502SOL    HW185532   4.637  10.197  12.081
28502SOL    HW285533   4.551  10.335  12.099
28503SOL     OW85534   4.807  10.294  11.259
28503SOL    HW185535   4.784  10.347  11.177
28503SOL    HW285536   4.888  10.238  11.240
28504SOL     OW85537   5.585  10.879  12.023
28504SOL    HW185538   5.514  10.867  11.953
28504SOL    HW285539   5.586  10.800  12.083
28505SOL     OW85540   3.803  10.550  11.825
28505SOL    HW185541   3.802  10.503  11.913
28505SOL    HW285542   3.885  10.522  11.774
28506SOL     OW85543   5.548   9.502  12.399
28506SOL    HW185544   5.544   9.412  12.443
28506SOL    HW285545   5.551   9.491  12.300
28507SOL     OW85546   4.152   9.734  11.692
28507SOL    HW185547   4.182   9.662  11.630
28507SOL    HW285548   4.113   9.694  11.775
28508SOL     OW85549   5.429  10.797  12.276
28508SOL    HW185550   5.336  10.772  12.249
28508SOL    HW285551   5.455  10.747  12.358
28509SOL     OW85552   4.041   9.857  12.452
28509SOL    HW185553   4.079   9.798  12.524
28509SOL    HW285554   4.081   9.831  12.364
28510SOL     OW85555   4.536  10.896  11.859
28510SOL    HW185556   4.568  10.906  11.765
28510SOL    HW285557   4.457  10.834  11.861
28511SOL     OW85558   5.148   9.524  12.284
28511SOL    HW185559   5.200   9.459  12.339
28511SOL    HW285560   5.099   9.587  12.345
28512SOL     OW85561   4.725   9.344  12.326
28512SOL    HW185562   4.662   9.272  12.295
28512SOL    HW285563   4.818   9.308  12.326
28513SOL     OW85564   4.494  10.640  11.473
28513SOL    HW185565   4.448  10.553  11.490
28513SOL    HW285566   4.585  10.637  11.514
28514SOL     OW85567   4.342  10.877  12.456
28514SOL    HW185568   4.337  10.959  12.513
28514SOL    HW285569   4.431  10.874  12.411
28515SOL     OW85570   5.076   9.362  11.340
28515SOL    HW185571   5.111   9.321  11.256
28515SOL    HW285572   4.986   9.324  11.360
28516SOL     OW85573   5.024   9.763  11.863
28516SOL    HW185574   4.965   9.843  11.867
28516SOL    HW285575   5.039   9.728  11.956
28517SOL     OW85576   5.317   9.531  12.054
28517SOL    HW185577   5.233   9.530  12.108
28517SOL    HW285578   5.319   9.614  11.998
28518SOL     OW85579   3.763  10.387  11.472
28518SOL    HW185580   3.862  10.376  11.463
28518SOL    HW285581   3.723  10.301  11.504
28519SOL     OW85582   4.599  10.956  11.509
28519SOL    HW185583   4.522  10.921  11.455
28519SOL    HW285584   4.567  11.027  11.571
28520SOL     OW85585   3.954  11.800   0.113
28520SOL    HW185586   3.861  11.798   0.150
28520SOL    HW285587   3.955  11.761   0.021
28521SOL     OW85588   3.949  11.447   0.996
28521SOL    HW185589   3.984  11.430   1.088
28521SOL    HW285590   3.861  11.402   0.984
28522SOL     OW85591   3.743  11.540   0.647
28522SOL    HW185592   3.661  11.583   0.686
28522SOL    HW285593   3.715  11.467   0.584
28523SOL     OW85594   4.293  12.447   1.165
28523SOL    HW185595   4.200  12.440   1.128
28523SOL    HW285596   4.304  12.536   1.209
28524SOL     OW85597   5.279  12.683   0.703
28524SOL    HW185598   5.222  12.667   0.784
28524SOL    HW285599   5.220  12.693   0.623
28525SOL     OW85600   4.859  11.875   0.717
28525SOL    HW185601   4.916  11.953   0.692
28525SOL    HW285602   4.799  11.901   0.793
28526SOL     OW85603   5.479  11.779   0.231
28526SOL    HW185604   5.467  11.766   0.132
28526SOL    HW285605   5.449  11.698   0.280
28527SOL     OW85606   4.492  12.316   1.023
28527SOL    HW185607   4.414  12.333   1.083
28527SOL    HW285608   4.526  12.403   0.987
28528SOL     OW85609   4.574  11.970   1.823
28528SOL    HW185610   4.570  12.046   1.888
28528SOL    HW285611   4.596  12.006   1.732
28529SOL     OW85612   4.409  12.184   0.665
28529SOL    HW185613   4.478  12.168   0.735
28529SOL    HW285614   4.336  12.241   0.703
28530SOL     OW85615   4.410  12.333   1.803
28530SOL    HW185616   4.470  12.412   1.817
28530SOL    HW285617   4.324  12.364   1.762
28531SOL     OW85618   4.059  12.607   1.061
28531SOL    HW185619   3.981  12.576   1.008
28531SOL    HW285620   4.117  12.665   1.004
28532SOL     OW85621   5.184  12.677   1.339
28532SOL    HW185622   5.208  12.771   1.365
28532SOL    HW285623   5.168  12.623   1.421
28533SOL     OW85624   4.162  11.564   1.499
28533SOL    HW185625   4.244  11.508   1.508
28533SOL    HW285626   4.081  11.506   1.503
28534SOL     OW85627   5.327  11.619   0.737
28534SOL    HW185628   5.253  11.665   0.687
28534SOL    HW285629   5.378  11.687   0.790
28535SOL     OW85630   3.955  12.885   0.483
28535SOL    HW185631   3.989  12.962   0.537
28535SOL    HW285632   3.999  12.885   0.393
28536SOL     OW85633   4.851  12.513   1.690
28536SOL    HW185634   4.898  12.513   1.778
28536SOL    HW285635   4.803  12.426   1.679
28537SOL     OW85636   3.954  12.606   0.538
28537SOL    HW185637   3.928  12.702   0.538
28537SOL    HW285638   3.883  12.552   0.583
28538SOL     OW85639   3.964  12.263   0.886
28538SOL    HW185640   3.978  12.179   0.938
28538SOL    HW285641   3.909  12.327   0.941
28539SOL     OW85642   4.330  12.136   0.123
28539SOL    HW185643   4.337  12.220   0.069
28539SOL    HW285644   4.376  12.149   0.211
28540SOL     OW85645   5.318  11.286   1.480
28540SOL    HW185646   5.300  11.353   1.408
28540SOL    HW285647   5.315  11.332   1.569
28541SOL     OW85648   3.846  11.815   0.563
28541SOL    HW185649   3.801  11.727   0.580
28541SOL    HW285650   3.845  11.869   0.647
28542SOL     OW85651   3.751  12.768   0.117
28542SOL    HW185652   3.732  12.672   0.138
28542SOL    HW285653   3.718  12.826   0.192
28543SOL     OW85654   5.413  12.094   0.612
28543SOL    HW185655   5.508  12.065   0.620
28543SOL    HW285656   5.405  12.159   0.537
28544SOL     OW85657   5.365  12.280   0.432
28544SOL    HW185658   5.451  12.282   0.380
28544SOL    HW285659   5.379  12.327   0.520
28545SOL     OW85660   3.837  11.909   1.597
28545SOL    HW185661   3.925  11.896   1.642
28545SOL    HW285662   3.824  12.006   1.575
28546SOL     OW85663   4.337  12.537   0.726
28546SOL    HW185664   4.288  12.450   0.735
28546SOL    HW285665   4.314  12.580   0.639
28547SOL     OW85666   5.017  12.400   1.423
28547SOL    HW185667   5.054  12.327   1.365
28547SOL    HW285668   5.069  12.405   1.508
28548SOL     OW85669   4.533  11.176   0.502
28548SOL    HW185670   4.573  11.267   0.493
28548SOL    HW285671   4.433  11.184   0.508
28549SOL     OW85672   3.921  12.148   1.264
28549SOL    HW185673   4.010  12.103   1.250
28549SOL    HW285674   3.848  12.083   1.245
28550SOL     OW85675   5.249  12.171   0.190
28550SOL    HW185676   5.186  12.095   0.203
28550SOL    HW285677   5.297  12.189   0.276
28551SOL     OW85678   4.041  11.423   1.801
28551SOL    HW185679   4.112  11.494   1.807
28551SOL    HW285680   3.953  11.462   1.829
28552SOL     OW85681   5.190  12.589   0.953
28552SOL    HW185682   5.131  12.595   1.033
28552SOL    HW285683   5.175  12.501   0.907
28553SOL     OW85684   4.322  11.901   0.270
28553SOL    HW185685   4.346  11.970   0.202
28553SOL    HW285686   4.244  11.934   0.324
28554SOL     OW85687   5.005  11.517   0.944
28554SOL    HW185688   4.919  11.467   0.931
28554SOL    HW285689   5.067  11.463   1.000
28555SOL     OW85690   4.531  11.777   1.465
28555SOL    HW185691   4.484  11.774   1.554
28555SOL    HW285692   4.480  11.722   1.399
28556SOL     OW85693   5.118  11.641   1.674
28556SOL    HW185694   5.098  11.684   1.762
28556SOL    HW285695   5.196  11.579   1.683
28557SOL     OW85696   4.697  12.062   1.572
28557SOL    HW185697   4.743  11.978   1.543
28557SOL    HW285698   4.641  12.096   1.497
28558SOL     OW85699   4.715  11.582   1.242
28558SOL    HW185700   4.638  11.616   1.296
28558SOL    HW285701   4.681  11.531   1.163
28559SOL     OW85702   4.765  11.873   0.429
28559SOL    HW185703   4.791  11.869   0.525
28559SOL    HW285704   4.680  11.822   0.415
28560SOL     OW85705   3.800  11.983   0.789
28560SOL    HW185706   3.899  11.971   0.798
28560SOL    HW285707   3.776  12.078   0.810
28561SOL     OW85708   4.589  11.520   0.195
28561SOL    HW185709   4.648  11.583   0.146
28561SOL    HW285710   4.608  11.426   0.166
28562SOL     OW85711   5.443  11.757   1.831
28562SOL    HW185712   5.417  11.846   1.795
28562SOL    HW285713   5.441  11.689   1.758
28563SOL     OW85714   5.086  12.316   0.545
28563SOL    HW185715   5.169  12.287   0.497
28563SOL    HW285716   5.037  12.383   0.489
28564SOL     OW85717   4.274  11.368   0.885
28564SOL    HW185718   4.269  11.363   0.985
28564SOL    HW285719   4.276  11.464   0.856
28565SOL     OW85720   4.732  12.628   0.477
28565SOL    HW185721   4.686  12.700   0.425
28565SOL    HW285722   4.728  12.648   0.575
28566SOL     OW85723   5.519  12.238   0.873
28566SOL    HW185724   5.457  12.223   0.797
28566SOL    HW285725   5.467  12.249   0.958
28567SOL     OW85726   4.951  12.722   1.506
28567SOL    HW185727   4.957  12.645   1.570
28567SOL    HW285728   4.899  12.696   1.426
28568SOL     OW85729   4.045  12.115   0.242
28568SOL    HW185730   4.127  12.154   0.200
28568SOL    HW285731   4.018  12.033   0.193
28569SOL     OW85732   5.182  11.907   0.728
28569SOL    HW185733   5.177  11.842   0.803
28569SOL    HW285734   5.262  11.966   0.741
28570SOL     OW85735   4.185  12.438   1.727
28570SOL    HW185736   4.135  12.439   1.641
28570SOL    HW285737   4.122  12.420   1.803
28571SOL     OW85738   4.835  12.948   0.237
28571SOL    HW185739   4.775  12.886   0.287
28571SOL    HW285740   4.866  12.904   0.152
28572SOL     OW85741   3.926  11.457   1.498
28572SOL    HW185742   3.846  11.517   1.485
28572SOL    HW285743   3.916  11.408   1.584
28573SOL     OW85744   5.356  12.549   0.081
28573SOL    HW185745   5.324  12.643   0.071
28573SOL    HW285746   5.280  12.486   0.069
28574SOL     OW85747   5.124  11.279   0.426
28574SOL    HW185748   5.100  11.242   0.336
28574SOL    HW285749   5.223  11.295   0.430
28575SOL     OW85750   4.106  11.872   0.480
28575SOL    HW185751   4.151  11.782   0.477
28575SOL    HW285752   4.012  11.861   0.513
28576SOL     OW85753   5.271  11.394   1.729
28576SOL    HW185754   5.266  11.431   1.821
28576SOL    HW285755   5.199  11.325   1.717
28577SOL     OW85756   4.338  11.294   0.117
28577SOL    HW185757   4.436  11.272   0.124
28577SOL    HW285758   4.307  11.277   0.024
28578SOL     OW85759   4.505  11.436   1.749
28578SOL    HW185760   4.572  11.375   1.792
28578SOL    HW285761   4.432  11.455   1.814
28579SOL     OW85762   5.075  11.762   1.433
28579SOL    HW185763   5.103  11.719   1.518
28579SOL    HW285764   5.100  11.858   1.434
28580SOL     OW85765   4.527  12.574   0.924
28580SOL    HW185766   4.617  12.588   0.882
28580SOL    HW285767   4.456  12.576   0.853
28581SOL     OW85768   4.646  11.675   0.899
28581SOL    HW185769   4.621  11.666   0.803
28581SOL    HW285770   4.694  11.593   0.930
28582SOL     OW85771   4.263  11.236   0.512
28582SOL    HW185772   4.182  11.237   0.570
28582SOL    HW285773   4.266  11.319   0.457
28583SOL     OW85774   5.158  12.360   0.041
28583SOL    HW185775   5.190  12.284   0.098
28583SOL    HW285776   5.066  12.387   0.071
28584SOL     OW85777   4.021  11.207   0.171
28584SOL    HW185778   4.070  11.291   0.150
28584SOL    HW285779   4.083  11.142   0.216
28585SOL     OW85780   4.659  11.408   0.480
28585SOL    HW185781   4.611  11.449   0.402
28585SOL    HW285782   4.758  11.406   0.461
28586SOL     OW85783   4.800  11.855   1.464
28586SOL    HW185784   4.720  11.794   1.467
28586SOL    HW285785   4.881  11.802   1.440
28587SOL     OW85786   4.951  12.742   0.793
28587SOL    HW185787   4.972  12.816   0.728
28587SOL    HW285788   5.019  12.742   0.866
28588SOL     OW85789   4.183  12.324   0.741
28588SOL    HW185790   4.112  12.297   0.806
28588SOL    HW285791   4.157  12.296   0.648
28589SOL     OW85792   4.756  11.721   0.016
28589SOL    HW185793   4.715  11.803  -0.023
28589SOL    HW285794   4.820  11.747   0.089
28590SOL     OW85795   3.802  11.728   1.386
28590SOL    HW185796   3.894  11.727   1.345
28590SOL    HW285797   3.796  11.802   1.453
28591SOL     OW85798   4.285  11.394   1.147
28591SOL    HW185799   4.323  11.310   1.184
28591SOL    HW285800   4.197  11.413   1.191
28592SOL     OW85801   4.590  11.626   0.642
28592SOL    HW185802   4.558  11.698   0.580
28592SOL    HW285803   4.614  11.545   0.589
28593SOL     OW85804   4.741  11.211   0.753
28593SOL    HW185805   4.669  11.216   0.684
28593SOL    HW285806   4.717  11.142   0.822
28594SOL     OW85807   5.153  12.345   0.867
28594SOL    HW185808   5.098  12.261   0.860
28594SOL    HW285809   5.179  12.374   0.775
28595SOL     OW85810   5.190  11.762   0.992
28595SOL    HW185811   5.160  11.667   0.999
28595SOL    HW285812   5.263  11.778   1.058
28596SOL     OW85813   5.581  12.005   0.377
28596SOL    HW185814   5.623  11.941   0.441
28596SOL    HW285815   5.543  11.954   0.299
28597SOL     OW85816   4.212  12.557   0.174
28597SOL    HW185817   4.125  12.542   0.221
28597SOL    HW285818   4.195  12.583   0.079
28598SOL     OW85819   5.388  12.452   0.657
28598SOL    HW185820   5.487  12.460   0.671
28598SOL    HW285821   5.343  12.536   0.688
28599SOL     OW85822   5.114  11.747   0.078
28599SOL    HW185823   5.060  11.726   0.159
28599SOL    HW285824   5.205  11.706   0.087
28600SOL     OW85825   4.251  11.428   0.328
28600SOL    HW185826   4.278  11.369   0.253
28600SOL    HW285827   4.251  11.523   0.297
28601SOL     OW85828   5.478  12.395   1.588
28601SOL    HW185829   5.569  12.356   1.575
28601SOL    HW285830   5.486  12.491   1.612
28602SOL     OW85831   4.788  12.519   1.340
28602SOL    HW185832   4.708  12.496   1.395
28602SOL    HW285833   4.871  12.493   1.389
28603SOL     OW85834   4.835  12.367   1.100
28603SOL    HW185835   4.795  12.411   1.181
28603SOL    HW285836   4.794  12.404   1.017
28604SOL     OW85837   5.362  12.271   1.079
28604SOL    HW185838   5.367  12.352   1.138
28604SOL    HW285839   5.276  12.273   1.028
28605SOL     OW85840   4.639  11.261   1.402
28605SOL    HW185841   4.664  11.241   1.307
28605SOL    HW285842   4.711  11.317   1.444
28606SOL     OW85843   4.704  12.288   1.719
28606SOL    HW185844   4.605  12.294   1.729
28606SOL    HW285845   4.727  12.208   1.663
28607SOL     OW85846   4.429  12.222   0.368
28607SOL    HW185847   4.415  12.229   0.467
28607SOL    HW285848   4.513  12.171   0.350
28608SOL     OW85849   4.134  11.985   1.251
28608SOL    HW185850   4.220  11.997   1.301
28608SOL    HW285851   4.092  11.898   1.278
28609SOL     OW85852   4.998  11.558   1.262
28609SOL    HW185853   5.019  11.632   1.326
28609SOL    HW285854   4.909  11.575   1.219
28610SOL     OW85855   4.091  12.272   0.501
28610SOL    HW185856   4.084  12.355   0.445
28610SOL    HW285857   4.095  12.192   0.441
28611SOL     OW85858   4.290  11.709   0.865
28611SOL    HW185859   4.302  11.775   0.791
28611SOL    HW285860   4.336  11.743   0.948
28612SOL     OW85861   4.976  12.520   0.388
28612SOL    HW185862   5.026  12.597   0.428
28612SOL    HW285863   4.881  12.522   0.420
28613SOL     OW85864   4.996  12.617   1.142
28613SOL    HW185865   5.043  12.630   1.229
28613SOL    HW285866   4.930  12.543   1.151
28614SOL     OW85867   5.306  11.811   0.472
28614SOL    HW185868   5.275  11.872   0.545
28614SOL    HW285869   5.356  11.863   0.403
28615SOL     OW85870   4.078  12.682   1.329
28615SOL    HW185871   4.057  12.638   1.242
28615SOL    HW285872   4.175  12.708   1.332
28616SOL     OW85873   4.126  11.923   1.598
28616SOL    HW185874   4.194  11.978   1.551
28616SOL    HW285875   4.166  11.835   1.625
28617SOL     OW85876   5.311  11.951   1.670
28617SOL    HW185877   5.219  11.989   1.665
28617SOL    HW285878   5.371  11.998   1.605
28618SOL     OW85879   4.737  11.277   1.770
28618SOL    HW185880   4.743  11.362   1.718
28618SOL    HW285881   4.769  11.201   1.713
28619SOL     OW85882   4.228  11.222   1.740
28619SOL    HW185883   4.186  11.165   1.670
28619SOL    HW285884   4.162  11.291   1.772
28620SOL     OW85885   4.297  12.042   1.029
28620SOL    HW185886   4.341  12.131   1.020
28620SOL    HW285887   4.234  12.042   1.106
28621SOL     OW85888   5.084  12.034   1.045
28621SOL    HW185889   5.009  12.034   0.979
28621SOL    HW285890   5.121  11.942   1.054
28622SOL     OW85891   4.933  11.697   0.275
28622SOL    HW185892   4.946  11.613   0.329
28622SOL    HW285893   4.904  11.771   0.335
28623SOL     OW85894   4.031  11.385   1.231
28623SOL    HW185895   4.008  11.422   1.321
28623SOL    HW285896   4.001  11.290   1.225
28624SOL     OW85897   3.761  12.482   1.282
28624SOL    HW185898   3.814  12.433   1.350
28624SOL    HW285899   3.783  12.580   1.287
28625SOL     OW85900   4.456  11.806   1.064
28625SOL    HW185901   4.515  11.780   0.988
28625SOL    HW285902   4.428  11.902   1.053
28626SOL     OW85903   5.452  12.107   1.854
28626SOL    HW185904   5.406  12.100   1.765
28626SOL    HW285905   5.390  12.151   1.920
28627SOL     OW85906   4.031  11.235   0.618
28627SOL    HW185907   4.020  11.329   0.651
28627SOL    HW285908   4.026  11.172   0.695
28628SOL     OW85909   5.346  11.539   0.374
28628SOL    HW185910   5.348  11.463   0.438
28628SOL    HW285911   5.298  11.616   0.414
28629SOL     OW85912   4.747  11.938   0.966
28629SOL    HW185913   4.762  11.959   1.062
28629SOL    HW285914   4.717  11.843   0.957
28630SOL     OW85915   5.583  12.690   1.605
28630SOL    HW185916   5.597  12.717   1.510
28630SOL    HW285917   5.666  12.712   1.658
28631SOL     OW85918   4.074  12.070   1.804
28631SOL    HW185919   4.150  12.114   1.852
28631SOL    HW285920   4.109  12.023   1.722
28632SOL     OW85921   5.264  11.446   0.125
28632SOL    HW185922   5.203  11.371   0.148
28632SOL    HW285923   5.286  11.498   0.208
28633SOL     OW85924   5.027  12.010   0.042
28633SOL    HW185925   5.061  11.917   0.057
28633SOL    HW285926   5.045  12.037  -0.053
28634SOL     OW85927   4.792  12.505   0.849
28634SOL    HW185928   4.799  12.421   0.794
28634SOL    HW285929   4.854  12.574   0.813
28635SOL     OW85930   4.043  11.982   0.949
28635SOL    HW185931   4.136  12.018   0.954
28635SOL    HW285932   4.037  11.897   1.001
28636SOL     OW85933   4.063  11.681   1.006
28636SOL    HW185934   4.011  11.598   0.989
28636SOL    HW285935   4.140  11.686   0.942
28637SOL     OW85936   4.862  11.552   1.678
28637SOL    HW185937   4.817  11.615   1.742
28637SOL    HW285938   4.955  11.583   1.661
28638SOL     OW85939   4.884  11.379   1.477
28638SOL    HW185940   4.884  11.443   1.554
28638SOL    HW285941   4.912  11.427   1.394
28639SOL     OW85942   3.732  12.498   0.200
28639SOL    HW185943   3.639  12.519   0.169
28639SOL    HW285944   3.742  12.399   0.213
28640SOL     OW85945   4.726  11.968   1.238
28640SOL    HW185946   4.767  11.936   1.324
28640SOL    HW285947   4.630  11.941   1.235
28641SOL     OW85948   3.764  11.716   1.114
28641SOL    HW185949   3.849  11.683   1.073
28641SOL    HW285950   3.777  11.731   1.212
28642SOL     OW85951   3.913  11.692   1.722
28642SOL    HW185952   3.972  11.652   1.652
28642SOL    HW285953   3.855  11.763   1.681
28643SOL     OW85954   5.093  12.122   1.660
28643SOL    HW185955   5.132  12.211   1.680
28643SOL    HW285956   5.103  12.102   1.563
28644SOL     OW85957   4.539  11.744   0.325
28644SOL    HW185958   4.546  11.655   0.279
28644SOL    HW285959   4.445  11.778   0.317
28645SOL     OW85960   5.381  11.776   1.206
28645SOL    HW185961   5.343  11.707   1.268
28645SOL    HW285962   5.463  11.740   1.162
28646SOL     OW85963   3.976  12.736   1.744
28646SOL    HW185964   3.946  12.793   1.820
28646SOL    HW285965   3.969  12.639   1.770
28647SOL     OW85966   4.395  11.636   1.269
28647SOL    HW185967   4.361  11.547   1.239
28647SOL    HW285968   4.421  11.690   1.189
28648SOL     OW85969   4.197  11.672   0.191
28648SOL    HW185970   4.258  11.752   0.195
28648SOL    HW285971   4.102  11.703   0.198
28649SOL     OW85972   3.883  12.309   1.466
28649SOL    HW185973   3.905  12.248   1.542
28649SOL    HW285974   3.893  12.260   1.380
28650SOL     OW85975   5.071  12.231   1.234
28650SOL    HW185976   5.095  12.168   1.160
28650SOL    HW285977   4.981  12.271   1.216
28651SOL     OW85978   5.026  12.027   0.309
28651SOL    HW185979   4.940  11.996   0.351
28651SOL    HW285980   5.022  12.013   0.210
28652SOL     OW85981   3.807  12.430   1.022
28652SOL    HW185982   3.802  12.429   1.122
28652SOL    HW285983   3.724  12.389   0.984
28653SOL     OW85984   4.627  11.258   0.133
28653SOL    HW185985   4.678  11.259   0.047
28653SOL    HW285986   4.683  11.216   0.204
28654SOL     OW85987   5.450  11.307   0.523
28654SOL    HW185988   5.523  11.290   0.456
28654SOL    HW285989   5.419  11.220   0.561
28655SOL     OW85990   5.004  12.099   0.672
28655SOL    HW185991   5.064  12.018   0.674
28655SOL    HW285992   5.044  12.168   0.612
28656SOL     OW85993   4.554  12.445   1.422
28656SOL    HW185994   4.549  12.478   1.517
28656SOL    HW285995   4.468  12.464   1.376
28657SOL     OW85996   5.565  11.347   0.963
28657SOL    HW185997   5.604  11.262   0.927
28657SOL    HW285998   5.467  11.349   0.944
28658SOL     OW85999   3.987  11.498   0.720
28658SOL    HW186000   3.908  11.549   0.686
28658SOL    HW286001   3.978  11.483   0.818
28659SOL     OW86002   4.918  12.784   0.031
28659SOL    HW186003   4.924  12.691   0.068
28659SOL    HW286004   4.859  12.784  -0.049
28660SOL     OW86005   4.546  12.174   1.372
28660SOL    HW186006   4.586  12.173   1.280
28660SOL    HW286007   4.556  12.266   1.412
28661SOL     OW86008   4.640  12.082   0.291
28661SOL    HW186009   4.703  12.120   0.223
28661SOL    HW286010   4.680  11.999   0.330
28662SOL     OW86011   4.096  12.460   1.490
28662SOL    HW186012   4.083  12.553   1.456
28662SOL    HW286013   4.012  12.408   1.477
28663SOL     OW86014   5.338  12.464   1.289
28663SOL    HW186015   5.398  12.467   1.369
28663SOL    HW286016   5.263  12.528   1.302
28664SOL     OW86017   4.763  12.270   0.696
28664SOL    HW186018   4.693  12.223   0.750
28664SOL    HW286019   4.822  12.202   0.653
28665SOL     OW86020   4.738  11.408   0.971
28665SOL    HW186021   4.730  11.372   0.878
28665SOL    HW286022   4.736  11.332   1.036
28666SOL     OW86023   5.433  11.557   1.381
28666SOL    HW186024   5.506  11.626   1.385
28666SOL    HW286025   5.461  11.482   1.322
28667SOL     OW86026   3.979  12.520   0.290
28667SOL    HW186027   3.883  12.521   0.263
28667SOL    HW286028   3.991  12.573   0.374
28668SOL     OW86029   3.829  12.185   1.726
28668SOL    HW186030   3.752  12.152   1.780
28668SOL    HW286031   3.914  12.155   1.768
28669SOL     OW86032   4.396  11.375   1.489
28669SOL    HW186033   4.486  11.359   1.449
28669SOL    HW286034   4.404  11.380   1.588
28670SOL     OW86035   5.164  12.028   1.398
28670SOL    HW186036   5.107  12.080   1.335
28670SOL    HW286037   5.260  12.040   1.374
28671SOL     OW86038   3.796  11.338   0.318
28671SOL    HW186039   3.779  11.421   0.264
28671SOL    HW286040   3.886  11.301   0.296
28672SOL     OW86041   4.907  12.507   0.119
28672SOL    HW186042   4.808  12.496   0.121
28672SOL    HW286043   4.941  12.522   0.212
28673SOL     OW86044   4.337  12.014   1.431
28673SOL    HW186045   4.393  12.095   1.414
28673SOL    HW286046   4.396  11.934   1.434
28674SOL     OW86047   4.440  11.737   1.708
28674SOL    HW186048   4.459  11.802   1.782
28674SOL    HW286049   4.500  11.657   1.717
28675SOL     OW86050   5.174  12.392   1.633
28675SOL    HW186051   5.165  12.382   1.732
28675SOL    HW286052   5.270  12.385   1.607
28676SOL     OW86053   5.398  12.055   1.254
28676SOL    HW186054   5.371  11.966   1.217
28676SOL    HW286055   5.399  12.123   1.181
28677SOL     OW86056   4.949  11.497   0.449
28677SOL    HW186057   5.014  11.423   0.438
28677SOL    HW286058   4.969  11.547   0.533
28678SOL     OW86059   4.318  11.917   0.652
28678SOL    HW186060   4.368  12.002   0.633
28678SOL    HW286061   4.230  11.919   0.604
28679SOL     OW86062   5.501  11.514   1.642
28679SOL    HW186063   5.484  11.545   1.548
28679SOL    HW286064   5.417  11.477   1.680
28680SOL     OW86065   5.454  12.106   1.517
28680SOL    HW186066   5.492  12.197   1.532
28680SOL    HW286067   5.446  12.089   1.418
28681SOL     OW86068   4.583  12.546   0.016
28681SOL    HW186069   4.537  12.561   0.104
28681SOL    HW286070   4.627  12.631  -0.014
28682SOL     OW86071   4.583  12.128   0.861
28682SOL    HW186072   4.637  12.059   0.909
28682SOL    HW286073   4.551  12.197   0.927
28683SOL     OW86074   4.807  12.156   0.087
28683SOL    HW186075   4.784  12.209   0.005
28683SOL    HW286076   4.888  12.100   0.068
28684SOL     OW86077   3.945  12.486   1.844
28684SOL    HW186078   3.880  12.413   1.823
28684SOL    HW286079   3.949  12.500   1.942
28685SOL     OW86080   3.803  12.412   0.653
28685SOL    HW186081   3.802  12.365   0.741
28685SOL    HW286082   3.885  12.384   0.602
28686SOL     OW86083   4.396  12.563   1.624
28686SOL    HW186084   4.318  12.513   1.662
28686SOL    HW286085   4.393  12.658   1.655
28687SOL     OW86086   5.548  11.364   1.227
28687SOL    HW186087   5.544  11.274   1.271
28687SOL    HW286088   5.551  11.353   1.128
28688SOL     OW86089   4.152  11.596   0.520
28688SOL    HW186090   4.182  11.524   0.458
28688SOL    HW286091   4.113  11.556   0.603
28689SOL     OW86092   5.429  12.659   1.104
28689SOL    HW186093   5.336  12.634   1.077
28689SOL    HW286094   5.455  12.609   1.186
28690SOL     OW86095   4.041  11.719   1.280
28690SOL    HW186096   4.079  11.660   1.352
28690SOL    HW286097   4.081  11.693   1.192
28691SOL     OW86098   5.148  11.386   1.112
28691SOL    HW186099   5.200  11.321   1.167
28691SOL    HW286100   5.099  11.449   1.173
28692SOL     OW86101   4.725  11.206   1.154
28692SOL    HW186102   4.662  11.134   1.123
28692SOL    HW286103   4.818  11.170   1.154
28693SOL     OW86104   4.494  12.502   0.301
28693SOL    HW186105   4.448  12.415   0.318
28693SOL    HW286106   4.585  12.499   0.342
28694SOL     OW86107   4.342  12.739   1.284
28694SOL    HW186108   4.337  12.821   1.341
28694SOL    HW286109   4.431  12.736   1.239
28695SOL     OW86110   5.076  11.224   0.168
28695SOL    HW186111   5.111  11.183   0.084
28695SOL    HW286112   4.986  11.186   0.188
28696SOL     OW86113   5.024  11.625   0.691
28696SOL    HW186114   4.965  11.705   0.695
28696SOL    HW286115   5.039  11.590   0.784
28697SOL     OW86116   5.317  11.393   0.882
28697SOL    HW186117   5.233  11.392   0.936
28697SOL    HW286118   5.319  11.476   0.826
28698SOL     OW86119   3.763  12.249   0.300
28698SOL    HW186120   3.862  12.238   0.291
28698SOL    HW286121   3.723  12.163   0.332
28699SOL     OW86122   3.954  11.800   1.975
28699SOL    HW186123   3.861  11.798   2.012
28699SOL    HW286124   3.955  11.761   1.883
28700SOL     OW86125   3.949  11.447   2.858
28700SOL    HW186126   3.984  11.430   2.950
28700SOL    HW286127   3.861  11.402   2.846
28701SOL     OW86128   3.743  11.540   2.509
28701SOL    HW186129   3.661  11.583   2.548
28701SOL    HW286130   3.715  11.467   2.446
28702SOL     OW86131   4.293  12.447   3.027
28702SOL    HW186132   4.200  12.440   2.990
28702SOL    HW286133   4.304  12.536   3.071
28703SOL     OW86134   5.279  12.683   2.565
28703SOL    HW186135   5.222  12.667   2.646
28703SOL    HW286136   5.220  12.693   2.485
28704SOL     OW86137   4.859  11.875   2.579
28704SOL    HW186138   4.916  11.953   2.554
28704SOL    HW286139   4.799  11.901   2.655
28705SOL     OW86140   5.479  11.779   2.093
28705SOL    HW186141   5.467  11.766   1.994
28705SOL    HW286142   5.449  11.698   2.142
28706SOL     OW86143   4.492  12.316   2.885
28706SOL    HW186144   4.414  12.333   2.945
28706SOL    HW286145   4.526  12.403   2.849
28707SOL     OW86146   4.574  11.970   3.685
28707SOL    HW186147   4.570  12.046   3.750
28707SOL    HW286148   4.596  12.006   3.594
28708SOL     OW86149   4.409  12.184   2.527
28708SOL    HW186150   4.478  12.168   2.597
28708SOL    HW286151   4.336  12.241   2.565
28709SOL     OW86152   4.410  12.333   3.665
28709SOL    HW186153   4.470  12.412   3.679
28709SOL    HW286154   4.324  12.364   3.624
28710SOL     OW86155   4.059  12.607   2.923
28710SOL    HW186156   3.981  12.576   2.870
28710SOL    HW286157   4.117  12.665   2.866
28711SOL     OW86158   5.184  12.677   3.201
28711SOL    HW186159   5.208  12.771   3.227
28711SOL    HW286160   5.168  12.623   3.283
28712SOL     OW86161   4.162  11.564   3.361
28712SOL    HW186162   4.244  11.508   3.370
28712SOL    HW286163   4.081  11.506   3.365
28713SOL     OW86164   5.327  11.619   2.599
28713SOL    HW186165   5.253  11.665   2.549
28713SOL    HW286166   5.378  11.687   2.652
28714SOL     OW86167   3.955  12.885   2.345
28714SOL    HW186168   3.989  12.962   2.399
28714SOL    HW286169   3.999  12.885   2.255
28715SOL     OW86170   4.851  12.513   3.552
28715SOL    HW186171   4.898  12.513   3.640
28715SOL    HW286172   4.803  12.426   3.541
28716SOL     OW86173   3.954  12.606   2.400
28716SOL    HW186174   3.928  12.702   2.400
28716SOL    HW286175   3.883  12.552   2.445
28717SOL     OW86176   3.964  12.263   2.748
28717SOL    HW186177   3.978  12.179   2.800
28717SOL    HW286178   3.909  12.327   2.803
28718SOL     OW86179   4.330  12.136   1.985
28718SOL    HW186180   4.337  12.220   1.931
28718SOL    HW286181   4.376  12.149   2.073
28719SOL     OW86182   5.318  11.286   3.342
28719SOL    HW186183   5.300  11.353   3.270
28719SOL    HW286184   5.315  11.332   3.431
28720SOL     OW86185   3.846  11.815   2.425
28720SOL    HW186186   3.801  11.727   2.442
28720SOL    HW286187   3.845  11.869   2.509
28721SOL     OW86188   3.751  12.768   1.979
28721SOL    HW186189   3.732  12.672   2.000
28721SOL    HW286190   3.718  12.826   2.054
28722SOL     OW86191   5.413  12.094   2.474
28722SOL    HW186192   5.508  12.065   2.482
28722SOL    HW286193   5.405  12.159   2.399
28723SOL     OW86194   5.365  12.280   2.294
28723SOL    HW186195   5.451  12.282   2.242
28723SOL    HW286196   5.379  12.327   2.382
28724SOL     OW86197   3.837  11.909   3.459
28724SOL    HW186198   3.925  11.896   3.504
28724SOL    HW286199   3.824  12.006   3.437
28725SOL     OW86200   4.337  12.537   2.588
28725SOL    HW186201   4.288  12.450   2.597
28725SOL    HW286202   4.314  12.580   2.501
28726SOL     OW86203   5.017  12.400   3.285
28726SOL    HW186204   5.054  12.327   3.227
28726SOL    HW286205   5.069  12.405   3.370
28727SOL     OW86206   4.533  11.176   2.364
28727SOL    HW186207   4.573  11.267   2.355
28727SOL    HW286208   4.433  11.184   2.370
28728SOL     OW86209   3.921  12.148   3.126
28728SOL    HW186210   4.010  12.103   3.112
28728SOL    HW286211   3.848  12.083   3.107
28729SOL     OW86212   5.249  12.171   2.052
28729SOL    HW186213   5.186  12.095   2.065
28729SOL    HW286214   5.297  12.189   2.138
28730SOL     OW86215   4.041  11.423   3.663
28730SOL    HW186216   4.112  11.494   3.669
28730SOL    HW286217   3.953  11.462   3.691
28731SOL     OW86218   5.190  12.589   2.815
28731SOL    HW186219   5.131  12.595   2.895
28731SOL    HW286220   5.175  12.501   2.769
28732SOL     OW86221   4.322  11.901   2.132
28732SOL    HW186222   4.346  11.970   2.064
28732SOL    HW286223   4.244  11.934   2.186
28733SOL     OW86224   5.005  11.517   2.806
28733SOL    HW186225   4.919  11.467   2.793
28733SOL    HW286226   5.067  11.463   2.862
28734SOL     OW86227   4.531  11.777   3.327
28734SOL    HW186228   4.484  11.774   3.416
28734SOL    HW286229   4.480  11.722   3.261
28735SOL     OW86230   5.118  11.641   3.536
28735SOL    HW186231   5.098  11.684   3.624
28735SOL    HW286232   5.196  11.579   3.545
28736SOL     OW86233   4.697  12.062   3.434
28736SOL    HW186234   4.743  11.978   3.405
28736SOL    HW286235   4.641  12.096   3.359
28737SOL     OW86236   4.715  11.582   3.104
28737SOL    HW186237   4.638  11.616   3.158
28737SOL    HW286238   4.681  11.531   3.025
28738SOL     OW86239   4.765  11.873   2.291
28738SOL    HW186240   4.791  11.869   2.387
28738SOL    HW286241   4.680  11.822   2.277
28739SOL     OW86242   3.800  11.983   2.651
28739SOL    HW186243   3.899  11.971   2.660
28739SOL    HW286244   3.776  12.078   2.672
28740SOL     OW86245   4.589  11.520   2.057
28740SOL    HW186246   4.648  11.583   2.008
28740SOL    HW286247   4.608  11.426   2.028
28741SOL     OW86248   5.443  11.757   3.693
28741SOL    HW186249   5.417  11.846   3.657
28741SOL    HW286250   5.441  11.689   3.620
28742SOL     OW86251   5.086  12.316   2.407
28742SOL    HW186252   5.169  12.287   2.359
28742SOL    HW286253   5.037  12.383   2.351
28743SOL     OW86254   4.274  11.368   2.747
28743SOL    HW186255   4.269  11.363   2.847
28743SOL    HW286256   4.276  11.464   2.718
28744SOL     OW86257   4.732  12.628   2.339
28744SOL    HW186258   4.686  12.700   2.287
28744SOL    HW286259   4.728  12.648   2.437
28745SOL     OW86260   5.519  12.238   2.735
28745SOL    HW186261   5.457  12.223   2.659
28745SOL    HW286262   5.467  12.249   2.820
28746SOL     OW86263   4.951  12.722   3.368
28746SOL    HW186264   4.957  12.645   3.432
28746SOL    HW286265   4.899  12.696   3.288
28747SOL     OW86266   4.045  12.115   2.104
28747SOL    HW186267   4.127  12.154   2.062
28747SOL    HW286268   4.018  12.033   2.055
28748SOL     OW86269   5.182  11.907   2.590
28748SOL    HW186270   5.177  11.842   2.665
28748SOL    HW286271   5.262  11.966   2.603
28749SOL     OW86272   4.185  12.438   3.589
28749SOL    HW186273   4.135  12.439   3.503
28749SOL    HW286274   4.122  12.420   3.665
28750SOL     OW86275   4.835  12.948   2.099
28750SOL    HW186276   4.775  12.886   2.149
28750SOL    HW286277   4.866  12.904   2.014
28751SOL     OW86278   3.926  11.457   3.360
28751SOL    HW186279   3.846  11.517   3.347
28751SOL    HW286280   3.916  11.408   3.446
28752SOL     OW86281   5.356  12.549   1.943
28752SOL    HW186282   5.324  12.643   1.933
28752SOL    HW286283   5.280  12.486   1.931
28753SOL     OW86284   5.124  11.279   2.288
28753SOL    HW186285   5.100  11.242   2.198
28753SOL    HW286286   5.223  11.295   2.292
28754SOL     OW86287   4.106  11.872   2.342
28754SOL    HW186288   4.151  11.782   2.339
28754SOL    HW286289   4.012  11.861   2.375
28755SOL     OW86290   5.271  11.394   3.591
28755SOL    HW186291   5.266  11.431   3.683
28755SOL    HW286292   5.199  11.325   3.579
28756SOL     OW86293   4.338  11.294   1.979
28756SOL    HW186294   4.436  11.272   1.986
28756SOL    HW286295   4.307  11.277   1.886
28757SOL     OW86296   4.505  11.436   3.611
28757SOL    HW186297   4.572  11.375   3.654
28757SOL    HW286298   4.432  11.455   3.676
28758SOL     OW86299   5.075  11.762   3.295
28758SOL    HW186300   5.103  11.719   3.380
28758SOL    HW286301   5.100  11.858   3.296
28759SOL     OW86302   4.527  12.574   2.786
28759SOL    HW186303   4.617  12.588   2.744
28759SOL    HW286304   4.456  12.576   2.715
28760SOL     OW86305   4.646  11.675   2.761
28760SOL    HW186306   4.621  11.666   2.665
28760SOL    HW286307   4.694  11.593   2.792
28761SOL     OW86308   4.263  11.236   2.374
28761SOL    HW186309   4.182  11.237   2.432
28761SOL    HW286310   4.266  11.319   2.319
28762SOL     OW86311   5.158  12.360   1.903
28762SOL    HW186312   5.190  12.284   1.960
28762SOL    HW286313   5.066  12.387   1.933
28763SOL     OW86314   4.021  11.207   2.033
28763SOL    HW186315   4.070  11.291   2.012
28763SOL    HW286316   4.083  11.142   2.078
28764SOL     OW86317   4.659  11.408   2.342
28764SOL    HW186318   4.611  11.449   2.264
28764SOL    HW286319   4.758  11.406   2.323
28765SOL     OW86320   4.800  11.855   3.326
28765SOL    HW186321   4.720  11.794   3.329
28765SOL    HW286322   4.881  11.802   3.302
28766SOL     OW86323   4.951  12.742   2.655
28766SOL    HW186324   4.972  12.816   2.590
28766SOL    HW286325   5.019  12.742   2.728
28767SOL     OW86326   4.183  12.324   2.603
28767SOL    HW186327   4.112  12.297   2.668
28767SOL    HW286328   4.157  12.296   2.510
28768SOL     OW86329   4.756  11.721   1.878
28768SOL    HW186330   4.715  11.803   1.839
28768SOL    HW286331   4.820  11.747   1.951
28769SOL     OW86332   3.802  11.728   3.248
28769SOL    HW186333   3.894  11.727   3.207
28769SOL    HW286334   3.796  11.802   3.315
28770SOL     OW86335   4.285  11.394   3.009
28770SOL    HW186336   4.323  11.310   3.046
28770SOL    HW286337   4.197  11.413   3.053
28771SOL     OW86338   4.590  11.626   2.504
28771SOL    HW186339   4.558  11.698   2.442
28771SOL    HW286340   4.614  11.545   2.451
28772SOL     OW86341   4.741  11.211   2.615
28772SOL    HW186342   4.669  11.216   2.546
28772SOL    HW286343   4.717  11.142   2.684
28773SOL     OW86344   5.153  12.345   2.729
28773SOL    HW186345   5.098  12.261   2.722
28773SOL    HW286346   5.179  12.374   2.637
28774SOL     OW86347   5.190  11.762   2.854
28774SOL    HW186348   5.160  11.667   2.861
28774SOL    HW286349   5.263  11.778   2.920
28775SOL     OW86350   5.581  12.005   2.239
28775SOL    HW186351   5.623  11.941   2.303
28775SOL    HW286352   5.543  11.954   2.161
28776SOL     OW86353   4.212  12.557   2.036
28776SOL    HW186354   4.125  12.542   2.083
28776SOL    HW286355   4.195  12.583   1.941
28777SOL     OW86356   5.388  12.452   2.519
28777SOL    HW186357   5.487  12.460   2.533
28777SOL    HW286358   5.343  12.536   2.550
28778SOL     OW86359   5.114  11.747   1.940
28778SOL    HW186360   5.060  11.726   2.021
28778SOL    HW286361   5.205  11.706   1.949
28779SOL     OW86362   4.251  11.428   2.190
28779SOL    HW186363   4.278  11.369   2.115
28779SOL    HW286364   4.251  11.523   2.159
28780SOL     OW86365   5.478  12.395   3.450
28780SOL    HW186366   5.569  12.356   3.437
28780SOL    HW286367   5.486  12.491   3.474
28781SOL     OW86368   4.788  12.519   3.202
28781SOL    HW186369   4.708  12.496   3.257
28781SOL    HW286370   4.871  12.493   3.251
28782SOL     OW86371   4.835  12.367   2.962
28782SOL    HW186372   4.795  12.411   3.043
28782SOL    HW286373   4.794  12.404   2.879
28783SOL     OW86374   5.362  12.271   2.941
28783SOL    HW186375   5.367  12.352   3.000
28783SOL    HW286376   5.276  12.273   2.890
28784SOL     OW86377   4.639  11.261   3.264
28784SOL    HW186378   4.664  11.241   3.169
28784SOL    HW286379   4.711  11.317   3.306
28785SOL     OW86380   4.704  12.288   3.581
28785SOL    HW186381   4.605  12.294   3.591
28785SOL    HW286382   4.727  12.208   3.525
28786SOL     OW86383   4.429  12.222   2.230
28786SOL    HW186384   4.415  12.229   2.329
28786SOL    HW286385   4.513  12.171   2.212
28787SOL     OW86386   4.134  11.985   3.113
28787SOL    HW186387   4.220  11.997   3.163
28787SOL    HW286388   4.092  11.898   3.140
28788SOL     OW86389   4.998  11.558   3.124
28788SOL    HW186390   5.019  11.632   3.188
28788SOL    HW286391   4.909  11.575   3.081
28789SOL     OW86392   4.091  12.272   2.363
28789SOL    HW186393   4.084  12.355   2.307
28789SOL    HW286394   4.095  12.192   2.303
28790SOL     OW86395   4.290  11.709   2.727
28790SOL    HW186396   4.302  11.775   2.653
28790SOL    HW286397   4.336  11.743   2.810
28791SOL     OW86398   4.976  12.520   2.250
28791SOL    HW186399   5.026  12.597   2.290
28791SOL    HW286400   4.881  12.522   2.282
28792SOL     OW86401   4.996  12.617   3.004
28792SOL    HW186402   5.043  12.630   3.091
28792SOL    HW286403   4.930  12.543   3.013
28793SOL     OW86404   5.306  11.811   2.334
28793SOL    HW186405   5.275  11.872   2.407
28793SOL    HW286406   5.356  11.863   2.265
28794SOL     OW86407   4.078  12.682   3.191
28794SOL    HW186408   4.057  12.638   3.104
28794SOL    HW286409   4.175  12.708   3.194
28795SOL     OW86410   4.126  11.923   3.460
28795SOL    HW186411   4.194  11.978   3.413
28795SOL    HW286412   4.166  11.835   3.487
28796SOL     OW86413   5.311  11.951   3.532
28796SOL    HW186414   5.219  11.989   3.527
28796SOL    HW286415   5.371  11.998   3.467
28797SOL     OW86416   4.737  11.277   3.632
28797SOL    HW186417   4.743  11.362   3.580
28797SOL    HW286418   4.769  11.201   3.575
28798SOL     OW86419   4.228  11.222   3.602
28798SOL    HW186420   4.186  11.165   3.532
28798SOL    HW286421   4.162  11.291   3.634
28799SOL     OW86422   4.297  12.042   2.891
28799SOL    HW186423   4.341  12.131   2.882
28799SOL    HW286424   4.234  12.042   2.968
28800SOL     OW86425   5.084  12.034   2.907
28800SOL    HW186426   5.009  12.034   2.841
28800SOL    HW286427   5.121  11.942   2.916
28801SOL     OW86428   4.933  11.697   2.137
28801SOL    HW186429   4.946  11.613   2.191
28801SOL    HW286430   4.904  11.771   2.197
28802SOL     OW86431   4.031  11.385   3.093
28802SOL    HW186432   4.008  11.422   3.183
28802SOL    HW286433   4.001  11.290   3.087
28803SOL     OW86434   3.761  12.482   3.144
28803SOL    HW186435   3.814  12.433   3.212
28803SOL    HW286436   3.783  12.580   3.149
28804SOL     OW86437   4.456  11.806   2.926
28804SOL    HW186438   4.515  11.780   2.850
28804SOL    HW286439   4.428  11.902   2.915
28805SOL     OW86440   5.452  12.107   3.716
28805SOL    HW186441   5.406  12.100   3.627
28805SOL    HW286442   5.390  12.151   3.782
28806SOL     OW86443   4.031  11.235   2.480
28806SOL    HW186444   4.020  11.329   2.513
28806SOL    HW286445   4.026  11.172   2.557
28807SOL     OW86446   5.346  11.539   2.236
28807SOL    HW186447   5.348  11.463   2.300
28807SOL    HW286448   5.298  11.616   2.276
28808SOL     OW86449   4.747  11.938   2.828
28808SOL    HW186450   4.762  11.959   2.924
28808SOL    HW286451   4.717  11.843   2.819
28809SOL     OW86452   5.583  12.690   3.467
28809SOL    HW186453   5.597  12.717   3.372
28809SOL    HW286454   5.666  12.712   3.520
28810SOL     OW86455   4.074  12.070   3.666
28810SOL    HW186456   4.150  12.114   3.714
28810SOL    HW286457   4.109  12.023   3.584
28811SOL     OW86458   5.264  11.446   1.987
28811SOL    HW186459   5.203  11.371   2.010
28811SOL    HW286460   5.286  11.498   2.070
28812SOL     OW86461   5.027  12.010   1.904
28812SOL    HW186462   5.061  11.917   1.919
28812SOL    HW286463   5.045  12.037   1.809
28813SOL     OW86464   4.792  12.505   2.711
28813SOL    HW186465   4.799  12.421   2.656
28813SOL    HW286466   4.854  12.574   2.675
28814SOL     OW86467   4.043  11.982   2.811
28814SOL    HW186468   4.136  12.018   2.816
28814SOL    HW286469   4.037  11.897   2.863
28815SOL     OW86470   4.063  11.681   2.868
28815SOL    HW186471   4.011  11.598   2.851
28815SOL    HW286472   4.140  11.686   2.804
28816SOL     OW86473   4.862  11.552   3.540
28816SOL    HW186474   4.817  11.615   3.604
28816SOL    HW286475   4.955  11.583   3.523
28817SOL     OW86476   4.884  11.379   3.339
28817SOL    HW186477   4.884  11.443   3.416
28817SOL    HW286478   4.912  11.427   3.256
28818SOL     OW86479   3.732  12.498   2.062
28818SOL    HW186480   3.639  12.519   2.031
28818SOL    HW286481   3.742  12.399   2.075
28819SOL     OW86482   4.726  11.968   3.100
28819SOL    HW186483   4.767  11.936   3.186
28819SOL    HW286484   4.630  11.941   3.097
28820SOL     OW86485   3.764  11.716   2.976
28820SOL    HW186486   3.849  11.683   2.935
28820SOL    HW286487   3.777  11.731   3.074
28821SOL     OW86488   3.913  11.692   3.584
28821SOL    HW186489   3.972  11.652   3.514
28821SOL    HW286490   3.855  11.763   3.543
28822SOL     OW86491   5.093  12.122   3.522
28822SOL    HW186492   5.132  12.211   3.542
28822SOL    HW286493   5.103  12.102   3.425
28823SOL     OW86494   4.539  11.744   2.187
28823SOL    HW186495   4.546  11.655   2.141
28823SOL    HW286496   4.445  11.778   2.179
28824SOL     OW86497   5.381  11.776   3.068
28824SOL    HW186498   5.343  11.707   3.130
28824SOL    HW286499   5.463  11.740   3.024
28825SOL     OW86500   3.976  12.736   3.606
28825SOL    HW186501   3.946  12.793   3.682
28825SOL    HW286502   3.969  12.639   3.632
28826SOL     OW86503   4.395  11.636   3.131
28826SOL    HW186504   4.361  11.547   3.101
28826SOL    HW286505   4.421  11.690   3.051
28827SOL     OW86506   4.197  11.672   2.053
28827SOL    HW186507   4.258  11.752   2.057
28827SOL    HW286508   4.102  11.703   2.060
28828SOL     OW86509   3.883  12.309   3.328
28828SOL    HW186510   3.905  12.248   3.404
28828SOL    HW286511   3.893  12.260   3.242
28829SOL     OW86512   5.071  12.231   3.096
28829SOL    HW186513   5.095  12.168   3.022
28829SOL    HW286514   4.981  12.271   3.078
28830SOL     OW86515   5.026  12.027   2.171
28830SOL    HW186516   4.940  11.996   2.213
28830SOL    HW286517   5.022  12.013   2.072
28831SOL     OW86518   3.807  12.430   2.884
28831SOL    HW186519   3.802  12.429   2.984
28831SOL    HW286520   3.724  12.389   2.846
28832SOL     OW86521   5.450  11.307   2.385
28832SOL    HW186522   5.523  11.290   2.318
28832SOL    HW286523   5.419  11.220   2.423
28833SOL     OW86524   5.004  12.099   2.534
28833SOL    HW186525   5.064  12.018   2.536
28833SOL    HW286526   5.044  12.168   2.474
28834SOL     OW86527   4.554  12.445   3.284
28834SOL    HW186528   4.549  12.478   3.379
28834SOL    HW286529   4.468  12.464   3.238
28835SOL     OW86530   5.565  11.347   2.825
28835SOL    HW186531   5.604  11.262   2.789
28835SOL    HW286532   5.467  11.349   2.806
28836SOL     OW86533   3.987  11.498   2.582
28836SOL    HW186534   3.908  11.549   2.548
28836SOL    HW286535   3.978  11.483   2.680
28837SOL     OW86536   4.546  12.174   3.234
28837SOL    HW186537   4.586  12.173   3.142
28837SOL    HW286538   4.556  12.266   3.274
28838SOL     OW86539   4.640  12.082   2.153
28838SOL    HW186540   4.703  12.120   2.085
28838SOL    HW286541   4.680  11.999   2.192
28839SOL     OW86542   4.096  12.460   3.352
28839SOL    HW186543   4.083  12.553   3.318
28839SOL    HW286544   4.012  12.408   3.339
28840SOL     OW86545   5.338  12.464   3.151
28840SOL    HW186546   5.398  12.467   3.231
28840SOL    HW286547   5.263  12.528   3.164
28841SOL     OW86548   4.763  12.270   2.558
28841SOL    HW186549   4.693  12.223   2.612
28841SOL    HW286550   4.822  12.202   2.515
28842SOL     OW86551   4.738  11.408   2.833
28842SOL    HW186552   4.730  11.372   2.740
28842SOL    HW286553   4.736  11.332   2.898
28843SOL     OW86554   5.433  11.557   3.243
28843SOL    HW186555   5.506  11.626   3.247
28843SOL    HW286556   5.461  11.482   3.184
28844SOL     OW86557   3.979  12.520   2.152
28844SOL    HW186558   3.883  12.521   2.125
28844SOL    HW286559   3.991  12.573   2.236
28845SOL     OW86560   3.829  12.185   3.588
28845SOL    HW186561   3.752  12.152   3.642
28845SOL    HW286562   3.914  12.155   3.630
28846SOL     OW86563   4.396  11.375   3.351
28846SOL    HW186564   4.486  11.359   3.311
28846SOL    HW286565   4.404  11.380   3.450
28847SOL     OW86566   3.799  11.517   1.895
28847SOL    HW186567   3.707  11.489   1.866
28847SOL    HW286568   3.830  11.594   1.839
28848SOL     OW86569   5.164  12.028   3.260
28848SOL    HW186570   5.107  12.080   3.197
28848SOL    HW286571   5.260  12.040   3.236
28849SOL     OW86572   3.796  11.338   2.180
28849SOL    HW186573   3.779  11.421   2.126
28849SOL    HW286574   3.886  11.301   2.158
28850SOL     OW86575   4.907  12.507   1.981
28850SOL    HW186576   4.808  12.496   1.983
28850SOL    HW286577   4.941  12.522   2.074
28851SOL     OW86578   4.337  12.014   3.293
28851SOL    HW186579   4.393  12.095   3.276
28851SOL    HW286580   4.396  11.934   3.296
28852SOL     OW86581   4.440  11.737   3.570
28852SOL    HW186582   4.459  11.802   3.644
28852SOL    HW286583   4.500  11.657   3.579
28853SOL     OW86584   5.174  12.392   3.495
28853SOL    HW186585   5.165  12.382   3.594
28853SOL    HW286586   5.270  12.385   3.469
28854SOL     OW86587   5.398  12.055   3.116
28854SOL    HW186588   5.371  11.966   3.079
28854SOL    HW286589   5.399  12.123   3.043
28855SOL     OW86590   4.949  11.497   2.311
28855SOL    HW186591   5.014  11.423   2.300
28855SOL    HW286592   4.969  11.547   2.395
28856SOL     OW86593   4.318  11.917   2.514
28856SOL    HW186594   4.368  12.002   2.495
28856SOL    HW286595   4.230  11.919   2.466
28857SOL     OW86596   5.501  11.514   3.504
28857SOL    HW186597   5.484  11.545   3.410
28857SOL    HW286598   5.417  11.477   3.542
28858SOL     OW86599   5.454  12.106   3.379
28858SOL    HW186600   5.492  12.197   3.394
28858SOL    HW286601   5.446  12.089   3.280
28859SOL     OW86602   4.583  12.546   1.878
28859SOL    HW186603   4.537  12.561   1.966
28859SOL    HW286604   4.627  12.631   1.848
28860SOL     OW86605   4.583  12.128   2.723
28860SOL    HW186606   4.637  12.059   2.771
28860SOL    HW286607   4.551  12.197   2.789
28861SOL     OW86608   4.807  12.156   1.949
28861SOL    HW186609   4.784  12.209   1.867
28861SOL    HW286610   4.888  12.100   1.930
28862SOL     OW86611   3.945  12.486   3.706
28862SOL    HW186612   3.880  12.413   3.685
28862SOL    HW286613   3.949  12.500   3.804
28863SOL     OW86614   3.803  12.412   2.515
28863SOL    HW186615   3.802  12.365   2.603
28863SOL    HW286616   3.885  12.384   2.464
28864SOL     OW86617   4.396  12.563   3.486
28864SOL    HW186618   4.318  12.513   3.524
28864SOL    HW286619   4.393  12.658   3.517
28865SOL     OW86620   5.548  11.364   3.089
28865SOL    HW186621   5.544  11.274   3.133
28865SOL    HW286622   5.551  11.353   2.990
28866SOL     OW86623   4.152  11.596   2.382
28866SOL    HW186624   4.182  11.524   2.320
28866SOL    HW286625   4.113  11.556   2.465
28867SOL     OW86626   5.429  12.659   2.966
28867SOL    HW186627   5.336  12.634   2.939
28867SOL    HW286628   5.455  12.609   3.048
28868SOL     OW86629   4.041  11.719   3.142
28868SOL    HW186630   4.079  11.660   3.214
28868SOL    HW286631   4.081  11.693   3.054
28869SOL     OW86632   5.148  11.386   2.974
28869SOL    HW186633   5.200  11.321   3.029
28869SOL    HW286634   5.099  11.449   3.035
28870SOL     OW86635   4.725  11.206   3.016
28870SOL    HW186636   4.662  11.134   2.985
28870SOL    HW286637   4.818  11.170   3.016
28871SOL     OW86638   4.494  12.502   2.163
28871SOL    HW186639   4.448  12.415   2.180
28871SOL    HW286640   4.585  12.499   2.204
28872SOL     OW86641   4.342  12.739   3.146
28872SOL    HW186642   4.337  12.821   3.203
28872SOL    HW286643   4.431  12.736   3.101
28873SOL     OW86644   5.076  11.224   2.030
28873SOL    HW186645   5.111  11.183   1.946
28873SOL    HW286646   4.986  11.186   2.050
28874SOL     OW86647   5.024  11.625   2.553
28874SOL    HW186648   4.965  11.705   2.557
28874SOL    HW286649   5.039  11.590   2.646
28875SOL     OW86650   5.317  11.393   2.744
28875SOL    HW186651   5.233  11.392   2.798
28875SOL    HW286652   5.319  11.476   2.688
28876SOL     OW86653   3.763  12.249   2.162
28876SOL    HW186654   3.862  12.238   2.153
28876SOL    HW286655   3.723  12.163   2.194
28877SOL     OW86656   3.954  11.800   3.837
28877SOL    HW186657   3.861  11.798   3.874
28877SOL    HW286658   3.955  11.761   3.745
28878SOL     OW86659   3.949  11.447   4.720
28878SOL    HW186660   3.984  11.430   4.812
28878SOL    HW286661   3.861  11.402   4.708
28879SOL     OW86662   3.743  11.540   4.371
28879SOL    HW186663   3.661  11.583   4.410
28879SOL    HW286664   3.715  11.467   4.308
28880SOL     OW86665   4.293  12.447   4.889
28880SOL    HW186666   4.200  12.440   4.852
28880SOL    HW286667   4.304  12.536   4.933
28881SOL     OW86668   5.279  12.683   4.427
28881SOL    HW186669   5.222  12.667   4.508
28881SOL    HW286670   5.220  12.693   4.347
28882SOL     OW86671   4.859  11.875   4.441
28882SOL    HW186672   4.916  11.953   4.416
28882SOL    HW286673   4.799  11.901   4.517
28883SOL     OW86674   5.479  11.779   3.955
28883SOL    HW186675   5.467  11.766   3.856
28883SOL    HW286676   5.449  11.698   4.004
28884SOL     OW86677   4.492  12.316   4.747
28884SOL    HW186678   4.414  12.333   4.807
28884SOL    HW286679   4.526  12.403   4.711
28885SOL     OW86680   4.574  11.970   5.547
28885SOL    HW186681   4.570  12.046   5.612
28885SOL    HW286682   4.596  12.006   5.456
28886SOL     OW86683   4.409  12.184   4.389
28886SOL    HW186684   4.478  12.168   4.459
28886SOL    HW286685   4.336  12.241   4.427
28887SOL     OW86686   4.410  12.333   5.527
28887SOL    HW186687   4.470  12.412   5.541
28887SOL    HW286688   4.324  12.364   5.486
28888SOL     OW86689   4.059  12.607   4.785
28888SOL    HW186690   3.981  12.576   4.732
28888SOL    HW286691   4.117  12.665   4.728
28889SOL     OW86692   5.184  12.677   5.063
28889SOL    HW186693   5.208  12.771   5.089
28889SOL    HW286694   5.168  12.623   5.145
28890SOL     OW86695   4.162  11.564   5.223
28890SOL    HW186696   4.244  11.508   5.232
28890SOL    HW286697   4.081  11.506   5.227
28891SOL     OW86698   5.327  11.619   4.461
28891SOL    HW186699   5.253  11.665   4.411
28891SOL    HW286700   5.378  11.687   4.514
28892SOL     OW86701   3.955  12.885   4.207
28892SOL    HW186702   3.989  12.962   4.261
28892SOL    HW286703   3.999  12.885   4.117
28893SOL     OW86704   4.851  12.513   5.414
28893SOL    HW186705   4.898  12.513   5.502
28893SOL    HW286706   4.803  12.426   5.403
28894SOL     OW86707   3.954  12.606   4.262
28894SOL    HW186708   3.928  12.702   4.262
28894SOL    HW286709   3.883  12.552   4.307
28895SOL     OW86710   3.964  12.263   4.610
28895SOL    HW186711   3.978  12.179   4.662
28895SOL    HW286712   3.909  12.327   4.665
28896SOL     OW86713   4.330  12.136   3.847
28896SOL    HW186714   4.337  12.220   3.793
28896SOL    HW286715   4.376  12.149   3.935
28897SOL     OW86716   5.318  11.286   5.204
28897SOL    HW186717   5.300  11.353   5.132
28897SOL    HW286718   5.315  11.332   5.293
28898SOL     OW86719   3.846  11.815   4.287
28898SOL    HW186720   3.801  11.727   4.304
28898SOL    HW286721   3.845  11.869   4.371
28899SOL     OW86722   3.751  12.768   3.841
28899SOL    HW186723   3.732  12.672   3.862
28899SOL    HW286724   3.718  12.826   3.916
28900SOL     OW86725   5.413  12.094   4.336
28900SOL    HW186726   5.508  12.065   4.344
28900SOL    HW286727   5.405  12.159   4.261
28901SOL     OW86728   5.365  12.280   4.156
28901SOL    HW186729   5.451  12.282   4.104
28901SOL    HW286730   5.379  12.327   4.244
28902SOL     OW86731   3.837  11.909   5.321
28902SOL    HW186732   3.925  11.896   5.366
28902SOL    HW286733   3.824  12.006   5.299
28903SOL     OW86734   4.337  12.537   4.450
28903SOL    HW186735   4.288  12.450   4.459
28903SOL    HW286736   4.314  12.580   4.363
28904SOL     OW86737   5.017  12.400   5.147
28904SOL    HW186738   5.054  12.327   5.089
28904SOL    HW286739   5.069  12.405   5.232
28905SOL     OW86740   4.533  11.176   4.226
28905SOL    HW186741   4.573  11.267   4.217
28905SOL    HW286742   4.433  11.184   4.232
28906SOL     OW86743   3.921  12.148   4.988
28906SOL    HW186744   4.010  12.103   4.974
28906SOL    HW286745   3.848  12.083   4.969
28907SOL     OW86746   5.249  12.171   3.914
28907SOL    HW186747   5.186  12.095   3.927
28907SOL    HW286748   5.297  12.189   4.000
28908SOL     OW86749   4.041  11.423   5.525
28908SOL    HW186750   4.112  11.494   5.531
28908SOL    HW286751   3.953  11.462   5.553
28909SOL     OW86752   5.190  12.589   4.677
28909SOL    HW186753   5.131  12.595   4.757
28909SOL    HW286754   5.175  12.501   4.631
28910SOL     OW86755   4.322  11.901   3.994
28910SOL    HW186756   4.346  11.970   3.926
28910SOL    HW286757   4.244  11.934   4.048
28911SOL     OW86758   5.005  11.517   4.668
28911SOL    HW186759   4.919  11.467   4.655
28911SOL    HW286760   5.067  11.463   4.724
28912SOL     OW86761   4.531  11.777   5.189
28912SOL    HW186762   4.484  11.774   5.278
28912SOL    HW286763   4.480  11.722   5.123
28913SOL     OW86764   5.118  11.641   5.398
28913SOL    HW186765   5.098  11.684   5.486
28913SOL    HW286766   5.196  11.579   5.407
28914SOL     OW86767   4.697  12.062   5.296
28914SOL    HW186768   4.743  11.978   5.267
28914SOL    HW286769   4.641  12.096   5.221
28915SOL     OW86770   4.715  11.582   4.966
28915SOL    HW186771   4.638  11.616   5.020
28915SOL    HW286772   4.681  11.531   4.887
28916SOL     OW86773   4.765  11.873   4.153
28916SOL    HW186774   4.791  11.869   4.249
28916SOL    HW286775   4.680  11.822   4.139
28917SOL     OW86776   3.800  11.983   4.513
28917SOL    HW186777   3.899  11.971   4.522
28917SOL    HW286778   3.776  12.078   4.534
28918SOL     OW86779   4.589  11.520   3.919
28918SOL    HW186780   4.648  11.583   3.870
28918SOL    HW286781   4.608  11.426   3.890
28919SOL     OW86782   5.443  11.757   5.555
28919SOL    HW186783   5.417  11.846   5.519
28919SOL    HW286784   5.441  11.689   5.482
28920SOL     OW86785   5.086  12.316   4.269
28920SOL    HW186786   5.169  12.287   4.221
28920SOL    HW286787   5.037  12.383   4.213
28921SOL     OW86788   4.274  11.368   4.609
28921SOL    HW186789   4.269  11.363   4.709
28921SOL    HW286790   4.276  11.464   4.580
28922SOL     OW86791   4.732  12.628   4.201
28922SOL    HW186792   4.686  12.700   4.149
28922SOL    HW286793   4.728  12.648   4.299
28923SOL     OW86794   5.519  12.238   4.597
28923SOL    HW186795   5.457  12.223   4.521
28923SOL    HW286796   5.467  12.249   4.682
28924SOL     OW86797   4.951  12.722   5.230
28924SOL    HW186798   4.957  12.645   5.294
28924SOL    HW286799   4.899  12.696   5.150
28925SOL     OW86800   4.045  12.115   3.966
28925SOL    HW186801   4.127  12.154   3.924
28925SOL    HW286802   4.018  12.033   3.917
28926SOL     OW86803   5.182  11.907   4.452
28926SOL    HW186804   5.177  11.842   4.527
28926SOL    HW286805   5.262  11.966   4.465
28927SOL     OW86806   4.185  12.438   5.451
28927SOL    HW186807   4.135  12.439   5.365
28927SOL    HW286808   4.122  12.420   5.527
28928SOL     OW86809   4.835  12.948   3.961
28928SOL    HW186810   4.775  12.886   4.011
28928SOL    HW286811   4.866  12.904   3.876
28929SOL     OW86812   3.926  11.457   5.222
28929SOL    HW186813   3.846  11.517   5.209
28929SOL    HW286814   3.916  11.408   5.308
28930SOL     OW86815   5.356  12.549   3.805
28930SOL    HW186816   5.324  12.643   3.795
28930SOL    HW286817   5.280  12.486   3.793
28931SOL     OW86818   5.124  11.279   4.150
28931SOL    HW186819   5.100  11.242   4.060
28931SOL    HW286820   5.223  11.295   4.154
28932SOL     OW86821   4.106  11.872   4.204
28932SOL    HW186822   4.151  11.782   4.201
28932SOL    HW286823   4.012  11.861   4.237
28933SOL     OW86824   5.271  11.394   5.453
28933SOL    HW186825   5.266  11.431   5.545
28933SOL    HW286826   5.199  11.325   5.441
28934SOL     OW86827   4.338  11.294   3.841
28934SOL    HW186828   4.436  11.272   3.848
28934SOL    HW286829   4.307  11.277   3.748
28935SOL     OW86830   4.505  11.436   5.473
28935SOL    HW186831   4.572  11.375   5.516
28935SOL    HW286832   4.432  11.455   5.538
28936SOL     OW86833   5.075  11.762   5.157
28936SOL    HW186834   5.103  11.719   5.242
28936SOL    HW286835   5.100  11.858   5.158
28937SOL     OW86836   4.527  12.574   4.648
28937SOL    HW186837   4.617  12.588   4.606
28937SOL    HW286838   4.456  12.576   4.577
28938SOL     OW86839   4.646  11.675   4.623
28938SOL    HW186840   4.621  11.666   4.527
28938SOL    HW286841   4.694  11.593   4.654
28939SOL     OW86842   4.263  11.236   4.236
28939SOL    HW186843   4.182  11.237   4.294
28939SOL    HW286844   4.266  11.319   4.181
28940SOL     OW86845   5.158  12.360   3.765
28940SOL    HW186846   5.190  12.284   3.822
28940SOL    HW286847   5.066  12.387   3.795
28941SOL     OW86848   4.021  11.207   3.895
28941SOL    HW186849   4.070  11.291   3.874
28941SOL    HW286850   4.083  11.142   3.940
28942SOL     OW86851   4.659  11.408   4.204
28942SOL    HW186852   4.611  11.449   4.126
28942SOL    HW286853   4.758  11.406   4.185
28943SOL     OW86854   4.800  11.855   5.188
28943SOL    HW186855   4.720  11.794   5.191
28943SOL    HW286856   4.881  11.802   5.164
28944SOL     OW86857   4.951  12.742   4.517
28944SOL    HW186858   4.972  12.816   4.452
28944SOL    HW286859   5.019  12.742   4.590
28945SOL     OW86860   4.183  12.324   4.465
28945SOL    HW186861   4.112  12.297   4.530
28945SOL    HW286862   4.157  12.296   4.372
28946SOL     OW86863   4.756  11.721   3.740
28946SOL    HW186864   4.715  11.803   3.701
28946SOL    HW286865   4.820  11.747   3.813
28947SOL     OW86866   3.802  11.728   5.110
28947SOL    HW186867   3.894  11.727   5.069
28947SOL    HW286868   3.796  11.802   5.177
28948SOL     OW86869   4.285  11.394   4.871
28948SOL    HW186870   4.323  11.310   4.908
28948SOL    HW286871   4.197  11.413   4.915
28949SOL     OW86872   4.590  11.626   4.366
28949SOL    HW186873   4.558  11.698   4.304
28949SOL    HW286874   4.614  11.545   4.313
28950SOL     OW86875   4.741  11.211   4.477
28950SOL    HW186876   4.669  11.216   4.408
28950SOL    HW286877   4.717  11.142   4.546
28951SOL     OW86878   5.153  12.345   4.591
28951SOL    HW186879   5.098  12.261   4.584
28951SOL    HW286880   5.179  12.374   4.499
28952SOL     OW86881   5.190  11.762   4.716
28952SOL    HW186882   5.160  11.667   4.723
28952SOL    HW286883   5.263  11.778   4.782
28953SOL     OW86884   5.581  12.005   4.101
28953SOL    HW186885   5.623  11.941   4.165
28953SOL    HW286886   5.543  11.954   4.023
28954SOL     OW86887   4.212  12.557   3.898
28954SOL    HW186888   4.125  12.542   3.945
28954SOL    HW286889   4.195  12.583   3.803
28955SOL     OW86890   5.388  12.452   4.381
28955SOL    HW186891   5.487  12.460   4.395
28955SOL    HW286892   5.343  12.536   4.412
28956SOL     OW86893   5.114  11.747   3.802
28956SOL    HW186894   5.060  11.726   3.883
28956SOL    HW286895   5.205  11.706   3.811
28957SOL     OW86896   4.251  11.428   4.052
28957SOL    HW186897   4.278  11.369   3.977
28957SOL    HW286898   4.251  11.523   4.021
28958SOL     OW86899   5.478  12.395   5.312
28958SOL    HW186900   5.569  12.356   5.299
28958SOL    HW286901   5.486  12.491   5.336
28959SOL     OW86902   4.788  12.519   5.064
28959SOL    HW186903   4.708  12.496   5.119
28959SOL    HW286904   4.871  12.493   5.113
28960SOL     OW86905   4.835  12.367   4.824
28960SOL    HW186906   4.795  12.411   4.905
28960SOL    HW286907   4.794  12.404   4.741
28961SOL     OW86908   5.362  12.271   4.803
28961SOL    HW186909   5.367  12.352   4.862
28961SOL    HW286910   5.276  12.273   4.752
28962SOL     OW86911   4.639  11.261   5.126
28962SOL    HW186912   4.664  11.241   5.031
28962SOL    HW286913   4.711  11.317   5.168
28963SOL     OW86914   4.704  12.288   5.443
28963SOL    HW186915   4.605  12.294   5.453
28963SOL    HW286916   4.727  12.208   5.387
28964SOL     OW86917   4.429  12.222   4.092
28964SOL    HW186918   4.415  12.229   4.191
28964SOL    HW286919   4.513  12.171   4.074
28965SOL     OW86920   4.134  11.985   4.975
28965SOL    HW186921   4.220  11.997   5.025
28965SOL    HW286922   4.092  11.898   5.002
28966SOL     OW86923   4.998  11.558   4.986
28966SOL    HW186924   5.019  11.632   5.050
28966SOL    HW286925   4.909  11.575   4.943
28967SOL     OW86926   4.091  12.272   4.225
28967SOL    HW186927   4.084  12.355   4.169
28967SOL    HW286928   4.095  12.192   4.165
28968SOL     OW86929   4.290  11.709   4.589
28968SOL    HW186930   4.302  11.775   4.515
28968SOL    HW286931   4.336  11.743   4.672
28969SOL     OW86932   4.976  12.520   4.112
28969SOL    HW186933   5.026  12.597   4.152
28969SOL    HW286934   4.881  12.522   4.144
28970SOL     OW86935   4.996  12.617   4.866
28970SOL    HW186936   5.043  12.630   4.953
28970SOL    HW286937   4.930  12.543   4.875
28971SOL     OW86938   5.306  11.811   4.196
28971SOL    HW186939   5.275  11.872   4.269
28971SOL    HW286940   5.356  11.863   4.127
28972SOL     OW86941   4.078  12.682   5.053
28972SOL    HW186942   4.057  12.638   4.966
28972SOL    HW286943   4.175  12.708   5.056
28973SOL     OW86944   4.126  11.923   5.322
28973SOL    HW186945   4.194  11.978   5.275
28973SOL    HW286946   4.166  11.835   5.349
28974SOL     OW86947   5.311  11.951   5.394
28974SOL    HW186948   5.219  11.989   5.389
28974SOL    HW286949   5.371  11.998   5.329
28975SOL     OW86950   4.737  11.277   5.494
28975SOL    HW186951   4.743  11.362   5.442
28975SOL    HW286952   4.769  11.201   5.437
28976SOL     OW86953   4.228  11.222   5.464
28976SOL    HW186954   4.186  11.165   5.394
28976SOL    HW286955   4.162  11.291   5.496
28977SOL     OW86956   4.297  12.042   4.753
28977SOL    HW186957   4.341  12.131   4.744
28977SOL    HW286958   4.234  12.042   4.830
28978SOL     OW86959   5.084  12.034   4.769
28978SOL    HW186960   5.009  12.034   4.703
28978SOL    HW286961   5.121  11.942   4.778
28979SOL     OW86962   4.933  11.697   3.999
28979SOL    HW186963   4.946  11.613   4.053
28979SOL    HW286964   4.904  11.771   4.059
28980SOL     OW86965   4.031  11.385   4.955
28980SOL    HW186966   4.008  11.422   5.045
28980SOL    HW286967   4.001  11.290   4.949
28981SOL     OW86968   3.761  12.482   5.006
28981SOL    HW186969   3.814  12.433   5.074
28981SOL    HW286970   3.783  12.580   5.011
28982SOL     OW86971   4.456  11.806   4.788
28982SOL    HW186972   4.515  11.780   4.712
28982SOL    HW286973   4.428  11.902   4.777
28983SOL     OW86974   5.452  12.107   5.578
28983SOL    HW186975   5.406  12.100   5.489
28983SOL    HW286976   5.390  12.151   5.644
28984SOL     OW86977   4.031  11.235   4.342
28984SOL    HW186978   4.020  11.329   4.375
28984SOL    HW286979   4.026  11.172   4.419
28985SOL     OW86980   5.346  11.539   4.098
28985SOL    HW186981   5.348  11.463   4.162
28985SOL    HW286982   5.298  11.616   4.138
28986SOL     OW86983   4.747  11.938   4.690
28986SOL    HW186984   4.762  11.959   4.786
28986SOL    HW286985   4.717  11.843   4.681
28987SOL     OW86986   5.583  12.690   5.329
28987SOL    HW186987   5.597  12.717   5.234
28987SOL    HW286988   5.666  12.712   5.382
28988SOL     OW86989   4.074  12.070   5.528
28988SOL    HW186990   4.150  12.114   5.576
28988SOL    HW286991   4.109  12.023   5.446
28989SOL     OW86992   5.264  11.446   3.849
28989SOL    HW186993   5.203  11.371   3.872
28989SOL    HW286994   5.286  11.498   3.932
28990SOL     OW86995   5.027  12.010   3.766
28990SOL    HW186996   5.061  11.917   3.781
28990SOL    HW286997   5.045  12.037   3.671
28991SOL     OW86998   4.792  12.505   4.573
28991SOL    HW186999   4.799  12.421   4.518
28991SOL    HW287000   4.854  12.574   4.537
28992SOL     OW87001   4.043  11.982   4.673
28992SOL    HW187002   4.136  12.018   4.678
28992SOL    HW287003   4.037  11.897   4.725
28993SOL     OW87004   4.063  11.681   4.730
28993SOL    HW187005   4.011  11.598   4.713
28993SOL    HW287006   4.140  11.686   4.666
28994SOL     OW87007   4.862  11.552   5.402
28994SOL    HW187008   4.817  11.615   5.466
28994SOL    HW287009   4.955  11.583   5.385
28995SOL     OW87010   4.884  11.379   5.201
28995SOL    HW187011   4.884  11.443   5.278
28995SOL    HW287012   4.912  11.427   5.118
28996SOL     OW87013   3.732  12.498   3.924
28996SOL    HW187014   3.639  12.519   3.893
28996SOL    HW287015   3.742  12.399   3.937
28997SOL     OW87016   4.726  11.968   4.962
28997SOL    HW187017   4.767  11.936   5.048
28997SOL    HW287018   4.630  11.941   4.959
28998SOL     OW87019   3.764  11.716   4.838
28998SOL    HW187020   3.849  11.683   4.797
28998SOL    HW287021   3.777  11.731   4.936
28999SOL     OW87022   3.913  11.692   5.446
28999SOL    HW187023   3.972  11.652   5.376
28999SOL    HW287024   3.855  11.763   5.405
29000SOL     OW87025   5.093  12.122   5.384
29000SOL    HW187026   5.132  12.211   5.404
29000SOL    HW287027   5.103  12.102   5.287
29001SOL     OW87028   4.539  11.744   4.049
29001SOL    HW187029   4.546  11.655   4.003
29001SOL    HW287030   4.445  11.778   4.041
29002SOL     OW87031   5.381  11.776   4.930
29002SOL    HW187032   5.343  11.707   4.992
29002SOL    HW287033   5.463  11.740   4.886
29003SOL     OW87034   3.976  12.736   5.468
29003SOL    HW187035   3.946  12.793   5.544
29003SOL    HW287036   3.969  12.639   5.494
29004SOL     OW87037   4.395  11.636   4.993
29004SOL    HW187038   4.361  11.547   4.963
29004SOL    HW287039   4.421  11.690   4.913
29005SOL     OW87040   4.197  11.672   3.915
29005SOL    HW187041   4.258  11.752   3.919
29005SOL    HW287042   4.102  11.703   3.922
29006SOL     OW87043   3.883  12.309   5.190
29006SOL    HW187044   3.905  12.248   5.266
29006SOL    HW287045   3.893  12.260   5.104
29007SOL     OW87046   5.071  12.231   4.958
29007SOL    HW187047   5.095  12.168   4.884
29007SOL    HW287048   4.981  12.271   4.940
29008SOL     OW87049   5.026  12.027   4.033
29008SOL    HW187050   4.940  11.996   4.075
29008SOL    HW287051   5.022  12.013   3.934
29009SOL     OW87052   3.807  12.430   4.746
29009SOL    HW187053   3.802  12.429   4.846
29009SOL    HW287054   3.724  12.389   4.708
29010SOL     OW87055   5.450  11.307   4.247
29010SOL    HW187056   5.523  11.290   4.180
29010SOL    HW287057   5.419  11.220   4.285
29011SOL     OW87058   5.004  12.099   4.396
29011SOL    HW187059   5.064  12.018   4.398
29011SOL    HW287060   5.044  12.168   4.336
29012SOL     OW87061   4.554  12.445   5.146
29012SOL    HW187062   4.549  12.478   5.241
29012SOL    HW287063   4.468  12.464   5.100
29013SOL     OW87064   5.565  11.347   4.687
29013SOL    HW187065   5.604  11.262   4.651
29013SOL    HW287066   5.467  11.349   4.668
29014SOL     OW87067   3.987  11.498   4.444
29014SOL    HW187068   3.908  11.549   4.410
29014SOL    HW287069   3.978  11.483   4.542
29015SOL     OW87070   4.546  12.174   5.096
29015SOL    HW187071   4.586  12.173   5.004
29015SOL    HW287072   4.556  12.266   5.136
29016SOL     OW87073   4.640  12.082   4.015
29016SOL    HW187074   4.703  12.120   3.947
29016SOL    HW287075   4.680  11.999   4.054
29017SOL     OW87076   4.096  12.460   5.214
29017SOL    HW187077   4.083  12.553   5.180
29017SOL    HW287078   4.012  12.408   5.201
29018SOL     OW87079   5.338  12.464   5.013
29018SOL    HW187080   5.398  12.467   5.093
29018SOL    HW287081   5.263  12.528   5.026
29019SOL     OW87082   4.763  12.270   4.420
29019SOL    HW187083   4.693  12.223   4.474
29019SOL    HW287084   4.822  12.202   4.377
29020SOL     OW87085   4.738  11.408   4.695
29020SOL    HW187086   4.730  11.372   4.602
29020SOL    HW287087   4.736  11.332   4.760
29021SOL     OW87088   5.433  11.557   5.105
29021SOL    HW187089   5.506  11.626   5.109
29021SOL    HW287090   5.461  11.482   5.046
29022SOL     OW87091   3.979  12.520   4.014
29022SOL    HW187092   3.883  12.521   3.987
29022SOL    HW287093   3.991  12.573   4.098
29023SOL     OW87094   3.829  12.185   5.450
29023SOL    HW187095   3.752  12.152   5.504
29023SOL    HW287096   3.914  12.155   5.492
29024SOL     OW87097   4.396  11.375   5.213
29024SOL    HW187098   4.486  11.359   5.173
29024SOL    HW287099   4.404  11.380   5.312
29025SOL     OW87100   3.799  11.517   3.757
29025SOL    HW187101   3.707  11.489   3.728
29025SOL    HW287102   3.830  11.594   3.701
29026SOL     OW87103   5.164  12.028   5.122
29026SOL    HW187104   5.107  12.080   5.059
29026SOL    HW287105   5.260  12.040   5.098
29027SOL     OW87106   3.796  11.338   4.042
29027SOL    HW187107   3.779  11.421   3.988
29027SOL    HW287108   3.886  11.301   4.020
29028SOL     OW87109   4.907  12.507   3.843
29028SOL    HW187110   4.808  12.496   3.845
29028SOL    HW287111   4.941  12.522   3.936
29029SOL     OW87112   4.337  12.014   5.155
29029SOL    HW187113   4.393  12.095   5.138
29029SOL    HW287114   4.396  11.934   5.158
29030SOL     OW87115   4.440  11.737   5.432
29030SOL    HW187116   4.459  11.802   5.506
29030SOL    HW287117   4.500  11.657   5.441
29031SOL     OW87118   5.174  12.392   5.357
29031SOL    HW187119   5.165  12.382   5.456
29031SOL    HW287120   5.270  12.385   5.331
29032SOL     OW87121   5.398  12.055   4.978
29032SOL    HW187122   5.371  11.966   4.941
29032SOL    HW287123   5.399  12.123   4.905
29033SOL     OW87124   4.949  11.497   4.173
29033SOL    HW187125   5.014  11.423   4.162
29033SOL    HW287126   4.969  11.547   4.257
29034SOL     OW87127   4.318  11.917   4.376
29034SOL    HW187128   4.368  12.002   4.357
29034SOL    HW287129   4.230  11.919   4.328
29035SOL     OW87130   5.501  11.514   5.366
29035SOL    HW187131   5.484  11.545   5.272
29035SOL    HW287132   5.417  11.477   5.404
29036SOL     OW87133   5.454  12.106   5.241
29036SOL    HW187134   5.492  12.197   5.256
29036SOL    HW287135   5.446  12.089   5.142
29037SOL     OW87136   4.583  12.546   3.740
29037SOL    HW187137   4.537  12.561   3.828
29037SOL    HW287138   4.627  12.631   3.710
29038SOL     OW87139   4.583  12.128   4.585
29038SOL    HW187140   4.637  12.059   4.633
29038SOL    HW287141   4.551  12.197   4.651
29039SOL     OW87142   4.807  12.156   3.811
29039SOL    HW187143   4.784  12.209   3.729
29039SOL    HW287144   4.888  12.100   3.792
29040SOL     OW87145   3.945  12.486   5.568
29040SOL    HW187146   3.880  12.413   5.547
29040SOL    HW287147   3.949  12.500   5.666
29041SOL     OW87148   3.803  12.412   4.377
29041SOL    HW187149   3.802  12.365   4.465
29041SOL    HW287150   3.885  12.384   4.326
29042SOL     OW87151   4.396  12.563   5.348
29042SOL    HW187152   4.318  12.513   5.386
29042SOL    HW287153   4.393  12.658   5.379
29043SOL     OW87154   5.548  11.364   4.951
29043SOL    HW187155   5.544  11.274   4.995
29043SOL    HW287156   5.551  11.353   4.852
29044SOL     OW87157   4.152  11.596   4.244
29044SOL    HW187158   4.182  11.524   4.182
29044SOL    HW287159   4.113  11.556   4.327
29045SOL     OW87160   5.429  12.659   4.828
29045SOL    HW187161   5.336  12.634   4.801
29045SOL    HW287162   5.455  12.609   4.910
29046SOL     OW87163   4.041  11.719   5.004
29046SOL    HW187164   4.079  11.660   5.076
29046SOL    HW287165   4.081  11.693   4.916
29047SOL     OW87166   5.148  11.386   4.836
29047SOL    HW187167   5.200  11.321   4.891
29047SOL    HW287168   5.099  11.449   4.897
29048SOL     OW87169   4.725  11.206   4.878
29048SOL    HW187170   4.662  11.134   4.847
29048SOL    HW287171   4.818  11.170   4.878
29049SOL     OW87172   4.494  12.502   4.025
29049SOL    HW187173   4.448  12.415   4.042
29049SOL    HW287174   4.585  12.499   4.066
29050SOL     OW87175   4.342  12.739   5.008
29050SOL    HW187176   4.337  12.821   5.065
29050SOL    HW287177   4.431  12.736   4.963
29051SOL     OW87178   5.076  11.224   3.892
29051SOL    HW187179   5.111  11.183   3.808
29051SOL    HW287180   4.986  11.186   3.912
29052SOL     OW87181   5.024  11.625   4.415
29052SOL    HW187182   4.965  11.705   4.419
29052SOL    HW287183   5.039  11.590   4.508
29053SOL     OW87184   5.317  11.393   4.606
29053SOL    HW187185   5.233  11.392   4.660
29053SOL    HW287186   5.319  11.476   4.550
29054SOL     OW87187   3.763  12.249   4.024
29054SOL    HW187188   3.862  12.238   4.015
29054SOL    HW287189   3.723  12.163   4.056
29055SOL     OW87190   3.954  11.800   5.699
29055SOL    HW187191   3.861  11.798   5.736
29055SOL    HW287192   3.955  11.761   5.607
29056SOL     OW87193   3.949  11.447   6.582
29056SOL    HW187194   3.984  11.430   6.674
29056SOL    HW287195   3.861  11.402   6.570
29057SOL     OW87196   3.743  11.540   6.233
29057SOL    HW187197   3.661  11.583   6.272
29057SOL    HW287198   3.715  11.467   6.170
29058SOL     OW87199   4.293  12.447   6.751
29058SOL    HW187200   4.200  12.440   6.714
29058SOL    HW287201   4.304  12.536   6.795
29059SOL     OW87202   5.279  12.683   6.289
29059SOL    HW187203   5.222  12.667   6.370
29059SOL    HW287204   5.220  12.693   6.209
29060SOL     OW87205   4.859  11.875   6.303
29060SOL    HW187206   4.916  11.953   6.278
29060SOL    HW287207   4.799  11.901   6.379
29061SOL     OW87208   5.479  11.779   5.817
29061SOL    HW187209   5.467  11.766   5.718
29061SOL    HW287210   5.449  11.698   5.866
29062SOL     OW87211   4.492  12.316   6.609
29062SOL    HW187212   4.414  12.333   6.669
29062SOL    HW287213   4.526  12.403   6.573
29063SOL     OW87214   4.574  11.970   7.409
29063SOL    HW187215   4.570  12.046   7.474
29063SOL    HW287216   4.596  12.006   7.318
29064SOL     OW87217   4.409  12.184   6.251
29064SOL    HW187218   4.478  12.168   6.321
29064SOL    HW287219   4.336  12.241   6.289
29065SOL     OW87220   4.410  12.333   7.389
29065SOL    HW187221   4.470  12.412   7.403
29065SOL    HW287222   4.324  12.364   7.348
29066SOL     OW87223   4.059  12.607   6.647
29066SOL    HW187224   3.981  12.576   6.594
29066SOL    HW287225   4.117  12.665   6.590
29067SOL     OW87226   5.184  12.677   6.925
29067SOL    HW187227   5.208  12.771   6.951
29067SOL    HW287228   5.168  12.623   7.007
29068SOL     OW87229   4.162  11.564   7.085
29068SOL    HW187230   4.244  11.508   7.094
29068SOL    HW287231   4.081  11.506   7.089
29069SOL     OW87232   5.327  11.619   6.323
29069SOL    HW187233   5.253  11.665   6.273
29069SOL    HW287234   5.378  11.687   6.376
29070SOL     OW87235   3.955  12.885   6.069
29070SOL    HW187236   3.989  12.962   6.123
29070SOL    HW287237   3.999  12.885   5.979
29071SOL     OW87238   4.851  12.513   7.276
29071SOL    HW187239   4.898  12.513   7.364
29071SOL    HW287240   4.803  12.426   7.265
29072SOL     OW87241   3.954  12.606   6.124
29072SOL    HW187242   3.928  12.702   6.124
29072SOL    HW287243   3.883  12.552   6.169
29073SOL     OW87244   3.964  12.263   6.472
29073SOL    HW187245   3.978  12.179   6.524
29073SOL    HW287246   3.909  12.327   6.527
29074SOL     OW87247   4.330  12.136   5.709
29074SOL    HW187248   4.337  12.220   5.655
29074SOL    HW287249   4.376  12.149   5.797
29075SOL     OW87250   5.318  11.286   7.066
29075SOL    HW187251   5.300  11.353   6.994
29075SOL    HW287252   5.315  11.332   7.155
29076SOL     OW87253   3.846  11.815   6.149
29076SOL    HW187254   3.801  11.727   6.166
29076SOL    HW287255   3.845  11.869   6.233
29077SOL     OW87256   3.751  12.768   5.703
29077SOL    HW187257   3.732  12.672   5.724
29077SOL    HW287258   3.718  12.826   5.778
29078SOL     OW87259   5.413  12.094   6.198
29078SOL    HW187260   5.508  12.065   6.206
29078SOL    HW287261   5.405  12.159   6.123
29079SOL     OW87262   5.365  12.280   6.018
29079SOL    HW187263   5.451  12.282   5.966
29079SOL    HW287264   5.379  12.327   6.106
29080SOL     OW87265   3.837  11.909   7.183
29080SOL    HW187266   3.925  11.896   7.228
29080SOL    HW287267   3.824  12.006   7.161
29081SOL     OW87268   4.337  12.537   6.312
29081SOL    HW187269   4.288  12.450   6.321
29081SOL    HW287270   4.314  12.580   6.225
29082SOL     OW87271   5.017  12.400   7.009
29082SOL    HW187272   5.054  12.327   6.951
29082SOL    HW287273   5.069  12.405   7.094
29083SOL     OW87274   4.533  11.176   6.088
29083SOL    HW187275   4.573  11.267   6.079
29083SOL    HW287276   4.433  11.184   6.094
29084SOL     OW87277   3.921  12.148   6.850
29084SOL    HW187278   4.010  12.103   6.836
29084SOL    HW287279   3.848  12.083   6.831
29085SOL     OW87280   5.249  12.171   5.776
29085SOL    HW187281   5.186  12.095   5.789
29085SOL    HW287282   5.297  12.189   5.862
29086SOL     OW87283   4.041  11.423   7.387
29086SOL    HW187284   4.112  11.494   7.393
29086SOL    HW287285   3.953  11.462   7.415
29087SOL     OW87286   5.190  12.589   6.539
29087SOL    HW187287   5.131  12.595   6.619
29087SOL    HW287288   5.175  12.501   6.493
29088SOL     OW87289   4.322  11.901   5.856
29088SOL    HW187290   4.346  11.970   5.788
29088SOL    HW287291   4.244  11.934   5.910
29089SOL     OW87292   5.005  11.517   6.530
29089SOL    HW187293   4.919  11.467   6.517
29089SOL    HW287294   5.067  11.463   6.586
29090SOL     OW87295   4.531  11.777   7.051
29090SOL    HW187296   4.484  11.774   7.140
29090SOL    HW287297   4.480  11.722   6.985
29091SOL     OW87298   5.118  11.641   7.260
29091SOL    HW187299   5.098  11.684   7.348
29091SOL    HW287300   5.196  11.579   7.269
29092SOL     OW87301   4.697  12.062   7.158
29092SOL    HW187302   4.743  11.978   7.129
29092SOL    HW287303   4.641  12.096   7.083
29093SOL     OW87304   4.715  11.582   6.828
29093SOL    HW187305   4.638  11.616   6.882
29093SOL    HW287306   4.681  11.531   6.749
29094SOL     OW87307   4.765  11.873   6.015
29094SOL    HW187308   4.791  11.869   6.111
29094SOL    HW287309   4.680  11.822   6.001
29095SOL     OW87310   3.800  11.983   6.375
29095SOL    HW187311   3.899  11.971   6.384
29095SOL    HW287312   3.776  12.078   6.396
29096SOL     OW87313   4.589  11.520   5.781
29096SOL    HW187314   4.648  11.583   5.732
29096SOL    HW287315   4.608  11.426   5.752
29097SOL     OW87316   5.443  11.757   7.417
29097SOL    HW187317   5.417  11.846   7.381
29097SOL    HW287318   5.441  11.689   7.344
29098SOL     OW87319   5.086  12.316   6.131
29098SOL    HW187320   5.169  12.287   6.083
29098SOL    HW287321   5.037  12.383   6.075
29099SOL     OW87322   4.274  11.368   6.471
29099SOL    HW187323   4.269  11.363   6.571
29099SOL    HW287324   4.276  11.464   6.442
29100SOL     OW87325   4.732  12.628   6.063
29100SOL    HW187326   4.686  12.700   6.011
29100SOL    HW287327   4.728  12.648   6.161
29101SOL     OW87328   5.519  12.238   6.459
29101SOL    HW187329   5.457  12.223   6.383
29101SOL    HW287330   5.467  12.249   6.544
29102SOL     OW87331   4.951  12.722   7.092
29102SOL    HW187332   4.957  12.645   7.156
29102SOL    HW287333   4.899  12.696   7.012
29103SOL     OW87334   4.045  12.115   5.828
29103SOL    HW187335   4.127  12.154   5.786
29103SOL    HW287336   4.018  12.033   5.779
29104SOL     OW87337   5.182  11.907   6.314
29104SOL    HW187338   5.177  11.842   6.389
29104SOL    HW287339   5.262  11.966   6.327
29105SOL     OW87340   4.185  12.438   7.313
29105SOL    HW187341   4.135  12.439   7.227
29105SOL    HW287342   4.122  12.420   7.389
29106SOL     OW87343   4.835  12.948   5.823
29106SOL    HW187344   4.775  12.886   5.873
29106SOL    HW287345   4.866  12.904   5.738
29107SOL     OW87346   3.926  11.457   7.084
29107SOL    HW187347   3.846  11.517   7.071
29107SOL    HW287348   3.916  11.408   7.170
29108SOL     OW87349   5.356  12.549   5.667
29108SOL    HW187350   5.324  12.643   5.657
29108SOL    HW287351   5.280  12.486   5.655
29109SOL     OW87352   5.124  11.279   6.012
29109SOL    HW187353   5.100  11.242   5.922
29109SOL    HW287354   5.223  11.295   6.016
29110SOL     OW87355   4.106  11.872   6.066
29110SOL    HW187356   4.151  11.782   6.063
29110SOL    HW287357   4.012  11.861   6.099
29111SOL     OW87358   5.271  11.394   7.315
29111SOL    HW187359   5.266  11.431   7.407
29111SOL    HW287360   5.199  11.325   7.303
29112SOL     OW87361   4.338  11.294   5.703
29112SOL    HW187362   4.436  11.272   5.710
29112SOL    HW287363   4.307  11.277   5.610
29113SOL     OW87364   4.505  11.436   7.335
29113SOL    HW187365   4.572  11.375   7.378
29113SOL    HW287366   4.432  11.455   7.400
29114SOL     OW87367   5.075  11.762   7.019
29114SOL    HW187368   5.103  11.719   7.104
29114SOL    HW287369   5.100  11.858   7.020
29115SOL     OW87370   4.527  12.574   6.510
29115SOL    HW187371   4.617  12.588   6.468
29115SOL    HW287372   4.456  12.576   6.439
29116SOL     OW87373   4.646  11.675   6.485
29116SOL    HW187374   4.621  11.666   6.389
29116SOL    HW287375   4.694  11.593   6.516
29117SOL     OW87376   4.263  11.236   6.098
29117SOL    HW187377   4.182  11.237   6.156
29117SOL    HW287378   4.266  11.319   6.043
29118SOL     OW87379   5.158  12.360   5.627
29118SOL    HW187380   5.190  12.284   5.684
29118SOL    HW287381   5.066  12.387   5.657
29119SOL     OW87382   4.021  11.207   5.757
29119SOL    HW187383   4.070  11.291   5.736
29119SOL    HW287384   4.083  11.142   5.802
29120SOL     OW87385   4.659  11.408   6.066
29120SOL    HW187386   4.611  11.449   5.988
29120SOL    HW287387   4.758  11.406   6.047
29121SOL     OW87388   4.800  11.855   7.050
29121SOL    HW187389   4.720  11.794   7.053
29121SOL    HW287390   4.881  11.802   7.026
29122SOL     OW87391   4.951  12.742   6.379
29122SOL    HW187392   4.972  12.816   6.314
29122SOL    HW287393   5.019  12.742   6.452
29123SOL     OW87394   4.183  12.324   6.327
29123SOL    HW187395   4.112  12.297   6.392
29123SOL    HW287396   4.157  12.296   6.234
29124SOL     OW87397   4.756  11.721   5.602
29124SOL    HW187398   4.715  11.803   5.563
29124SOL    HW287399   4.820  11.747   5.675
29125SOL     OW87400   3.802  11.728   6.972
29125SOL    HW187401   3.894  11.727   6.931
29125SOL    HW287402   3.796  11.802   7.039
29126SOL     OW87403   4.285  11.394   6.733
29126SOL    HW187404   4.323  11.310   6.770
29126SOL    HW287405   4.197  11.413   6.777
29127SOL     OW87406   4.590  11.626   6.228
29127SOL    HW187407   4.558  11.698   6.166
29127SOL    HW287408   4.614  11.545   6.175
29128SOL     OW87409   4.741  11.211   6.339
29128SOL    HW187410   4.669  11.216   6.270
29128SOL    HW287411   4.717  11.142   6.408
29129SOL     OW87412   5.153  12.345   6.453
29129SOL    HW187413   5.098  12.261   6.446
29129SOL    HW287414   5.179  12.374   6.361
29130SOL     OW87415   5.190  11.762   6.578
29130SOL    HW187416   5.160  11.667   6.585
29130SOL    HW287417   5.263  11.778   6.644
29131SOL     OW87418   5.581  12.005   5.963
29131SOL    HW187419   5.623  11.941   6.027
29131SOL    HW287420   5.543  11.954   5.885
29132SOL     OW87421   4.212  12.557   5.760
29132SOL    HW187422   4.125  12.542   5.807
29132SOL    HW287423   4.195  12.583   5.665
29133SOL     OW87424   5.388  12.452   6.243
29133SOL    HW187425   5.487  12.460   6.257
29133SOL    HW287426   5.343  12.536   6.274
29134SOL     OW87427   5.114  11.747   5.664
29134SOL    HW187428   5.060  11.726   5.745
29134SOL    HW287429   5.205  11.706   5.673
29135SOL     OW87430   4.251  11.428   5.914
29135SOL    HW187431   4.278  11.369   5.839
29135SOL    HW287432   4.251  11.523   5.883
29136SOL     OW87433   5.478  12.395   7.174
29136SOL    HW187434   5.569  12.356   7.161
29136SOL    HW287435   5.486  12.491   7.198
29137SOL     OW87436   4.788  12.519   6.926
29137SOL    HW187437   4.708  12.496   6.981
29137SOL    HW287438   4.871  12.493   6.975
29138SOL     OW87439   4.835  12.367   6.686
29138SOL    HW187440   4.795  12.411   6.767
29138SOL    HW287441   4.794  12.404   6.603
29139SOL     OW87442   5.362  12.271   6.665
29139SOL    HW187443   5.367  12.352   6.724
29139SOL    HW287444   5.276  12.273   6.614
29140SOL     OW87445   4.639  11.261   6.988
29140SOL    HW187446   4.664  11.241   6.893
29140SOL    HW287447   4.711  11.317   7.030
29141SOL     OW87448   4.704  12.288   7.305
29141SOL    HW187449   4.605  12.294   7.315
29141SOL    HW287450   4.727  12.208   7.249
29142SOL     OW87451   4.429  12.222   5.954
29142SOL    HW187452   4.415  12.229   6.053
29142SOL    HW287453   4.513  12.171   5.936
29143SOL     OW87454   4.134  11.985   6.837
29143SOL    HW187455   4.220  11.997   6.887
29143SOL    HW287456   4.092  11.898   6.864
29144SOL     OW87457   4.998  11.558   6.848
29144SOL    HW187458   5.019  11.632   6.912
29144SOL    HW287459   4.909  11.575   6.805
29145SOL     OW87460   4.091  12.272   6.087
29145SOL    HW187461   4.084  12.355   6.031
29145SOL    HW287462   4.095  12.192   6.027
29146SOL     OW87463   4.290  11.709   6.451
29146SOL    HW187464   4.302  11.775   6.377
29146SOL    HW287465   4.336  11.743   6.534
29147SOL     OW87466   4.976  12.520   5.974
29147SOL    HW187467   5.026  12.597   6.014
29147SOL    HW287468   4.881  12.522   6.006
29148SOL     OW87469   4.996  12.617   6.728
29148SOL    HW187470   5.043  12.630   6.815
29148SOL    HW287471   4.930  12.543   6.737
29149SOL     OW87472   5.306  11.811   6.058
29149SOL    HW187473   5.275  11.872   6.131
29149SOL    HW287474   5.356  11.863   5.989
29150SOL     OW87475   4.078  12.682   6.915
29150SOL    HW187476   4.057  12.638   6.828
29150SOL    HW287477   4.175  12.708   6.918
29151SOL     OW87478   4.126  11.923   7.184
29151SOL    HW187479   4.194  11.978   7.137
29151SOL    HW287480   4.166  11.835   7.211
29152SOL     OW87481   5.311  11.951   7.256
29152SOL    HW187482   5.219  11.989   7.251
29152SOL    HW287483   5.371  11.998   7.191
29153SOL     OW87484   4.737  11.277   7.356
29153SOL    HW187485   4.743  11.362   7.304
29153SOL    HW287486   4.769  11.201   7.299
29154SOL     OW87487   4.228  11.222   7.326
29154SOL    HW187488   4.186  11.165   7.256
29154SOL    HW287489   4.162  11.291   7.358
29155SOL     OW87490   4.297  12.042   6.615
29155SOL    HW187491   4.341  12.131   6.606
29155SOL    HW287492   4.234  12.042   6.692
29156SOL     OW87493   5.084  12.034   6.631
29156SOL    HW187494   5.009  12.034   6.565
29156SOL    HW287495   5.121  11.942   6.640
29157SOL     OW87496   4.933  11.697   5.861
29157SOL    HW187497   4.946  11.613   5.915
29157SOL    HW287498   4.904  11.771   5.921
29158SOL     OW87499   4.031  11.385   6.817
29158SOL    HW187500   4.008  11.422   6.907
29158SOL    HW287501   4.001  11.290   6.811
29159SOL     OW87502   3.761  12.482   6.868
29159SOL    HW187503   3.814  12.433   6.936
29159SOL    HW287504   3.783  12.580   6.873
29160SOL     OW87505   4.456  11.806   6.650
29160SOL    HW187506   4.515  11.780   6.574
29160SOL    HW287507   4.428  11.902   6.639
29161SOL     OW87508   5.452  12.107   7.440
29161SOL    HW187509   5.406  12.100   7.351
29161SOL    HW287510   5.390  12.151   7.506
29162SOL     OW87511   4.031  11.235   6.204
29162SOL    HW187512   4.020  11.329   6.237
29162SOL    HW287513   4.026  11.172   6.281
29163SOL     OW87514   5.346  11.539   5.960
29163SOL    HW187515   5.348  11.463   6.024
29163SOL    HW287516   5.298  11.616   6.000
29164SOL     OW87517   4.747  11.938   6.552
29164SOL    HW187518   4.762  11.959   6.648
29164SOL    HW287519   4.717  11.843   6.543
29165SOL     OW87520   5.583  12.690   7.191
29165SOL    HW187521   5.597  12.717   7.096
29165SOL    HW287522   5.666  12.712   7.244
29166SOL     OW87523   4.074  12.070   7.390
29166SOL    HW187524   4.150  12.114   7.438
29166SOL    HW287525   4.109  12.023   7.308
29167SOL     OW87526   5.264  11.446   5.711
29167SOL    HW187527   5.203  11.371   5.734
29167SOL    HW287528   5.286  11.498   5.794
29168SOL     OW87529   5.027  12.010   5.628
29168SOL    HW187530   5.061  11.917   5.643
29168SOL    HW287531   5.045  12.037   5.533
29169SOL     OW87532   4.792  12.505   6.435
29169SOL    HW187533   4.799  12.421   6.380
29169SOL    HW287534   4.854  12.574   6.399
29170SOL     OW87535   4.043  11.982   6.535
29170SOL    HW187536   4.136  12.018   6.540
29170SOL    HW287537   4.037  11.897   6.587
29171SOL     OW87538   4.063  11.681   6.592
29171SOL    HW187539   4.011  11.598   6.575
29171SOL    HW287540   4.140  11.686   6.528
29172SOL     OW87541   4.862  11.552   7.264
29172SOL    HW187542   4.817  11.615   7.328
29172SOL    HW287543   4.955  11.583   7.247
29173SOL     OW87544   4.884  11.379   7.063
29173SOL    HW187545   4.884  11.443   7.140
29173SOL    HW287546   4.912  11.427   6.980
29174SOL     OW87547   3.732  12.498   5.786
29174SOL    HW187548   3.639  12.519   5.755
29174SOL    HW287549   3.742  12.399   5.799
29175SOL     OW87550   4.726  11.968   6.824
29175SOL    HW187551   4.767  11.936   6.910
29175SOL    HW287552   4.630  11.941   6.821
29176SOL     OW87553   3.764  11.716   6.700
29176SOL    HW187554   3.849  11.683   6.659
29176SOL    HW287555   3.777  11.731   6.798
29177SOL     OW87556   3.913  11.692   7.308
29177SOL    HW187557   3.972  11.652   7.238
29177SOL    HW287558   3.855  11.763   7.267
29178SOL     OW87559   5.093  12.122   7.246
29178SOL    HW187560   5.132  12.211   7.266
29178SOL    HW287561   5.103  12.102   7.149
29179SOL     OW87562   4.539  11.744   5.911
29179SOL    HW187563   4.546  11.655   5.865
29179SOL    HW287564   4.445  11.778   5.903
29180SOL     OW87565   5.381  11.776   6.792
29180SOL    HW187566   5.343  11.707   6.854
29180SOL    HW287567   5.463  11.740   6.748
29181SOL     OW87568   3.976  12.736   7.330
29181SOL    HW187569   3.946  12.793   7.406
29181SOL    HW287570   3.969  12.639   7.356
29182SOL     OW87571   4.395  11.636   6.855
29182SOL    HW187572   4.361  11.547   6.825
29182SOL    HW287573   4.421  11.690   6.775
29183SOL     OW87574   4.197  11.672   5.777
29183SOL    HW187575   4.258  11.752   5.781
29183SOL    HW287576   4.102  11.703   5.784
29184SOL     OW87577   3.883  12.309   7.052
29184SOL    HW187578   3.905  12.248   7.128
29184SOL    HW287579   3.893  12.260   6.966
29185SOL     OW87580   5.071  12.231   6.820
29185SOL    HW187581   5.095  12.168   6.746
29185SOL    HW287582   4.981  12.271   6.802
29186SOL     OW87583   5.026  12.027   5.895
29186SOL    HW187584   4.940  11.996   5.937
29186SOL    HW287585   5.022  12.013   5.796
29187SOL     OW87586   3.807  12.430   6.608
29187SOL    HW187587   3.802  12.429   6.708
29187SOL    HW287588   3.724  12.389   6.570
29188SOL     OW87589   5.450  11.307   6.109
29188SOL    HW187590   5.523  11.290   6.042
29188SOL    HW287591   5.419  11.220   6.147
29189SOL     OW87592   5.004  12.099   6.258
29189SOL    HW187593   5.064  12.018   6.260
29189SOL    HW287594   5.044  12.168   6.198
29190SOL     OW87595   4.554  12.445   7.008
29190SOL    HW187596   4.549  12.478   7.103
29190SOL    HW287597   4.468  12.464   6.962
29191SOL     OW87598   5.565  11.347   6.549
29191SOL    HW187599   5.604  11.262   6.513
29191SOL    HW287600   5.467  11.349   6.530
29192SOL     OW87601   3.987  11.498   6.306
29192SOL    HW187602   3.908  11.549   6.272
29192SOL    HW287603   3.978  11.483   6.404
29193SOL     OW87604   4.546  12.174   6.958
29193SOL    HW187605   4.586  12.173   6.866
29193SOL    HW287606   4.556  12.266   6.998
29194SOL     OW87607   4.640  12.082   5.877
29194SOL    HW187608   4.703  12.120   5.809
29194SOL    HW287609   4.680  11.999   5.916
29195SOL     OW87610   4.096  12.460   7.076
29195SOL    HW187611   4.083  12.553   7.042
29195SOL    HW287612   4.012  12.408   7.063
29196SOL     OW87613   5.338  12.464   6.875
29196SOL    HW187614   5.398  12.467   6.955
29196SOL    HW287615   5.263  12.528   6.888
29197SOL     OW87616   4.763  12.270   6.282
29197SOL    HW187617   4.693  12.223   6.336
29197SOL    HW287618   4.822  12.202   6.239
29198SOL     OW87619   4.738  11.408   6.557
29198SOL    HW187620   4.730  11.372   6.464
29198SOL    HW287621   4.736  11.332   6.622
29199SOL     OW87622   5.433  11.557   6.967
29199SOL    HW187623   5.506  11.626   6.971
29199SOL    HW287624   5.461  11.482   6.908
29200SOL     OW87625   3.979  12.520   5.876
29200SOL    HW187626   3.883  12.521   5.849
29200SOL    HW287627   3.991  12.573   5.960
29201SOL     OW87628   3.829  12.185   7.312
29201SOL    HW187629   3.752  12.152   7.366
29201SOL    HW287630   3.914  12.155   7.354
29202SOL     OW87631   4.396  11.375   7.075
29202SOL    HW187632   4.486  11.359   7.035
29202SOL    HW287633   4.404  11.380   7.174
29203SOL     OW87634   3.799  11.517   5.619
29203SOL    HW187635   3.707  11.489   5.590
29203SOL    HW287636   3.830  11.594   5.563
29204SOL     OW87637   5.164  12.028   6.984
29204SOL    HW187638   5.107  12.080   6.921
29204SOL    HW287639   5.260  12.040   6.960
29205SOL     OW87640   3.796  11.338   5.904
29205SOL    HW187641   3.779  11.421   5.850
29205SOL    HW287642   3.886  11.301   5.882
29206SOL     OW87643   4.907  12.507   5.705
29206SOL    HW187644   4.808  12.496   5.707
29206SOL    HW287645   4.941  12.522   5.798
29207SOL     OW87646   4.337  12.014   7.017
29207SOL    HW187647   4.393  12.095   7.000
29207SOL    HW287648   4.396  11.934   7.020
29208SOL     OW87649   4.440  11.737   7.294
29208SOL    HW187650   4.459  11.802   7.368
29208SOL    HW287651   4.500  11.657   7.303
29209SOL     OW87652   5.174  12.392   7.219
29209SOL    HW187653   5.165  12.382   7.318
29209SOL    HW287654   5.270  12.385   7.193
29210SOL     OW87655   5.398  12.055   6.840
29210SOL    HW187656   5.371  11.966   6.803
29210SOL    HW287657   5.399  12.123   6.767
29211SOL     OW87658   4.949  11.497   6.035
29211SOL    HW187659   5.014  11.423   6.024
29211SOL    HW287660   4.969  11.547   6.119
29212SOL     OW87661   4.318  11.917   6.238
29212SOL    HW187662   4.368  12.002   6.219
29212SOL    HW287663   4.230  11.919   6.190
29213SOL     OW87664   5.501  11.514   7.228
29213SOL    HW187665   5.484  11.545   7.134
29213SOL    HW287666   5.417  11.477   7.266
29214SOL     OW87667   5.454  12.106   7.103
29214SOL    HW187668   5.492  12.197   7.118
29214SOL    HW287669   5.446  12.089   7.004
29215SOL     OW87670   4.583  12.546   5.602
29215SOL    HW187671   4.537  12.561   5.690
29215SOL    HW287672   4.627  12.631   5.572
29216SOL     OW87673   4.583  12.128   6.447
29216SOL    HW187674   4.637  12.059   6.495
29216SOL    HW287675   4.551  12.197   6.513
29217SOL     OW87676   4.807  12.156   5.673
29217SOL    HW187677   4.784  12.209   5.591
29217SOL    HW287678   4.888  12.100   5.654
29218SOL     OW87679   3.945  12.486   7.430
29218SOL    HW187680   3.880  12.413   7.409
29218SOL    HW287681   3.949  12.500   7.528
29219SOL     OW87682   3.803  12.412   6.239
29219SOL    HW187683   3.802  12.365   6.327
29219SOL    HW287684   3.885  12.384   6.188
29220SOL     OW87685   4.396  12.563   7.210
29220SOL    HW187686   4.318  12.513   7.248
29220SOL    HW287687   4.393  12.658   7.241
29221SOL     OW87688   5.548  11.364   6.813
29221SOL    HW187689   5.544  11.274   6.857
29221SOL    HW287690   5.551  11.353   6.714
29222SOL     OW87691   4.152  11.596   6.106
29222SOL    HW187692   4.182  11.524   6.044
29222SOL    HW287693   4.113  11.556   6.189
29223SOL     OW87694   5.429  12.659   6.690
29223SOL    HW187695   5.336  12.634   6.663
29223SOL    HW287696   5.455  12.609   6.772
29224SOL     OW87697   4.041  11.719   6.866
29224SOL    HW187698   4.079  11.660   6.938
29224SOL    HW287699   4.081  11.693   6.778
29225SOL     OW87700   5.148  11.386   6.698
29225SOL    HW187701   5.200  11.321   6.753
29225SOL    HW287702   5.099  11.449   6.759
29226SOL     OW87703   4.725  11.206   6.740
29226SOL    HW187704   4.662  11.134   6.709
29226SOL    HW287705   4.818  11.170   6.740
29227SOL     OW87706   4.494  12.502   5.887
29227SOL    HW187707   4.448  12.415   5.904
29227SOL    HW287708   4.585  12.499   5.928
29228SOL     OW87709   4.342  12.739   6.870
29228SOL    HW187710   4.337  12.821   6.927
29228SOL    HW287711   4.431  12.736   6.825
29229SOL     OW87712   5.076  11.224   5.754
29229SOL    HW187713   5.111  11.183   5.670
29229SOL    HW287714   4.986  11.186   5.774
29230SOL     OW87715   5.024  11.625   6.277
29230SOL    HW187716   4.965  11.705   6.281
29230SOL    HW287717   5.039  11.590   6.370
29231SOL     OW87718   5.317  11.393   6.468
29231SOL    HW187719   5.233  11.392   6.522
29231SOL    HW287720   5.319  11.476   6.412
29232SOL     OW87721   3.763  12.249   5.886
29232SOL    HW187722   3.862  12.238   5.877
29232SOL    HW287723   3.723  12.163   5.918
29233SOL     OW87724   3.954  11.800   7.561
29233SOL    HW187725   3.861  11.798   7.598
29233SOL    HW287726   3.955  11.761   7.469
29234SOL     OW87727   3.949  11.447   8.444
29234SOL    HW187728   3.984  11.430   8.536
29234SOL    HW287729   3.861  11.402   8.432
29235SOL     OW87730   3.743  11.540   8.095
29235SOL    HW187731   3.661  11.583   8.134
29235SOL    HW287732   3.715  11.467   8.032
29236SOL     OW87733   4.293  12.447   8.613
29236SOL    HW187734   4.200  12.440   8.576
29236SOL    HW287735   4.304  12.536   8.657
29237SOL     OW87736   5.279  12.683   8.151
29237SOL    HW187737   5.222  12.667   8.232
29237SOL    HW287738   5.220  12.693   8.071
29238SOL     OW87739   4.859  11.875   8.165
29238SOL    HW187740   4.916  11.953   8.140
29238SOL    HW287741   4.799  11.901   8.241
29239SOL     OW87742   5.479  11.779   7.679
29239SOL    HW187743   5.467  11.766   7.580
29239SOL    HW287744   5.449  11.698   7.728
29240SOL     OW87745   4.492  12.316   8.471
29240SOL    HW187746   4.414  12.333   8.531
29240SOL    HW287747   4.526  12.403   8.435
29241SOL     OW87748   4.574  11.970   9.271
29241SOL    HW187749   4.570  12.046   9.336
29241SOL    HW287750   4.596  12.006   9.180
29242SOL     OW87751   4.409  12.184   8.113
29242SOL    HW187752   4.478  12.168   8.183
29242SOL    HW287753   4.336  12.241   8.151
29243SOL     OW87754   4.410  12.333   9.251
29243SOL    HW187755   4.470  12.412   9.265
29243SOL    HW287756   4.324  12.364   9.210
29244SOL     OW87757   4.059  12.607   8.509
29244SOL    HW187758   3.981  12.576   8.456
29244SOL    HW287759   4.117  12.665   8.452
29245SOL     OW87760   5.184  12.677   8.787
29245SOL    HW187761   5.208  12.771   8.813
29245SOL    HW287762   5.168  12.623   8.869
29246SOL     OW87763   4.162  11.564   8.947
29246SOL    HW187764   4.244  11.508   8.956
29246SOL    HW287765   4.081  11.506   8.951
29247SOL     OW87766   5.327  11.619   8.185
29247SOL    HW187767   5.253  11.665   8.135
29247SOL    HW287768   5.378  11.687   8.238
29248SOL     OW87769   3.955  12.885   7.931
29248SOL    HW187770   3.989  12.962   7.985
29248SOL    HW287771   3.999  12.885   7.841
29249SOL     OW87772   4.851  12.513   9.138
29249SOL    HW187773   4.898  12.513   9.226
29249SOL    HW287774   4.803  12.426   9.127
29250SOL     OW87775   3.954  12.606   7.986
29250SOL    HW187776   3.928  12.702   7.986
29250SOL    HW287777   3.883  12.552   8.031
29251SOL     OW87778   3.964  12.263   8.334
29251SOL    HW187779   3.978  12.179   8.386
29251SOL    HW287780   3.909  12.327   8.389
29252SOL     OW87781   4.330  12.136   7.571
29252SOL    HW187782   4.337  12.220   7.517
29252SOL    HW287783   4.376  12.149   7.659
29253SOL     OW87784   5.318  11.286   8.928
29253SOL    HW187785   5.300  11.353   8.856
29253SOL    HW287786   5.315  11.332   9.017
29254SOL     OW87787   3.846  11.815   8.011
29254SOL    HW187788   3.801  11.727   8.028
29254SOL    HW287789   3.845  11.869   8.095
29255SOL     OW87790   3.751  12.768   7.565
29255SOL    HW187791   3.732  12.672   7.586
29255SOL    HW287792   3.718  12.826   7.640
29256SOL     OW87793   5.413  12.094   8.060
29256SOL    HW187794   5.508  12.065   8.068
29256SOL    HW287795   5.405  12.159   7.985
29257SOL     OW87796   5.365  12.280   7.880
29257SOL    HW187797   5.451  12.282   7.828
29257SOL    HW287798   5.379  12.327   7.968
29258SOL     OW87799   3.837  11.909   9.045
29258SOL    HW187800   3.925  11.896   9.090
29258SOL    HW287801   3.824  12.006   9.023
29259SOL     OW87802   4.337  12.537   8.174
29259SOL    HW187803   4.288  12.450   8.183
29259SOL    HW287804   4.314  12.580   8.087
29260SOL     OW87805   5.017  12.400   8.871
29260SOL    HW187806   5.054  12.327   8.813
29260SOL    HW287807   5.069  12.405   8.956
29261SOL     OW87808   4.533  11.176   7.950
29261SOL    HW187809   4.573  11.267   7.941
29261SOL    HW287810   4.433  11.184   7.956
29262SOL     OW87811   3.921  12.148   8.712
29262SOL    HW187812   4.010  12.103   8.698
29262SOL    HW287813   3.848  12.083   8.693
29263SOL     OW87814   5.249  12.171   7.638
29263SOL    HW187815   5.186  12.095   7.651
29263SOL    HW287816   5.297  12.189   7.724
29264SOL     OW87817   4.041  11.423   9.249
29264SOL    HW187818   4.112  11.494   9.255
29264SOL    HW287819   3.953  11.462   9.277
29265SOL     OW87820   5.190  12.589   8.401
29265SOL    HW187821   5.131  12.595   8.481
29265SOL    HW287822   5.175  12.501   8.355
29266SOL     OW87823   4.322  11.901   7.718
29266SOL    HW187824   4.346  11.970   7.650
29266SOL    HW287825   4.244  11.934   7.772
29267SOL     OW87826   5.005  11.517   8.392
29267SOL    HW187827   4.919  11.467   8.379
29267SOL    HW287828   5.067  11.463   8.448
29268SOL     OW87829   4.531  11.777   8.913
29268SOL    HW187830   4.484  11.774   9.002
29268SOL    HW287831   4.480  11.722   8.847
29269SOL     OW87832   5.118  11.641   9.122
29269SOL    HW187833   5.098  11.684   9.210
29269SOL    HW287834   5.196  11.579   9.131
29270SOL     OW87835   4.697  12.062   9.020
29270SOL    HW187836   4.743  11.978   8.991
29270SOL    HW287837   4.641  12.096   8.945
29271SOL     OW87838   4.715  11.582   8.690
29271SOL    HW187839   4.638  11.616   8.744
29271SOL    HW287840   4.681  11.531   8.611
29272SOL     OW87841   4.765  11.873   7.877
29272SOL    HW187842   4.791  11.869   7.973
29272SOL    HW287843   4.680  11.822   7.863
29273SOL     OW87844   3.800  11.983   8.237
29273SOL    HW187845   3.899  11.971   8.246
29273SOL    HW287846   3.776  12.078   8.258
29274SOL     OW87847   4.589  11.520   7.643
29274SOL    HW187848   4.648  11.583   7.594
29274SOL    HW287849   4.608  11.426   7.614
29275SOL     OW87850   5.443  11.757   9.279
29275SOL    HW187851   5.417  11.846   9.243
29275SOL    HW287852   5.441  11.689   9.206
29276SOL     OW87853   5.086  12.316   7.993
29276SOL    HW187854   5.169  12.287   7.945
29276SOL    HW287855   5.037  12.383   7.937
29277SOL     OW87856   4.274  11.368   8.333
29277SOL    HW187857   4.269  11.363   8.433
29277SOL    HW287858   4.276  11.464   8.304
29278SOL     OW87859   4.732  12.628   7.925
29278SOL    HW187860   4.686  12.700   7.873
29278SOL    HW287861   4.728  12.648   8.023
29279SOL     OW87862   5.519  12.238   8.321
29279SOL    HW187863   5.457  12.223   8.245
29279SOL    HW287864   5.467  12.249   8.406
29280SOL     OW87865   4.951  12.722   8.954
29280SOL    HW187866   4.957  12.645   9.018
29280SOL    HW287867   4.899  12.696   8.874
29281SOL     OW87868   4.045  12.115   7.690
29281SOL    HW187869   4.127  12.154   7.648
29281SOL    HW287870   4.018  12.033   7.641
29282SOL     OW87871   5.182  11.907   8.176
29282SOL    HW187872   5.177  11.842   8.251
29282SOL    HW287873   5.262  11.966   8.189
29283SOL     OW87874   4.185  12.438   9.175
29283SOL    HW187875   4.135  12.439   9.089
29283SOL    HW287876   4.122  12.420   9.251
29284SOL     OW87877   4.835  12.948   7.685
29284SOL    HW187878   4.775  12.886   7.735
29284SOL    HW287879   4.866  12.904   7.600
29285SOL     OW87880   3.926  11.457   8.946
29285SOL    HW187881   3.846  11.517   8.933
29285SOL    HW287882   3.916  11.408   9.032
29286SOL     OW87883   5.356  12.549   7.529
29286SOL    HW187884   5.324  12.643   7.519
29286SOL    HW287885   5.280  12.486   7.517
29287SOL     OW87886   5.124  11.279   7.874
29287SOL    HW187887   5.100  11.242   7.784
29287SOL    HW287888   5.223  11.295   7.878
29288SOL     OW87889   4.106  11.872   7.928
29288SOL    HW187890   4.151  11.782   7.925
29288SOL    HW287891   4.012  11.861   7.961
29289SOL     OW87892   5.271  11.394   9.177
29289SOL    HW187893   5.266  11.431   9.269
29289SOL    HW287894   5.199  11.325   9.165
29290SOL     OW87895   4.338  11.294   7.565
29290SOL    HW187896   4.436  11.272   7.572
29290SOL    HW287897   4.307  11.277   7.472
29291SOL     OW87898   4.505  11.436   9.197
29291SOL    HW187899   4.572  11.375   9.240
29291SOL    HW287900   4.432  11.455   9.262
29292SOL     OW87901   5.075  11.762   8.881
29292SOL    HW187902   5.103  11.719   8.966
29292SOL    HW287903   5.100  11.858   8.882
29293SOL     OW87904   4.527  12.574   8.372
29293SOL    HW187905   4.617  12.588   8.330
29293SOL    HW287906   4.456  12.576   8.301
29294SOL     OW87907   4.646  11.675   8.347
29294SOL    HW187908   4.621  11.666   8.251
29294SOL    HW287909   4.694  11.593   8.378
29295SOL     OW87910   4.263  11.236   7.960
29295SOL    HW187911   4.182  11.237   8.018
29295SOL    HW287912   4.266  11.319   7.905
29296SOL     OW87913   5.158  12.360   7.489
29296SOL    HW187914   5.190  12.284   7.546
29296SOL    HW287915   5.066  12.387   7.519
29297SOL     OW87916   4.021  11.207   7.619
29297SOL    HW187917   4.070  11.291   7.598
29297SOL    HW287918   4.083  11.142   7.664
29298SOL     OW87919   4.659  11.408   7.928
29298SOL    HW187920   4.611  11.449   7.850
29298SOL    HW287921   4.758  11.406   7.909
29299SOL     OW87922   4.800  11.855   8.912
29299SOL    HW187923   4.720  11.794   8.915
29299SOL    HW287924   4.881  11.802   8.888
29300SOL     OW87925   4.951  12.742   8.241
29300SOL    HW187926   4.972  12.816   8.176
29300SOL    HW287927   5.019  12.742   8.314
29301SOL     OW87928   4.183  12.324   8.189
29301SOL    HW187929   4.112  12.297   8.254
29301SOL    HW287930   4.157  12.296   8.096
29302SOL     OW87931   4.756  11.721   7.464
29302SOL    HW187932   4.715  11.803   7.425
29302SOL    HW287933   4.820  11.747   7.537
29303SOL     OW87934   3.802  11.728   8.834
29303SOL    HW187935   3.894  11.727   8.793
29303SOL    HW287936   3.796  11.802   8.901
29304SOL     OW87937   4.285  11.394   8.595
29304SOL    HW187938   4.323  11.310   8.632
29304SOL    HW287939   4.197  11.413   8.639
29305SOL     OW87940   4.590  11.626   8.090
29305SOL    HW187941   4.558  11.698   8.028
29305SOL    HW287942   4.614  11.545   8.037
29306SOL     OW87943   4.741  11.211   8.201
29306SOL    HW187944   4.669  11.216   8.132
29306SOL    HW287945   4.717  11.142   8.270
29307SOL     OW87946   5.153  12.345   8.315
29307SOL    HW187947   5.098  12.261   8.308
29307SOL    HW287948   5.179  12.374   8.223
29308SOL     OW87949   5.190  11.762   8.440
29308SOL    HW187950   5.160  11.667   8.447
29308SOL    HW287951   5.263  11.778   8.506
29309SOL     OW87952   5.581  12.005   7.825
29309SOL    HW187953   5.623  11.941   7.889
29309SOL    HW287954   5.543  11.954   7.747
29310SOL     OW87955   4.212  12.557   7.622
29310SOL    HW187956   4.125  12.542   7.669
29310SOL    HW287957   4.195  12.583   7.527
29311SOL     OW87958   5.388  12.452   8.105
29311SOL    HW187959   5.487  12.460   8.119
29311SOL    HW287960   5.343  12.536   8.136
29312SOL     OW87961   5.114  11.747   7.526
29312SOL    HW187962   5.060  11.726   7.607
29312SOL    HW287963   5.205  11.706   7.535
29313SOL     OW87964   4.251  11.428   7.776
29313SOL    HW187965   4.278  11.369   7.701
29313SOL    HW287966   4.251  11.523   7.745
29314SOL     OW87967   5.478  12.395   9.036
29314SOL    HW187968   5.569  12.356   9.023
29314SOL    HW287969   5.486  12.491   9.060
29315SOL     OW87970   4.788  12.519   8.788
29315SOL    HW187971   4.708  12.496   8.843
29315SOL    HW287972   4.871  12.493   8.837
29316SOL     OW87973   4.835  12.367   8.548
29316SOL    HW187974   4.795  12.411   8.629
29316SOL    HW287975   4.794  12.404   8.465
29317SOL     OW87976   5.362  12.271   8.527
29317SOL    HW187977   5.367  12.352   8.586
29317SOL    HW287978   5.276  12.273   8.476
29318SOL     OW87979   4.639  11.261   8.850
29318SOL    HW187980   4.664  11.241   8.755
29318SOL    HW287981   4.711  11.317   8.892
29319SOL     OW87982   4.704  12.288   9.167
29319SOL    HW187983   4.605  12.294   9.177
29319SOL    HW287984   4.727  12.208   9.111
29320SOL     OW87985   4.429  12.222   7.816
29320SOL    HW187986   4.415  12.229   7.915
29320SOL    HW287987   4.513  12.171   7.798
29321SOL     OW87988   4.134  11.985   8.699
29321SOL    HW187989   4.220  11.997   8.749
29321SOL    HW287990   4.092  11.898   8.726
29322SOL     OW87991   4.998  11.558   8.710
29322SOL    HW187992   5.019  11.632   8.774
29322SOL    HW287993   4.909  11.575   8.667
29323SOL     OW87994   4.091  12.272   7.949
29323SOL    HW187995   4.084  12.355   7.893
29323SOL    HW287996   4.095  12.192   7.889
29324SOL     OW87997   4.290  11.709   8.313
29324SOL    HW187998   4.302  11.775   8.239
29324SOL    HW287999   4.336  11.743   8.396
29325SOL     OW88000   4.976  12.520   7.836
29325SOL    HW188001   5.026  12.597   7.876
29325SOL    HW288002   4.881  12.522   7.868
29326SOL     OW88003   4.996  12.617   8.590
29326SOL    HW188004   5.043  12.630   8.677
29326SOL    HW288005   4.930  12.543   8.599
29327SOL     OW88006   5.306  11.811   7.920
29327SOL    HW188007   5.275  11.872   7.993
29327SOL    HW288008   5.356  11.863   7.851
29328SOL     OW88009   4.078  12.682   8.777
29328SOL    HW188010   4.057  12.638   8.690
29328SOL    HW288011   4.175  12.708   8.780
29329SOL     OW88012   4.126  11.923   9.046
29329SOL    HW188013   4.194  11.978   8.999
29329SOL    HW288014   4.166  11.835   9.073
29330SOL     OW88015   5.311  11.951   9.118
29330SOL    HW188016   5.219  11.989   9.113
29330SOL    HW288017   5.371  11.998   9.053
29331SOL     OW88018   4.737  11.277   9.218
29331SOL    HW188019   4.743  11.362   9.166
29331SOL    HW288020   4.769  11.201   9.161
29332SOL     OW88021   4.228  11.222   9.188
29332SOL    HW188022   4.186  11.165   9.118
29332SOL    HW288023   4.162  11.291   9.220
29333SOL     OW88024   4.297  12.042   8.477
29333SOL    HW188025   4.341  12.131   8.468
29333SOL    HW288026   4.234  12.042   8.554
29334SOL     OW88027   5.084  12.034   8.493
29334SOL    HW188028   5.009  12.034   8.427
29334SOL    HW288029   5.121  11.942   8.502
29335SOL     OW88030   4.933  11.697   7.723
29335SOL    HW188031   4.946  11.613   7.777
29335SOL    HW288032   4.904  11.771   7.783
29336SOL     OW88033   4.031  11.385   8.679
29336SOL    HW188034   4.008  11.422   8.769
29336SOL    HW288035   4.001  11.290   8.673
29337SOL     OW88036   3.761  12.482   8.730
29337SOL    HW188037   3.814  12.433   8.798
29337SOL    HW288038   3.783  12.580   8.735
29338SOL     OW88039   4.456  11.806   8.512
29338SOL    HW188040   4.515  11.780   8.436
29338SOL    HW288041   4.428  11.902   8.501
29339SOL     OW88042   5.452  12.107   9.302
29339SOL    HW188043   5.406  12.100   9.213
29339SOL    HW288044   5.390  12.151   9.368
29340SOL     OW88045   4.031  11.235   8.066
29340SOL    HW188046   4.020  11.329   8.099
29340SOL    HW288047   4.026  11.172   8.143
29341SOL     OW88048   5.346  11.539   7.822
29341SOL    HW188049   5.348  11.463   7.886
29341SOL    HW288050   5.298  11.616   7.862
29342SOL     OW88051   4.747  11.938   8.414
29342SOL    HW188052   4.762  11.959   8.510
29342SOL    HW288053   4.717  11.843   8.405
29343SOL     OW88054   5.583  12.690   9.053
29343SOL    HW188055   5.597  12.717   8.958
29343SOL    HW288056   5.666  12.712   9.106
29344SOL     OW88057   4.074  12.070   9.252
29344SOL    HW188058   4.150  12.114   9.300
29344SOL    HW288059   4.109  12.023   9.170
29345SOL     OW88060   5.264  11.446   7.573
29345SOL    HW188061   5.203  11.371   7.596
29345SOL    HW288062   5.286  11.498   7.656
29346SOL     OW88063   5.027  12.010   7.490
29346SOL    HW188064   5.061  11.917   7.505
29346SOL    HW288065   5.045  12.037   7.395
29347SOL     OW88066   4.792  12.505   8.297
29347SOL    HW188067   4.799  12.421   8.242
29347SOL    HW288068   4.854  12.574   8.261
29348SOL     OW88069   4.043  11.982   8.397
29348SOL    HW188070   4.136  12.018   8.402
29348SOL    HW288071   4.037  11.897   8.449
29349SOL     OW88072   4.063  11.681   8.454
29349SOL    HW188073   4.011  11.598   8.437
29349SOL    HW288074   4.140  11.686   8.390
29350SOL     OW88075   4.862  11.552   9.126
29350SOL    HW188076   4.817  11.615   9.190
29350SOL    HW288077   4.955  11.583   9.109
29351SOL     OW88078   4.884  11.379   8.925
29351SOL    HW188079   4.884  11.443   9.002
29351SOL    HW288080   4.912  11.427   8.842
29352SOL     OW88081   3.732  12.498   7.648
29352SOL    HW188082   3.639  12.519   7.617
29352SOL    HW288083   3.742  12.399   7.661
29353SOL     OW88084   4.726  11.968   8.686
29353SOL    HW188085   4.767  11.936   8.772
29353SOL    HW288086   4.630  11.941   8.683
29354SOL     OW88087   3.764  11.716   8.562
29354SOL    HW188088   3.849  11.683   8.521
29354SOL    HW288089   3.777  11.731   8.660
29355SOL     OW88090   3.913  11.692   9.170
29355SOL    HW188091   3.972  11.652   9.100
29355SOL    HW288092   3.855  11.763   9.129
29356SOL     OW88093   5.093  12.122   9.108
29356SOL    HW188094   5.132  12.211   9.128
29356SOL    HW288095   5.103  12.102   9.011
29357SOL     OW88096   4.539  11.744   7.773
29357SOL    HW188097   4.546  11.655   7.727
29357SOL    HW288098   4.445  11.778   7.765
29358SOL     OW88099   5.381  11.776   8.654
29358SOL    HW188100   5.343  11.707   8.716
29358SOL    HW288101   5.463  11.740   8.610
29359SOL     OW88102   3.976  12.736   9.192
29359SOL    HW188103   3.946  12.793   9.268
29359SOL    HW288104   3.969  12.639   9.218
29360SOL     OW88105   4.395  11.636   8.717
29360SOL    HW188106   4.361  11.547   8.687
29360SOL    HW288107   4.421  11.690   8.637
29361SOL     OW88108   4.197  11.672   7.639
29361SOL    HW188109   4.258  11.752   7.643
29361SOL    HW288110   4.102  11.703   7.646
29362SOL     OW88111   3.883  12.309   8.914
29362SOL    HW188112   3.905  12.248   8.990
29362SOL    HW288113   3.893  12.260   8.828
29363SOL     OW88114   5.071  12.231   8.682
29363SOL    HW188115   5.095  12.168   8.608
29363SOL    HW288116   4.981  12.271   8.664
29364SOL     OW88117   5.026  12.027   7.757
29364SOL    HW188118   4.940  11.996   7.799
29364SOL    HW288119   5.022  12.013   7.658
29365SOL     OW88120   3.807  12.430   8.470
29365SOL    HW188121   3.802  12.429   8.570
29365SOL    HW288122   3.724  12.389   8.432
29366SOL     OW88123   5.450  11.307   7.971
29366SOL    HW188124   5.523  11.290   7.904
29366SOL    HW288125   5.419  11.220   8.009
29367SOL     OW88126   5.004  12.099   8.120
29367SOL    HW188127   5.064  12.018   8.122
29367SOL    HW288128   5.044  12.168   8.060
29368SOL     OW88129   4.554  12.445   8.870
29368SOL    HW188130   4.549  12.478   8.965
29368SOL    HW288131   4.468  12.464   8.824
29369SOL     OW88132   5.565  11.347   8.411
29369SOL    HW188133   5.604  11.262   8.375
29369SOL    HW288134   5.467  11.349   8.392
29370SOL     OW88135   3.987  11.498   8.168
29370SOL    HW188136   3.908  11.549   8.134
29370SOL    HW288137   3.978  11.483   8.266
29371SOL     OW88138   4.546  12.174   8.820
29371SOL    HW188139   4.586  12.173   8.728
29371SOL    HW288140   4.556  12.266   8.860
29372SOL     OW88141   4.640  12.082   7.739
29372SOL    HW188142   4.703  12.120   7.671
29372SOL    HW288143   4.680  11.999   7.778
29373SOL     OW88144   4.096  12.460   8.938
29373SOL    HW188145   4.083  12.553   8.904
29373SOL    HW288146   4.012  12.408   8.925
29374SOL     OW88147   5.338  12.464   8.737
29374SOL    HW188148   5.398  12.467   8.817
29374SOL    HW288149   5.263  12.528   8.750
29375SOL     OW88150   4.763  12.270   8.144
29375SOL    HW188151   4.693  12.223   8.198
29375SOL    HW288152   4.822  12.202   8.101
29376SOL     OW88153   4.738  11.408   8.419
29376SOL    HW188154   4.730  11.372   8.326
29376SOL    HW288155   4.736  11.332   8.484
29377SOL     OW88156   5.433  11.557   8.829
29377SOL    HW188157   5.506  11.626   8.833
29377SOL    HW288158   5.461  11.482   8.770
29378SOL     OW88159   3.979  12.520   7.738
29378SOL    HW188160   3.883  12.521   7.711
29378SOL    HW288161   3.991  12.573   7.822
29379SOL     OW88162   3.829  12.185   9.174
29379SOL    HW188163   3.752  12.152   9.228
29379SOL    HW288164   3.914  12.155   9.216
29380SOL     OW88165   4.396  11.375   8.937
29380SOL    HW188166   4.486  11.359   8.897
29380SOL    HW288167   4.404  11.380   9.036
29381SOL     OW88168   3.799  11.517   7.481
29381SOL    HW188169   3.707  11.489   7.452
29381SOL    HW288170   3.830  11.594   7.425
29382SOL     OW88171   5.164  12.028   8.846
29382SOL    HW188172   5.107  12.080   8.783
29382SOL    HW288173   5.260  12.040   8.822
29383SOL     OW88174   3.796  11.338   7.766
29383SOL    HW188175   3.779  11.421   7.712
29383SOL    HW288176   3.886  11.301   7.744
29384SOL     OW88177   4.907  12.507   7.567
29384SOL    HW188178   4.808  12.496   7.569
29384SOL    HW288179   4.941  12.522   7.660
29385SOL     OW88180   4.337  12.014   8.879
29385SOL    HW188181   4.393  12.095   8.862
29385SOL    HW288182   4.396  11.934   8.882
29386SOL     OW88183   4.440  11.737   9.156
29386SOL    HW188184   4.459  11.802   9.230
29386SOL    HW288185   4.500  11.657   9.165
29387SOL     OW88186   5.174  12.392   9.081
29387SOL    HW188187   5.165  12.382   9.180
29387SOL    HW288188   5.270  12.385   9.055
29388SOL     OW88189   5.398  12.055   8.702
29388SOL    HW188190   5.371  11.966   8.665
29388SOL    HW288191   5.399  12.123   8.629
29389SOL     OW88192   4.949  11.497   7.897
29389SOL    HW188193   5.014  11.423   7.886
29389SOL    HW288194   4.969  11.547   7.981
29390SOL     OW88195   4.318  11.917   8.100
29390SOL    HW188196   4.368  12.002   8.081
29390SOL    HW288197   4.230  11.919   8.052
29391SOL     OW88198   5.501  11.514   9.090
29391SOL    HW188199   5.484  11.545   8.996
29391SOL    HW288200   5.417  11.477   9.128
29392SOL     OW88201   5.454  12.106   8.965
29392SOL    HW188202   5.492  12.197   8.980
29392SOL    HW288203   5.446  12.089   8.866
29393SOL     OW88204   4.583  12.546   7.464
29393SOL    HW188205   4.537  12.561   7.552
29393SOL    HW288206   4.627  12.631   7.434
29394SOL     OW88207   4.583  12.128   8.309
29394SOL    HW188208   4.637  12.059   8.357
29394SOL    HW288209   4.551  12.197   8.375
29395SOL     OW88210   4.807  12.156   7.535
29395SOL    HW188211   4.784  12.209   7.453
29395SOL    HW288212   4.888  12.100   7.516
29396SOL     OW88213   3.945  12.486   9.292
29396SOL    HW188214   3.880  12.413   9.271
29396SOL    HW288215   3.949  12.500   9.390
29397SOL     OW88216   3.803  12.412   8.101
29397SOL    HW188217   3.802  12.365   8.189
29397SOL    HW288218   3.885  12.384   8.050
29398SOL     OW88219   4.396  12.563   9.072
29398SOL    HW188220   4.318  12.513   9.110
29398SOL    HW288221   4.393  12.658   9.103
29399SOL     OW88222   5.548  11.364   8.675
29399SOL    HW188223   5.544  11.274   8.719
29399SOL    HW288224   5.551  11.353   8.576
29400SOL     OW88225   4.152  11.596   7.968
29400SOL    HW188226   4.182  11.524   7.906
29400SOL    HW288227   4.113  11.556   8.051
29401SOL     OW88228   5.429  12.659   8.552
29401SOL    HW188229   5.336  12.634   8.525
29401SOL    HW288230   5.455  12.609   8.634
29402SOL     OW88231   4.041  11.719   8.728
29402SOL    HW188232   4.079  11.660   8.800
29402SOL    HW288233   4.081  11.693   8.640
29403SOL     OW88234   5.148  11.386   8.560
29403SOL    HW188235   5.200  11.321   8.615
29403SOL    HW288236   5.099  11.449   8.621
29404SOL     OW88237   4.725  11.206   8.602
29404SOL    HW188238   4.662  11.134   8.571
29404SOL    HW288239   4.818  11.170   8.602
29405SOL     OW88240   4.494  12.502   7.749
29405SOL    HW188241   4.448  12.415   7.766
29405SOL    HW288242   4.585  12.499   7.790
29406SOL     OW88243   4.342  12.739   8.732
29406SOL    HW188244   4.337  12.821   8.789
29406SOL    HW288245   4.431  12.736   8.687
29407SOL     OW88246   5.076  11.224   7.616
29407SOL    HW188247   5.111  11.183   7.532
29407SOL    HW288248   4.986  11.186   7.636
29408SOL     OW88249   5.024  11.625   8.139
29408SOL    HW188250   4.965  11.705   8.143
29408SOL    HW288251   5.039  11.590   8.232
29409SOL     OW88252   5.317  11.393   8.330
29409SOL    HW188253   5.233  11.392   8.384
29409SOL    HW288254   5.319  11.476   8.274
29410SOL     OW88255   3.763  12.249   7.748
29410SOL    HW188256   3.862  12.238   7.739
29410SOL    HW288257   3.723  12.163   7.780
29411SOL     OW88258   3.954  11.800   9.423
29411SOL    HW188259   3.861  11.798   9.460
29411SOL    HW288260   3.955  11.761   9.331
29412SOL     OW88261   3.949  11.447  10.306
29412SOL    HW188262   3.984  11.430  10.398
29412SOL    HW288263   3.861  11.402  10.294
29413SOL     OW88264   3.743  11.540   9.957
29413SOL    HW188265   3.661  11.583   9.996
29413SOL    HW288266   3.715  11.467   9.894
29414SOL     OW88267   4.293  12.447  10.475
29414SOL    HW188268   4.200  12.440  10.438
29414SOL    HW288269   4.304  12.536  10.519
29415SOL     OW88270   5.279  12.683  10.013
29415SOL    HW188271   5.222  12.667  10.094
29415SOL    HW288272   5.220  12.693   9.933
29416SOL     OW88273   4.859  11.875  10.027
29416SOL    HW188274   4.916  11.953  10.002
29416SOL    HW288275   4.799  11.901  10.103
29417SOL     OW88276   5.479  11.779   9.541
29417SOL    HW188277   5.467  11.766   9.442
29417SOL    HW288278   5.449  11.698   9.590
29418SOL     OW88279   4.492  12.316  10.333
29418SOL    HW188280   4.414  12.333  10.393
29418SOL    HW288281   4.526  12.403  10.297
29419SOL     OW88282   4.574  11.970  11.133
29419SOL    HW188283   4.570  12.046  11.198
29419SOL    HW288284   4.596  12.006  11.042
29420SOL     OW88285   4.409  12.184   9.975
29420SOL    HW188286   4.478  12.168  10.045
29420SOL    HW288287   4.336  12.241  10.013
29421SOL     OW88288   4.410  12.333  11.113
29421SOL    HW188289   4.470  12.412  11.127
29421SOL    HW288290   4.324  12.364  11.072
29422SOL     OW88291   4.059  12.607  10.371
29422SOL    HW188292   3.981  12.576  10.318
29422SOL    HW288293   4.117  12.665  10.314
29423SOL     OW88294   5.184  12.677  10.649
29423SOL    HW188295   5.208  12.771  10.675
29423SOL    HW288296   5.168  12.623  10.731
29424SOL     OW88297   4.162  11.564  10.809
29424SOL    HW188298   4.244  11.508  10.818
29424SOL    HW288299   4.081  11.506  10.813
29425SOL     OW88300   5.327  11.619  10.047
29425SOL    HW188301   5.253  11.665   9.997
29425SOL    HW288302   5.378  11.687  10.100
29426SOL     OW88303   3.955  12.885   9.793
29426SOL    HW188304   3.989  12.962   9.847
29426SOL    HW288305   3.999  12.885   9.703
29427SOL     OW88306   4.851  12.513  11.000
29427SOL    HW188307   4.898  12.513  11.088
29427SOL    HW288308   4.803  12.426  10.989
29428SOL     OW88309   3.954  12.606   9.848
29428SOL    HW188310   3.928  12.702   9.848
29428SOL    HW288311   3.883  12.552   9.893
29429SOL     OW88312   3.964  12.263  10.196
29429SOL    HW188313   3.978  12.179  10.248
29429SOL    HW288314   3.909  12.327  10.251
29430SOL     OW88315   4.330  12.136   9.433
29430SOL    HW188316   4.337  12.220   9.379
29430SOL    HW288317   4.376  12.149   9.521
29431SOL     OW88318   5.318  11.286  10.790
29431SOL    HW188319   5.300  11.353  10.718
29431SOL    HW288320   5.315  11.332  10.879
29432SOL     OW88321   3.846  11.815   9.873
29432SOL    HW188322   3.801  11.727   9.890
29432SOL    HW288323   3.845  11.869   9.957
29433SOL     OW88324   3.751  12.768   9.427
29433SOL    HW188325   3.732  12.672   9.448
29433SOL    HW288326   3.718  12.826   9.502
29434SOL     OW88327   5.413  12.094   9.922
29434SOL    HW188328   5.508  12.065   9.930
29434SOL    HW288329   5.405  12.159   9.847
29435SOL     OW88330   5.365  12.280   9.742
29435SOL    HW188331   5.451  12.282   9.690
29435SOL    HW288332   5.379  12.327   9.830
29436SOL     OW88333   3.837  11.909  10.907
29436SOL    HW188334   3.925  11.896  10.952
29436SOL    HW288335   3.824  12.006  10.885
29437SOL     OW88336   4.337  12.537  10.036
29437SOL    HW188337   4.288  12.450  10.045
29437SOL    HW288338   4.314  12.580   9.949
29438SOL     OW88339   5.017  12.400  10.733
29438SOL    HW188340   5.054  12.327  10.675
29438SOL    HW288341   5.069  12.405  10.818
29439SOL     OW88342   4.533  11.176   9.812
29439SOL    HW188343   4.573  11.267   9.803
29439SOL    HW288344   4.433  11.184   9.818
29440SOL     OW88345   3.921  12.148  10.574
29440SOL    HW188346   4.010  12.103  10.560
29440SOL    HW288347   3.848  12.083  10.555
29441SOL     OW88348   5.249  12.171   9.500
29441SOL    HW188349   5.186  12.095   9.513
29441SOL    HW288350   5.297  12.189   9.586
29442SOL     OW88351   4.041  11.423  11.111
29442SOL    HW188352   4.112  11.494  11.117
29442SOL    HW288353   3.953  11.462  11.139
29443SOL     OW88354   5.190  12.589  10.263
29443SOL    HW188355   5.131  12.595  10.343
29443SOL    HW288356   5.175  12.501  10.217
29444SOL     OW88357   4.322  11.901   9.580
29444SOL    HW188358   4.346  11.970   9.512
29444SOL    HW288359   4.244  11.934   9.634
29445SOL     OW88360   5.005  11.517  10.254
29445SOL    HW188361   4.919  11.467  10.241
29445SOL    HW288362   5.067  11.463  10.310
29446SOL     OW88363   4.531  11.777  10.775
29446SOL    HW188364   4.484  11.774  10.864
29446SOL    HW288365   4.480  11.722  10.709
29447SOL     OW88366   5.118  11.641  10.984
29447SOL    HW188367   5.098  11.684  11.072
29447SOL    HW288368   5.196  11.579  10.993
29448SOL     OW88369   4.697  12.062  10.882
29448SOL    HW188370   4.743  11.978  10.853
29448SOL    HW288371   4.641  12.096  10.807
29449SOL     OW88372   4.715  11.582  10.552
29449SOL    HW188373   4.638  11.616  10.606
29449SOL    HW288374   4.681  11.531  10.473
29450SOL     OW88375   4.765  11.873   9.739
29450SOL    HW188376   4.791  11.869   9.835
29450SOL    HW288377   4.680  11.822   9.725
29451SOL     OW88378   3.800  11.983  10.099
29451SOL    HW188379   3.899  11.971  10.108
29451SOL    HW288380   3.776  12.078  10.120
29452SOL     OW88381   4.589  11.520   9.505
29452SOL    HW188382   4.648  11.583   9.456
29452SOL    HW288383   4.608  11.426   9.476
29453SOL     OW88384   5.443  11.757  11.141
29453SOL    HW188385   5.417  11.846  11.105
29453SOL    HW288386   5.441  11.689  11.068
29454SOL     OW88387   5.086  12.316   9.855
29454SOL    HW188388   5.169  12.287   9.807
29454SOL    HW288389   5.037  12.383   9.799
29455SOL     OW88390   4.274  11.368  10.195
29455SOL    HW188391   4.269  11.363  10.295
29455SOL    HW288392   4.276  11.464  10.166
29456SOL     OW88393   4.732  12.628   9.787
29456SOL    HW188394   4.686  12.700   9.735
29456SOL    HW288395   4.728  12.648   9.885
29457SOL     OW88396   5.519  12.238  10.183
29457SOL    HW188397   5.457  12.223  10.107
29457SOL    HW288398   5.467  12.249  10.268
29458SOL     OW88399   4.951  12.722  10.816
29458SOL    HW188400   4.957  12.645  10.880
29458SOL    HW288401   4.899  12.696  10.736
29459SOL     OW88402   4.045  12.115   9.552
29459SOL    HW188403   4.127  12.154   9.510
29459SOL    HW288404   4.018  12.033   9.503
29460SOL     OW88405   5.182  11.907  10.038
29460SOL    HW188406   5.177  11.842  10.113
29460SOL    HW288407   5.262  11.966  10.051
29461SOL     OW88408   4.185  12.438  11.037
29461SOL    HW188409   4.135  12.439  10.951
29461SOL    HW288410   4.122  12.420  11.113
29462SOL     OW88411   4.835  12.948   9.547
29462SOL    HW188412   4.775  12.886   9.597
29462SOL    HW288413   4.866  12.904   9.462
29463SOL     OW88414   3.926  11.457  10.808
29463SOL    HW188415   3.846  11.517  10.795
29463SOL    HW288416   3.916  11.408  10.894
29464SOL     OW88417   5.356  12.549   9.391
29464SOL    HW188418   5.324  12.643   9.381
29464SOL    HW288419   5.280  12.486   9.379
29465SOL     OW88420   5.124  11.279   9.736
29465SOL    HW188421   5.100  11.242   9.646
29465SOL    HW288422   5.223  11.295   9.740
29466SOL     OW88423   4.106  11.872   9.790
29466SOL    HW188424   4.151  11.782   9.787
29466SOL    HW288425   4.012  11.861   9.823
29467SOL     OW88426   5.271  11.394  11.039
29467SOL    HW188427   5.266  11.431  11.131
29467SOL    HW288428   5.199  11.325  11.027
29468SOL     OW88429   4.338  11.294   9.427
29468SOL    HW188430   4.436  11.272   9.434
29468SOL    HW288431   4.307  11.277   9.334
29469SOL     OW88432   4.505  11.436  11.059
29469SOL    HW188433   4.572  11.375  11.102
29469SOL    HW288434   4.432  11.455  11.124
29470SOL     OW88435   5.075  11.762  10.743
29470SOL    HW188436   5.103  11.719  10.828
29470SOL    HW288437   5.100  11.858  10.744
29471SOL     OW88438   4.527  12.574  10.234
29471SOL    HW188439   4.617  12.588  10.192
29471SOL    HW288440   4.456  12.576  10.163
29472SOL     OW88441   4.646  11.675  10.209
29472SOL    HW188442   4.621  11.666  10.113
29472SOL    HW288443   4.694  11.593  10.240
29473SOL     OW88444   4.263  11.236   9.822
29473SOL    HW188445   4.182  11.237   9.880
29473SOL    HW288446   4.266  11.319   9.767
29474SOL     OW88447   5.158  12.360   9.351
29474SOL    HW188448   5.190  12.284   9.408
29474SOL    HW288449   5.066  12.387   9.381
29475SOL     OW88450   4.021  11.207   9.481
29475SOL    HW188451   4.070  11.291   9.460
29475SOL    HW288452   4.083  11.142   9.526
29476SOL     OW88453   4.659  11.408   9.790
29476SOL    HW188454   4.611  11.449   9.712
29476SOL    HW288455   4.758  11.406   9.771
29477SOL     OW88456   4.800  11.855  10.774
29477SOL    HW188457   4.720  11.794  10.777
29477SOL    HW288458   4.881  11.802  10.750
29478SOL     OW88459   4.951  12.742  10.103
29478SOL    HW188460   4.972  12.816  10.038
29478SOL    HW288461   5.019  12.742  10.176
29479SOL     OW88462   4.183  12.324  10.051
29479SOL    HW188463   4.112  12.297  10.116
29479SOL    HW288464   4.157  12.296   9.958
29480SOL     OW88465   4.756  11.721   9.326
29480SOL    HW188466   4.715  11.803   9.287
29480SOL    HW288467   4.820  11.747   9.399
29481SOL     OW88468   3.802  11.728  10.696
29481SOL    HW188469   3.894  11.727  10.655
29481SOL    HW288470   3.796  11.802  10.763
29482SOL     OW88471   4.285  11.394  10.457
29482SOL    HW188472   4.323  11.310  10.494
29482SOL    HW288473   4.197  11.413  10.501
29483SOL     OW88474   4.590  11.626   9.952
29483SOL    HW188475   4.558  11.698   9.890
29483SOL    HW288476   4.614  11.545   9.899
29484SOL     OW88477   4.741  11.211  10.063
29484SOL    HW188478   4.669  11.216   9.994
29484SOL    HW288479   4.717  11.142  10.132
29485SOL     OW88480   5.153  12.345  10.177
29485SOL    HW188481   5.098  12.261  10.170
29485SOL    HW288482   5.179  12.374  10.085
29486SOL     OW88483   5.190  11.762  10.302
29486SOL    HW188484   5.160  11.667  10.309
29486SOL    HW288485   5.263  11.778  10.368
29487SOL     OW88486   5.581  12.005   9.687
29487SOL    HW188487   5.623  11.941   9.751
29487SOL    HW288488   5.543  11.954   9.609
29488SOL     OW88489   4.212  12.557   9.484
29488SOL    HW188490   4.125  12.542   9.531
29488SOL    HW288491   4.195  12.583   9.389
29489SOL     OW88492   5.388  12.452   9.967
29489SOL    HW188493   5.487  12.460   9.981
29489SOL    HW288494   5.343  12.536   9.998
29490SOL     OW88495   5.114  11.747   9.388
29490SOL    HW188496   5.060  11.726   9.469
29490SOL    HW288497   5.205  11.706   9.397
29491SOL     OW88498   4.251  11.428   9.638
29491SOL    HW188499   4.278  11.369   9.563
29491SOL    HW288500   4.251  11.523   9.607
29492SOL     OW88501   5.478  12.395  10.898
29492SOL    HW188502   5.569  12.356  10.885
29492SOL    HW288503   5.486  12.491  10.922
29493SOL     OW88504   4.788  12.519  10.650
29493SOL    HW188505   4.708  12.496  10.705
29493SOL    HW288506   4.871  12.493  10.699
29494SOL     OW88507   4.835  12.367  10.410
29494SOL    HW188508   4.795  12.411  10.491
29494SOL    HW288509   4.794  12.404  10.327
29495SOL     OW88510   5.362  12.271  10.389
29495SOL    HW188511   5.367  12.352  10.448
29495SOL    HW288512   5.276  12.273  10.338
29496SOL     OW88513   4.639  11.261  10.712
29496SOL    HW188514   4.664  11.241  10.617
29496SOL    HW288515   4.711  11.317  10.754
29497SOL     OW88516   4.704  12.288  11.029
29497SOL    HW188517   4.605  12.294  11.039
29497SOL    HW288518   4.727  12.208  10.973
29498SOL     OW88519   4.429  12.222   9.678
29498SOL    HW188520   4.415  12.229   9.777
29498SOL    HW288521   4.513  12.171   9.660
29499SOL     OW88522   4.134  11.985  10.561
29499SOL    HW188523   4.220  11.997  10.611
29499SOL    HW288524   4.092  11.898  10.588
29500SOL     OW88525   4.998  11.558  10.572
29500SOL    HW188526   5.019  11.632  10.636
29500SOL    HW288527   4.909  11.575  10.529
29501SOL     OW88528   4.091  12.272   9.811
29501SOL    HW188529   4.084  12.355   9.755
29501SOL    HW288530   4.095  12.192   9.751
29502SOL     OW88531   4.290  11.709  10.175
29502SOL    HW188532   4.302  11.775  10.101
29502SOL    HW288533   4.336  11.743  10.258
29503SOL     OW88534   4.976  12.520   9.698
29503SOL    HW188535   5.026  12.597   9.738
29503SOL    HW288536   4.881  12.522   9.730
29504SOL     OW88537   4.996  12.617  10.452
29504SOL    HW188538   5.043  12.630  10.539
29504SOL    HW288539   4.930  12.543  10.461
29505SOL     OW88540   5.306  11.811   9.782
29505SOL    HW188541   5.275  11.872   9.855
29505SOL    HW288542   5.356  11.863   9.713
29506SOL     OW88543   4.078  12.682  10.639
29506SOL    HW188544   4.057  12.638  10.552
29506SOL    HW288545   4.175  12.708  10.642
29507SOL     OW88546   4.126  11.923  10.908
29507SOL    HW188547   4.194  11.978  10.861
29507SOL    HW288548   4.166  11.835  10.935
29508SOL     OW88549   5.311  11.951  10.980
29508SOL    HW188550   5.219  11.989  10.975
29508SOL    HW288551   5.371  11.998  10.915
29509SOL     OW88552   4.737  11.277  11.080
29509SOL    HW188553   4.743  11.362  11.028
29509SOL    HW288554   4.769  11.201  11.023
29510SOL     OW88555   4.228  11.222  11.050
29510SOL    HW188556   4.186  11.165  10.980
29510SOL    HW288557   4.162  11.291  11.082
29511SOL     OW88558   4.297  12.042  10.339
29511SOL    HW188559   4.341  12.131  10.330
29511SOL    HW288560   4.234  12.042  10.416
29512SOL     OW88561   5.084  12.034  10.355
29512SOL    HW188562   5.009  12.034  10.289
29512SOL    HW288563   5.121  11.942  10.364
29513SOL     OW88564   4.933  11.697   9.585
29513SOL    HW188565   4.946  11.613   9.639
29513SOL    HW288566   4.904  11.771   9.645
29514SOL     OW88567   4.031  11.385  10.541
29514SOL    HW188568   4.008  11.422  10.631
29514SOL    HW288569   4.001  11.290  10.535
29515SOL     OW88570   3.761  12.482  10.592
29515SOL    HW188571   3.814  12.433  10.660
29515SOL    HW288572   3.783  12.580  10.597
29516SOL     OW88573   4.456  11.806  10.374
29516SOL    HW188574   4.515  11.780  10.298
29516SOL    HW288575   4.428  11.902  10.363
29517SOL     OW88576   5.452  12.107  11.164
29517SOL    HW188577   5.406  12.100  11.075
29517SOL    HW288578   5.390  12.151  11.230
29518SOL     OW88579   4.031  11.235   9.928
29518SOL    HW188580   4.020  11.329   9.961
29518SOL    HW288581   4.026  11.172  10.005
29519SOL     OW88582   5.346  11.539   9.684
29519SOL    HW188583   5.348  11.463   9.748
29519SOL    HW288584   5.298  11.616   9.724
29520SOL     OW88585   4.747  11.938  10.276
29520SOL    HW188586   4.762  11.959  10.372
29520SOL    HW288587   4.717  11.843  10.267
29521SOL     OW88588   5.583  12.690  10.915
29521SOL    HW188589   5.597  12.717  10.820
29521SOL    HW288590   5.666  12.712  10.968
29522SOL     OW88591   4.074  12.070  11.114
29522SOL    HW188592   4.150  12.114  11.162
29522SOL    HW288593   4.109  12.023  11.032
29523SOL     OW88594   5.264  11.446   9.435
29523SOL    HW188595   5.203  11.371   9.458
29523SOL    HW288596   5.286  11.498   9.518
29524SOL     OW88597   5.027  12.010   9.352
29524SOL    HW188598   5.061  11.917   9.367
29524SOL    HW288599   5.045  12.037   9.257
29525SOL     OW88600   4.792  12.505  10.159
29525SOL    HW188601   4.799  12.421  10.104
29525SOL    HW288602   4.854  12.574  10.123
29526SOL     OW88603   4.043  11.982  10.259
29526SOL    HW188604   4.136  12.018  10.264
29526SOL    HW288605   4.037  11.897  10.311
29527SOL     OW88606   4.063  11.681  10.316
29527SOL    HW188607   4.011  11.598  10.299
29527SOL    HW288608   4.140  11.686  10.252
29528SOL     OW88609   4.862  11.552  10.988
29528SOL    HW188610   4.817  11.615  11.052
29528SOL    HW288611   4.955  11.583  10.971
29529SOL     OW88612   4.884  11.379  10.787
29529SOL    HW188613   4.884  11.443  10.864
29529SOL    HW288614   4.912  11.427  10.704
29530SOL     OW88615   3.732  12.498   9.510
29530SOL    HW188616   3.639  12.519   9.479
29530SOL    HW288617   3.742  12.399   9.523
29531SOL     OW88618   4.726  11.968  10.548
29531SOL    HW188619   4.767  11.936  10.634
29531SOL    HW288620   4.630  11.941  10.545
29532SOL     OW88621   3.764  11.716  10.424
29532SOL    HW188622   3.849  11.683  10.383
29532SOL    HW288623   3.777  11.731  10.522
29533SOL     OW88624   3.913  11.692  11.032
29533SOL    HW188625   3.972  11.652  10.962
29533SOL    HW288626   3.855  11.763  10.991
29534SOL     OW88627   5.093  12.122  10.970
29534SOL    HW188628   5.132  12.211  10.990
29534SOL    HW288629   5.103  12.102  10.873
29535SOL     OW88630   4.539  11.744   9.635
29535SOL    HW188631   4.546  11.655   9.589
29535SOL    HW288632   4.445  11.778   9.627
29536SOL     OW88633   5.381  11.776  10.516
29536SOL    HW188634   5.343  11.707  10.578
29536SOL    HW288635   5.463  11.740  10.472
29537SOL     OW88636   3.976  12.736  11.054
29537SOL    HW188637   3.946  12.793  11.130
29537SOL    HW288638   3.969  12.639  11.080
29538SOL     OW88639   4.395  11.636  10.579
29538SOL    HW188640   4.361  11.547  10.549
29538SOL    HW288641   4.421  11.690  10.499
29539SOL     OW88642   4.197  11.672   9.501
29539SOL    HW188643   4.258  11.752   9.505
29539SOL    HW288644   4.102  11.703   9.508
29540SOL     OW88645   3.883  12.309  10.776
29540SOL    HW188646   3.905  12.248  10.852
29540SOL    HW288647   3.893  12.260  10.690
29541SOL     OW88648   5.071  12.231  10.544
29541SOL    HW188649   5.095  12.168  10.470
29541SOL    HW288650   4.981  12.271  10.526
29542SOL     OW88651   5.026  12.027   9.619
29542SOL    HW188652   4.940  11.996   9.661
29542SOL    HW288653   5.022  12.013   9.520
29543SOL     OW88654   3.807  12.430  10.332
29543SOL    HW188655   3.802  12.429  10.432
29543SOL    HW288656   3.724  12.389  10.294
29544SOL     OW88657   5.450  11.307   9.833
29544SOL    HW188658   5.523  11.290   9.766
29544SOL    HW288659   5.419  11.220   9.871
29545SOL     OW88660   5.004  12.099   9.982
29545SOL    HW188661   5.064  12.018   9.984
29545SOL    HW288662   5.044  12.168   9.922
29546SOL     OW88663   4.554  12.445  10.732
29546SOL    HW188664   4.549  12.478  10.827
29546SOL    HW288665   4.468  12.464  10.686
29547SOL     OW88666   5.565  11.347  10.273
29547SOL    HW188667   5.604  11.262  10.237
29547SOL    HW288668   5.467  11.349  10.254
29548SOL     OW88669   3.987  11.498  10.030
29548SOL    HW188670   3.908  11.549   9.996
29548SOL    HW288671   3.978  11.483  10.128
29549SOL     OW88672   4.546  12.174  10.682
29549SOL    HW188673   4.586  12.173  10.590
29549SOL    HW288674   4.556  12.266  10.722
29550SOL     OW88675   4.640  12.082   9.601
29550SOL    HW188676   4.703  12.120   9.533
29550SOL    HW288677   4.680  11.999   9.640
29551SOL     OW88678   4.096  12.460  10.800
29551SOL    HW188679   4.083  12.553  10.766
29551SOL    HW288680   4.012  12.408  10.787
29552SOL     OW88681   5.338  12.464  10.599
29552SOL    HW188682   5.398  12.467  10.679
29552SOL    HW288683   5.263  12.528  10.612
29553SOL     OW88684   4.763  12.270  10.006
29553SOL    HW188685   4.693  12.223  10.060
29553SOL    HW288686   4.822  12.202   9.963
29554SOL     OW88687   4.738  11.408  10.281
29554SOL    HW188688   4.730  11.372  10.188
29554SOL    HW288689   4.736  11.332  10.346
29555SOL     OW88690   5.433  11.557  10.691
29555SOL    HW188691   5.506  11.626  10.695
29555SOL    HW288692   5.461  11.482  10.632
29556SOL     OW88693   3.979  12.520   9.600
29556SOL    HW188694   3.883  12.521   9.573
29556SOL    HW288695   3.991  12.573   9.684
29557SOL     OW88696   3.829  12.185  11.036
29557SOL    HW188697   3.752  12.152  11.090
29557SOL    HW288698   3.914  12.155  11.078
29558SOL     OW88699   4.396  11.375  10.799
29558SOL    HW188700   4.486  11.359  10.759
29558SOL    HW288701   4.404  11.380  10.898
29559SOL     OW88702   3.799  11.517   9.343
29559SOL    HW188703   3.707  11.489   9.314
29559SOL    HW288704   3.830  11.594   9.287
29560SOL     OW88705   5.164  12.028  10.708
29560SOL    HW188706   5.107  12.080  10.645
29560SOL    HW288707   5.260  12.040  10.684
29561SOL     OW88708   3.796  11.338   9.628
29561SOL    HW188709   3.779  11.421   9.574
29561SOL    HW288710   3.886  11.301   9.606
29562SOL     OW88711   4.907  12.507   9.429
29562SOL    HW188712   4.808  12.496   9.431
29562SOL    HW288713   4.941  12.522   9.522
29563SOL     OW88714   4.337  12.014  10.741
29563SOL    HW188715   4.393  12.095  10.724
29563SOL    HW288716   4.396  11.934  10.744
29564SOL     OW88717   4.440  11.737  11.018
29564SOL    HW188718   4.459  11.802  11.092
29564SOL    HW288719   4.500  11.657  11.027
29565SOL     OW88720   5.174  12.392  10.943
29565SOL    HW188721   5.165  12.382  11.042
29565SOL    HW288722   5.270  12.385  10.917
29566SOL     OW88723   5.398  12.055  10.564
29566SOL    HW188724   5.371  11.966  10.527
29566SOL    HW288725   5.399  12.123  10.491
29567SOL     OW88726   4.949  11.497   9.759
29567SOL    HW188727   5.014  11.423   9.748
29567SOL    HW288728   4.969  11.547   9.843
29568SOL     OW88729   4.318  11.917   9.962
29568SOL    HW188730   4.368  12.002   9.943
29568SOL    HW288731   4.230  11.919   9.914
29569SOL     OW88732   5.501  11.514  10.952
29569SOL    HW188733   5.484  11.545  10.858
29569SOL    HW288734   5.417  11.477  10.990
29570SOL     OW88735   5.454  12.106  10.827
29570SOL    HW188736   5.492  12.197  10.842
29570SOL    HW288737   5.446  12.089  10.728
29571SOL     OW88738   4.583  12.546   9.326
29571SOL    HW188739   4.537  12.561   9.414
29571SOL    HW288740   4.627  12.631   9.296
29572SOL     OW88741   4.583  12.128  10.171
29572SOL    HW188742   4.637  12.059  10.219
29572SOL    HW288743   4.551  12.197  10.237
29573SOL     OW88744   4.807  12.156   9.397
29573SOL    HW188745   4.784  12.209   9.315
29573SOL    HW288746   4.888  12.100   9.378
29574SOL     OW88747   3.945  12.486  11.154
29574SOL    HW188748   3.880  12.413  11.133
29574SOL    HW288749   3.949  12.500  11.252
29575SOL     OW88750   3.803  12.412   9.963
29575SOL    HW188751   3.802  12.365  10.051
29575SOL    HW288752   3.885  12.384   9.912
29576SOL     OW88753   4.396  12.563  10.934
29576SOL    HW188754   4.318  12.513  10.972
29576SOL    HW288755   4.393  12.658  10.965
29577SOL     OW88756   5.548  11.364  10.537
29577SOL    HW188757   5.544  11.274  10.581
29577SOL    HW288758   5.551  11.353  10.438
29578SOL     OW88759   4.152  11.596   9.830
29578SOL    HW188760   4.182  11.524   9.768
29578SOL    HW288761   4.113  11.556   9.913
29579SOL     OW88762   5.429  12.659  10.414
29579SOL    HW188763   5.336  12.634  10.387
29579SOL    HW288764   5.455  12.609  10.496
29580SOL     OW88765   4.041  11.719  10.590
29580SOL    HW188766   4.079  11.660  10.662
29580SOL    HW288767   4.081  11.693  10.502
29581SOL     OW88768   5.148  11.386  10.422
29581SOL    HW188769   5.200  11.321  10.477
29581SOL    HW288770   5.099  11.449  10.483
29582SOL     OW88771   4.725  11.206  10.464
29582SOL    HW188772   4.662  11.134  10.433
29582SOL    HW288773   4.818  11.170  10.464
29583SOL     OW88774   4.494  12.502   9.611
29583SOL    HW188775   4.448  12.415   9.628
29583SOL    HW288776   4.585  12.499   9.652
29584SOL     OW88777   4.342  12.739  10.594
29584SOL    HW188778   4.337  12.821  10.651
29584SOL    HW288779   4.431  12.736  10.549
29585SOL     OW88780   5.076  11.224   9.478
29585SOL    HW188781   5.111  11.183   9.394
29585SOL    HW288782   4.986  11.186   9.498
29586SOL     OW88783   5.024  11.625  10.001
29586SOL    HW188784   4.965  11.705  10.005
29586SOL    HW288785   5.039  11.590  10.094
29587SOL     OW88786   5.317  11.393  10.192
29587SOL    HW188787   5.233  11.392  10.246
29587SOL    HW288788   5.319  11.476  10.136
29588SOL     OW88789   3.763  12.249   9.610
29588SOL    HW188790   3.862  12.238   9.601
29588SOL    HW288791   3.723  12.163   9.642
29589SOL     OW88792   3.954  11.800  11.285
29589SOL    HW188793   3.861  11.798  11.322
29589SOL    HW288794   3.955  11.761  11.193
29590SOL     OW88795   3.949  11.447  12.168
29590SOL    HW188796   3.984  11.430  12.260
29590SOL    HW288797   3.861  11.402  12.156
29591SOL     OW88798   3.743  11.540  11.819
29591SOL    HW188799   3.661  11.583  11.858
29591SOL    HW288800   3.715  11.467  11.756
29592SOL     OW88801   4.293  12.447  12.337
29592SOL    HW188802   4.200  12.440  12.300
29592SOL    HW288803   4.304  12.536  12.381
29593SOL     OW88804   5.279  12.683  11.875
29593SOL    HW188805   5.222  12.667  11.956
29593SOL    HW288806   5.220  12.693  11.795
29594SOL     OW88807   4.859  11.875  11.889
29594SOL    HW188808   4.916  11.953  11.864
29594SOL    HW288809   4.799  11.901  11.965
29595SOL     OW88810   5.479  11.779  11.403
29595SOL    HW188811   5.467  11.766  11.304
29595SOL    HW288812   5.449  11.698  11.452
29596SOL     OW88813   4.492  12.316  12.195
29596SOL    HW188814   4.414  12.333  12.255
29596SOL    HW288815   4.526  12.403  12.159
29597SOL     OW88816   4.409  12.184  11.837
29597SOL    HW188817   4.478  12.168  11.907
29597SOL    HW288818   4.336  12.241  11.875
29598SOL     OW88819   4.059  12.607  12.233
29598SOL    HW188820   3.981  12.576  12.180
29598SOL    HW288821   4.117  12.665  12.176
29599SOL     OW88822   5.184  12.677  12.511
29599SOL    HW188823   5.208  12.771  12.537
29599SOL    HW288824   5.168  12.623  12.593
29600SOL     OW88825   4.162  11.564  12.671
29600SOL    HW188826   4.244  11.508  12.680
29600SOL    HW288827   4.081  11.506  12.675
29601SOL     OW88828   5.327  11.619  11.909
29601SOL    HW188829   5.253  11.665  11.859
29601SOL    HW288830   5.378  11.687  11.962
29602SOL     OW88831   3.955  12.885  11.655
29602SOL    HW188832   3.989  12.962  11.709
29602SOL    HW288833   3.999  12.885  11.565
29603SOL     OW88834   3.954  12.606  11.710
29603SOL    HW188835   3.928  12.702  11.710
29603SOL    HW288836   3.883  12.552  11.755
29604SOL     OW88837   3.964  12.263  12.058
29604SOL    HW188838   3.978  12.179  12.110
29604SOL    HW288839   3.909  12.327  12.113
29605SOL     OW88840   4.330  12.136  11.295
29605SOL    HW188841   4.337  12.220  11.241
29605SOL    HW288842   4.376  12.149  11.383
29606SOL     OW88843   5.318  11.286  12.652
29606SOL    HW188844   5.300  11.353  12.580
29606SOL    HW288845   5.315  11.332  12.741
29607SOL     OW88846   3.846  11.815  11.735
29607SOL    HW188847   3.801  11.727  11.752
29607SOL    HW288848   3.845  11.869  11.819
29608SOL     OW88849   3.751  12.768  11.289
29608SOL    HW188850   3.732  12.672  11.310
29608SOL    HW288851   3.718  12.826  11.364
29609SOL     OW88852   5.413  12.094  11.784
29609SOL    HW188853   5.508  12.065  11.792
29609SOL    HW288854   5.405  12.159  11.709
29610SOL     OW88855   5.365  12.280  11.604
29610SOL    HW188856   5.451  12.282  11.552
29610SOL    HW288857   5.379  12.327  11.692
29611SOL     OW88858   4.337  12.537  11.898
29611SOL    HW188859   4.288  12.450  11.907
29611SOL    HW288860   4.314  12.580  11.811
29612SOL     OW88861   4.533  11.176  11.674
29612SOL    HW188862   4.573  11.267  11.665
29612SOL    HW288863   4.433  11.184  11.680
29613SOL     OW88864   3.921  12.148  12.436
29613SOL    HW188865   4.010  12.103  12.422
29613SOL    HW288866   3.848  12.083  12.417
29614SOL     OW88867   5.249  12.171  11.362
29614SOL    HW188868   5.186  12.095  11.375
29614SOL    HW288869   5.297  12.189  11.448
29615SOL     OW88870   4.041  11.423  12.973
29615SOL    HW188871   4.112  11.494  12.979
29615SOL    HW288872   3.953  11.462  13.001
29616SOL     OW88873   5.190  12.589  12.125
29616SOL    HW188874   5.131  12.595  12.205
29616SOL    HW288875   5.175  12.501  12.079
29617SOL     OW88876   4.322  11.901  11.442
29617SOL    HW188877   4.346  11.970  11.374
29617SOL    HW288878   4.244  11.934  11.496
29618SOL     OW88879   5.005  11.517  12.116
29618SOL    HW188880   4.919  11.467  12.103
29618SOL    HW288881   5.067  11.463  12.172
29619SOL     OW88882   4.531  11.777  12.637
29619SOL    HW188883   4.484  11.774  12.726
29619SOL    HW288884   4.480  11.722  12.571
29620SOL     OW88885   4.715  11.582  12.414
29620SOL    HW188886   4.638  11.616  12.468
29620SOL    HW288887   4.681  11.531  12.335
29621SOL     OW88888   4.765  11.873  11.601
29621SOL    HW188889   4.791  11.869  11.697
29621SOL    HW288890   4.680  11.822  11.587
29622SOL     OW88891   3.800  11.983  11.961
29622SOL    HW188892   3.899  11.971  11.970
29622SOL    HW288893   3.776  12.078  11.982
29623SOL     OW88894   4.589  11.520  11.367
29623SOL    HW188895   4.648  11.583  11.318
29623SOL    HW288896   4.608  11.426  11.338
29624SOL     OW88897   5.086  12.316  11.717
29624SOL    HW188898   5.169  12.287  11.669
29624SOL    HW288899   5.037  12.383  11.661
29625SOL     OW88900   4.274  11.368  12.057
29625SOL    HW188901   4.269  11.363  12.157
29625SOL    HW288902   4.276  11.464  12.028
29626SOL     OW88903   4.732  12.628  11.649
29626SOL    HW188904   4.686  12.700  11.597
29626SOL    HW288905   4.728  12.648  11.747
29627SOL     OW88906   5.519  12.238  12.045
29627SOL    HW188907   5.457  12.223  11.969
29627SOL    HW288908   5.467  12.249  12.130
29628SOL     OW88909   4.045  12.115  11.414
29628SOL    HW188910   4.127  12.154  11.372
29628SOL    HW288911   4.018  12.033  11.365
29629SOL     OW88912   5.182  11.907  11.900
29629SOL    HW188913   5.177  11.842  11.975
29629SOL    HW288914   5.262  11.966  11.913
29630SOL     OW88915   4.835  12.948  11.409
29630SOL    HW188916   4.775  12.886  11.459
29630SOL    HW288917   4.866  12.904  11.324
29631SOL     OW88918   3.926  11.457  12.670
29631SOL    HW188919   3.846  11.517  12.657
29631SOL    HW288920   3.916  11.408  12.756
29632SOL     OW88921   5.356  12.549  11.253
29632SOL    HW188922   5.324  12.643  11.243
29632SOL    HW288923   5.280  12.486  11.241
29633SOL     OW88924   5.124  11.279  11.598
29633SOL    HW188925   5.100  11.242  11.508
29633SOL    HW288926   5.223  11.295  11.602
29634SOL     OW88927   4.106  11.872  11.652
29634SOL    HW188928   4.151  11.782  11.649
29634SOL    HW288929   4.012  11.861  11.685
29635SOL     OW88930   4.338  11.294  11.289
29635SOL    HW188931   4.436  11.272  11.296
29635SOL    HW288932   4.307  11.277  11.196
29636SOL     OW88933   4.527  12.574  12.096
29636SOL    HW188934   4.617  12.588  12.054
29636SOL    HW288935   4.456  12.576  12.025
29637SOL     OW88936   4.646  11.675  12.071
29637SOL    HW188937   4.621  11.666  11.975
29637SOL    HW288938   4.694  11.593  12.102
29638SOL     OW88939   4.263  11.236  11.684
29638SOL    HW188940   4.182  11.237  11.742
29638SOL    HW288941   4.266  11.319  11.629
29639SOL     OW88942   5.158  12.360  11.213
29639SOL    HW188943   5.190  12.284  11.270
29639SOL    HW288944   5.066  12.387  11.243
29640SOL     OW88945   4.021  11.207  11.343
29640SOL    HW188946   4.070  11.291  11.322
29640SOL    HW288947   4.083  11.142  11.388
29641SOL     OW88948   4.659  11.408  11.652
29641SOL    HW188949   4.611  11.449  11.574
29641SOL    HW288950   4.758  11.406  11.633
29642SOL     OW88951   4.951  12.742  11.965
29642SOL    HW188952   4.972  12.816  11.900
29642SOL    HW288953   5.019  12.742  12.038
29643SOL     OW88954   4.183  12.324  11.913
29643SOL    HW188955   4.112  12.297  11.978
29643SOL    HW288956   4.157  12.296  11.820
29644SOL     OW88957   4.756  11.721  11.188
29644SOL    HW188958   4.715  11.803  11.149
29644SOL    HW288959   4.820  11.747  11.261
29645SOL     OW88960   3.802  11.728  12.558
29645SOL    HW188961   3.894  11.727  12.517
29645SOL    HW288962   3.796  11.802  12.625
29646SOL     OW88963   4.285  11.394  12.319
29646SOL    HW188964   4.323  11.310  12.356
29646SOL    HW288965   4.197  11.413  12.363
29647SOL     OW88966   4.590  11.626  11.814
29647SOL    HW188967   4.558  11.698  11.752
29647SOL    HW288968   4.614  11.545  11.761
29648SOL     OW88969   4.741  11.211  11.925
29648SOL    HW188970   4.669  11.216  11.856
29648SOL    HW288971   4.717  11.142  11.994
29649SOL     OW88972   5.153  12.345  12.039
29649SOL    HW188973   5.098  12.261  12.032
29649SOL    HW288974   5.179  12.374  11.947
29650SOL     OW88975   5.190  11.762  12.164
29650SOL    HW188976   5.160  11.667  12.171
29650SOL    HW288977   5.263  11.778  12.230
29651SOL     OW88978   5.581  12.005  11.549
29651SOL    HW188979   5.623  11.941  11.613
29651SOL    HW288980   5.543  11.954  11.471
29652SOL     OW88981   4.212  12.557  11.346
29652SOL    HW188982   4.125  12.542  11.393
29652SOL    HW288983   4.195  12.583  11.251
29653SOL     OW88984   5.388  12.452  11.829
29653SOL    HW188985   5.487  12.460  11.843
29653SOL    HW288986   5.343  12.536  11.860
29654SOL     OW88987   5.114  11.747  11.250
29654SOL    HW188988   5.060  11.726  11.331
29654SOL    HW288989   5.205  11.706  11.259
29655SOL     OW88990   4.251  11.428  11.500
29655SOL    HW188991   4.278  11.369  11.425
29655SOL    HW288992   4.251  11.523  11.469
29656SOL     OW88993   4.788  12.519  12.512
29656SOL    HW188994   4.708  12.496  12.567
29656SOL    HW288995   4.871  12.493  12.561
29657SOL     OW88996   4.835  12.367  12.272
29657SOL    HW188997   4.795  12.411  12.353
29657SOL    HW288998   4.794  12.404  12.189
29658SOL     OW88999   5.362  12.271  12.251
29658SOL    HW189000   5.367  12.352  12.310
29658SOL    HW289001   5.276  12.273  12.200
29659SOL     OW89002   4.639  11.261  12.574
29659SOL    HW189003   4.664  11.241  12.479
29659SOL    HW289004   4.711  11.317  12.616
29660SOL     OW89005   4.429  12.222  11.540
29660SOL    HW189006   4.415  12.229  11.639
29660SOL    HW289007   4.513  12.171  11.522
29661SOL     OW89008   4.134  11.985  12.423
29661SOL    HW189009   4.220  11.997  12.473
29661SOL    HW289010   4.092  11.898  12.450
29662SOL     OW89011   4.998  11.558  12.434
29662SOL    HW189012   5.019  11.632  12.498
29662SOL    HW289013   4.909  11.575  12.391
29663SOL     OW89014   4.091  12.272  11.673
29663SOL    HW189015   4.084  12.355  11.617
29663SOL    HW289016   4.095  12.192  11.613
29664SOL     OW89017   4.290  11.709  12.037
29664SOL    HW189018   4.302  11.775  11.963
29664SOL    HW289019   4.336  11.743  12.120
29665SOL     OW89020   4.976  12.520  11.560
29665SOL    HW189021   5.026  12.597  11.600
29665SOL    HW289022   4.881  12.522  11.592
29666SOL     OW89023   4.996  12.617  12.314
29666SOL    HW189024   5.043  12.630  12.401
29666SOL    HW289025   4.930  12.543  12.323
29667SOL     OW89026   5.306  11.811  11.644
29667SOL    HW189027   5.275  11.872  11.717
29667SOL    HW289028   5.356  11.863  11.575
29668SOL     OW89029   4.078  12.682  12.501
29668SOL    HW189030   4.057  12.638  12.414
29668SOL    HW289031   4.175  12.708  12.504
29669SOL     OW89032   4.126  11.923  12.770
29669SOL    HW189033   4.194  11.978  12.723
29669SOL    HW289034   4.166  11.835  12.797
29670SOL     OW89035   5.311  11.951  12.842
29670SOL    HW189036   5.219  11.989  12.837
29670SOL    HW289037   5.371  11.998  12.777
29671SOL     OW89038   4.297  12.042  12.201
29671SOL    HW189039   4.341  12.131  12.192
29671SOL    HW289040   4.234  12.042  12.278
29672SOL     OW89041   5.084  12.034  12.217
29672SOL    HW189042   5.009  12.034  12.151
29672SOL    HW289043   5.121  11.942  12.226
29673SOL     OW89044   4.933  11.697  11.447
29673SOL    HW189045   4.946  11.613  11.501
29673SOL    HW289046   4.904  11.771  11.507
29674SOL     OW89047   4.031  11.385  12.403
29674SOL    HW189048   4.008  11.422  12.493
29674SOL    HW289049   4.001  11.290  12.397
29675SOL     OW89050   3.761  12.482  12.454
29675SOL    HW189051   3.814  12.433  12.522
29675SOL    HW289052   3.783  12.580  12.459
29676SOL     OW89053   4.456  11.806  12.236
29676SOL    HW189054   4.515  11.780  12.160
29676SOL    HW289055   4.428  11.902  12.225
29677SOL     OW89056   4.031  11.235  11.790
29677SOL    HW189057   4.020  11.329  11.823
29677SOL    HW289058   4.026  11.172  11.867
29678SOL     OW89059   5.346  11.539  11.546
29678SOL    HW189060   5.348  11.463  11.610
29678SOL    HW289061   5.298  11.616  11.586
29679SOL     OW89062   4.747  11.938  12.138
29679SOL    HW189063   4.762  11.959  12.234
29679SOL    HW289064   4.717  11.843  12.129
29680SOL     OW89065   5.264  11.446  11.297
29680SOL    HW189066   5.203  11.371  11.320
29680SOL    HW289067   5.286  11.498  11.380
29681SOL     OW89068   5.027  12.010  11.214
29681SOL    HW189069   5.061  11.917  11.229
29681SOL    HW289070   5.045  12.037  11.119
29682SOL     OW89071   4.792  12.505  12.021
29682SOL    HW189072   4.799  12.421  11.966
29682SOL    HW289073   4.854  12.574  11.985
29683SOL     OW89074   4.043  11.982  12.121
29683SOL    HW189075   4.136  12.018  12.126
29683SOL    HW289076   4.037  11.897  12.173
29684SOL     OW89077   4.063  11.681  12.178
29684SOL    HW189078   4.011  11.598  12.161
29684SOL    HW289079   4.140  11.686  12.114
29685SOL     OW89080   4.862  11.552  12.850
29685SOL    HW189081   4.817  11.615  12.914
29685SOL    HW289082   4.955  11.583  12.833
29686SOL     OW89083   4.884  11.379  12.649
29686SOL    HW189084   4.884  11.443  12.726
29686SOL    HW289085   4.912  11.427  12.566
29687SOL     OW89086   3.732  12.498  11.372
29687SOL    HW189087   3.639  12.519  11.341
29687SOL    HW289088   3.742  12.399  11.385
29688SOL     OW89089   4.726  11.968  12.410
29688SOL    HW189090   4.767  11.936  12.496
29688SOL    HW289091   4.630  11.941  12.407
29689SOL     OW89092   3.764  11.716  12.286
29689SOL    HW189093   3.849  11.683  12.245
29689SOL    HW289094   3.777  11.731  12.384
29690SOL     OW89095   4.539  11.744  11.497
29690SOL    HW189096   4.546  11.655  11.451
29690SOL    HW289097   4.445  11.778  11.489
29691SOL     OW89098   5.381  11.776  12.378
29691SOL    HW189099   5.343  11.707  12.440
29691SOL    HW289100   5.463  11.740  12.334
29692SOL     OW89101   4.395  11.636  12.441
29692SOL    HW189102   4.361  11.547  12.411
29692SOL    HW289103   4.421  11.690  12.361
29693SOL     OW89104   4.197  11.672  11.363
29693SOL    HW189105   4.258  11.752  11.367
29693SOL    HW289106   4.102  11.703  11.370
29694SOL     OW89107   3.883  12.309  12.638
29694SOL    HW189108   3.905  12.248  12.714
29694SOL    HW289109   3.893  12.260  12.552
29695SOL     OW89110   5.071  12.231  12.406
29695SOL    HW189111   5.095  12.168  12.332
29695SOL    HW289112   4.981  12.271  12.388
29696SOL     OW89113   5.026  12.027  11.481
29696SOL    HW189114   4.940  11.996  11.523
29696SOL    HW289115   5.022  12.013  11.382
29697SOL     OW89116   3.807  12.430  12.194
29697SOL    HW189117   3.802  12.429  12.294
29697SOL    HW289118   3.724  12.389  12.156
29698SOL     OW89119   5.450  11.307  11.695
29698SOL    HW189120   5.523  11.290  11.628
29698SOL    HW289121   5.419  11.220  11.733
29699SOL     OW89122   5.004  12.099  11.844
29699SOL    HW189123   5.064  12.018  11.846
29699SOL    HW289124   5.044  12.168  11.784
29700SOL     OW89125   5.565  11.347  12.135
29700SOL    HW189126   5.604  11.262  12.099
29700SOL    HW289127   5.467  11.349  12.116
29701SOL     OW89128   3.987  11.498  11.892
29701SOL    HW189129   3.908  11.549  11.858
29701SOL    HW289130   3.978  11.483  11.990
29702SOL     OW89131   4.546  12.174  12.544
29702SOL    HW189132   4.586  12.173  12.452
29702SOL    HW289133   4.556  12.266  12.584
29703SOL     OW89134   4.640  12.082  11.463
29703SOL    HW189135   4.703  12.120  11.395
29703SOL    HW289136   4.680  11.999  11.502
29704SOL     OW89137   4.096  12.460  12.662
29704SOL    HW189138   4.083  12.553  12.628
29704SOL    HW289139   4.012  12.408  12.649
29705SOL     OW89140   5.338  12.464  12.461
29705SOL    HW189141   5.398  12.467  12.541
29705SOL    HW289142   5.263  12.528  12.474
29706SOL     OW89143   4.763  12.270  11.868
29706SOL    HW189144   4.693  12.223  11.922
29706SOL    HW289145   4.822  12.202  11.825
29707SOL     OW89146   4.738  11.408  12.143
29707SOL    HW189147   4.730  11.372  12.050
29707SOL    HW289148   4.736  11.332  12.208
29708SOL     OW89149   5.433  11.557  12.553
29708SOL    HW189150   5.506  11.626  12.557
29708SOL    HW289151   5.461  11.482  12.494
29709SOL     OW89152   3.979  12.520  11.462
29709SOL    HW189153   3.883  12.521  11.435
29709SOL    HW289154   3.991  12.573  11.546
29710SOL     OW89155   3.799  11.517  11.205
29710SOL    HW189156   3.707  11.489  11.176
29710SOL    HW289157   3.830  11.594  11.149
29711SOL     OW89158   5.164  12.028  12.570
29711SOL    HW189159   5.107  12.080  12.507
29711SOL    HW289160   5.260  12.040  12.546
29712SOL     OW89161   3.796  11.338  11.490
29712SOL    HW189162   3.779  11.421  11.436
29712SOL    HW289163   3.886  11.301  11.468
29713SOL     OW89164   4.907  12.507  11.291
29713SOL    HW189165   4.808  12.496  11.293
29713SOL    HW289166   4.941  12.522  11.384
29714SOL     OW89167   4.337  12.014  12.603
29714SOL    HW189168   4.393  12.095  12.586
29714SOL    HW289169   4.396  11.934  12.606
29715SOL     OW89170   5.398  12.055  12.426
29715SOL    HW189171   5.371  11.966  12.389
29715SOL    HW289172   5.399  12.123  12.353
29716SOL     OW89173   4.949  11.497  11.621
29716SOL    HW189174   5.014  11.423  11.610
29716SOL    HW289175   4.969  11.547  11.705
29717SOL     OW89176   4.318  11.917  11.824
29717SOL    HW189177   4.368  12.002  11.805
29717SOL    HW289178   4.230  11.919  11.776
29718SOL     OW89179   5.501  11.514  12.814
29718SOL    HW189180   5.484  11.545  12.720
29718SOL    HW289181   5.417  11.477  12.852
29719SOL     OW89182   5.454  12.106  12.689
29719SOL    HW189183   5.492  12.197  12.704
29719SOL    HW289184   5.446  12.089  12.590
29720SOL     OW89185   4.583  12.546  11.188
29720SOL    HW189186   4.537  12.561  11.276
29720SOL    HW289187   4.627  12.631  11.158
29721SOL     OW89188   4.583  12.128  12.033
29721SOL    HW189189   4.637  12.059  12.081
29721SOL    HW289190   4.551  12.197  12.099
29722SOL     OW89191   4.807  12.156  11.259
29722SOL    HW189192   4.784  12.209  11.177
29722SOL    HW289193   4.888  12.100  11.240
29723SOL     OW89194   3.803  12.412  11.825
29723SOL    HW189195   3.802  12.365  11.913
29723SOL    HW289196   3.885  12.384  11.774
29724SOL     OW89197   5.548  11.364  12.399
29724SOL    HW189198   5.544  11.274  12.443
29724SOL    HW289199   5.551  11.353  12.300
29725SOL     OW89200   4.152  11.596  11.692
29725SOL    HW189201   4.182  11.524  11.630
29725SOL    HW289202   4.113  11.556  11.775
29726SOL     OW89203   5.429  12.659  12.276
29726SOL    HW189204   5.336  12.634  12.249
29726SOL    HW289205   5.455  12.609  12.358
29727SOL     OW89206   4.041  11.719  12.452
29727SOL    HW189207   4.079  11.660  12.524
29727SOL    HW289208   4.081  11.693  12.364
29728SOL     OW89209   5.148  11.386  12.284
29728SOL    HW189210   5.200  11.321  12.339
29728SOL    HW289211   5.099  11.449  12.345
29729SOL     OW89212   4.725  11.206  12.326
29729SOL    HW189213   4.662  11.134  12.295
29729SOL    HW289214   4.818  11.170  12.326
29730SOL     OW89215   4.494  12.502  11.473
29730SOL    HW189216   4.448  12.415  11.490
29730SOL    HW289217   4.585  12.499  11.514
29731SOL     OW89218   4.342  12.739  12.456
29731SOL    HW189219   4.337  12.821  12.513
29731SOL    HW289220   4.431  12.736  12.411
29732SOL     OW89221   5.076  11.224  11.340
29732SOL    HW189222   5.111  11.183  11.256
29732SOL    HW289223   4.986  11.186  11.360
29733SOL     OW89224   5.024  11.625  11.863
29733SOL    HW189225   4.965  11.705  11.867
29733SOL    HW289226   5.039  11.590  11.956
29734SOL     OW89227   5.317  11.393  12.054
29734SOL    HW189228   5.233  11.392  12.108
29734SOL    HW289229   5.319  11.476  11.998
29735SOL     OW89230   3.763  12.249  11.472
29735SOL    HW189231   3.862  12.238  11.463
29735SOL    HW289232   3.723  12.163  11.504
29736SOL     OW89233   5.816   0.628   0.113
29736SOL    HW189234   5.723   0.626   0.150
29736SOL    HW289235   5.817   0.589   0.021
29737SOL     OW89236   5.811   0.275   0.996
29737SOL    HW189237   5.846   0.258   1.088
29737SOL    HW289238   5.723   0.230   0.984
29738SOL     OW89239   5.605   0.368   0.647
29738SOL    HW189240   5.523   0.411   0.686
29738SOL    HW289241   5.577   0.295   0.584
29739SOL     OW89242   6.155   1.275   1.165
29739SOL    HW189243   6.062   1.268   1.128
29739SOL    HW289244   6.166   1.364   1.209
29740SOL     OW89245   7.141   1.511   0.703
29740SOL    HW189246   7.084   1.495   0.784
29740SOL    HW289247   7.082   1.521   0.623
29741SOL     OW89248   6.721   0.703   0.717
29741SOL    HW189249   6.778   0.781   0.692
29741SOL    HW289250   6.661   0.729   0.793
29742SOL     OW89251   7.341   0.607   0.231
29742SOL    HW189252   7.329   0.594   0.132
29742SOL    HW289253   7.311   0.526   0.280
29743SOL     OW89254   6.354   1.144   1.023
29743SOL    HW189255   6.276   1.161   1.083
29743SOL    HW289256   6.388   1.231   0.987
29744SOL     OW89257   6.436   0.798   1.823
29744SOL    HW189258   6.432   0.874   1.888
29744SOL    HW289259   6.458   0.834   1.732
29745SOL     OW89260   6.271   1.012   0.665
29745SOL    HW189261   6.340   0.996   0.735
29745SOL    HW289262   6.198   1.069   0.703
29746SOL     OW89263   6.272   1.161   1.803
29746SOL    HW189264   6.332   1.240   1.817
29746SOL    HW289265   6.186   1.192   1.762
29747SOL     OW89266   5.921   1.435   1.061
29747SOL    HW189267   5.843   1.404   1.008
29747SOL    HW289268   5.979   1.493   1.004
29748SOL     OW89269   7.046   1.505   1.339
29748SOL    HW189270   7.070   1.599   1.365
29748SOL    HW289271   7.030   1.451   1.421
29749SOL     OW89272   6.024   0.392   1.499
29749SOL    HW189273   6.106   0.336   1.508
29749SOL    HW289274   5.943   0.334   1.503
29750SOL     OW89275   7.189   0.447   0.737
29750SOL    HW189276   7.115   0.493   0.687
29750SOL    HW289277   7.240   0.515   0.790
29751SOL     OW89278   5.817   1.713   0.483
29751SOL    HW189279   5.851   1.790   0.537
29751SOL    HW289280   5.861   1.713   0.393
29752SOL     OW89281   6.713   1.341   1.690
29752SOL    HW189282   6.760   1.341   1.778
29752SOL    HW289283   6.665   1.254   1.679
29753SOL     OW89284   5.816   1.434   0.538
29753SOL    HW189285   5.790   1.530   0.538
29753SOL    HW289286   5.745   1.380   0.583
29754SOL     OW89287   5.826   1.091   0.886
29754SOL    HW189288   5.840   1.007   0.938
29754SOL    HW289289   5.771   1.155   0.941
29755SOL     OW89290   6.206   1.786   1.439
29755SOL    HW189291   6.114   1.769   1.474
29755SOL    HW289292   6.234   1.878   1.465
29756SOL     OW89293   6.192   0.964   0.123
29756SOL    HW189294   6.199   1.048   0.069
29756SOL    HW289295   6.238   0.977   0.211
29757SOL     OW89296   7.180   0.114   1.480
29757SOL    HW189297   7.162   0.181   1.408
29757SOL    HW289298   7.177   0.160   1.569
29758SOL     OW89299   5.708   0.643   0.563
29758SOL    HW189300   5.663   0.555   0.580
29758SOL    HW289301   5.707   0.697   0.647
29759SOL     OW89302   7.428   1.767   0.359
29759SOL    HW189303   7.482   1.738   0.439
29759SOL    HW289304   7.458   1.857   0.330
29760SOL     OW89305   5.613   1.596   0.117
29760SOL    HW189306   5.594   1.500   0.138
29760SOL    HW289307   5.580   1.654   0.192
29761SOL     OW89308   7.275   0.922   0.612
29761SOL    HW189309   7.370   0.893   0.620
29761SOL    HW289310   7.267   0.987   0.537
29762SOL     OW89311   7.227   1.108   0.432
29762SOL    HW189312   7.313   1.110   0.380
29762SOL    HW289313   7.241   1.155   0.520
29763SOL     OW89314   5.699   0.737   1.597
29763SOL    HW189315   5.787   0.724   1.642
29763SOL    HW289316   5.686   0.834   1.575
29764SOL     OW89317   6.199   1.365   0.726
29764SOL    HW189318   6.150   1.278   0.735
29764SOL    HW289319   6.176   1.408   0.639
29765SOL     OW89320   6.879   1.228   1.423
29765SOL    HW189321   6.916   1.155   1.365
29765SOL    HW289322   6.931   1.233   1.508
29766SOL     OW89323   6.395   0.004   0.502
29766SOL    HW189324   6.435   0.095   0.493
29766SOL    HW289325   6.295   0.012   0.508
29767SOL     OW89326   5.783   0.976   1.264
29767SOL    HW189327   5.872   0.931   1.250
29767SOL    HW289328   5.710   0.911   1.245
29768SOL     OW89329   7.111   0.999   0.190
29768SOL    HW189330   7.048   0.923   0.203
29768SOL    HW289331   7.159   1.017   0.276
29769SOL     OW89332   6.773   1.792   1.616
29769SOL    HW189333   6.797   1.852   1.540
29769SOL    HW289334   6.780   1.697   1.586
29770SOL     OW89335   5.903   0.251   1.801
29770SOL    HW189336   5.974   0.322   1.807
29770SOL    HW289337   5.815   0.290   1.829
29771SOL     OW89338   7.052   1.417   0.953
29771SOL    HW189339   6.993   1.423   1.033
29771SOL    HW289340   7.037   1.329   0.907
29772SOL     OW89341   7.253   1.714   0.572
29772SOL    HW189342   7.212   1.691   0.484
29772SOL    HW289343   7.235   1.640   0.637
29773SOL     OW89344   6.184   0.729   0.270
29773SOL    HW189345   6.208   0.798   0.202
29773SOL    HW289346   6.106   0.762   0.324
29774SOL     OW89347   6.867   0.345   0.944
29774SOL    HW189348   6.781   0.295   0.931
29774SOL    HW289349   6.929   0.291   1.000
29775SOL     OW89350   7.162   1.662   0.307
29775SOL    HW189351   7.251   1.708   0.310
29775SOL    HW289352   7.141   1.638   0.212
29776SOL     OW89353   6.393   0.605   1.465
29776SOL    HW189354   6.346   0.602   1.554
29776SOL    HW289355   6.342   0.550   1.399
29777SOL     OW89356   6.980   0.469   1.674
29777SOL    HW189357   6.960   0.512   1.762
29777SOL    HW289358   7.058   0.407   1.683
29778SOL     OW89359   6.559   0.890   1.572
29778SOL    HW189360   6.605   0.806   1.543
29778SOL    HW289361   6.503   0.924   1.497
29779SOL     OW89362   6.577   0.410   1.242
29779SOL    HW189363   6.500   0.444   1.296
29779SOL    HW289364   6.543   0.359   1.163
29780SOL     OW89365   6.627   0.701   0.429
29780SOL    HW189366   6.653   0.697   0.525
29780SOL    HW289367   6.542   0.650   0.415
29781SOL     OW89368   5.662   0.811   0.789
29781SOL    HW189369   5.761   0.799   0.798
29781SOL    HW289370   5.638   0.906   0.810
29782SOL     OW89371   5.716   1.821   1.571
29782SOL    HW189372   5.706   1.806   1.670
29782SOL    HW289373   5.630   1.857   1.535
29783SOL     OW89374   6.451   0.348   0.195
29783SOL    HW189375   6.510   0.411   0.146
29783SOL    HW289376   6.470   0.254   0.166
29784SOL     OW89377   7.305   0.585   1.831
29784SOL    HW189378   7.279   0.674   1.795
29784SOL    HW289379   7.303   0.517   1.758
29785SOL     OW89380   6.948   1.144   0.545
29785SOL    HW189381   7.031   1.115   0.497
29785SOL    HW289382   6.899   1.211   0.489
29786SOL     OW89383   6.136   0.196   0.885
29786SOL    HW189384   6.131   0.191   0.985
29786SOL    HW289385   6.138   0.292   0.856
29787SOL     OW89386   6.594   1.456   0.477
29787SOL    HW189387   6.548   1.528   0.425
29787SOL    HW289388   6.590   1.476   0.575
29788SOL     OW89389   5.937   1.801   0.853
29788SOL    HW189390   5.987   1.715   0.859
29788SOL    HW289391   6.002   1.878   0.850
29789SOL     OW89392   7.381   1.066   0.873
29789SOL    HW189393   7.319   1.051   0.797
29789SOL    HW289394   7.329   1.077   0.958
29790SOL     OW89395   6.813   1.550   1.506
29790SOL    HW189396   6.819   1.473   1.570
29790SOL    HW289397   6.761   1.524   1.426
29791SOL     OW89398   5.907   0.943   0.242
29791SOL    HW189399   5.989   0.982   0.200
29791SOL    HW289400   5.880   0.861   0.193
29792SOL     OW89401   7.044   0.735   0.728
29792SOL    HW189402   7.039   0.670   0.803
29792SOL    HW289403   7.124   0.794   0.741
29793SOL     OW89404   6.047   1.266   1.727
29793SOL    HW189405   5.997   1.267   1.641
29793SOL    HW289406   5.984   1.248   1.803
29794SOL     OW89407   6.697   1.776   0.237
29794SOL    HW189408   6.637   1.714   0.287
29794SOL    HW289409   6.728   1.732   0.152
29795SOL     OW89410   5.788   0.285   1.498
29795SOL    HW189411   5.708   0.345   1.485
29795SOL    HW289412   5.778   0.236   1.584
29796SOL     OW89413   7.218   1.377   0.081
29796SOL    HW189414   7.186   1.471   0.071
29796SOL    HW289415   7.142   1.314   0.069
29797SOL     OW89416   6.050   1.743   0.323
29797SOL    HW189417   6.083   1.782   0.409
29797SOL    HW289418   6.126   1.736   0.258
29798SOL     OW89419   6.986   0.107   0.426
29798SOL    HW189420   6.962   0.070   0.336
29798SOL    HW289421   7.085   0.123   0.430
29799SOL     OW89422   5.835   1.785   1.241
29799SOL    HW189423   5.892   1.720   1.291
29799SOL    HW289424   5.819   1.752   1.148
29800SOL     OW89425   6.526   1.698   0.904
29800SOL    HW189426   6.606   1.641   0.925
29800SOL    HW289427   6.477   1.658   0.827
29801SOL     OW89428   5.968   0.700   0.480
29801SOL    HW189429   6.013   0.610   0.477
29801SOL    HW289430   5.874   0.689   0.513
29802SOL     OW89431   7.133   0.222   1.729
29802SOL    HW189432   7.128   0.259   1.821
29802SOL    HW289433   7.061   0.153   1.717
29803SOL     OW89434   6.200   0.122   0.117
29803SOL    HW189435   6.298   0.100   0.124
29803SOL    HW289436   6.169   0.105   0.024
29804SOL     OW89437   6.367   0.264   1.749
29804SOL    HW189438   6.434   0.203   1.792
29804SOL    HW289439   6.294   0.283   1.814
29805SOL     OW89440   6.474   1.514   1.195
29805SOL    HW189441   6.451   1.489   1.101
29805SOL    HW289442   6.535   1.445   1.234
29806SOL     OW89443   6.937   0.590   1.433
29806SOL    HW189444   6.965   0.547   1.518
29806SOL    HW289445   6.962   0.686   1.434
29807SOL     OW89446   6.389   1.402   0.924
29807SOL    HW189447   6.479   1.416   0.882
29807SOL    HW289448   6.318   1.404   0.853
29808SOL     OW89449   6.508   0.503   0.899
29808SOL    HW189450   6.483   0.494   0.803
29808SOL    HW289451   6.556   0.421   0.930
29809SOL     OW89452   6.125   0.064   0.512
29809SOL    HW189453   6.044   0.065   0.570
29809SOL    HW289454   6.128   0.147   0.457
29810SOL     OW89455   7.020   1.188   0.041
29810SOL    HW189456   7.052   1.112   0.098
29810SOL    HW289457   6.928   1.215   0.071
29811SOL     OW89458   5.883   0.035   0.171
29811SOL    HW189459   5.932   0.119   0.150
29811SOL    HW289460   5.945  -0.030   0.216
29812SOL     OW89461   6.521   0.236   0.480
29812SOL    HW189462   6.473   0.277   0.402
29812SOL    HW289463   6.620   0.234   0.461
29813SOL     OW89464   6.662   0.683   1.464
29813SOL    HW189465   6.582   0.622   1.467
29813SOL    HW289466   6.743   0.630   1.440
29814SOL     OW89467   6.813   1.570   0.793
29814SOL    HW189468   6.834   1.644   0.728
29814SOL    HW289469   6.881   1.570   0.866
29815SOL     OW89470   6.045   1.152   0.741
29815SOL    HW189471   5.974   1.125   0.806
29815SOL    HW289472   6.019   1.124   0.648
29816SOL     OW89473   6.857   1.797   0.591
29816SOL    HW189474   6.901   1.861   0.527
29816SOL    HW289475   6.807   1.849   0.661
29817SOL     OW89476   6.618   0.549   0.016
29817SOL    HW189477   6.577   0.631  -0.023
29817SOL    HW289478   6.682   0.575   0.089
29818SOL     OW89479   5.664   0.556   1.386
29818SOL    HW189480   5.756   0.555   1.345
29818SOL    HW289481   5.658   0.630   1.453
29819SOL     OW89482   6.147   0.222   1.147
29819SOL    HW189483   6.185   0.138   1.184
29819SOL    HW289484   6.059   0.241   1.191
29820SOL     OW89485   6.452   0.454   0.642
29820SOL    HW189486   6.420   0.526   0.580
29820SOL    HW289487   6.476   0.373   0.589
29821SOL     OW89488   6.603   0.039   0.753
29821SOL    HW189489   6.531   0.044   0.684
29821SOL    HW289490   6.579  -0.030   0.822
29822SOL     OW89491   7.015   1.173   0.867
29822SOL    HW189492   6.960   1.089   0.860
29822SOL    HW289493   7.041   1.202   0.775
29823SOL     OW89494   7.052   0.590   0.992
29823SOL    HW189495   7.022   0.495   0.999
29823SOL    HW289496   7.125   0.606   1.058
29824SOL     OW89497   7.443   0.833   0.377
29824SOL    HW189498   7.485   0.769   0.441
29824SOL    HW289499   7.405   0.782   0.299
29825SOL     OW89500   6.074   1.385   0.174
29825SOL    HW189501   5.987   1.370   0.221
29825SOL    HW289502   6.057   1.411   0.079
29826SOL     OW89503   7.250   1.280   0.657
29826SOL    HW189504   7.349   1.288   0.671
29826SOL    HW289505   7.205   1.364   0.688
29827SOL     OW89506   6.976   0.575   0.078
29827SOL    HW189507   6.922   0.554   0.159
29827SOL    HW289508   7.067   0.534   0.087
29828SOL     OW89509   6.113   0.256   0.328
29828SOL    HW189510   6.140   0.197   0.253
29828SOL    HW289511   6.113   0.351   0.297
29829SOL     OW89512   7.340   1.223   1.588
29829SOL    HW189513   7.431   1.184   1.575
29829SOL    HW289514   7.348   1.319   1.612
29830SOL     OW89515   6.650   1.347   1.340
29830SOL    HW189516   6.570   1.324   1.395
29830SOL    HW289517   6.733   1.321   1.389
29831SOL     OW89518   7.178   1.629   1.625
29831SOL    HW189519   7.205   1.663   1.535
29831SOL    HW289520   7.257   1.591   1.671
29832SOL     OW89521   6.697   1.195   1.100
29832SOL    HW189522   6.657   1.239   1.181
29832SOL    HW289523   6.656   1.232   1.017
29833SOL     OW89524   7.224   1.099   1.079
29833SOL    HW189525   7.229   1.180   1.138
29833SOL    HW289526   7.138   1.101   1.028
29834SOL     OW89527   6.501   0.089   1.402
29834SOL    HW189528   6.526   0.069   1.307
29834SOL    HW289529   6.573   0.145   1.444
29835SOL     OW89530   6.566   1.116   1.719
29835SOL    HW189531   6.467   1.122   1.729
29835SOL    HW289532   6.589   1.036   1.663
29836SOL     OW89533   6.291   1.050   0.368
29836SOL    HW189534   6.277   1.057   0.467
29836SOL    HW289535   6.375   0.999   0.350
29837SOL     OW89536   5.996   0.813   1.251
29837SOL    HW189537   6.082   0.825   1.301
29837SOL    HW289538   5.954   0.726   1.278
29838SOL     OW89539   6.860   0.386   1.262
29838SOL    HW189540   6.881   0.460   1.326
29838SOL    HW289541   6.771   0.403   1.219
29839SOL     OW89542   5.650   1.564   1.331
29839SOL    HW189543   5.604   1.646   1.297
29839SOL    HW289544   5.748   1.583   1.340
29840SOL     OW89545   5.953   1.100   0.501
29840SOL    HW189546   5.946   1.183   0.445
29840SOL    HW289547   5.957   1.020   0.441
29841SOL     OW89548   6.152   0.537   0.865
29841SOL    HW189549   6.164   0.603   0.791
29841SOL    HW289550   6.198   0.571   0.948
29842SOL     OW89551   6.838   1.348   0.388
29842SOL    HW189552   6.888   1.425   0.428
29842SOL    HW289553   6.743   1.350   0.420
29843SOL     OW89554   6.858   1.445   1.142
29843SOL    HW189555   6.905   1.458   1.229
29843SOL    HW289556   6.792   1.371   1.151
29844SOL     OW89557   7.168   0.639   0.472
29844SOL    HW189558   7.137   0.700   0.545
29844SOL    HW289559   7.218   0.691   0.403
29845SOL     OW89560   5.940   1.510   1.329
29845SOL    HW189561   5.919   1.466   1.242
29845SOL    HW289562   6.037   1.536   1.332
29846SOL     OW89563   5.988   0.751   1.598
29846SOL    HW189564   6.056   0.806   1.551
29846SOL    HW289565   6.028   0.663   1.625
29847SOL     OW89566   7.173   0.779   1.670
29847SOL    HW189567   7.081   0.817   1.665
29847SOL    HW289568   7.233   0.826   1.605
29848SOL     OW89569   6.599   0.105   1.770
29848SOL    HW189570   6.605   0.190   1.718
29848SOL    HW289571   6.631   0.029   1.713
29849SOL     OW89572   6.090   0.050   1.740
29849SOL    HW189573   6.048  -0.007   1.670
29849SOL    HW289574   6.024   0.119   1.772
29850SOL     OW89575   6.159   0.870   1.029
29850SOL    HW189576   6.203   0.959   1.020
29850SOL    HW289577   6.096   0.870   1.106
29851SOL     OW89578   6.946   0.862   1.045
29851SOL    HW189579   6.871   0.862   0.979
29851SOL    HW289580   6.983   0.770   1.054
29852SOL     OW89581   6.795   0.525   0.275
29852SOL    HW189582   6.808   0.441   0.329
29852SOL    HW289583   6.766   0.599   0.335
29853SOL     OW89584   5.893   0.213   1.231
29853SOL    HW189585   5.870   0.250   1.321
29853SOL    HW289586   5.863   0.118   1.225
29854SOL     OW89587   5.623   1.310   1.282
29854SOL    HW189588   5.676   1.261   1.350
29854SOL    HW289589   5.645   1.408   1.287
29855SOL     OW89590   6.318   0.634   1.064
29855SOL    HW189591   6.377   0.608   0.988
29855SOL    HW289592   6.290   0.730   1.053
29856SOL     OW89593   7.314   0.935   1.854
29856SOL    HW189594   7.268   0.928   1.765
29856SOL    HW289595   7.252   0.979   1.920
29857SOL     OW89596   5.893   0.063   0.618
29857SOL    HW189597   5.882   0.157   0.651
29857SOL    HW289598   5.888   0.000   0.695
29858SOL     OW89599   7.208   0.367   0.374
29858SOL    HW189600   7.210   0.291   0.438
29858SOL    HW289601   7.160   0.444   0.414
29859SOL     OW89602   6.609   0.766   0.966
29859SOL    HW189603   6.624   0.787   1.062
29859SOL    HW289604   6.579   0.671   0.957
29860SOL     OW89605   6.566   1.573   1.700
29860SOL    HW189606   6.546   1.617   1.612
29860SOL    HW289607   6.605   1.482   1.684
29861SOL     OW89608   7.445   1.518   1.605
29861SOL    HW189609   7.459   1.545   1.510
29861SOL    HW289610   7.528   1.540   1.658
29862SOL     OW89611   5.936   0.898   1.804
29862SOL    HW189612   6.012   0.942   1.852
29862SOL    HW289613   5.971   0.851   1.722
29863SOL     OW89614   7.126   0.274   0.125
29863SOL    HW189615   7.065   0.199   0.148
29863SOL    HW289616   7.148   0.326   0.208
29864SOL     OW89617   6.889   0.838   0.042
29864SOL    HW189618   6.923   0.745   0.057
29864SOL    HW289619   6.907   0.865  -0.053
29865SOL     OW89620   6.654   1.333   0.849
29865SOL    HW189621   6.661   1.249   0.794
29865SOL    HW289622   6.716   1.402   0.813
29866SOL     OW89623   5.905   0.810   0.949
29866SOL    HW189624   5.998   0.846   0.954
29866SOL    HW289625   5.899   0.725   1.001
29867SOL     OW89626   5.925   0.509   1.006
29867SOL    HW189627   5.873   0.426   0.989
29867SOL    HW289628   6.002   0.514   0.942
29868SOL     OW89629   6.724   0.380   1.678
29868SOL    HW189630   6.679   0.443   1.742
29868SOL    HW289631   6.817   0.411   1.661
29869SOL     OW89632   6.746   0.207   1.477
29869SOL    HW189633   6.746   0.271   1.554
29869SOL    HW289634   6.774   0.255   1.394
29870SOL     OW89635   5.594   1.326   0.200
29870SOL    HW189636   5.501   1.347   0.169
29870SOL    HW289637   5.604   1.227   0.213
29871SOL     OW89638   5.674   1.801   0.927
29871SOL    HW189639   5.632   1.715   0.900
29871SOL    HW289640   5.768   1.804   0.893
29872SOL     OW89641   6.090   1.568   0.910
29872SOL    HW189642   6.156   1.642   0.919
29872SOL    HW289643   6.134   1.489   0.868
29873SOL     OW89644   6.588   0.796   1.238
29873SOL    HW189645   6.629   0.764   1.324
29873SOL    HW289646   6.492   0.769   1.235
29874SOL     OW89647   5.626   0.544   1.114
29874SOL    HW189648   5.711   0.511   1.073
29874SOL    HW289649   5.639   0.559   1.212
29875SOL     OW89650   5.775   0.520   1.722
29875SOL    HW189651   5.834   0.480   1.652
29875SOL    HW289652   5.717   0.591   1.681
29876SOL     OW89653   6.955   0.950   1.660
29876SOL    HW189654   6.994   1.039   1.680
29876SOL    HW289655   6.965   0.930   1.563
29877SOL     OW89656   6.401   0.572   0.325
29877SOL    HW189657   6.408   0.483   0.279
29877SOL    HW289658   6.307   0.606   0.317
29878SOL     OW89659   7.243   0.604   1.206
29878SOL    HW189660   7.205   0.535   1.268
29878SOL    HW289661   7.325   0.568   1.162
29879SOL     OW89662   5.838   1.564   1.744
29879SOL    HW189663   5.808   1.621   1.820
29879SOL    HW289664   5.831   1.467   1.770
29880SOL     OW89665   6.257   0.464   1.269
29880SOL    HW189666   6.223   0.375   1.239
29880SOL    HW289667   6.283   0.518   1.189
29881SOL     OW89668   6.516   1.678   1.465
29881SOL    HW189669   6.492   1.660   1.370
29881SOL    HW289670   6.546   1.772   1.475
29882SOL     OW89671   6.059   0.500   0.191
29882SOL    HW189672   6.120   0.580   0.195
29882SOL    HW289673   5.964   0.531   0.198
29883SOL     OW89674   5.745   1.137   1.466
29883SOL    HW189675   5.767   1.076   1.542
29883SOL    HW289676   5.755   1.088   1.380
29884SOL     OW89677   6.933   1.059   1.234
29884SOL    HW189678   6.957   0.996   1.160
29884SOL    HW289679   6.843   1.099   1.216
29885SOL     OW89680   6.888   0.855   0.309
29885SOL    HW189681   6.802   0.824   0.351
29885SOL    HW289682   6.884   0.841   0.210
29886SOL     OW89683   7.345   1.747   1.154
29886SOL    HW189684   7.406   1.777   1.081
29886SOL    HW289685   7.307   1.658   1.132
29887SOL     OW89686   6.838   1.731   1.128
29887SOL    HW189687   6.922   1.736   1.074
29887SOL    HW289688   6.815   1.635   1.146
29888SOL     OW89689   5.669   1.258   1.022
29888SOL    HW189690   5.664   1.257   1.122
29888SOL    HW289691   5.586   1.217   0.984
29889SOL     OW89692   6.274   1.662   1.716
29889SOL    HW189693   6.218   1.743   1.725
29889SOL    HW289694   6.326   1.666   1.630
29890SOL     OW89695   6.489   0.086   0.133
29890SOL    HW189696   6.540   0.087   0.047
29890SOL    HW289697   6.545   0.044   0.204
29891SOL     OW89698   7.312   0.135   0.523
29891SOL    HW189699   7.385   0.118   0.456
29891SOL    HW289700   7.281   0.048   0.561
29892SOL     OW89701   6.974   1.573   0.477
29892SOL    HW189702   7.041   1.585   0.403
29892SOL    HW289703   6.934   1.662   0.500
29893SOL     OW89704   5.716   1.794   1.851
29893SOL    HW189705   5.675   1.720   1.904
29893SOL    HW289706   5.780   1.845   1.909
29894SOL     OW89707   6.866   0.927   0.672
29894SOL    HW189708   6.926   0.846   0.674
29894SOL    HW289709   6.906   0.996   0.612
29895SOL     OW89710   6.416   1.273   1.422
29895SOL    HW189711   6.411   1.306   1.517
29895SOL    HW289712   6.330   1.292   1.376
29896SOL     OW89713   6.258   1.616   0.154
29896SOL    HW189714   6.267   1.626   0.055
29896SOL    HW289715   6.218   1.527   0.175
29897SOL     OW89716   7.236   1.720   1.394
29897SOL    HW189717   7.289   1.730   1.310
29897SOL    HW289718   7.209   1.810   1.428
29898SOL     OW89719   7.427   0.175   0.963
29898SOL    HW189720   7.466   0.090   0.927
29898SOL    HW289721   7.329   0.177   0.944
29899SOL     OW89722   5.849   0.326   0.720
29899SOL    HW189723   5.770   0.377   0.686
29899SOL    HW289724   5.840   0.311   0.818
29900SOL     OW89725   6.780   1.612   0.031
29900SOL    HW189726   6.786   1.519   0.068
29900SOL    HW289727   6.721   1.612  -0.049
29901SOL     OW89728   6.408   1.002   1.372
29901SOL    HW189729   6.448   1.001   1.280
29901SOL    HW289730   6.418   1.094   1.412
29902SOL     OW89731   6.502   0.910   0.291
29902SOL    HW189732   6.565   0.948   0.223
29902SOL    HW289733   6.542   0.827   0.330
29903SOL     OW89734   7.090   1.607   0.044
29903SOL    HW189735   6.998   1.644   0.051
29903SOL    HW289736   7.128   1.627  -0.046
29904SOL     OW89737   5.958   1.288   1.490
29904SOL    HW189738   5.945   1.381   1.456
29904SOL    HW289739   5.874   1.236   1.477
29905SOL     OW89740   7.200   1.292   1.289
29905SOL    HW189741   7.260   1.295   1.369
29905SOL    HW289742   7.125   1.356   1.302
29906SOL     OW89743   6.625   1.098   0.696
29906SOL    HW189744   6.555   1.051   0.750
29906SOL    HW289745   6.684   1.030   0.653
29907SOL     OW89746   6.600   0.236   0.971
29907SOL    HW189747   6.592   0.200   0.878
29907SOL    HW289748   6.598   0.160   1.036
29908SOL     OW89749   6.176   1.487   0.491
29908SOL    HW189750   6.218   1.429   0.421
29908SOL    HW289751   6.132   1.566   0.447
29909SOL     OW89752   7.295   0.385   1.381
29909SOL    HW189753   7.368   0.454   1.385
29909SOL    HW289754   7.323   0.310   1.322
29910SOL     OW89755   5.841   1.348   0.290
29910SOL    HW189756   5.745   1.349   0.263
29910SOL    HW289757   5.853   1.401   0.374
29911SOL     OW89758   5.691   1.013   1.726
29911SOL    HW189759   5.614   0.980   1.780
29911SOL    HW289760   5.776   0.983   1.768
29912SOL     OW89761   6.258   0.203   1.489
29912SOL    HW189762   6.348   0.187   1.449
29912SOL    HW289763   6.266   0.208   1.588
29913SOL     OW89764   7.026   0.856   1.398
29913SOL    HW189765   6.969   0.908   1.335
29913SOL    HW289766   7.122   0.868   1.374
29914SOL     OW89767   5.658   0.166   0.318
29914SOL    HW189768   5.641   0.249   0.264
29914SOL    HW289769   5.748   0.129   0.296
29915SOL     OW89770   6.769   1.335   0.119
29915SOL    HW189771   6.670   1.324   0.121
29915SOL    HW289772   6.803   1.350   0.212
29916SOL     OW89773   6.199   0.842   1.431
29916SOL    HW189774   6.255   0.923   1.414
29916SOL    HW289775   6.258   0.762   1.434
29917SOL     OW89776   7.079   1.767   0.959
29917SOL    HW189777   7.112   1.831   0.890
29917SOL    HW289778   7.145   1.761   1.034
29918SOL     OW89779   6.302   0.565   1.708
29918SOL    HW189780   6.321   0.630   1.782
29918SOL    HW289781   6.362   0.485   1.717
29919SOL     OW89782   7.036   1.220   1.633
29919SOL    HW189783   7.027   1.210   1.732
29919SOL    HW289784   7.132   1.213   1.607
29920SOL     OW89785   5.976   1.741   1.560
29920SOL    HW189786   5.885   1.782   1.558
29920SOL    HW289787   5.969   1.647   1.592
29921SOL     OW89788   7.260   0.883   1.254
29921SOL    HW189789   7.233   0.794   1.217
29921SOL    HW289790   7.261   0.951   1.181
29922SOL     OW89791   6.811   0.325   0.449
29922SOL    HW189792   6.876   0.251   0.438
29922SOL    HW289793   6.831   0.375   0.533
29923SOL     OW89794   6.180   0.745   0.652
29923SOL    HW189795   6.230   0.830   0.633
29923SOL    HW289796   6.092   0.747   0.604
29924SOL     OW89797   7.363   0.342   1.642
29924SOL    HW189798   7.346   0.373   1.548
29924SOL    HW289799   7.279   0.305   1.680
29925SOL     OW89800   7.316   0.934   1.517
29925SOL    HW189801   7.354   1.025   1.532
29925SOL    HW289802   7.308   0.917   1.418
29926SOL     OW89803   6.445   1.374   0.016
29926SOL    HW189804   6.399   1.389   0.104
29926SOL    HW289805   6.489   1.459  -0.014
29927SOL     OW89806   6.247   1.790   0.953
29927SOL    HW189807   6.201   1.878   0.940
29927SOL    HW289808   6.346   1.802   0.946
29928SOL     OW89809   6.445   0.956   0.861
29928SOL    HW189810   6.499   0.887   0.909
29928SOL    HW289811   6.413   1.025   0.927
29929SOL     OW89812   6.669   0.984   0.087
29929SOL    HW189813   6.646   1.037   0.005
29929SOL    HW289814   6.750   0.928   0.068
29930SOL     OW89815   7.447   1.569   0.851
29930SOL    HW189816   7.376   1.557   0.781
29930SOL    HW289817   7.448   1.490   0.911
29931SOL     OW89818   5.807   1.314   1.844
29931SOL    HW189819   5.742   1.241   1.823
29931SOL    HW289820   5.811   1.328   1.942
29932SOL     OW89821   5.665   1.240   0.653
29932SOL    HW189822   5.664   1.193   0.741
29932SOL    HW289823   5.747   1.212   0.602
29933SOL     OW89824   6.258   1.391   1.624
29933SOL    HW189825   6.180   1.341   1.662
29933SOL    HW289826   6.255   1.486   1.655
29934SOL     OW89827   7.410   0.192   1.227
29934SOL    HW189828   7.406   0.102   1.271
29934SOL    HW289829   7.413   0.181   1.128
29935SOL     OW89830   6.014   0.424   0.520
29935SOL    HW189831   6.044   0.352   0.458
29935SOL    HW289832   5.975   0.384   0.603
29936SOL     OW89833   7.291   1.487   1.104
29936SOL    HW189834   7.198   1.462   1.077
29936SOL    HW289835   7.317   1.437   1.186
29937SOL     OW89836   5.903   0.547   1.280
29937SOL    HW189837   5.941   0.488   1.352
29937SOL    HW289838   5.943   0.521   1.192
29938SOL     OW89839   6.398   1.586   0.687
29938SOL    HW189840   6.430   1.596   0.593
29938SOL    HW289841   6.319   1.524   0.689
29939SOL     OW89842   7.010   0.214   1.112
29939SOL    HW189843   7.062   0.149   1.167
29939SOL    HW289844   6.961   0.277   1.173
29940SOL     OW89845   6.587   0.034   1.154
29940SOL    HW189846   6.524  -0.038   1.123
29940SOL    HW289847   6.680  -0.002   1.154
29941SOL     OW89848   6.356   1.330   0.301
29941SOL    HW189849   6.310   1.243   0.318
29941SOL    HW289850   6.447   1.327   0.342
29942SOL     OW89851   6.204   1.567   1.284
29942SOL    HW189852   6.199   1.649   1.341
29942SOL    HW289853   6.293   1.564   1.239
29943SOL     OW89854   6.938   0.052   0.168
29943SOL    HW189855   6.973   0.011   0.084
29943SOL    HW289856   6.848   0.014   0.188
29944SOL     OW89857   6.886   0.453   0.691
29944SOL    HW189858   6.827   0.533   0.695
29944SOL    HW289859   6.901   0.418   0.784
29945SOL     OW89860   7.179   0.221   0.882
29945SOL    HW189861   7.095   0.220   0.936
29945SOL    HW289862   7.181   0.304   0.826
29946SOL     OW89863   5.625   1.077   0.300
29946SOL    HW189864   5.724   1.066   0.291
29946SOL    HW289865   5.585   0.991   0.332
29947SOL     OW89866   6.461   1.646   0.337
29947SOL    HW189867   6.384   1.611   0.283
29947SOL    HW289868   6.429   1.717   0.399
29948SOL     OW89869   5.816   0.628   1.975
29948SOL    HW189870   5.723   0.626   2.012
29948SOL    HW289871   5.817   0.589   1.883
29949SOL     OW89872   5.811   0.275   2.858
29949SOL    HW189873   5.846   0.258   2.950
29949SOL    HW289874   5.723   0.230   2.846
29950SOL     OW89875   5.605   0.368   2.509
29950SOL    HW189876   5.523   0.411   2.548
29950SOL    HW289877   5.577   0.295   2.446
29951SOL     OW89878   6.155   1.275   3.027
29951SOL    HW189879   6.062   1.268   2.990
29951SOL    HW289880   6.166   1.364   3.071
29952SOL     OW89881   7.141   1.511   2.565
29952SOL    HW189882   7.084   1.495   2.646
29952SOL    HW289883   7.082   1.521   2.485
29953SOL     OW89884   6.721   0.703   2.579
29953SOL    HW189885   6.778   0.781   2.554
29953SOL    HW289886   6.661   0.729   2.655
29954SOL     OW89887   7.341   0.607   2.093
29954SOL    HW189888   7.329   0.594   1.994
29954SOL    HW289889   7.311   0.526   2.142
29955SOL     OW89890   6.354   1.144   2.885
29955SOL    HW189891   6.276   1.161   2.945
29955SOL    HW289892   6.388   1.231   2.849
29956SOL     OW89893   6.436   0.798   3.685
29956SOL    HW189894   6.432   0.874   3.750
29956SOL    HW289895   6.458   0.834   3.594
29957SOL     OW89896   6.271   1.012   2.527
29957SOL    HW189897   6.340   0.996   2.597
29957SOL    HW289898   6.198   1.069   2.565
29958SOL     OW89899   6.272   1.161   3.665
29958SOL    HW189900   6.332   1.240   3.679
29958SOL    HW289901   6.186   1.192   3.624
29959SOL     OW89902   5.921   1.435   2.923
29959SOL    HW189903   5.843   1.404   2.870
29959SOL    HW289904   5.979   1.493   2.866
29960SOL     OW89905   7.046   1.505   3.201
29960SOL    HW189906   7.070   1.599   3.227
29960SOL    HW289907   7.030   1.451   3.283
29961SOL     OW89908   6.024   0.392   3.361
29961SOL    HW189909   6.106   0.336   3.370
29961SOL    HW289910   5.943   0.334   3.365
29962SOL     OW89911   7.189   0.447   2.599
29962SOL    HW189912   7.115   0.493   2.549
29962SOL    HW289913   7.240   0.515   2.652
29963SOL     OW89914   5.817   1.713   2.345
29963SOL    HW189915   5.851   1.790   2.399
29963SOL    HW289916   5.861   1.713   2.255
29964SOL     OW89917   6.713   1.341   3.552
29964SOL    HW189918   6.760   1.341   3.640
29964SOL    HW289919   6.665   1.254   3.541
29965SOL     OW89920   5.816   1.434   2.400
29965SOL    HW189921   5.790   1.530   2.400
29965SOL    HW289922   5.745   1.380   2.445
29966SOL     OW89923   5.826   1.091   2.748
29966SOL    HW189924   5.840   1.007   2.800
29966SOL    HW289925   5.771   1.155   2.803
29967SOL     OW89926   6.206   1.786   3.301
29967SOL    HW189927   6.114   1.769   3.336
29967SOL    HW289928   6.234   1.878   3.327
29968SOL     OW89929   6.192   0.964   1.985
29968SOL    HW189930   6.199   1.048   1.931
29968SOL    HW289931   6.238   0.977   2.073
29969SOL     OW89932   7.180   0.114   3.342
29969SOL    HW189933   7.162   0.181   3.270
29969SOL    HW289934   7.177   0.160   3.431
29970SOL     OW89935   5.708   0.643   2.425
29970SOL    HW189936   5.663   0.555   2.442
29970SOL    HW289937   5.707   0.697   2.509
29971SOL     OW89938   7.428   1.767   2.221
29971SOL    HW189939   7.482   1.738   2.301
29971SOL    HW289940   7.458   1.857   2.192
29972SOL     OW89941   5.613   1.596   1.979
29972SOL    HW189942   5.594   1.500   2.000
29972SOL    HW289943   5.580   1.654   2.054
29973SOL     OW89944   7.275   0.922   2.474
29973SOL    HW189945   7.370   0.893   2.482
29973SOL    HW289946   7.267   0.987   2.399
29974SOL     OW89947   7.227   1.108   2.294
29974SOL    HW189948   7.313   1.110   2.242
29974SOL    HW289949   7.241   1.155   2.382
29975SOL     OW89950   5.699   0.737   3.459
29975SOL    HW189951   5.787   0.724   3.504
29975SOL    HW289952   5.686   0.834   3.437
29976SOL     OW89953   6.199   1.365   2.588
29976SOL    HW189954   6.150   1.278   2.597
29976SOL    HW289955   6.176   1.408   2.501
29977SOL     OW89956   6.879   1.228   3.285
29977SOL    HW189957   6.916   1.155   3.227
29977SOL    HW289958   6.931   1.233   3.370
29978SOL     OW89959   6.395   0.004   2.364
29978SOL    HW189960   6.435   0.095   2.355
29978SOL    HW289961   6.295   0.012   2.370
29979SOL     OW89962   5.783   0.976   3.126
29979SOL    HW189963   5.872   0.931   3.112
29979SOL    HW289964   5.710   0.911   3.107
29980SOL     OW89965   7.111   0.999   2.052
29980SOL    HW189966   7.048   0.923   2.065
29980SOL    HW289967   7.159   1.017   2.138
29981SOL     OW89968   6.773   1.792   3.478
29981SOL    HW189969   6.797   1.852   3.402
29981SOL    HW289970   6.780   1.697   3.448
29982SOL     OW89971   5.903   0.251   3.663
29982SOL    HW189972   5.974   0.322   3.669
29982SOL    HW289973   5.815   0.290   3.691
29983SOL     OW89974   7.052   1.417   2.815
29983SOL    HW189975   6.993   1.423   2.895
29983SOL    HW289976   7.037   1.329   2.769
29984SOL     OW89977   7.253   1.714   2.434
29984SOL    HW189978   7.212   1.691   2.346
29984SOL    HW289979   7.235   1.640   2.499
29985SOL     OW89980   6.184   0.729   2.132
29985SOL    HW189981   6.208   0.798   2.064
29985SOL    HW289982   6.106   0.762   2.186
29986SOL     OW89983   6.867   0.345   2.806
29986SOL    HW189984   6.781   0.295   2.793
29986SOL    HW289985   6.929   0.291   2.862
29987SOL     OW89986   7.162   1.662   2.169
29987SOL    HW189987   7.251   1.708   2.172
29987SOL    HW289988   7.141   1.638   2.074
29988SOL     OW89989   6.393   0.605   3.327
29988SOL    HW189990   6.346   0.602   3.416
29988SOL    HW289991   6.342   0.550   3.261
29989SOL     OW89992   6.980   0.469   3.536
29989SOL    HW189993   6.960   0.512   3.624
29989SOL    HW289994   7.058   0.407   3.545
29990SOL     OW89995   6.559   0.890   3.434
29990SOL    HW189996   6.605   0.806   3.405
29990SOL    HW289997   6.503   0.924   3.359
29991SOL     OW89998   6.577   0.410   3.104
29991SOL    HW189999   6.500   0.444   3.158
29991SOL    HW290000   6.543   0.359   3.025
29992SOL     OW90001   6.627   0.701   2.291
29992SOL    HW190002   6.653   0.697   2.387
29992SOL    HW290003   6.542   0.650   2.277
29993SOL     OW90004   5.662   0.811   2.651
29993SOL    HW190005   5.761   0.799   2.660
29993SOL    HW290006   5.638   0.906   2.672
29994SOL     OW90007   5.716   1.821   3.433
29994SOL    HW190008   5.706   1.806   3.532
29994SOL    HW290009   5.630   1.857   3.397
29995SOL     OW90010   6.451   0.348   2.057
29995SOL    HW190011   6.510   0.411   2.008
29995SOL    HW290012   6.470   0.254   2.028
29996SOL     OW90013   7.305   0.585   3.693
29996SOL    HW190014   7.279   0.674   3.657
29996SOL    HW290015   7.303   0.517   3.620
29997SOL     OW90016   6.948   1.144   2.407
29997SOL    HW190017   7.031   1.115   2.359
29997SOL    HW290018   6.899   1.211   2.351
29998SOL     OW90019   6.136   0.196   2.747
29998SOL    HW190020   6.131   0.191   2.847
29998SOL    HW290021   6.138   0.292   2.718
29999SOL     OW90022   6.594   1.456   2.339
29999SOL    HW190023   6.548   1.528   2.287
29999SOL    HW290024   6.590   1.476   2.437
30000SOL     OW90025   5.937   1.801   2.715
30000SOL    HW190026   5.987   1.715   2.721
30000SOL    HW290027   6.002   1.878   2.712
30001SOL     OW90028   7.381   1.066   2.735
30001SOL    HW190029   7.319   1.051   2.659
30001SOL    HW290030   7.329   1.077   2.820
30002SOL     OW90031   6.813   1.550   3.368
30002SOL    HW190032   6.819   1.473   3.432
30002SOL    HW290033   6.761   1.524   3.288
30003SOL     OW90034   5.907   0.943   2.104
30003SOL    HW190035   5.989   0.982   2.062
30003SOL    HW290036   5.880   0.861   2.055
30004SOL     OW90037   7.044   0.735   2.590
30004SOL    HW190038   7.039   0.670   2.665
30004SOL    HW290039   7.124   0.794   2.603
30005SOL     OW90040   6.047   1.266   3.589
30005SOL    HW190041   5.997   1.267   3.503
30005SOL    HW290042   5.984   1.248   3.665
30006SOL     OW90043   6.697   1.776   2.099
30006SOL    HW190044   6.637   1.714   2.149
30006SOL    HW290045   6.728   1.732   2.014
30007SOL     OW90046   5.788   0.285   3.360
30007SOL    HW190047   5.708   0.345   3.347
30007SOL    HW290048   5.778   0.236   3.446
30008SOL     OW90049   7.218   1.377   1.943
30008SOL    HW190050   7.186   1.471   1.933
30008SOL    HW290051   7.142   1.314   1.931
30009SOL     OW90052   6.050   1.743   2.185
30009SOL    HW190053   6.083   1.782   2.271
30009SOL    HW290054   6.126   1.736   2.120
30010SOL     OW90055   6.986   0.107   2.288
30010SOL    HW190056   6.962   0.070   2.198
30010SOL    HW290057   7.085   0.123   2.292
30011SOL     OW90058   5.835   1.785   3.103
30011SOL    HW190059   5.892   1.720   3.153
30011SOL    HW290060   5.819   1.752   3.010
30012SOL     OW90061   6.526   1.698   2.766
30012SOL    HW190062   6.606   1.641   2.787
30012SOL    HW290063   6.477   1.658   2.689
30013SOL     OW90064   5.968   0.700   2.342
30013SOL    HW190065   6.013   0.610   2.339
30013SOL    HW290066   5.874   0.689   2.375
30014SOL     OW90067   7.133   0.222   3.591
30014SOL    HW190068   7.128   0.259   3.683
30014SOL    HW290069   7.061   0.153   3.579
30015SOL     OW90070   6.200   0.122   1.979
30015SOL    HW190071   6.298   0.100   1.986
30015SOL    HW290072   6.169   0.105   1.886
30016SOL     OW90073   6.367   0.264   3.611
30016SOL    HW190074   6.434   0.203   3.654
30016SOL    HW290075   6.294   0.283   3.676
30017SOL     OW90076   6.474   1.514   3.057
30017SOL    HW190077   6.451   1.489   2.963
30017SOL    HW290078   6.535   1.445   3.096
30018SOL     OW90079   6.937   0.590   3.295
30018SOL    HW190080   6.965   0.547   3.380
30018SOL    HW290081   6.962   0.686   3.296
30019SOL     OW90082   6.389   1.402   2.786
30019SOL    HW190083   6.479   1.416   2.744
30019SOL    HW290084   6.318   1.404   2.715
30020SOL     OW90085   6.508   0.503   2.761
30020SOL    HW190086   6.483   0.494   2.665
30020SOL    HW290087   6.556   0.421   2.792
30021SOL     OW90088   6.125   0.064   2.374
30021SOL    HW190089   6.044   0.065   2.432
30021SOL    HW290090   6.128   0.147   2.319
30022SOL     OW90091   7.020   1.188   1.903
30022SOL    HW190092   7.052   1.112   1.960
30022SOL    HW290093   6.928   1.215   1.933
30023SOL     OW90094   5.883   0.035   2.033
30023SOL    HW190095   5.932   0.119   2.012
30023SOL    HW290096   5.945  -0.030   2.078
30024SOL     OW90097   6.521   0.236   2.342
30024SOL    HW190098   6.473   0.277   2.264
30024SOL    HW290099   6.620   0.234   2.323
30025SOL     OW90100   6.662   0.683   3.326
30025SOL    HW190101   6.582   0.622   3.329
30025SOL    HW290102   6.743   0.630   3.302
30026SOL     OW90103   6.813   1.570   2.655
30026SOL    HW190104   6.834   1.644   2.590
30026SOL    HW290105   6.881   1.570   2.728
30027SOL     OW90106   6.045   1.152   2.603
30027SOL    HW190107   5.974   1.125   2.668
30027SOL    HW290108   6.019   1.124   2.510
30028SOL     OW90109   6.857   1.797   2.453
30028SOL    HW190110   6.901   1.861   2.389
30028SOL    HW290111   6.807   1.849   2.523
30029SOL     OW90112   6.618   0.549   1.878
30029SOL    HW190113   6.577   0.631   1.839
30029SOL    HW290114   6.682   0.575   1.951
30030SOL     OW90115   5.664   0.556   3.248
30030SOL    HW190116   5.756   0.555   3.207
30030SOL    HW290117   5.658   0.630   3.315
30031SOL     OW90118   6.147   0.222   3.009
30031SOL    HW190119   6.185   0.138   3.046
30031SOL    HW290120   6.059   0.241   3.053
30032SOL     OW90121   6.452   0.454   2.504
30032SOL    HW190122   6.420   0.526   2.442
30032SOL    HW290123   6.476   0.373   2.451
30033SOL     OW90124   6.603   0.039   2.615
30033SOL    HW190125   6.531   0.044   2.546
30033SOL    HW290126   6.579  -0.030   2.684
30034SOL     OW90127   7.015   1.173   2.729
30034SOL    HW190128   6.960   1.089   2.722
30034SOL    HW290129   7.041   1.202   2.637
30035SOL     OW90130   7.052   0.590   2.854
30035SOL    HW190131   7.022   0.495   2.861
30035SOL    HW290132   7.125   0.606   2.920
30036SOL     OW90133   7.443   0.833   2.239
30036SOL    HW190134   7.485   0.769   2.303
30036SOL    HW290135   7.405   0.782   2.161
30037SOL     OW90136   6.074   1.385   2.036
30037SOL    HW190137   5.987   1.370   2.083
30037SOL    HW290138   6.057   1.411   1.941
30038SOL     OW90139   7.250   1.280   2.519
30038SOL    HW190140   7.349   1.288   2.533
30038SOL    HW290141   7.205   1.364   2.550
30039SOL     OW90142   6.976   0.575   1.940
30039SOL    HW190143   6.922   0.554   2.021
30039SOL    HW290144   7.067   0.534   1.949
30040SOL     OW90145   6.113   0.256   2.190
30040SOL    HW190146   6.140   0.197   2.115
30040SOL    HW290147   6.113   0.351   2.159
30041SOL     OW90148   7.340   1.223   3.450
30041SOL    HW190149   7.431   1.184   3.437
30041SOL    HW290150   7.348   1.319   3.474
30042SOL     OW90151   6.650   1.347   3.202
30042SOL    HW190152   6.570   1.324   3.257
30042SOL    HW290153   6.733   1.321   3.251
30043SOL     OW90154   7.178   1.629   3.487
30043SOL    HW190155   7.205   1.663   3.397
30043SOL    HW290156   7.257   1.591   3.533
30044SOL     OW90157   6.697   1.195   2.962
30044SOL    HW190158   6.657   1.239   3.043
30044SOL    HW290159   6.656   1.232   2.879
30045SOL     OW90160   7.224   1.099   2.941
30045SOL    HW190161   7.229   1.180   3.000
30045SOL    HW290162   7.138   1.101   2.890
30046SOL     OW90163   6.501   0.089   3.264
30046SOL    HW190164   6.526   0.069   3.169
30046SOL    HW290165   6.573   0.145   3.306
30047SOL     OW90166   6.566   1.116   3.581
30047SOL    HW190167   6.467   1.122   3.591
30047SOL    HW290168   6.589   1.036   3.525
30048SOL     OW90169   6.291   1.050   2.230
30048SOL    HW190170   6.277   1.057   2.329
30048SOL    HW290171   6.375   0.999   2.212
30049SOL     OW90172   5.996   0.813   3.113
30049SOL    HW190173   6.082   0.825   3.163
30049SOL    HW290174   5.954   0.726   3.140
30050SOL     OW90175   6.860   0.386   3.124
30050SOL    HW190176   6.881   0.460   3.188
30050SOL    HW290177   6.771   0.403   3.081
30051SOL     OW90178   5.650   1.564   3.193
30051SOL    HW190179   5.604   1.646   3.159
30051SOL    HW290180   5.748   1.583   3.202
30052SOL     OW90181   5.953   1.100   2.363
30052SOL    HW190182   5.946   1.183   2.307
30052SOL    HW290183   5.957   1.020   2.303
30053SOL     OW90184   6.152   0.537   2.727
30053SOL    HW190185   6.164   0.603   2.653
30053SOL    HW290186   6.198   0.571   2.810
30054SOL     OW90187   6.838   1.348   2.250
30054SOL    HW190188   6.888   1.425   2.290
30054SOL    HW290189   6.743   1.350   2.282
30055SOL     OW90190   6.858   1.445   3.004
30055SOL    HW190191   6.905   1.458   3.091
30055SOL    HW290192   6.792   1.371   3.013
30056SOL     OW90193   7.168   0.639   2.334
30056SOL    HW190194   7.137   0.700   2.407
30056SOL    HW290195   7.218   0.691   2.265
30057SOL     OW90196   5.940   1.510   3.191
30057SOL    HW190197   5.919   1.466   3.104
30057SOL    HW290198   6.037   1.536   3.194
30058SOL     OW90199   5.988   0.751   3.460
30058SOL    HW190200   6.056   0.806   3.413
30058SOL    HW290201   6.028   0.663   3.487
30059SOL     OW90202   7.173   0.779   3.532
30059SOL    HW190203   7.081   0.817   3.527
30059SOL    HW290204   7.233   0.826   3.467
30060SOL     OW90205   6.599   0.105   3.632
30060SOL    HW190206   6.605   0.190   3.580
30060SOL    HW290207   6.631   0.029   3.575
30061SOL     OW90208   6.090   0.050   3.602
30061SOL    HW190209   6.048  -0.007   3.532
30061SOL    HW290210   6.024   0.119   3.634
30062SOL     OW90211   6.159   0.870   2.891
30062SOL    HW190212   6.203   0.959   2.882
30062SOL    HW290213   6.096   0.870   2.968
30063SOL     OW90214   6.946   0.862   2.907
30063SOL    HW190215   6.871   0.862   2.841
30063SOL    HW290216   6.983   0.770   2.916
30064SOL     OW90217   6.795   0.525   2.137
30064SOL    HW190218   6.808   0.441   2.191
30064SOL    HW290219   6.766   0.599   2.197
30065SOL     OW90220   5.893   0.213   3.093
30065SOL    HW190221   5.870   0.250   3.183
30065SOL    HW290222   5.863   0.118   3.087
30066SOL     OW90223   5.623   1.310   3.144
30066SOL    HW190224   5.676   1.261   3.212
30066SOL    HW290225   5.645   1.408   3.149
30067SOL     OW90226   6.318   0.634   2.926
30067SOL    HW190227   6.377   0.608   2.850
30067SOL    HW290228   6.290   0.730   2.915
30068SOL     OW90229   7.314   0.935   3.716
30068SOL    HW190230   7.268   0.928   3.627
30068SOL    HW290231   7.252   0.979   3.782
30069SOL     OW90232   5.893   0.063   2.480
30069SOL    HW190233   5.882   0.157   2.513
30069SOL    HW290234   5.888   0.000   2.557
30070SOL     OW90235   7.208   0.367   2.236
30070SOL    HW190236   7.210   0.291   2.300
30070SOL    HW290237   7.160   0.444   2.276
30071SOL     OW90238   6.609   0.766   2.828
30071SOL    HW190239   6.624   0.787   2.924
30071SOL    HW290240   6.579   0.671   2.819
30072SOL     OW90241   6.566   1.573   3.562
30072SOL    HW190242   6.546   1.617   3.474
30072SOL    HW290243   6.605   1.482   3.546
30073SOL     OW90244   7.445   1.518   3.467
30073SOL    HW190245   7.459   1.545   3.372
30073SOL    HW290246   7.528   1.540   3.520
30074SOL     OW90247   5.936   0.898   3.666
30074SOL    HW190248   6.012   0.942   3.714
30074SOL    HW290249   5.971   0.851   3.584
30075SOL     OW90250   7.126   0.274   1.987
30075SOL    HW190251   7.065   0.199   2.010
30075SOL    HW290252   7.148   0.326   2.070
30076SOL     OW90253   6.889   0.838   1.904
30076SOL    HW190254   6.923   0.745   1.919
30076SOL    HW290255   6.907   0.865   1.809
30077SOL     OW90256   6.654   1.333   2.711
30077SOL    HW190257   6.661   1.249   2.656
30077SOL    HW290258   6.716   1.402   2.675
30078SOL     OW90259   5.905   0.810   2.811
30078SOL    HW190260   5.998   0.846   2.816
30078SOL    HW290261   5.899   0.725   2.863
30079SOL     OW90262   5.925   0.509   2.868
30079SOL    HW190263   5.873   0.426   2.851
30079SOL    HW290264   6.002   0.514   2.804
30080SOL     OW90265   6.724   0.380   3.540
30080SOL    HW190266   6.679   0.443   3.604
30080SOL    HW290267   6.817   0.411   3.523
30081SOL     OW90268   6.746   0.207   3.339
30081SOL    HW190269   6.746   0.271   3.416
30081SOL    HW290270   6.774   0.255   3.256
30082SOL     OW90271   5.594   1.326   2.062
30082SOL    HW190272   5.501   1.347   2.031
30082SOL    HW290273   5.604   1.227   2.075
30083SOL     OW90274   5.674   1.801   2.789
30083SOL    HW190275   5.632   1.715   2.762
30083SOL    HW290276   5.768   1.804   2.755
30084SOL     OW90277   6.090   1.568   2.772
30084SOL    HW190278   6.156   1.642   2.781
30084SOL    HW290279   6.134   1.489   2.730
30085SOL     OW90280   6.588   0.796   3.100
30085SOL    HW190281   6.629   0.764   3.186
30085SOL    HW290282   6.492   0.769   3.097
30086SOL     OW90283   5.626   0.544   2.976
30086SOL    HW190284   5.711   0.511   2.935
30086SOL    HW290285   5.639   0.559   3.074
30087SOL     OW90286   5.775   0.520   3.584
30087SOL    HW190287   5.834   0.480   3.514
30087SOL    HW290288   5.717   0.591   3.543
30088SOL     OW90289   6.955   0.950   3.522
30088SOL    HW190290   6.994   1.039   3.542
30088SOL    HW290291   6.965   0.930   3.425
30089SOL     OW90292   6.401   0.572   2.187
30089SOL    HW190293   6.408   0.483   2.141
30089SOL    HW290294   6.307   0.606   2.179
30090SOL     OW90295   7.243   0.604   3.068
30090SOL    HW190296   7.205   0.535   3.130
30090SOL    HW290297   7.325   0.568   3.024
30091SOL     OW90298   5.838   1.564   3.606
30091SOL    HW190299   5.808   1.621   3.682
30091SOL    HW290300   5.831   1.467   3.632
30092SOL     OW90301   6.257   0.464   3.131
30092SOL    HW190302   6.223   0.375   3.101
30092SOL    HW290303   6.283   0.518   3.051
30093SOL     OW90304   6.516   1.678   3.327
30093SOL    HW190305   6.492   1.660   3.232
30093SOL    HW290306   6.546   1.772   3.337
30094SOL     OW90307   6.059   0.500   2.053
30094SOL    HW190308   6.120   0.580   2.057
30094SOL    HW290309   5.964   0.531   2.060
30095SOL     OW90310   5.745   1.137   3.328
30095SOL    HW190311   5.767   1.076   3.404
30095SOL    HW290312   5.755   1.088   3.242
30096SOL     OW90313   6.933   1.059   3.096
30096SOL    HW190314   6.957   0.996   3.022
30096SOL    HW290315   6.843   1.099   3.078
30097SOL     OW90316   6.888   0.855   2.171
30097SOL    HW190317   6.802   0.824   2.213
30097SOL    HW290318   6.884   0.841   2.072
30098SOL     OW90319   7.345   1.747   3.016
30098SOL    HW190320   7.406   1.777   2.943
30098SOL    HW290321   7.307   1.658   2.994
30099SOL     OW90322   6.838   1.731   2.990
30099SOL    HW190323   6.922   1.736   2.936
30099SOL    HW290324   6.815   1.635   3.008
30100SOL     OW90325   5.669   1.258   2.884
30100SOL    HW190326   5.664   1.257   2.984
30100SOL    HW290327   5.586   1.217   2.846
30101SOL     OW90328   6.274   1.662   3.578
30101SOL    HW190329   6.218   1.743   3.587
30101SOL    HW290330   6.326   1.666   3.492
30102SOL     OW90331   7.312   0.135   2.385
30102SOL    HW190332   7.385   0.118   2.318
30102SOL    HW290333   7.281   0.048   2.423
30103SOL     OW90334   6.974   1.573   2.339
30103SOL    HW190335   7.041   1.585   2.265
30103SOL    HW290336   6.934   1.662   2.362
30104SOL     OW90337   5.716   1.794   3.713
30104SOL    HW190338   5.675   1.720   3.766
30104SOL    HW290339   5.780   1.845   3.771
30105SOL     OW90340   6.866   0.927   2.534
30105SOL    HW190341   6.926   0.846   2.536
30105SOL    HW290342   6.906   0.996   2.474
30106SOL     OW90343   6.416   1.273   3.284
30106SOL    HW190344   6.411   1.306   3.379
30106SOL    HW290345   6.330   1.292   3.238
30107SOL     OW90346   6.258   1.616   2.016
30107SOL    HW190347   6.267   1.626   1.917
30107SOL    HW290348   6.218   1.527   2.037
30108SOL     OW90349   7.236   1.720   3.256
30108SOL    HW190350   7.289   1.730   3.172
30108SOL    HW290351   7.209   1.810   3.290
30109SOL     OW90352   7.427   0.175   2.825
30109SOL    HW190353   7.466   0.090   2.789
30109SOL    HW290354   7.329   0.177   2.806
30110SOL     OW90355   5.849   0.326   2.582
30110SOL    HW190356   5.770   0.377   2.548
30110SOL    HW290357   5.840   0.311   2.680
30111SOL     OW90358   6.780   1.612   1.893
30111SOL    HW190359   6.786   1.519   1.930
30111SOL    HW290360   6.721   1.612   1.813
30112SOL     OW90361   6.408   1.002   3.234
30112SOL    HW190362   6.448   1.001   3.142
30112SOL    HW290363   6.418   1.094   3.274
30113SOL     OW90364   6.502   0.910   2.153
30113SOL    HW190365   6.565   0.948   2.085
30113SOL    HW290366   6.542   0.827   2.192
30114SOL     OW90367   7.090   1.607   1.906
30114SOL    HW190368   6.998   1.644   1.913
30114SOL    HW290369   7.128   1.627   1.816
30115SOL     OW90370   5.958   1.288   3.352
30115SOL    HW190371   5.945   1.381   3.318
30115SOL    HW290372   5.874   1.236   3.339
30116SOL     OW90373   7.200   1.292   3.151
30116SOL    HW190374   7.260   1.295   3.231
30116SOL    HW290375   7.125   1.356   3.164
30117SOL     OW90376   6.625   1.098   2.558
30117SOL    HW190377   6.555   1.051   2.612
30117SOL    HW290378   6.684   1.030   2.515
30118SOL     OW90379   6.600   0.236   2.833
30118SOL    HW190380   6.592   0.200   2.740
30118SOL    HW290381   6.598   0.160   2.898
30119SOL     OW90382   6.176   1.487   2.353
30119SOL    HW190383   6.218   1.429   2.283
30119SOL    HW290384   6.132   1.566   2.309
30120SOL     OW90385   7.295   0.385   3.243
30120SOL    HW190386   7.368   0.454   3.247
30120SOL    HW290387   7.323   0.310   3.184
30121SOL     OW90388   5.841   1.348   2.152
30121SOL    HW190389   5.745   1.349   2.125
30121SOL    HW290390   5.853   1.401   2.236
30122SOL     OW90391   5.691   1.013   3.588
30122SOL    HW190392   5.614   0.980   3.642
30122SOL    HW290393   5.776   0.983   3.630
30123SOL     OW90394   6.258   0.203   3.351
30123SOL    HW190395   6.348   0.187   3.311
30123SOL    HW290396   6.266   0.208   3.450
30124SOL     OW90397   5.661   0.345   1.895
30124SOL    HW190398   5.569   0.317   1.866
30124SOL    HW290399   5.692   0.422   1.839
30125SOL     OW90400   7.026   0.856   3.260
30125SOL    HW190401   6.969   0.908   3.197
30125SOL    HW290402   7.122   0.868   3.236
30126SOL     OW90403   5.658   0.166   2.180
30126SOL    HW190404   5.641   0.249   2.126
30126SOL    HW290405   5.748   0.129   2.158
30127SOL     OW90406   6.769   1.335   1.981
30127SOL    HW190407   6.670   1.324   1.983
30127SOL    HW290408   6.803   1.350   2.074
30128SOL     OW90409   6.199   0.842   3.293
30128SOL    HW190410   6.255   0.923   3.276
30128SOL    HW290411   6.258   0.762   3.296
30129SOL     OW90412   7.079   1.767   2.821
30129SOL    HW190413   7.112   1.831   2.752
30129SOL    HW290414   7.145   1.761   2.896
30130SOL     OW90415   6.302   0.565   3.570
30130SOL    HW190416   6.321   0.630   3.644
30130SOL    HW290417   6.362   0.485   3.579
30131SOL     OW90418   7.036   1.220   3.495
30131SOL    HW190419   7.027   1.210   3.594
30131SOL    HW290420   7.132   1.213   3.469
30132SOL     OW90421   5.976   1.741   3.422
30132SOL    HW190422   5.885   1.782   3.420
30132SOL    HW290423   5.969   1.647   3.454
30133SOL     OW90424   7.260   0.883   3.116
30133SOL    HW190425   7.233   0.794   3.079
30133SOL    HW290426   7.261   0.951   3.043
30134SOL     OW90427   6.811   0.325   2.311
30134SOL    HW190428   6.876   0.251   2.300
30134SOL    HW290429   6.831   0.375   2.395
30135SOL     OW90430   6.180   0.745   2.514
30135SOL    HW190431   6.230   0.830   2.495
30135SOL    HW290432   6.092   0.747   2.466
30136SOL     OW90433   7.363   0.342   3.504
30136SOL    HW190434   7.346   0.373   3.410
30136SOL    HW290435   7.279   0.305   3.542
30137SOL     OW90436   7.316   0.934   3.379
30137SOL    HW190437   7.354   1.025   3.394
30137SOL    HW290438   7.308   0.917   3.280
30138SOL     OW90439   6.445   1.374   1.878
30138SOL    HW190440   6.399   1.389   1.966
30138SOL    HW290441   6.489   1.459   1.848
30139SOL     OW90442   6.247   1.790   2.815
30139SOL    HW190443   6.201   1.878   2.802
30139SOL    HW290444   6.346   1.802   2.808
30140SOL     OW90445   6.445   0.956   2.723
30140SOL    HW190446   6.499   0.887   2.771
30140SOL    HW290447   6.413   1.025   2.789
30141SOL     OW90448   6.669   0.984   1.949
30141SOL    HW190449   6.646   1.037   1.867
30141SOL    HW290450   6.750   0.928   1.930
30142SOL     OW90451   7.447   1.569   2.713
30142SOL    HW190452   7.376   1.557   2.643
30142SOL    HW290453   7.448   1.490   2.773
30143SOL     OW90454   5.807   1.314   3.706
30143SOL    HW190455   5.742   1.241   3.685
30143SOL    HW290456   5.811   1.328   3.804
30144SOL     OW90457   5.665   1.240   2.515
30144SOL    HW190458   5.664   1.193   2.603
30144SOL    HW290459   5.747   1.212   2.464
30145SOL     OW90460   6.258   1.391   3.486
30145SOL    HW190461   6.180   1.341   3.524
30145SOL    HW290462   6.255   1.486   3.517
30146SOL     OW90463   7.410   0.192   3.089
30146SOL    HW190464   7.406   0.102   3.133
30146SOL    HW290465   7.413   0.181   2.990
30147SOL     OW90466   6.014   0.424   2.382
30147SOL    HW190467   6.044   0.352   2.320
30147SOL    HW290468   5.975   0.384   2.465
30148SOL     OW90469   7.291   1.487   2.966
30148SOL    HW190470   7.198   1.462   2.939
30148SOL    HW290471   7.317   1.437   3.048
30149SOL     OW90472   5.903   0.547   3.142
30149SOL    HW190473   5.941   0.488   3.214
30149SOL    HW290474   5.943   0.521   3.054
30150SOL     OW90475   6.398   1.586   2.549
30150SOL    HW190476   6.430   1.596   2.455
30150SOL    HW290477   6.319   1.524   2.551
30151SOL     OW90478   7.010   0.214   2.974
30151SOL    HW190479   7.062   0.149   3.029
30151SOL    HW290480   6.961   0.277   3.035
30152SOL     OW90481   6.587   0.034   3.016
30152SOL    HW190482   6.524  -0.038   2.985
30152SOL    HW290483   6.680  -0.002   3.016
30153SOL     OW90484   6.356   1.330   2.163
30153SOL    HW190485   6.310   1.243   2.180
30153SOL    HW290486   6.447   1.327   2.204
30154SOL     OW90487   6.204   1.567   3.146
30154SOL    HW190488   6.199   1.649   3.203
30154SOL    HW290489   6.293   1.564   3.101
30155SOL     OW90490   6.938   0.052   2.030
30155SOL    HW190491   6.973   0.011   1.946
30155SOL    HW290492   6.848   0.014   2.050
30156SOL     OW90493   6.886   0.453   2.553
30156SOL    HW190494   6.827   0.533   2.557
30156SOL    HW290495   6.901   0.418   2.646
30157SOL     OW90496   7.179   0.221   2.744
30157SOL    HW190497   7.095   0.220   2.798
30157SOL    HW290498   7.181   0.304   2.688
30158SOL     OW90499   5.625   1.077   2.162
30158SOL    HW190500   5.724   1.066   2.153
30158SOL    HW290501   5.585   0.991   2.194
30159SOL     OW90502   6.461   1.646   2.199
30159SOL    HW190503   6.384   1.611   2.145
30159SOL    HW290504   6.429   1.717   2.261
30160SOL     OW90505   5.816   0.628   3.837
30160SOL    HW190506   5.723   0.626   3.874
30160SOL    HW290507   5.817   0.589   3.745
30161SOL     OW90508   5.811   0.275   4.720
30161SOL    HW190509   5.846   0.258   4.812
30161SOL    HW290510   5.723   0.230   4.708
30162SOL     OW90511   5.605   0.368   4.371
30162SOL    HW190512   5.523   0.411   4.410
30162SOL    HW290513   5.577   0.295   4.308
30163SOL     OW90514   6.155   1.275   4.889
30163SOL    HW190515   6.062   1.268   4.852
30163SOL    HW290516   6.166   1.364   4.933
30164SOL     OW90517   7.141   1.511   4.427
30164SOL    HW190518   7.084   1.495   4.508
30164SOL    HW290519   7.082   1.521   4.347
30165SOL     OW90520   6.721   0.703   4.441
30165SOL    HW190521   6.778   0.781   4.416
30165SOL    HW290522   6.661   0.729   4.517
30166SOL     OW90523   7.341   0.607   3.955
30166SOL    HW190524   7.329   0.594   3.856
30166SOL    HW290525   7.311   0.526   4.004
30167SOL     OW90526   6.354   1.144   4.747
30167SOL    HW190527   6.276   1.161   4.807
30167SOL    HW290528   6.388   1.231   4.711
30168SOL     OW90529   6.436   0.798   5.547
30168SOL    HW190530   6.432   0.874   5.612
30168SOL    HW290531   6.458   0.834   5.456
30169SOL     OW90532   6.271   1.012   4.389
30169SOL    HW190533   6.340   0.996   4.459
30169SOL    HW290534   6.198   1.069   4.427
30170SOL     OW90535   6.272   1.161   5.527
30170SOL    HW190536   6.332   1.240   5.541
30170SOL    HW290537   6.186   1.192   5.486
30171SOL     OW90538   5.921   1.435   4.785
30171SOL    HW190539   5.843   1.404   4.732
30171SOL    HW290540   5.979   1.493   4.728
30172SOL     OW90541   7.046   1.505   5.063
30172SOL    HW190542   7.070   1.599   5.089
30172SOL    HW290543   7.030   1.451   5.145
30173SOL     OW90544   6.024   0.392   5.223
30173SOL    HW190545   6.106   0.336   5.232
30173SOL    HW290546   5.943   0.334   5.227
30174SOL     OW90547   7.189   0.447   4.461
30174SOL    HW190548   7.115   0.493   4.411
30174SOL    HW290549   7.240   0.515   4.514
30175SOL     OW90550   5.817   1.713   4.207
30175SOL    HW190551   5.851   1.790   4.261
30175SOL    HW290552   5.861   1.713   4.117
30176SOL     OW90553   6.713   1.341   5.414
30176SOL    HW190554   6.760   1.341   5.502
30176SOL    HW290555   6.665   1.254   5.403
30177SOL     OW90556   5.816   1.434   4.262
30177SOL    HW190557   5.790   1.530   4.262
30177SOL    HW290558   5.745   1.380   4.307
30178SOL     OW90559   5.826   1.091   4.610
30178SOL    HW190560   5.840   1.007   4.662
30178SOL    HW290561   5.771   1.155   4.665
30179SOL     OW90562   6.206   1.786   5.163
30179SOL    HW190563   6.114   1.769   5.198
30179SOL    HW290564   6.234   1.878   5.189
30180SOL     OW90565   6.192   0.964   3.847
30180SOL    HW190566   6.199   1.048   3.793
30180SOL    HW290567   6.238   0.977   3.935
30181SOL     OW90568   7.180   0.114   5.204
30181SOL    HW190569   7.162   0.181   5.132
30181SOL    HW290570   7.177   0.160   5.293
30182SOL     OW90571   5.708   0.643   4.287
30182SOL    HW190572   5.663   0.555   4.304
30182SOL    HW290573   5.707   0.697   4.371
30183SOL     OW90574   7.428   1.767   4.083
30183SOL    HW190575   7.482   1.738   4.163
30183SOL    HW290576   7.458   1.857   4.054
30184SOL     OW90577   5.613   1.596   3.841
30184SOL    HW190578   5.594   1.500   3.862
30184SOL    HW290579   5.580   1.654   3.916
30185SOL     OW90580   7.275   0.922   4.336
30185SOL    HW190581   7.370   0.893   4.344
30185SOL    HW290582   7.267   0.987   4.261
30186SOL     OW90583   7.227   1.108   4.156
30186SOL    HW190584   7.313   1.110   4.104
30186SOL    HW290585   7.241   1.155   4.244
30187SOL     OW90586   5.699   0.737   5.321
30187SOL    HW190587   5.787   0.724   5.366
30187SOL    HW290588   5.686   0.834   5.299
30188SOL     OW90589   6.199   1.365   4.450
30188SOL    HW190590   6.150   1.278   4.459
30188SOL    HW290591   6.176   1.408   4.363
30189SOL     OW90592   6.879   1.228   5.147
30189SOL    HW190593   6.916   1.155   5.089
30189SOL    HW290594   6.931   1.233   5.232
30190SOL     OW90595   6.395   0.004   4.226
30190SOL    HW190596   6.435   0.095   4.217
30190SOL    HW290597   6.295   0.012   4.232
30191SOL     OW90598   5.783   0.976   4.988
30191SOL    HW190599   5.872   0.931   4.974
30191SOL    HW290600   5.710   0.911   4.969
30192SOL     OW90601   7.111   0.999   3.914
30192SOL    HW190602   7.048   0.923   3.927
30192SOL    HW290603   7.159   1.017   4.000
30193SOL     OW90604   6.773   1.792   5.340
30193SOL    HW190605   6.797   1.852   5.264
30193SOL    HW290606   6.780   1.697   5.310
30194SOL     OW90607   5.903   0.251   5.525
30194SOL    HW190608   5.974   0.322   5.531
30194SOL    HW290609   5.815   0.290   5.553
30195SOL     OW90610   7.052   1.417   4.677
30195SOL    HW190611   6.993   1.423   4.757
30195SOL    HW290612   7.037   1.329   4.631
30196SOL     OW90613   7.253   1.714   4.296
30196SOL    HW190614   7.212   1.691   4.208
30196SOL    HW290615   7.235   1.640   4.361
30197SOL     OW90616   6.184   0.729   3.994
30197SOL    HW190617   6.208   0.798   3.926
30197SOL    HW290618   6.106   0.762   4.048
30198SOL     OW90619   6.867   0.345   4.668
30198SOL    HW190620   6.781   0.295   4.655
30198SOL    HW290621   6.929   0.291   4.724
30199SOL     OW90622   7.162   1.662   4.031
30199SOL    HW190623   7.251   1.708   4.034
30199SOL    HW290624   7.141   1.638   3.936
30200SOL     OW90625   6.393   0.605   5.189
30200SOL    HW190626   6.346   0.602   5.278
30200SOL    HW290627   6.342   0.550   5.123
30201SOL     OW90628   6.980   0.469   5.398
30201SOL    HW190629   6.960   0.512   5.486
30201SOL    HW290630   7.058   0.407   5.407
30202SOL     OW90631   6.559   0.890   5.296
30202SOL    HW190632   6.605   0.806   5.267
30202SOL    HW290633   6.503   0.924   5.221
30203SOL     OW90634   6.577   0.410   4.966
30203SOL    HW190635   6.500   0.444   5.020
30203SOL    HW290636   6.543   0.359   4.887
30204SOL     OW90637   6.627   0.701   4.153
30204SOL    HW190638   6.653   0.697   4.249
30204SOL    HW290639   6.542   0.650   4.139
30205SOL     OW90640   5.662   0.811   4.513
30205SOL    HW190641   5.761   0.799   4.522
30205SOL    HW290642   5.638   0.906   4.534
30206SOL     OW90643   5.716   1.821   5.295
30206SOL    HW190644   5.706   1.806   5.394
30206SOL    HW290645   5.630   1.857   5.259
30207SOL     OW90646   6.451   0.348   3.919
30207SOL    HW190647   6.510   0.411   3.870
30207SOL    HW290648   6.470   0.254   3.890
30208SOL     OW90649   7.305   0.585   5.555
30208SOL    HW190650   7.279   0.674   5.519
30208SOL    HW290651   7.303   0.517   5.482
30209SOL     OW90652   6.948   1.144   4.269
30209SOL    HW190653   7.031   1.115   4.221
30209SOL    HW290654   6.899   1.211   4.213
30210SOL     OW90655   6.136   0.196   4.609
30210SOL    HW190656   6.131   0.191   4.709
30210SOL    HW290657   6.138   0.292   4.580
30211SOL     OW90658   6.594   1.456   4.201
30211SOL    HW190659   6.548   1.528   4.149
30211SOL    HW290660   6.590   1.476   4.299
30212SOL     OW90661   5.937   1.801   4.577
30212SOL    HW190662   5.987   1.715   4.583
30212SOL    HW290663   6.002   1.878   4.574
30213SOL     OW90664   7.381   1.066   4.597
30213SOL    HW190665   7.319   1.051   4.521
30213SOL    HW290666   7.329   1.077   4.682
30214SOL     OW90667   6.813   1.550   5.230
30214SOL    HW190668   6.819   1.473   5.294
30214SOL    HW290669   6.761   1.524   5.150
30215SOL     OW90670   5.907   0.943   3.966
30215SOL    HW190671   5.989   0.982   3.924
30215SOL    HW290672   5.880   0.861   3.917
30216SOL     OW90673   7.044   0.735   4.452
30216SOL    HW190674   7.039   0.670   4.527
30216SOL    HW290675   7.124   0.794   4.465
30217SOL     OW90676   6.047   1.266   5.451
30217SOL    HW190677   5.997   1.267   5.365
30217SOL    HW290678   5.984   1.248   5.527
30218SOL     OW90679   6.697   1.776   3.961
30218SOL    HW190680   6.637   1.714   4.011
30218SOL    HW290681   6.728   1.732   3.876
30219SOL     OW90682   5.788   0.285   5.222
30219SOL    HW190683   5.708   0.345   5.209
30219SOL    HW290684   5.778   0.236   5.308
30220SOL     OW90685   7.218   1.377   3.805
30220SOL    HW190686   7.186   1.471   3.795
30220SOL    HW290687   7.142   1.314   3.793
30221SOL     OW90688   6.050   1.743   4.047
30221SOL    HW190689   6.083   1.782   4.133
30221SOL    HW290690   6.126   1.736   3.982
30222SOL     OW90691   6.986   0.107   4.150
30222SOL    HW190692   6.962   0.070   4.060
30222SOL    HW290693   7.085   0.123   4.154
30223SOL     OW90694   5.835   1.785   4.965
30223SOL    HW190695   5.892   1.720   5.015
30223SOL    HW290696   5.819   1.752   4.872
30224SOL     OW90697   6.526   1.698   4.628
30224SOL    HW190698   6.606   1.641   4.649
30224SOL    HW290699   6.477   1.658   4.551
30225SOL     OW90700   5.968   0.700   4.204
30225SOL    HW190701   6.013   0.610   4.201
30225SOL    HW290702   5.874   0.689   4.237
30226SOL     OW90703   7.133   0.222   5.453
30226SOL    HW190704   7.128   0.259   5.545
30226SOL    HW290705   7.061   0.153   5.441
30227SOL     OW90706   6.200   0.122   3.841
30227SOL    HW190707   6.298   0.100   3.848
30227SOL    HW290708   6.169   0.105   3.748
30228SOL     OW90709   6.367   0.264   5.473
30228SOL    HW190710   6.434   0.203   5.516
30228SOL    HW290711   6.294   0.283   5.538
30229SOL     OW90712   6.474   1.514   4.919
30229SOL    HW190713   6.451   1.489   4.825
30229SOL    HW290714   6.535   1.445   4.958
30230SOL     OW90715   6.937   0.590   5.157
30230SOL    HW190716   6.965   0.547   5.242
30230SOL    HW290717   6.962   0.686   5.158
30231SOL     OW90718   6.389   1.402   4.648
30231SOL    HW190719   6.479   1.416   4.606
30231SOL    HW290720   6.318   1.404   4.577
30232SOL     OW90721   6.508   0.503   4.623
30232SOL    HW190722   6.483   0.494   4.527
30232SOL    HW290723   6.556   0.421   4.654
30233SOL     OW90724   6.125   0.064   4.236
30233SOL    HW190725   6.044   0.065   4.294
30233SOL    HW290726   6.128   0.147   4.181
30234SOL     OW90727   7.020   1.188   3.765
30234SOL    HW190728   7.052   1.112   3.822
30234SOL    HW290729   6.928   1.215   3.795
30235SOL     OW90730   5.883   0.035   3.895
30235SOL    HW190731   5.932   0.119   3.874
30235SOL    HW290732   5.945  -0.030   3.940
30236SOL     OW90733   6.521   0.236   4.204
30236SOL    HW190734   6.473   0.277   4.126
30236SOL    HW290735   6.620   0.234   4.185
30237SOL     OW90736   6.662   0.683   5.188
30237SOL    HW190737   6.582   0.622   5.191
30237SOL    HW290738   6.743   0.630   5.164
30238SOL     OW90739   6.813   1.570   4.517
30238SOL    HW190740   6.834   1.644   4.452
30238SOL    HW290741   6.881   1.570   4.590
30239SOL     OW90742   6.045   1.152   4.465
30239SOL    HW190743   5.974   1.125   4.530
30239SOL    HW290744   6.019   1.124   4.372
30240SOL     OW90745   6.857   1.797   4.315
30240SOL    HW190746   6.901   1.861   4.251
30240SOL    HW290747   6.807   1.849   4.385
30241SOL     OW90748   6.618   0.549   3.740
30241SOL    HW190749   6.577   0.631   3.701
30241SOL    HW290750   6.682   0.575   3.813
30242SOL     OW90751   5.664   0.556   5.110
30242SOL    HW190752   5.756   0.555   5.069
30242SOL    HW290753   5.658   0.630   5.177
30243SOL     OW90754   6.147   0.222   4.871
30243SOL    HW190755   6.185   0.138   4.908
30243SOL    HW290756   6.059   0.241   4.915
30244SOL     OW90757   6.452   0.454   4.366
30244SOL    HW190758   6.420   0.526   4.304
30244SOL    HW290759   6.476   0.373   4.313
30245SOL     OW90760   6.603   0.039   4.477
30245SOL    HW190761   6.531   0.044   4.408
30245SOL    HW290762   6.579  -0.030   4.546
30246SOL     OW90763   7.015   1.173   4.591
30246SOL    HW190764   6.960   1.089   4.584
30246SOL    HW290765   7.041   1.202   4.499
30247SOL     OW90766   7.052   0.590   4.716
30247SOL    HW190767   7.022   0.495   4.723
30247SOL    HW290768   7.125   0.606   4.782
30248SOL     OW90769   7.443   0.833   4.101
30248SOL    HW190770   7.485   0.769   4.165
30248SOL    HW290771   7.405   0.782   4.023
30249SOL     OW90772   6.074   1.385   3.898
30249SOL    HW190773   5.987   1.370   3.945
30249SOL    HW290774   6.057   1.411   3.803
30250SOL     OW90775   7.250   1.280   4.381
30250SOL    HW190776   7.349   1.288   4.395
30250SOL    HW290777   7.205   1.364   4.412
30251SOL     OW90778   6.976   0.575   3.802
30251SOL    HW190779   6.922   0.554   3.883
30251SOL    HW290780   7.067   0.534   3.811
30252SOL     OW90781   6.113   0.256   4.052
30252SOL    HW190782   6.140   0.197   3.977
30252SOL    HW290783   6.113   0.351   4.021
30253SOL     OW90784   7.340   1.223   5.312
30253SOL    HW190785   7.431   1.184   5.299
30253SOL    HW290786   7.348   1.319   5.336
30254SOL     OW90787   6.650   1.347   5.064
30254SOL    HW190788   6.570   1.324   5.119
30254SOL    HW290789   6.733   1.321   5.113
30255SOL     OW90790   7.178   1.629   5.349
30255SOL    HW190791   7.205   1.663   5.259
30255SOL    HW290792   7.257   1.591   5.395
30256SOL     OW90793   6.697   1.195   4.824
30256SOL    HW190794   6.657   1.239   4.905
30256SOL    HW290795   6.656   1.232   4.741
30257SOL     OW90796   7.224   1.099   4.803
30257SOL    HW190797   7.229   1.180   4.862
30257SOL    HW290798   7.138   1.101   4.752
30258SOL     OW90799   6.501   0.089   5.126
30258SOL    HW190800   6.526   0.069   5.031
30258SOL    HW290801   6.573   0.145   5.168
30259SOL     OW90802   6.566   1.116   5.443
30259SOL    HW190803   6.467   1.122   5.453
30259SOL    HW290804   6.589   1.036   5.387
30260SOL     OW90805   6.291   1.050   4.092
30260SOL    HW190806   6.277   1.057   4.191
30260SOL    HW290807   6.375   0.999   4.074
30261SOL     OW90808   5.996   0.813   4.975
30261SOL    HW190809   6.082   0.825   5.025
30261SOL    HW290810   5.954   0.726   5.002
30262SOL     OW90811   6.860   0.386   4.986
30262SOL    HW190812   6.881   0.460   5.050
30262SOL    HW290813   6.771   0.403   4.943
30263SOL     OW90814   5.650   1.564   5.055
30263SOL    HW190815   5.604   1.646   5.021
30263SOL    HW290816   5.748   1.583   5.064
30264SOL     OW90817   5.953   1.100   4.225
30264SOL    HW190818   5.946   1.183   4.169
30264SOL    HW290819   5.957   1.020   4.165
30265SOL     OW90820   6.152   0.537   4.589
30265SOL    HW190821   6.164   0.603   4.515
30265SOL    HW290822   6.198   0.571   4.672
30266SOL     OW90823   6.838   1.348   4.112
30266SOL    HW190824   6.888   1.425   4.152
30266SOL    HW290825   6.743   1.350   4.144
30267SOL     OW90826   6.858   1.445   4.866
30267SOL    HW190827   6.905   1.458   4.953
30267SOL    HW290828   6.792   1.371   4.875
30268SOL     OW90829   7.168   0.639   4.196
30268SOL    HW190830   7.137   0.700   4.269
30268SOL    HW290831   7.218   0.691   4.127
30269SOL     OW90832   5.940   1.510   5.053
30269SOL    HW190833   5.919   1.466   4.966
30269SOL    HW290834   6.037   1.536   5.056
30270SOL     OW90835   5.988   0.751   5.322
30270SOL    HW190836   6.056   0.806   5.275
30270SOL    HW290837   6.028   0.663   5.349
30271SOL     OW90838   7.173   0.779   5.394
30271SOL    HW190839   7.081   0.817   5.389
30271SOL    HW290840   7.233   0.826   5.329
30272SOL     OW90841   6.599   0.105   5.494
30272SOL    HW190842   6.605   0.190   5.442
30272SOL    HW290843   6.631   0.029   5.437
30273SOL     OW90844   6.090   0.050   5.464
30273SOL    HW190845   6.048  -0.007   5.394
30273SOL    HW290846   6.024   0.119   5.496
30274SOL     OW90847   6.159   0.870   4.753
30274SOL    HW190848   6.203   0.959   4.744
30274SOL    HW290849   6.096   0.870   4.830
30275SOL     OW90850   6.946   0.862   4.769
30275SOL    HW190851   6.871   0.862   4.703
30275SOL    HW290852   6.983   0.770   4.778
30276SOL     OW90853   6.795   0.525   3.999
30276SOL    HW190854   6.808   0.441   4.053
30276SOL    HW290855   6.766   0.599   4.059
30277SOL     OW90856   5.893   0.213   4.955
30277SOL    HW190857   5.870   0.250   5.045
30277SOL    HW290858   5.863   0.118   4.949
30278SOL     OW90859   5.623   1.310   5.006
30278SOL    HW190860   5.676   1.261   5.074
30278SOL    HW290861   5.645   1.408   5.011
30279SOL     OW90862   6.318   0.634   4.788
30279SOL    HW190863   6.377   0.608   4.712
30279SOL    HW290864   6.290   0.730   4.777
30280SOL     OW90865   7.314   0.935   5.578
30280SOL    HW190866   7.268   0.928   5.489
30280SOL    HW290867   7.252   0.979   5.644
30281SOL     OW90868   5.893   0.063   4.342
30281SOL    HW190869   5.882   0.157   4.375
30281SOL    HW290870   5.888   0.000   4.419
30282SOL     OW90871   7.208   0.367   4.098
30282SOL    HW190872   7.210   0.291   4.162
30282SOL    HW290873   7.160   0.444   4.138
30283SOL     OW90874   6.609   0.766   4.690
30283SOL    HW190875   6.624   0.787   4.786
30283SOL    HW290876   6.579   0.671   4.681
30284SOL     OW90877   6.566   1.573   5.424
30284SOL    HW190878   6.546   1.617   5.336
30284SOL    HW290879   6.605   1.482   5.408
30285SOL     OW90880   7.445   1.518   5.329
30285SOL    HW190881   7.459   1.545   5.234
30285SOL    HW290882   7.528   1.540   5.382
30286SOL     OW90883   5.936   0.898   5.528
30286SOL    HW190884   6.012   0.942   5.576
30286SOL    HW290885   5.971   0.851   5.446
30287SOL     OW90886   7.126   0.274   3.849
30287SOL    HW190887   7.065   0.199   3.872
30287SOL    HW290888   7.148   0.326   3.932
30288SOL     OW90889   6.889   0.838   3.766
30288SOL    HW190890   6.923   0.745   3.781
30288SOL    HW290891   6.907   0.865   3.671
30289SOL     OW90892   6.654   1.333   4.573
30289SOL    HW190893   6.661   1.249   4.518
30289SOL    HW290894   6.716   1.402   4.537
30290SOL     OW90895   5.905   0.810   4.673
30290SOL    HW190896   5.998   0.846   4.678
30290SOL    HW290897   5.899   0.725   4.725
30291SOL     OW90898   5.925   0.509   4.730
30291SOL    HW190899   5.873   0.426   4.713
30291SOL    HW290900   6.002   0.514   4.666
30292SOL     OW90901   6.724   0.380   5.402
30292SOL    HW190902   6.679   0.443   5.466
30292SOL    HW290903   6.817   0.411   5.385
30293SOL     OW90904   6.746   0.207   5.201
30293SOL    HW190905   6.746   0.271   5.278
30293SOL    HW290906   6.774   0.255   5.118
30294SOL     OW90907   5.594   1.326   3.924
30294SOL    HW190908   5.501   1.347   3.893
30294SOL    HW290909   5.604   1.227   3.937
30295SOL     OW90910   5.674   1.801   4.651
30295SOL    HW190911   5.632   1.715   4.624
30295SOL    HW290912   5.768   1.804   4.617
30296SOL     OW90913   6.090   1.568   4.634
30296SOL    HW190914   6.156   1.642   4.643
30296SOL    HW290915   6.134   1.489   4.592
30297SOL     OW90916   6.588   0.796   4.962
30297SOL    HW190917   6.629   0.764   5.048
30297SOL    HW290918   6.492   0.769   4.959
30298SOL     OW90919   5.626   0.544   4.838
30298SOL    HW190920   5.711   0.511   4.797
30298SOL    HW290921   5.639   0.559   4.936
30299SOL     OW90922   5.775   0.520   5.446
30299SOL    HW190923   5.834   0.480   5.376
30299SOL    HW290924   5.717   0.591   5.405
30300SOL     OW90925   6.955   0.950   5.384
30300SOL    HW190926   6.994   1.039   5.404
30300SOL    HW290927   6.965   0.930   5.287
30301SOL     OW90928   6.401   0.572   4.049
30301SOL    HW190929   6.408   0.483   4.003
30301SOL    HW290930   6.307   0.606   4.041
30302SOL     OW90931   7.243   0.604   4.930
30302SOL    HW190932   7.205   0.535   4.992
30302SOL    HW290933   7.325   0.568   4.886
30303SOL     OW90934   5.838   1.564   5.468
30303SOL    HW190935   5.808   1.621   5.544
30303SOL    HW290936   5.831   1.467   5.494
30304SOL     OW90937   6.257   0.464   4.993
30304SOL    HW190938   6.223   0.375   4.963
30304SOL    HW290939   6.283   0.518   4.913
30305SOL     OW90940   6.516   1.678   5.189
30305SOL    HW190941   6.492   1.660   5.094
30305SOL    HW290942   6.546   1.772   5.199
30306SOL     OW90943   6.059   0.500   3.915
30306SOL    HW190944   6.120   0.580   3.919
30306SOL    HW290945   5.964   0.531   3.922
30307SOL     OW90946   5.745   1.137   5.190
30307SOL    HW190947   5.767   1.076   5.266
30307SOL    HW290948   5.755   1.088   5.104
30308SOL     OW90949   6.933   1.059   4.958
30308SOL    HW190950   6.957   0.996   4.884
30308SOL    HW290951   6.843   1.099   4.940
30309SOL     OW90952   6.888   0.855   4.033
30309SOL    HW190953   6.802   0.824   4.075
30309SOL    HW290954   6.884   0.841   3.934
30310SOL     OW90955   7.345   1.747   4.878
30310SOL    HW190956   7.406   1.777   4.805
30310SOL    HW290957   7.307   1.658   4.856
30311SOL     OW90958   6.838   1.731   4.852
30311SOL    HW190959   6.922   1.736   4.798
30311SOL    HW290960   6.815   1.635   4.870
30312SOL     OW90961   5.669   1.258   4.746
30312SOL    HW190962   5.664   1.257   4.846
30312SOL    HW290963   5.586   1.217   4.708
30313SOL     OW90964   6.274   1.662   5.440
30313SOL    HW190965   6.218   1.743   5.449
30313SOL    HW290966   6.326   1.666   5.354
30314SOL     OW90967   7.312   0.135   4.247
30314SOL    HW190968   7.385   0.118   4.180
30314SOL    HW290969   7.281   0.048   4.285
30315SOL     OW90970   6.974   1.573   4.201
30315SOL    HW190971   7.041   1.585   4.127
30315SOL    HW290972   6.934   1.662   4.224
30316SOL     OW90973   5.716   1.794   5.575
30316SOL    HW190974   5.675   1.720   5.628
30316SOL    HW290975   5.780   1.845   5.633
30317SOL     OW90976   6.866   0.927   4.396
30317SOL    HW190977   6.926   0.846   4.398
30317SOL    HW290978   6.906   0.996   4.336
30318SOL     OW90979   6.416   1.273   5.146
30318SOL    HW190980   6.411   1.306   5.241
30318SOL    HW290981   6.330   1.292   5.100
30319SOL     OW90982   6.258   1.616   3.878
30319SOL    HW190983   6.267   1.626   3.779
30319SOL    HW290984   6.218   1.527   3.899
30320SOL     OW90985   7.236   1.720   5.118
30320SOL    HW190986   7.289   1.730   5.034
30320SOL    HW290987   7.209   1.810   5.152
30321SOL     OW90988   7.427   0.175   4.687
30321SOL    HW190989   7.466   0.090   4.651
30321SOL    HW290990   7.329   0.177   4.668
30322SOL     OW90991   5.849   0.326   4.444
30322SOL    HW190992   5.770   0.377   4.410
30322SOL    HW290993   5.840   0.311   4.542
30323SOL     OW90994   6.780   1.612   3.755
30323SOL    HW190995   6.786   1.519   3.792
30323SOL    HW290996   6.721   1.612   3.675
30324SOL     OW90997   6.408   1.002   5.096
30324SOL    HW190998   6.448   1.001   5.004
30324SOL    HW290999   6.418   1.094   5.136
30325SOL     OW91000   6.502   0.910   4.015
30325SOL    HW191001   6.565   0.948   3.947
30325SOL    HW291002   6.542   0.827   4.054
30326SOL     OW91003   7.090   1.607   3.768
30326SOL    HW191004   6.998   1.644   3.775
30326SOL    HW291005   7.128   1.627   3.678
30327SOL     OW91006   5.958   1.288   5.214
30327SOL    HW191007   5.945   1.381   5.180
30327SOL    HW291008   5.874   1.236   5.201
30328SOL     OW91009   7.200   1.292   5.013
30328SOL    HW191010   7.260   1.295   5.093
30328SOL    HW291011   7.125   1.356   5.026
30329SOL     OW91012   6.625   1.098   4.420
30329SOL    HW191013   6.555   1.051   4.474
30329SOL    HW291014   6.684   1.030   4.377
30330SOL     OW91015   6.600   0.236   4.695
30330SOL    HW191016   6.592   0.200   4.602
30330SOL    HW291017   6.598   0.160   4.760
30331SOL     OW91018   6.176   1.487   4.215
30331SOL    HW191019   6.218   1.429   4.145
30331SOL    HW291020   6.132   1.566   4.171
30332SOL     OW91021   7.295   0.385   5.105
30332SOL    HW191022   7.368   0.454   5.109
30332SOL    HW291023   7.323   0.310   5.046
30333SOL     OW91024   5.841   1.348   4.014
30333SOL    HW191025   5.745   1.349   3.987
30333SOL    HW291026   5.853   1.401   4.098
30334SOL     OW91027   5.691   1.013   5.450
30334SOL    HW191028   5.614   0.980   5.504
30334SOL    HW291029   5.776   0.983   5.492
30335SOL     OW91030   6.258   0.203   5.213
30335SOL    HW191031   6.348   0.187   5.173
30335SOL    HW291032   6.266   0.208   5.312
30336SOL     OW91033   5.661   0.345   3.757
30336SOL    HW191034   5.569   0.317   3.728
30336SOL    HW291035   5.692   0.422   3.701
30337SOL     OW91036   7.026   0.856   5.122
30337SOL    HW191037   6.969   0.908   5.059
30337SOL    HW291038   7.122   0.868   5.098
30338SOL     OW91039   5.658   0.166   4.042
30338SOL    HW191040   5.641   0.249   3.988
30338SOL    HW291041   5.748   0.129   4.020
30339SOL     OW91042   6.769   1.335   3.843
30339SOL    HW191043   6.670   1.324   3.845
30339SOL    HW291044   6.803   1.350   3.936
30340SOL     OW91045   6.199   0.842   5.155
30340SOL    HW191046   6.255   0.923   5.138
30340SOL    HW291047   6.258   0.762   5.158
30341SOL     OW91048   7.079   1.767   4.683
30341SOL    HW191049   7.112   1.831   4.614
30341SOL    HW291050   7.145   1.761   4.758
30342SOL     OW91051   6.302   0.565   5.432
30342SOL    HW191052   6.321   0.630   5.506
30342SOL    HW291053   6.362   0.485   5.441
30343SOL     OW91054   7.036   1.220   5.357
30343SOL    HW191055   7.027   1.210   5.456
30343SOL    HW291056   7.132   1.213   5.331
30344SOL     OW91057   5.976   1.741   5.284
30344SOL    HW191058   5.885   1.782   5.282
30344SOL    HW291059   5.969   1.647   5.316
30345SOL     OW91060   7.260   0.883   4.978
30345SOL    HW191061   7.233   0.794   4.941
30345SOL    HW291062   7.261   0.951   4.905
30346SOL     OW91063   6.811   0.325   4.173
30346SOL    HW191064   6.876   0.251   4.162
30346SOL    HW291065   6.831   0.375   4.257
30347SOL     OW91066   6.180   0.745   4.376
30347SOL    HW191067   6.230   0.830   4.357
30347SOL    HW291068   6.092   0.747   4.328
30348SOL     OW91069   7.363   0.342   5.366
30348SOL    HW191070   7.346   0.373   5.272
30348SOL    HW291071   7.279   0.305   5.404
30349SOL     OW91072   7.316   0.934   5.241
30349SOL    HW191073   7.354   1.025   5.256
30349SOL    HW291074   7.308   0.917   5.142
30350SOL     OW91075   6.445   1.374   3.740
30350SOL    HW191076   6.399   1.389   3.828
30350SOL    HW291077   6.489   1.459   3.710
30351SOL     OW91078   6.247   1.790   4.677
30351SOL    HW191079   6.201   1.878   4.664
30351SOL    HW291080   6.346   1.802   4.670
30352SOL     OW91081   6.445   0.956   4.585
30352SOL    HW191082   6.499   0.887   4.633
30352SOL    HW291083   6.413   1.025   4.651
30353SOL     OW91084   6.669   0.984   3.811
30353SOL    HW191085   6.646   1.037   3.729
30353SOL    HW291086   6.750   0.928   3.792
30354SOL     OW91087   7.447   1.569   4.575
30354SOL    HW191088   7.376   1.557   4.505
30354SOL    HW291089   7.448   1.490   4.635
30355SOL     OW91090   5.807   1.314   5.568
30355SOL    HW191091   5.742   1.241   5.547
30355SOL    HW291092   5.811   1.328   5.666
30356SOL     OW91093   5.665   1.240   4.377
30356SOL    HW191094   5.664   1.193   4.465
30356SOL    HW291095   5.747   1.212   4.326
30357SOL     OW91096   6.258   1.391   5.348
30357SOL    HW191097   6.180   1.341   5.386
30357SOL    HW291098   6.255   1.486   5.379
30358SOL     OW91099   7.410   0.192   4.951
30358SOL    HW191100   7.406   0.102   4.995
30358SOL    HW291101   7.413   0.181   4.852
30359SOL     OW91102   6.014   0.424   4.244
30359SOL    HW191103   6.044   0.352   4.182
30359SOL    HW291104   5.975   0.384   4.327
30360SOL     OW91105   7.291   1.487   4.828
30360SOL    HW191106   7.198   1.462   4.801
30360SOL    HW291107   7.317   1.437   4.910
30361SOL     OW91108   5.903   0.547   5.004
30361SOL    HW191109   5.941   0.488   5.076
30361SOL    HW291110   5.943   0.521   4.916
30362SOL     OW91111   6.398   1.586   4.411
30362SOL    HW191112   6.430   1.596   4.317
30362SOL    HW291113   6.319   1.524   4.413
30363SOL     OW91114   7.010   0.214   4.836
30363SOL    HW191115   7.062   0.149   4.891
30363SOL    HW291116   6.961   0.277   4.897
30364SOL     OW91117   6.587   0.034   4.878
30364SOL    HW191118   6.524  -0.038   4.847
30364SOL    HW291119   6.680  -0.002   4.878
30365SOL     OW91120   6.356   1.330   4.025
30365SOL    HW191121   6.310   1.243   4.042
30365SOL    HW291122   6.447   1.327   4.066
30366SOL     OW91123   6.204   1.567   5.008
30366SOL    HW191124   6.199   1.649   5.065
30366SOL    HW291125   6.293   1.564   4.963
30367SOL     OW91126   6.938   0.052   3.892
30367SOL    HW191127   6.973   0.011   3.808
30367SOL    HW291128   6.848   0.014   3.912
30368SOL     OW91129   6.886   0.453   4.415
30368SOL    HW191130   6.827   0.533   4.419
30368SOL    HW291131   6.901   0.418   4.508
30369SOL     OW91132   7.179   0.221   4.606
30369SOL    HW191133   7.095   0.220   4.660
30369SOL    HW291134   7.181   0.304   4.550
30370SOL     OW91135   5.625   1.077   4.024
30370SOL    HW191136   5.724   1.066   4.015
30370SOL    HW291137   5.585   0.991   4.056
30371SOL     OW91138   6.461   1.646   4.061
30371SOL    HW191139   6.384   1.611   4.007
30371SOL    HW291140   6.429   1.717   4.123
30372SOL     OW91141   5.816   0.628   5.699
30372SOL    HW191142   5.723   0.626   5.736
30372SOL    HW291143   5.817   0.589   5.607
30373SOL     OW91144   5.811   0.275   6.582
30373SOL    HW191145   5.846   0.258   6.674
30373SOL    HW291146   5.723   0.230   6.570
30374SOL     OW91147   5.605   0.368   6.233
30374SOL    HW191148   5.523   0.411   6.272
30374SOL    HW291149   5.577   0.295   6.170
30375SOL     OW91150   6.155   1.275   6.751
30375SOL    HW191151   6.062   1.268   6.714
30375SOL    HW291152   6.166   1.364   6.795
30376SOL     OW91153   7.141   1.511   6.289
30376SOL    HW191154   7.084   1.495   6.370
30376SOL    HW291155   7.082   1.521   6.209
30377SOL     OW91156   6.721   0.703   6.303
30377SOL    HW191157   6.778   0.781   6.278
30377SOL    HW291158   6.661   0.729   6.379
30378SOL     OW91159   7.341   0.607   5.817
30378SOL    HW191160   7.329   0.594   5.718
30378SOL    HW291161   7.311   0.526   5.866
30379SOL     OW91162   6.354   1.144   6.609
30379SOL    HW191163   6.276   1.161   6.669
30379SOL    HW291164   6.388   1.231   6.573
30380SOL     OW91165   6.436   0.798   7.409
30380SOL    HW191166   6.432   0.874   7.474
30380SOL    HW291167   6.458   0.834   7.318
30381SOL     OW91168   6.271   1.012   6.251
30381SOL    HW191169   6.340   0.996   6.321
30381SOL    HW291170   6.198   1.069   6.289
30382SOL     OW91171   6.272   1.161   7.389
30382SOL    HW191172   6.332   1.240   7.403
30382SOL    HW291173   6.186   1.192   7.348
30383SOL     OW91174   5.921   1.435   6.647
30383SOL    HW191175   5.843   1.404   6.594
30383SOL    HW291176   5.979   1.493   6.590
30384SOL     OW91177   7.046   1.505   6.925
30384SOL    HW191178   7.070   1.599   6.951
30384SOL    HW291179   7.030   1.451   7.007
30385SOL     OW91180   6.024   0.392   7.085
30385SOL    HW191181   6.106   0.336   7.094
30385SOL    HW291182   5.943   0.334   7.089
30386SOL     OW91183   7.189   0.447   6.323
30386SOL    HW191184   7.115   0.493   6.273
30386SOL    HW291185   7.240   0.515   6.376
30387SOL     OW91186   5.817   1.713   6.069
30387SOL    HW191187   5.851   1.790   6.123
30387SOL    HW291188   5.861   1.713   5.979
30388SOL     OW91189   6.713   1.341   7.276
30388SOL    HW191190   6.760   1.341   7.364
30388SOL    HW291191   6.665   1.254   7.265
30389SOL     OW91192   5.816   1.434   6.124
30389SOL    HW191193   5.790   1.530   6.124
30389SOL    HW291194   5.745   1.380   6.169
30390SOL     OW91195   5.826   1.091   6.472
30390SOL    HW191196   5.840   1.007   6.524
30390SOL    HW291197   5.771   1.155   6.527
30391SOL     OW91198   6.206   1.786   7.025
30391SOL    HW191199   6.114   1.769   7.060
30391SOL    HW291200   6.234   1.878   7.051
30392SOL     OW91201   6.192   0.964   5.709
30392SOL    HW191202   6.199   1.048   5.655
30392SOL    HW291203   6.238   0.977   5.797
30393SOL     OW91204   7.180   0.114   7.066
30393SOL    HW191205   7.162   0.181   6.994
30393SOL    HW291206   7.177   0.160   7.155
30394SOL     OW91207   5.708   0.643   6.149
30394SOL    HW191208   5.663   0.555   6.166
30394SOL    HW291209   5.707   0.697   6.233
30395SOL     OW91210   7.428   1.767   5.945
30395SOL    HW191211   7.482   1.738   6.025
30395SOL    HW291212   7.458   1.857   5.916
30396SOL     OW91213   5.613   1.596   5.703
30396SOL    HW191214   5.594   1.500   5.724
30396SOL    HW291215   5.580   1.654   5.778
30397SOL     OW91216   7.275   0.922   6.198
30397SOL    HW191217   7.370   0.893   6.206
30397SOL    HW291218   7.267   0.987   6.123
30398SOL     OW91219   7.227   1.108   6.018
30398SOL    HW191220   7.313   1.110   5.966
30398SOL    HW291221   7.241   1.155   6.106
30399SOL     OW91222   5.699   0.737   7.183
30399SOL    HW191223   5.787   0.724   7.228
30399SOL    HW291224   5.686   0.834   7.161
30400SOL     OW91225   6.199   1.365   6.312
30400SOL    HW191226   6.150   1.278   6.321
30400SOL    HW291227   6.176   1.408   6.225
30401SOL     OW91228   6.879   1.228   7.009
30401SOL    HW191229   6.916   1.155   6.951
30401SOL    HW291230   6.931   1.233   7.094
30402SOL     OW91231   6.395   0.004   6.088
30402SOL    HW191232   6.435   0.095   6.079
30402SOL    HW291233   6.295   0.012   6.094
30403SOL     OW91234   5.783   0.976   6.850
30403SOL    HW191235   5.872   0.931   6.836
30403SOL    HW291236   5.710   0.911   6.831
30404SOL     OW91237   7.111   0.999   5.776
30404SOL    HW191238   7.048   0.923   5.789
30404SOL    HW291239   7.159   1.017   5.862
30405SOL     OW91240   6.773   1.792   7.202
30405SOL    HW191241   6.797   1.852   7.126
30405SOL    HW291242   6.780   1.697   7.172
30406SOL     OW91243   5.903   0.251   7.387
30406SOL    HW191244   5.974   0.322   7.393
30406SOL    HW291245   5.815   0.290   7.415
30407SOL     OW91246   7.052   1.417   6.539
30407SOL    HW191247   6.993   1.423   6.619
30407SOL    HW291248   7.037   1.329   6.493
30408SOL     OW91249   7.253   1.714   6.158
30408SOL    HW191250   7.212   1.691   6.070
30408SOL    HW291251   7.235   1.640   6.223
30409SOL     OW91252   6.184   0.729   5.856
30409SOL    HW191253   6.208   0.798   5.788
30409SOL    HW291254   6.106   0.762   5.910
30410SOL     OW91255   6.867   0.345   6.530
30410SOL    HW191256   6.781   0.295   6.517
30410SOL    HW291257   6.929   0.291   6.586
30411SOL     OW91258   7.162   1.662   5.893
30411SOL    HW191259   7.251   1.708   5.896
30411SOL    HW291260   7.141   1.638   5.798
30412SOL     OW91261   6.393   0.605   7.051
30412SOL    HW191262   6.346   0.602   7.140
30412SOL    HW291263   6.342   0.550   6.985
30413SOL     OW91264   6.980   0.469   7.260
30413SOL    HW191265   6.960   0.512   7.348
30413SOL    HW291266   7.058   0.407   7.269
30414SOL     OW91267   6.559   0.890   7.158
30414SOL    HW191268   6.605   0.806   7.129
30414SOL    HW291269   6.503   0.924   7.083
30415SOL     OW91270   6.577   0.410   6.828
30415SOL    HW191271   6.500   0.444   6.882
30415SOL    HW291272   6.543   0.359   6.749
30416SOL     OW91273   6.627   0.701   6.015
30416SOL    HW191274   6.653   0.697   6.111
30416SOL    HW291275   6.542   0.650   6.001
30417SOL     OW91276   5.662   0.811   6.375
30417SOL    HW191277   5.761   0.799   6.384
30417SOL    HW291278   5.638   0.906   6.396
30418SOL     OW91279   5.716   1.821   7.157
30418SOL    HW191280   5.706   1.806   7.256
30418SOL    HW291281   5.630   1.857   7.121
30419SOL     OW91282   6.451   0.348   5.781
30419SOL    HW191283   6.510   0.411   5.732
30419SOL    HW291284   6.470   0.254   5.752
30420SOL     OW91285   7.305   0.585   7.417
30420SOL    HW191286   7.279   0.674   7.381
30420SOL    HW291287   7.303   0.517   7.344
30421SOL     OW91288   6.948   1.144   6.131
30421SOL    HW191289   7.031   1.115   6.083
30421SOL    HW291290   6.899   1.211   6.075
30422SOL     OW91291   6.136   0.196   6.471
30422SOL    HW191292   6.131   0.191   6.571
30422SOL    HW291293   6.138   0.292   6.442
30423SOL     OW91294   6.594   1.456   6.063
30423SOL    HW191295   6.548   1.528   6.011
30423SOL    HW291296   6.590   1.476   6.161
30424SOL     OW91297   5.937   1.801   6.439
30424SOL    HW191298   5.987   1.715   6.445
30424SOL    HW291299   6.002   1.878   6.436
30425SOL     OW91300   7.381   1.066   6.459
30425SOL    HW191301   7.319   1.051   6.383
30425SOL    HW291302   7.329   1.077   6.544
30426SOL     OW91303   6.813   1.550   7.092
30426SOL    HW191304   6.819   1.473   7.156
30426SOL    HW291305   6.761   1.524   7.012
30427SOL     OW91306   5.907   0.943   5.828
30427SOL    HW191307   5.989   0.982   5.786
30427SOL    HW291308   5.880   0.861   5.779
30428SOL     OW91309   7.044   0.735   6.314
30428SOL    HW191310   7.039   0.670   6.389
30428SOL    HW291311   7.124   0.794   6.327
30429SOL     OW91312   6.047   1.266   7.313
30429SOL    HW191313   5.997   1.267   7.227
30429SOL    HW291314   5.984   1.248   7.389
30430SOL     OW91315   6.697   1.776   5.823
30430SOL    HW191316   6.637   1.714   5.873
30430SOL    HW291317   6.728   1.732   5.738
30431SOL     OW91318   5.788   0.285   7.084
30431SOL    HW191319   5.708   0.345   7.071
30431SOL    HW291320   5.778   0.236   7.170
30432SOL     OW91321   7.218   1.377   5.667
30432SOL    HW191322   7.186   1.471   5.657
30432SOL    HW291323   7.142   1.314   5.655
30433SOL     OW91324   6.050   1.743   5.909
30433SOL    HW191325   6.083   1.782   5.995
30433SOL    HW291326   6.126   1.736   5.844
30434SOL     OW91327   6.986   0.107   6.012
30434SOL    HW191328   6.962   0.070   5.922
30434SOL    HW291329   7.085   0.123   6.016
30435SOL     OW91330   5.835   1.785   6.827
30435SOL    HW191331   5.892   1.720   6.877
30435SOL    HW291332   5.819   1.752   6.734
30436SOL     OW91333   6.526   1.698   6.490
30436SOL    HW191334   6.606   1.641   6.511
30436SOL    HW291335   6.477   1.658   6.413
30437SOL     OW91336   5.968   0.700   6.066
30437SOL    HW191337   6.013   0.610   6.063
30437SOL    HW291338   5.874   0.689   6.099
30438SOL     OW91339   7.133   0.222   7.315
30438SOL    HW191340   7.128   0.259   7.407
30438SOL    HW291341   7.061   0.153   7.303
30439SOL     OW91342   6.200   0.122   5.703
30439SOL    HW191343   6.298   0.100   5.710
30439SOL    HW291344   6.169   0.105   5.610
30440SOL     OW91345   6.367   0.264   7.335
30440SOL    HW191346   6.434   0.203   7.378
30440SOL    HW291347   6.294   0.283   7.400
30441SOL     OW91348   6.474   1.514   6.781
30441SOL    HW191349   6.451   1.489   6.687
30441SOL    HW291350   6.535   1.445   6.820
30442SOL     OW91351   6.937   0.590   7.019
30442SOL    HW191352   6.965   0.547   7.104
30442SOL    HW291353   6.962   0.686   7.020
30443SOL     OW91354   6.389   1.402   6.510
30443SOL    HW191355   6.479   1.416   6.468
30443SOL    HW291356   6.318   1.404   6.439
30444SOL     OW91357   6.508   0.503   6.485
30444SOL    HW191358   6.483   0.494   6.389
30444SOL    HW291359   6.556   0.421   6.516
30445SOL     OW91360   6.125   0.064   6.098
30445SOL    HW191361   6.044   0.065   6.156
30445SOL    HW291362   6.128   0.147   6.043
30446SOL     OW91363   7.020   1.188   5.627
30446SOL    HW191364   7.052   1.112   5.684
30446SOL    HW291365   6.928   1.215   5.657
30447SOL     OW91366   5.883   0.035   5.757
30447SOL    HW191367   5.932   0.119   5.736
30447SOL    HW291368   5.945  -0.030   5.802
30448SOL     OW91369   6.521   0.236   6.066
30448SOL    HW191370   6.473   0.277   5.988
30448SOL    HW291371   6.620   0.234   6.047
30449SOL     OW91372   6.662   0.683   7.050
30449SOL    HW191373   6.582   0.622   7.053
30449SOL    HW291374   6.743   0.630   7.026
30450SOL     OW91375   6.813   1.570   6.379
30450SOL    HW191376   6.834   1.644   6.314
30450SOL    HW291377   6.881   1.570   6.452
30451SOL     OW91378   6.045   1.152   6.327
30451SOL    HW191379   5.974   1.125   6.392
30451SOL    HW291380   6.019   1.124   6.234
30452SOL     OW91381   6.857   1.797   6.177
30452SOL    HW191382   6.901   1.861   6.113
30452SOL    HW291383   6.807   1.849   6.247
30453SOL     OW91384   6.618   0.549   5.602
30453SOL    HW191385   6.577   0.631   5.563
30453SOL    HW291386   6.682   0.575   5.675
30454SOL     OW91387   5.664   0.556   6.972
30454SOL    HW191388   5.756   0.555   6.931
30454SOL    HW291389   5.658   0.630   7.039
30455SOL     OW91390   6.147   0.222   6.733
30455SOL    HW191391   6.185   0.138   6.770
30455SOL    HW291392   6.059   0.241   6.777
30456SOL     OW91393   6.452   0.454   6.228
30456SOL    HW191394   6.420   0.526   6.166
30456SOL    HW291395   6.476   0.373   6.175
30457SOL     OW91396   6.603   0.039   6.339
30457SOL    HW191397   6.531   0.044   6.270
30457SOL    HW291398   6.579  -0.030   6.408
30458SOL     OW91399   7.015   1.173   6.453
30458SOL    HW191400   6.960   1.089   6.446
30458SOL    HW291401   7.041   1.202   6.361
30459SOL     OW91402   7.052   0.590   6.578
30459SOL    HW191403   7.022   0.495   6.585
30459SOL    HW291404   7.125   0.606   6.644
30460SOL     OW91405   7.443   0.833   5.963
30460SOL    HW191406   7.485   0.769   6.027
30460SOL    HW291407   7.405   0.782   5.885
30461SOL     OW91408   6.074   1.385   5.760
30461SOL    HW191409   5.987   1.370   5.807
30461SOL    HW291410   6.057   1.411   5.665
30462SOL     OW91411   7.250   1.280   6.243
30462SOL    HW191412   7.349   1.288   6.257
30462SOL    HW291413   7.205   1.364   6.274
30463SOL     OW91414   6.976   0.575   5.664
30463SOL    HW191415   6.922   0.554   5.745
30463SOL    HW291416   7.067   0.534   5.673
30464SOL     OW91417   6.113   0.256   5.914
30464SOL    HW191418   6.140   0.197   5.839
30464SOL    HW291419   6.113   0.351   5.883
30465SOL     OW91420   7.340   1.223   7.174
30465SOL    HW191421   7.431   1.184   7.161
30465SOL    HW291422   7.348   1.319   7.198
30466SOL     OW91423   6.650   1.347   6.926
30466SOL    HW191424   6.570   1.324   6.981
30466SOL    HW291425   6.733   1.321   6.975
30467SOL     OW91426   7.178   1.629   7.211
30467SOL    HW191427   7.205   1.663   7.121
30467SOL    HW291428   7.257   1.591   7.257
30468SOL     OW91429   6.697   1.195   6.686
30468SOL    HW191430   6.657   1.239   6.767
30468SOL    HW291431   6.656   1.232   6.603
30469SOL     OW91432   7.224   1.099   6.665
30469SOL    HW191433   7.229   1.180   6.724
30469SOL    HW291434   7.138   1.101   6.614
30470SOL     OW91435   6.501   0.089   6.988
30470SOL    HW191436   6.526   0.069   6.893
30470SOL    HW291437   6.573   0.145   7.030
30471SOL     OW91438   6.566   1.116   7.305
30471SOL    HW191439   6.467   1.122   7.315
30471SOL    HW291440   6.589   1.036   7.249
30472SOL     OW91441   6.291   1.050   5.954
30472SOL    HW191442   6.277   1.057   6.053
30472SOL    HW291443   6.375   0.999   5.936
30473SOL     OW91444   5.996   0.813   6.837
30473SOL    HW191445   6.082   0.825   6.887
30473SOL    HW291446   5.954   0.726   6.864
30474SOL     OW91447   6.860   0.386   6.848
30474SOL    HW191448   6.881   0.460   6.912
30474SOL    HW291449   6.771   0.403   6.805
30475SOL     OW91450   5.650   1.564   6.917
30475SOL    HW191451   5.604   1.646   6.883
30475SOL    HW291452   5.748   1.583   6.926
30476SOL     OW91453   5.953   1.100   6.087
30476SOL    HW191454   5.946   1.183   6.031
30476SOL    HW291455   5.957   1.020   6.027
30477SOL     OW91456   6.152   0.537   6.451
30477SOL    HW191457   6.164   0.603   6.377
30477SOL    HW291458   6.198   0.571   6.534
30478SOL     OW91459   6.838   1.348   5.974
30478SOL    HW191460   6.888   1.425   6.014
30478SOL    HW291461   6.743   1.350   6.006
30479SOL     OW91462   6.858   1.445   6.728
30479SOL    HW191463   6.905   1.458   6.815
30479SOL    HW291464   6.792   1.371   6.737
30480SOL     OW91465   7.168   0.639   6.058
30480SOL    HW191466   7.137   0.700   6.131
30480SOL    HW291467   7.218   0.691   5.989
30481SOL     OW91468   5.940   1.510   6.915
30481SOL    HW191469   5.919   1.466   6.828
30481SOL    HW291470   6.037   1.536   6.918
30482SOL     OW91471   5.988   0.751   7.184
30482SOL    HW191472   6.056   0.806   7.137
30482SOL    HW291473   6.028   0.663   7.211
30483SOL     OW91474   7.173   0.779   7.256
30483SOL    HW191475   7.081   0.817   7.251
30483SOL    HW291476   7.233   0.826   7.191
30484SOL     OW91477   6.599   0.105   7.356
30484SOL    HW191478   6.605   0.190   7.304
30484SOL    HW291479   6.631   0.029   7.299
30485SOL     OW91480   6.090   0.050   7.326
30485SOL    HW191481   6.048  -0.007   7.256
30485SOL    HW291482   6.024   0.119   7.358
30486SOL     OW91483   6.159   0.870   6.615
30486SOL    HW191484   6.203   0.959   6.606
30486SOL    HW291485   6.096   0.870   6.692
30487SOL     OW91486   6.946   0.862   6.631
30487SOL    HW191487   6.871   0.862   6.565
30487SOL    HW291488   6.983   0.770   6.640
30488SOL     OW91489   6.795   0.525   5.861
30488SOL    HW191490   6.808   0.441   5.915
30488SOL    HW291491   6.766   0.599   5.921
30489SOL     OW91492   5.893   0.213   6.817
30489SOL    HW191493   5.870   0.250   6.907
30489SOL    HW291494   5.863   0.118   6.811
30490SOL     OW91495   5.623   1.310   6.868
30490SOL    HW191496   5.676   1.261   6.936
30490SOL    HW291497   5.645   1.408   6.873
30491SOL     OW91498   6.318   0.634   6.650
30491SOL    HW191499   6.377   0.608   6.574
30491SOL    HW291500   6.290   0.730   6.639
30492SOL     OW91501   7.314   0.935   7.440
30492SOL    HW191502   7.268   0.928   7.351
30492SOL    HW291503   7.252   0.979   7.506
30493SOL     OW91504   5.893   0.063   6.204
30493SOL    HW191505   5.882   0.157   6.237
30493SOL    HW291506   5.888   0.000   6.281
30494SOL     OW91507   7.208   0.367   5.960
30494SOL    HW191508   7.210   0.291   6.024
30494SOL    HW291509   7.160   0.444   6.000
30495SOL     OW91510   6.609   0.766   6.552
30495SOL    HW191511   6.624   0.787   6.648
30495SOL    HW291512   6.579   0.671   6.543
30496SOL     OW91513   6.566   1.573   7.286
30496SOL    HW191514   6.546   1.617   7.198
30496SOL    HW291515   6.605   1.482   7.270
30497SOL     OW91516   7.445   1.518   7.191
30497SOL    HW191517   7.459   1.545   7.096
30497SOL    HW291518   7.528   1.540   7.244
30498SOL     OW91519   5.936   0.898   7.390
30498SOL    HW191520   6.012   0.942   7.438
30498SOL    HW291521   5.971   0.851   7.308
30499SOL     OW91522   7.126   0.274   5.711
30499SOL    HW191523   7.065   0.199   5.734
30499SOL    HW291524   7.148   0.326   5.794
30500SOL     OW91525   6.889   0.838   5.628
30500SOL    HW191526   6.923   0.745   5.643
30500SOL    HW291527   6.907   0.865   5.533
30501SOL     OW91528   6.654   1.333   6.435
30501SOL    HW191529   6.661   1.249   6.380
30501SOL    HW291530   6.716   1.402   6.399
30502SOL     OW91531   5.905   0.810   6.535
30502SOL    HW191532   5.998   0.846   6.540
30502SOL    HW291533   5.899   0.725   6.587
30503SOL     OW91534   5.925   0.509   6.592
30503SOL    HW191535   5.873   0.426   6.575
30503SOL    HW291536   6.002   0.514   6.528
30504SOL     OW91537   6.724   0.380   7.264
30504SOL    HW191538   6.679   0.443   7.328
30504SOL    HW291539   6.817   0.411   7.247
30505SOL     OW91540   6.746   0.207   7.063
30505SOL    HW191541   6.746   0.271   7.140
30505SOL    HW291542   6.774   0.255   6.980
30506SOL     OW91543   5.594   1.326   5.786
30506SOL    HW191544   5.501   1.347   5.755
30506SOL    HW291545   5.604   1.227   5.799
30507SOL     OW91546   5.674   1.801   6.513
30507SOL    HW191547   5.632   1.715   6.486
30507SOL    HW291548   5.768   1.804   6.479
30508SOL     OW91549   6.090   1.568   6.496
30508SOL    HW191550   6.156   1.642   6.505
30508SOL    HW291551   6.134   1.489   6.454
30509SOL     OW91552   6.588   0.796   6.824
30509SOL    HW191553   6.629   0.764   6.910
30509SOL    HW291554   6.492   0.769   6.821
30510SOL     OW91555   5.626   0.544   6.700
30510SOL    HW191556   5.711   0.511   6.659
30510SOL    HW291557   5.639   0.559   6.798
30511SOL     OW91558   5.775   0.520   7.308
30511SOL    HW191559   5.834   0.480   7.238
30511SOL    HW291560   5.717   0.591   7.267
30512SOL     OW91561   6.955   0.950   7.246
30512SOL    HW191562   6.994   1.039   7.266
30512SOL    HW291563   6.965   0.930   7.149
30513SOL     OW91564   6.401   0.572   5.911
30513SOL    HW191565   6.408   0.483   5.865
30513SOL    HW291566   6.307   0.606   5.903
30514SOL     OW91567   7.243   0.604   6.792
30514SOL    HW191568   7.205   0.535   6.854
30514SOL    HW291569   7.325   0.568   6.748
30515SOL     OW91570   5.838   1.564   7.330
30515SOL    HW191571   5.808   1.621   7.406
30515SOL    HW291572   5.831   1.467   7.356
30516SOL     OW91573   6.257   0.464   6.855
30516SOL    HW191574   6.223   0.375   6.825
30516SOL    HW291575   6.283   0.518   6.775
30517SOL     OW91576   6.516   1.678   7.051
30517SOL    HW191577   6.492   1.660   6.956
30517SOL    HW291578   6.546   1.772   7.061
30518SOL     OW91579   6.059   0.500   5.777
30518SOL    HW191580   6.120   0.580   5.781
30518SOL    HW291581   5.964   0.531   5.784
30519SOL     OW91582   5.745   1.137   7.052
30519SOL    HW191583   5.767   1.076   7.128
30519SOL    HW291584   5.755   1.088   6.966
30520SOL     OW91585   6.933   1.059   6.820
30520SOL    HW191586   6.957   0.996   6.746
30520SOL    HW291587   6.843   1.099   6.802
30521SOL     OW91588   6.888   0.855   5.895
30521SOL    HW191589   6.802   0.824   5.937
30521SOL    HW291590   6.884   0.841   5.796
30522SOL     OW91591   7.345   1.747   6.740
30522SOL    HW191592   7.406   1.777   6.667
30522SOL    HW291593   7.307   1.658   6.718
30523SOL     OW91594   6.838   1.731   6.714
30523SOL    HW191595   6.922   1.736   6.660
30523SOL    HW291596   6.815   1.635   6.732
30524SOL     OW91597   5.669   1.258   6.608
30524SOL    HW191598   5.664   1.257   6.708
30524SOL    HW291599   5.586   1.217   6.570
30525SOL     OW91600   6.274   1.662   7.302
30525SOL    HW191601   6.218   1.743   7.311
30525SOL    HW291602   6.326   1.666   7.216
30526SOL     OW91603   7.312   0.135   6.109
30526SOL    HW191604   7.385   0.118   6.042
30526SOL    HW291605   7.281   0.048   6.147
30527SOL     OW91606   6.974   1.573   6.063
30527SOL    HW191607   7.041   1.585   5.989
30527SOL    HW291608   6.934   1.662   6.086
30528SOL     OW91609   5.716   1.794   7.437
30528SOL    HW191610   5.675   1.720   7.490
30528SOL    HW291611   5.780   1.845   7.495
30529SOL     OW91612   6.866   0.927   6.258
30529SOL    HW191613   6.926   0.846   6.260
30529SOL    HW291614   6.906   0.996   6.198
30530SOL     OW91615   6.416   1.273   7.008
30530SOL    HW191616   6.411   1.306   7.103
30530SOL    HW291617   6.330   1.292   6.962
30531SOL     OW91618   6.258   1.616   5.740
30531SOL    HW191619   6.267   1.626   5.641
30531SOL    HW291620   6.218   1.527   5.761
30532SOL     OW91621   7.236   1.720   6.980
30532SOL    HW191622   7.289   1.730   6.896
30532SOL    HW291623   7.209   1.810   7.014
30533SOL     OW91624   7.427   0.175   6.549
30533SOL    HW191625   7.466   0.090   6.513
30533SOL    HW291626   7.329   0.177   6.530
30534SOL     OW91627   5.849   0.326   6.306
30534SOL    HW191628   5.770   0.377   6.272
30534SOL    HW291629   5.840   0.311   6.404
30535SOL     OW91630   6.780   1.612   5.617
30535SOL    HW191631   6.786   1.519   5.654
30535SOL    HW291632   6.721   1.612   5.537
30536SOL     OW91633   6.408   1.002   6.958
30536SOL    HW191634   6.448   1.001   6.866
30536SOL    HW291635   6.418   1.094   6.998
30537SOL     OW91636   6.502   0.910   5.877
30537SOL    HW191637   6.565   0.948   5.809
30537SOL    HW291638   6.542   0.827   5.916
30538SOL     OW91639   7.090   1.607   5.630
30538SOL    HW191640   6.998   1.644   5.637
30538SOL    HW291641   7.128   1.627   5.540
30539SOL     OW91642   5.958   1.288   7.076
30539SOL    HW191643   5.945   1.381   7.042
30539SOL    HW291644   5.874   1.236   7.063
30540SOL     OW91645   7.200   1.292   6.875
30540SOL    HW191646   7.260   1.295   6.955
30540SOL    HW291647   7.125   1.356   6.888
30541SOL     OW91648   6.625   1.098   6.282
30541SOL    HW191649   6.555   1.051   6.336
30541SOL    HW291650   6.684   1.030   6.239
30542SOL     OW91651   6.600   0.236   6.557
30542SOL    HW191652   6.592   0.200   6.464
30542SOL    HW291653   6.598   0.160   6.622
30543SOL     OW91654   6.176   1.487   6.077
30543SOL    HW191655   6.218   1.429   6.007
30543SOL    HW291656   6.132   1.566   6.033
30544SOL     OW91657   7.295   0.385   6.967
30544SOL    HW191658   7.368   0.454   6.971
30544SOL    HW291659   7.323   0.310   6.908
30545SOL     OW91660   5.841   1.348   5.876
30545SOL    HW191661   5.745   1.349   5.849
30545SOL    HW291662   5.853   1.401   5.960
30546SOL     OW91663   5.691   1.013   7.312
30546SOL    HW191664   5.614   0.980   7.366
30546SOL    HW291665   5.776   0.983   7.354
30547SOL     OW91666   6.258   0.203   7.075
30547SOL    HW191667   6.348   0.187   7.035
30547SOL    HW291668   6.266   0.208   7.174
30548SOL     OW91669   5.661   0.345   5.619
30548SOL    HW191670   5.569   0.317   5.590
30548SOL    HW291671   5.692   0.422   5.563
30549SOL     OW91672   7.026   0.856   6.984
30549SOL    HW191673   6.969   0.908   6.921
30549SOL    HW291674   7.122   0.868   6.960
30550SOL     OW91675   5.658   0.166   5.904
30550SOL    HW191676   5.641   0.249   5.850
30550SOL    HW291677   5.748   0.129   5.882
30551SOL     OW91678   6.769   1.335   5.705
30551SOL    HW191679   6.670   1.324   5.707
30551SOL    HW291680   6.803   1.350   5.798
30552SOL     OW91681   6.199   0.842   7.017
30552SOL    HW191682   6.255   0.923   7.000
30552SOL    HW291683   6.258   0.762   7.020
30553SOL     OW91684   7.079   1.767   6.545
30553SOL    HW191685   7.112   1.831   6.476
30553SOL    HW291686   7.145   1.761   6.620
30554SOL     OW91687   6.302   0.565   7.294
30554SOL    HW191688   6.321   0.630   7.368
30554SOL    HW291689   6.362   0.485   7.303
30555SOL     OW91690   7.036   1.220   7.219
30555SOL    HW191691   7.027   1.210   7.318
30555SOL    HW291692   7.132   1.213   7.193
30556SOL     OW91693   5.976   1.741   7.146
30556SOL    HW191694   5.885   1.782   7.144
30556SOL    HW291695   5.969   1.647   7.178
30557SOL     OW91696   7.260   0.883   6.840
30557SOL    HW191697   7.233   0.794   6.803
30557SOL    HW291698   7.261   0.951   6.767
30558SOL     OW91699   6.811   0.325   6.035
30558SOL    HW191700   6.876   0.251   6.024
30558SOL    HW291701   6.831   0.375   6.119
30559SOL     OW91702   6.180   0.745   6.238
30559SOL    HW191703   6.230   0.830   6.219
30559SOL    HW291704   6.092   0.747   6.190
30560SOL     OW91705   7.363   0.342   7.228
30560SOL    HW191706   7.346   0.373   7.134
30560SOL    HW291707   7.279   0.305   7.266
30561SOL     OW91708   7.316   0.934   7.103
30561SOL    HW191709   7.354   1.025   7.118
30561SOL    HW291710   7.308   0.917   7.004
30562SOL     OW91711   6.445   1.374   5.602
30562SOL    HW191712   6.399   1.389   5.690
30562SOL    HW291713   6.489   1.459   5.572
30563SOL     OW91714   6.247   1.790   6.539
30563SOL    HW191715   6.201   1.878   6.526
30563SOL    HW291716   6.346   1.802   6.532
30564SOL     OW91717   6.445   0.956   6.447
30564SOL    HW191718   6.499   0.887   6.495
30564SOL    HW291719   6.413   1.025   6.513
30565SOL     OW91720   6.669   0.984   5.673
30565SOL    HW191721   6.646   1.037   5.591
30565SOL    HW291722   6.750   0.928   5.654
30566SOL     OW91723   7.447   1.569   6.437
30566SOL    HW191724   7.376   1.557   6.367
30566SOL    HW291725   7.448   1.490   6.497
30567SOL     OW91726   5.807   1.314   7.430
30567SOL    HW191727   5.742   1.241   7.409
30567SOL    HW291728   5.811   1.328   7.528
30568SOL     OW91729   5.665   1.240   6.239
30568SOL    HW191730   5.664   1.193   6.327
30568SOL    HW291731   5.747   1.212   6.188
30569SOL     OW91732   6.258   1.391   7.210
30569SOL    HW191733   6.180   1.341   7.248
30569SOL    HW291734   6.255   1.486   7.241
30570SOL     OW91735   7.410   0.192   6.813
30570SOL    HW191736   7.406   0.102   6.857
30570SOL    HW291737   7.413   0.181   6.714
30571SOL     OW91738   6.014   0.424   6.106
30571SOL    HW191739   6.044   0.352   6.044
30571SOL    HW291740   5.975   0.384   6.189
30572SOL     OW91741   7.291   1.487   6.690
30572SOL    HW191742   7.198   1.462   6.663
30572SOL    HW291743   7.317   1.437   6.772
30573SOL     OW91744   5.903   0.547   6.866
30573SOL    HW191745   5.941   0.488   6.938
30573SOL    HW291746   5.943   0.521   6.778
30574SOL     OW91747   6.398   1.586   6.273
30574SOL    HW191748   6.430   1.596   6.179
30574SOL    HW291749   6.319   1.524   6.275
30575SOL     OW91750   7.010   0.214   6.698
30575SOL    HW191751   7.062   0.149   6.753
30575SOL    HW291752   6.961   0.277   6.759
30576SOL     OW91753   6.587   0.034   6.740
30576SOL    HW191754   6.524  -0.038   6.709
30576SOL    HW291755   6.680  -0.002   6.740
30577SOL     OW91756   6.356   1.330   5.887
30577SOL    HW191757   6.310   1.243   5.904
30577SOL    HW291758   6.447   1.327   5.928
30578SOL     OW91759   6.204   1.567   6.870
30578SOL    HW191760   6.199   1.649   6.927
30578SOL    HW291761   6.293   1.564   6.825
30579SOL     OW91762   6.938   0.052   5.754
30579SOL    HW191763   6.973   0.011   5.670
30579SOL    HW291764   6.848   0.014   5.774
30580SOL     OW91765   6.886   0.453   6.277
30580SOL    HW191766   6.827   0.533   6.281
30580SOL    HW291767   6.901   0.418   6.370
30581SOL     OW91768   7.179   0.221   6.468
30581SOL    HW191769   7.095   0.220   6.522
30581SOL    HW291770   7.181   0.304   6.412
30582SOL     OW91771   5.625   1.077   5.886
30582SOL    HW191772   5.724   1.066   5.877
30582SOL    HW291773   5.585   0.991   5.918
30583SOL     OW91774   6.461   1.646   5.923
30583SOL    HW191775   6.384   1.611   5.869
30583SOL    HW291776   6.429   1.717   5.985
30584SOL     OW91777   5.816   0.628   7.561
30584SOL    HW191778   5.723   0.626   7.598
30584SOL    HW291779   5.817   0.589   7.469
30585SOL     OW91780   5.811   0.275   8.444
30585SOL    HW191781   5.846   0.258   8.536
30585SOL    HW291782   5.723   0.230   8.432
30586SOL     OW91783   5.605   0.368   8.095
30586SOL    HW191784   5.523   0.411   8.134
30586SOL    HW291785   5.577   0.295   8.032
30587SOL     OW91786   6.155   1.275   8.613
30587SOL    HW191787   6.062   1.268   8.576
30587SOL    HW291788   6.166   1.364   8.657
30588SOL     OW91789   7.141   1.511   8.151
30588SOL    HW191790   7.084   1.495   8.232
30588SOL    HW291791   7.082   1.521   8.071
30589SOL     OW91792   6.721   0.703   8.165
30589SOL    HW191793   6.778   0.781   8.140
30589SOL    HW291794   6.661   0.729   8.241
30590SOL     OW91795   7.341   0.607   7.679
30590SOL    HW191796   7.329   0.594   7.580
30590SOL    HW291797   7.311   0.526   7.728
30591SOL     OW91798   6.354   1.144   8.471
30591SOL    HW191799   6.276   1.161   8.531
30591SOL    HW291800   6.388   1.231   8.435
30592SOL     OW91801   6.436   0.798   9.271
30592SOL    HW191802   6.432   0.874   9.336
30592SOL    HW291803   6.458   0.834   9.180
30593SOL     OW91804   6.271   1.012   8.113
30593SOL    HW191805   6.340   0.996   8.183
30593SOL    HW291806   6.198   1.069   8.151
30594SOL     OW91807   6.272   1.161   9.251
30594SOL    HW191808   6.332   1.240   9.265
30594SOL    HW291809   6.186   1.192   9.210
30595SOL     OW91810   5.921   1.435   8.509
30595SOL    HW191811   5.843   1.404   8.456
30595SOL    HW291812   5.979   1.493   8.452
30596SOL     OW91813   7.046   1.505   8.787
30596SOL    HW191814   7.070   1.599   8.813
30596SOL    HW291815   7.030   1.451   8.869
30597SOL     OW91816   6.024   0.392   8.947
30597SOL    HW191817   6.106   0.336   8.956
30597SOL    HW291818   5.943   0.334   8.951
30598SOL     OW91819   7.189   0.447   8.185
30598SOL    HW191820   7.115   0.493   8.135
30598SOL    HW291821   7.240   0.515   8.238
30599SOL     OW91822   5.817   1.713   7.931
30599SOL    HW191823   5.851   1.790   7.985
30599SOL    HW291824   5.861   1.713   7.841
30600SOL     OW91825   6.713   1.341   9.138
30600SOL    HW191826   6.760   1.341   9.226
30600SOL    HW291827   6.665   1.254   9.127
30601SOL     OW91828   5.816   1.434   7.986
30601SOL    HW191829   5.790   1.530   7.986
30601SOL    HW291830   5.745   1.380   8.031
30602SOL     OW91831   5.826   1.091   8.334
30602SOL    HW191832   5.840   1.007   8.386
30602SOL    HW291833   5.771   1.155   8.389
30603SOL     OW91834   6.206   1.786   8.887
30603SOL    HW191835   6.114   1.769   8.922
30603SOL    HW291836   6.234   1.878   8.913
30604SOL     OW91837   6.192   0.964   7.571
30604SOL    HW191838   6.199   1.048   7.517
30604SOL    HW291839   6.238   0.977   7.659
30605SOL     OW91840   7.180   0.114   8.928
30605SOL    HW191841   7.162   0.181   8.856
30605SOL    HW291842   7.177   0.160   9.017
30606SOL     OW91843   5.708   0.643   8.011
30606SOL    HW191844   5.663   0.555   8.028
30606SOL    HW291845   5.707   0.697   8.095
30607SOL     OW91846   7.428   1.767   7.807
30607SOL    HW191847   7.482   1.738   7.887
30607SOL    HW291848   7.458   1.857   7.778
30608SOL     OW91849   5.613   1.596   7.565
30608SOL    HW191850   5.594   1.500   7.586
30608SOL    HW291851   5.580   1.654   7.640
30609SOL     OW91852   7.275   0.922   8.060
30609SOL    HW191853   7.370   0.893   8.068
30609SOL    HW291854   7.267   0.987   7.985
30610SOL     OW91855   7.227   1.108   7.880
30610SOL    HW191856   7.313   1.110   7.828
30610SOL    HW291857   7.241   1.155   7.968
30611SOL     OW91858   5.699   0.737   9.045
30611SOL    HW191859   5.787   0.724   9.090
30611SOL    HW291860   5.686   0.834   9.023
30612SOL     OW91861   6.199   1.365   8.174
30612SOL    HW191862   6.150   1.278   8.183
30612SOL    HW291863   6.176   1.408   8.087
30613SOL     OW91864   6.879   1.228   8.871
30613SOL    HW191865   6.916   1.155   8.813
30613SOL    HW291866   6.931   1.233   8.956
30614SOL     OW91867   6.395   0.004   7.950
30614SOL    HW191868   6.435   0.095   7.941
30614SOL    HW291869   6.295   0.012   7.956
30615SOL     OW91870   5.783   0.976   8.712
30615SOL    HW191871   5.872   0.931   8.698
30615SOL    HW291872   5.710   0.911   8.693
30616SOL     OW91873   7.111   0.999   7.638
30616SOL    HW191874   7.048   0.923   7.651
30616SOL    HW291875   7.159   1.017   7.724
30617SOL     OW91876   6.773   1.792   9.064
30617SOL    HW191877   6.797   1.852   8.988
30617SOL    HW291878   6.780   1.697   9.034
30618SOL     OW91879   5.903   0.251   9.249
30618SOL    HW191880   5.974   0.322   9.255
30618SOL    HW291881   5.815   0.290   9.277
30619SOL     OW91882   7.052   1.417   8.401
30619SOL    HW191883   6.993   1.423   8.481
30619SOL    HW291884   7.037   1.329   8.355
30620SOL     OW91885   7.253   1.714   8.020
30620SOL    HW191886   7.212   1.691   7.932
30620SOL    HW291887   7.235   1.640   8.085
30621SOL     OW91888   6.184   0.729   7.718
30621SOL    HW191889   6.208   0.798   7.650
30621SOL    HW291890   6.106   0.762   7.772
30622SOL     OW91891   6.867   0.345   8.392
30622SOL    HW191892   6.781   0.295   8.379
30622SOL    HW291893   6.929   0.291   8.448
30623SOL     OW91894   7.162   1.662   7.755
30623SOL    HW191895   7.251   1.708   7.758
30623SOL    HW291896   7.141   1.638   7.660
30624SOL     OW91897   6.393   0.605   8.913
30624SOL    HW191898   6.346   0.602   9.002
30624SOL    HW291899   6.342   0.550   8.847
30625SOL     OW91900   6.980   0.469   9.122
30625SOL    HW191901   6.960   0.512   9.210
30625SOL    HW291902   7.058   0.407   9.131
30626SOL     OW91903   6.559   0.890   9.020
30626SOL    HW191904   6.605   0.806   8.991
30626SOL    HW291905   6.503   0.924   8.945
30627SOL     OW91906   6.577   0.410   8.690
30627SOL    HW191907   6.500   0.444   8.744
30627SOL    HW291908   6.543   0.359   8.611
30628SOL     OW91909   6.627   0.701   7.877
30628SOL    HW191910   6.653   0.697   7.973
30628SOL    HW291911   6.542   0.650   7.863
30629SOL     OW91912   5.662   0.811   8.237
30629SOL    HW191913   5.761   0.799   8.246
30629SOL    HW291914   5.638   0.906   8.258
30630SOL     OW91915   5.716   1.821   9.019
30630SOL    HW191916   5.706   1.806   9.118
30630SOL    HW291917   5.630   1.857   8.983
30631SOL     OW91918   6.451   0.348   7.643
30631SOL    HW191919   6.510   0.411   7.594
30631SOL    HW291920   6.470   0.254   7.614
30632SOL     OW91921   7.305   0.585   9.279
30632SOL    HW191922   7.279   0.674   9.243
30632SOL    HW291923   7.303   0.517   9.206
30633SOL     OW91924   6.948   1.144   7.993
30633SOL    HW191925   7.031   1.115   7.945
30633SOL    HW291926   6.899   1.211   7.937
30634SOL     OW91927   6.136   0.196   8.333
30634SOL    HW191928   6.131   0.191   8.433
30634SOL    HW291929   6.138   0.292   8.304
30635SOL     OW91930   6.594   1.456   7.925
30635SOL    HW191931   6.548   1.528   7.873
30635SOL    HW291932   6.590   1.476   8.023
30636SOL     OW91933   5.937   1.801   8.301
30636SOL    HW191934   5.987   1.715   8.307
30636SOL    HW291935   6.002   1.878   8.298
30637SOL     OW91936   7.381   1.066   8.321
30637SOL    HW191937   7.319   1.051   8.245
30637SOL    HW291938   7.329   1.077   8.406
30638SOL     OW91939   6.813   1.550   8.954
30638SOL    HW191940   6.819   1.473   9.018
30638SOL    HW291941   6.761   1.524   8.874
30639SOL     OW91942   5.907   0.943   7.690
30639SOL    HW191943   5.989   0.982   7.648
30639SOL    HW291944   5.880   0.861   7.641
30640SOL     OW91945   7.044   0.735   8.176
30640SOL    HW191946   7.039   0.670   8.251
30640SOL    HW291947   7.124   0.794   8.189
30641SOL     OW91948   6.047   1.266   9.175
30641SOL    HW191949   5.997   1.267   9.089
30641SOL    HW291950   5.984   1.248   9.251
30642SOL     OW91951   6.697   1.776   7.685
30642SOL    HW191952   6.637   1.714   7.735
30642SOL    HW291953   6.728   1.732   7.600
30643SOL     OW91954   5.788   0.285   8.946
30643SOL    HW191955   5.708   0.345   8.933
30643SOL    HW291956   5.778   0.236   9.032
30644SOL     OW91957   7.218   1.377   7.529
30644SOL    HW191958   7.186   1.471   7.519
30644SOL    HW291959   7.142   1.314   7.517
30645SOL     OW91960   6.050   1.743   7.771
30645SOL    HW191961   6.083   1.782   7.857
30645SOL    HW291962   6.126   1.736   7.706
30646SOL     OW91963   6.986   0.107   7.874
30646SOL    HW191964   6.962   0.070   7.784
30646SOL    HW291965   7.085   0.123   7.878
30647SOL     OW91966   5.835   1.785   8.689
30647SOL    HW191967   5.892   1.720   8.739
30647SOL    HW291968   5.819   1.752   8.596
30648SOL     OW91969   6.526   1.698   8.352
30648SOL    HW191970   6.606   1.641   8.373
30648SOL    HW291971   6.477   1.658   8.275
30649SOL     OW91972   5.968   0.700   7.928
30649SOL    HW191973   6.013   0.610   7.925
30649SOL    HW291974   5.874   0.689   7.961
30650SOL     OW91975   7.133   0.222   9.177
30650SOL    HW191976   7.128   0.259   9.269
30650SOL    HW291977   7.061   0.153   9.165
30651SOL     OW91978   6.200   0.122   7.565
30651SOL    HW191979   6.298   0.100   7.572
30651SOL    HW291980   6.169   0.105   7.472
30652SOL     OW91981   6.367   0.264   9.197
30652SOL    HW191982   6.434   0.203   9.240
30652SOL    HW291983   6.294   0.283   9.262
30653SOL     OW91984   6.474   1.514   8.643
30653SOL    HW191985   6.451   1.489   8.549
30653SOL    HW291986   6.535   1.445   8.682
30654SOL     OW91987   6.937   0.590   8.881
30654SOL    HW191988   6.965   0.547   8.966
30654SOL    HW291989   6.962   0.686   8.882
30655SOL     OW91990   6.389   1.402   8.372
30655SOL    HW191991   6.479   1.416   8.330
30655SOL    HW291992   6.318   1.404   8.301
30656SOL     OW91993   6.508   0.503   8.347
30656SOL    HW191994   6.483   0.494   8.251
30656SOL    HW291995   6.556   0.421   8.378
30657SOL     OW91996   6.125   0.064   7.960
30657SOL    HW191997   6.044   0.065   8.018
30657SOL    HW291998   6.128   0.147   7.905
30658SOL     OW91999   7.020   1.188   7.489
30658SOL    HW192000   7.052   1.112   7.546
30658SOL    HW292001   6.928   1.215   7.519
30659SOL     OW92002   5.883   0.035   7.619
30659SOL    HW192003   5.932   0.119   7.598
30659SOL    HW292004   5.945  -0.030   7.664
30660SOL     OW92005   6.521   0.236   7.928
30660SOL    HW192006   6.473   0.277   7.850
30660SOL    HW292007   6.620   0.234   7.909
30661SOL     OW92008   6.662   0.683   8.912
30661SOL    HW192009   6.582   0.622   8.915
30661SOL    HW292010   6.743   0.630   8.888
30662SOL     OW92011   6.813   1.570   8.241
30662SOL    HW192012   6.834   1.644   8.176
30662SOL    HW292013   6.881   1.570   8.314
30663SOL     OW92014   6.045   1.152   8.189
30663SOL    HW192015   5.974   1.125   8.254
30663SOL    HW292016   6.019   1.124   8.096
30664SOL     OW92017   6.857   1.797   8.039
30664SOL    HW192018   6.901   1.861   7.975
30664SOL    HW292019   6.807   1.849   8.109
30665SOL     OW92020   6.618   0.549   7.464
30665SOL    HW192021   6.577   0.631   7.425
30665SOL    HW292022   6.682   0.575   7.537
30666SOL     OW92023   5.664   0.556   8.834
30666SOL    HW192024   5.756   0.555   8.793
30666SOL    HW292025   5.658   0.630   8.901
30667SOL     OW92026   6.147   0.222   8.595
30667SOL    HW192027   6.185   0.138   8.632
30667SOL    HW292028   6.059   0.241   8.639
30668SOL     OW92029   6.452   0.454   8.090
30668SOL    HW192030   6.420   0.526   8.028
30668SOL    HW292031   6.476   0.373   8.037
30669SOL     OW92032   6.603   0.039   8.201
30669SOL    HW192033   6.531   0.044   8.132
30669SOL    HW292034   6.579  -0.030   8.270
30670SOL     OW92035   7.015   1.173   8.315
30670SOL    HW192036   6.960   1.089   8.308
30670SOL    HW292037   7.041   1.202   8.223
30671SOL     OW92038   7.052   0.590   8.440
30671SOL    HW192039   7.022   0.495   8.447
30671SOL    HW292040   7.125   0.606   8.506
30672SOL     OW92041   7.443   0.833   7.825
30672SOL    HW192042   7.485   0.769   7.889
30672SOL    HW292043   7.405   0.782   7.747
30673SOL     OW92044   6.074   1.385   7.622
30673SOL    HW192045   5.987   1.370   7.669
30673SOL    HW292046   6.057   1.411   7.527
30674SOL     OW92047   7.250   1.280   8.105
30674SOL    HW192048   7.349   1.288   8.119
30674SOL    HW292049   7.205   1.364   8.136
30675SOL     OW92050   6.976   0.575   7.526
30675SOL    HW192051   6.922   0.554   7.607
30675SOL    HW292052   7.067   0.534   7.535
30676SOL     OW92053   6.113   0.256   7.776
30676SOL    HW192054   6.140   0.197   7.701
30676SOL    HW292055   6.113   0.351   7.745
30677SOL     OW92056   7.340   1.223   9.036
30677SOL    HW192057   7.431   1.184   9.023
30677SOL    HW292058   7.348   1.319   9.060
30678SOL     OW92059   6.650   1.347   8.788
30678SOL    HW192060   6.570   1.324   8.843
30678SOL    HW292061   6.733   1.321   8.837
30679SOL     OW92062   7.178   1.629   9.073
30679SOL    HW192063   7.205   1.663   8.983
30679SOL    HW292064   7.257   1.591   9.119
30680SOL     OW92065   6.697   1.195   8.548
30680SOL    HW192066   6.657   1.239   8.629
30680SOL    HW292067   6.656   1.232   8.465
30681SOL     OW92068   7.224   1.099   8.527
30681SOL    HW192069   7.229   1.180   8.586
30681SOL    HW292070   7.138   1.101   8.476
30682SOL     OW92071   6.501   0.089   8.850
30682SOL    HW192072   6.526   0.069   8.755
30682SOL    HW292073   6.573   0.145   8.892
30683SOL     OW92074   6.566   1.116   9.167
30683SOL    HW192075   6.467   1.122   9.177
30683SOL    HW292076   6.589   1.036   9.111
30684SOL     OW92077   6.291   1.050   7.816
30684SOL    HW192078   6.277   1.057   7.915
30684SOL    HW292079   6.375   0.999   7.798
30685SOL     OW92080   5.996   0.813   8.699
30685SOL    HW192081   6.082   0.825   8.749
30685SOL    HW292082   5.954   0.726   8.726
30686SOL     OW92083   6.860   0.386   8.710
30686SOL    HW192084   6.881   0.460   8.774
30686SOL    HW292085   6.771   0.403   8.667
30687SOL     OW92086   5.650   1.564   8.779
30687SOL    HW192087   5.604   1.646   8.745
30687SOL    HW292088   5.748   1.583   8.788
30688SOL     OW92089   5.953   1.100   7.949
30688SOL    HW192090   5.946   1.183   7.893
30688SOL    HW292091   5.957   1.020   7.889
30689SOL     OW92092   6.152   0.537   8.313
30689SOL    HW192093   6.164   0.603   8.239
30689SOL    HW292094   6.198   0.571   8.396
30690SOL     OW92095   6.838   1.348   7.836
30690SOL    HW192096   6.888   1.425   7.876
30690SOL    HW292097   6.743   1.350   7.868
30691SOL     OW92098   6.858   1.445   8.590
30691SOL    HW192099   6.905   1.458   8.677
30691SOL    HW292100   6.792   1.371   8.599
30692SOL     OW92101   7.168   0.639   7.920
30692SOL    HW192102   7.137   0.700   7.993
30692SOL    HW292103   7.218   0.691   7.851
30693SOL     OW92104   5.940   1.510   8.777
30693SOL    HW192105   5.919   1.466   8.690
30693SOL    HW292106   6.037   1.536   8.780
30694SOL     OW92107   5.988   0.751   9.046
30694SOL    HW192108   6.056   0.806   8.999
30694SOL    HW292109   6.028   0.663   9.073
30695SOL     OW92110   7.173   0.779   9.118
30695SOL    HW192111   7.081   0.817   9.113
30695SOL    HW292112   7.233   0.826   9.053
30696SOL     OW92113   6.599   0.105   9.218
30696SOL    HW192114   6.605   0.190   9.166
30696SOL    HW292115   6.631   0.029   9.161
30697SOL     OW92116   6.090   0.050   9.188
30697SOL    HW192117   6.048  -0.007   9.118
30697SOL    HW292118   6.024   0.119   9.220
30698SOL     OW92119   6.159   0.870   8.477
30698SOL    HW192120   6.203   0.959   8.468
30698SOL    HW292121   6.096   0.870   8.554
30699SOL     OW92122   6.946   0.862   8.493
30699SOL    HW192123   6.871   0.862   8.427
30699SOL    HW292124   6.983   0.770   8.502
30700SOL     OW92125   6.795   0.525   7.723
30700SOL    HW192126   6.808   0.441   7.777
30700SOL    HW292127   6.766   0.599   7.783
30701SOL     OW92128   5.893   0.213   8.679
30701SOL    HW192129   5.870   0.250   8.769
30701SOL    HW292130   5.863   0.118   8.673
30702SOL     OW92131   5.623   1.310   8.730
30702SOL    HW192132   5.676   1.261   8.798
30702SOL    HW292133   5.645   1.408   8.735
30703SOL     OW92134   6.318   0.634   8.512
30703SOL    HW192135   6.377   0.608   8.436
30703SOL    HW292136   6.290   0.730   8.501
30704SOL     OW92137   7.314   0.935   9.302
30704SOL    HW192138   7.268   0.928   9.213
30704SOL    HW292139   7.252   0.979   9.368
30705SOL     OW92140   5.893   0.063   8.066
30705SOL    HW192141   5.882   0.157   8.099
30705SOL    HW292142   5.888   0.000   8.143
30706SOL     OW92143   7.208   0.367   7.822
30706SOL    HW192144   7.210   0.291   7.886
30706SOL    HW292145   7.160   0.444   7.862
30707SOL     OW92146   6.609   0.766   8.414
30707SOL    HW192147   6.624   0.787   8.510
30707SOL    HW292148   6.579   0.671   8.405
30708SOL     OW92149   6.566   1.573   9.148
30708SOL    HW192150   6.546   1.617   9.060
30708SOL    HW292151   6.605   1.482   9.132
30709SOL     OW92152   7.445   1.518   9.053
30709SOL    HW192153   7.459   1.545   8.958
30709SOL    HW292154   7.528   1.540   9.106
30710SOL     OW92155   5.936   0.898   9.252
30710SOL    HW192156   6.012   0.942   9.300
30710SOL    HW292157   5.971   0.851   9.170
30711SOL     OW92158   7.126   0.274   7.573
30711SOL    HW192159   7.065   0.199   7.596
30711SOL    HW292160   7.148   0.326   7.656
30712SOL     OW92161   6.889   0.838   7.490
30712SOL    HW192162   6.923   0.745   7.505
30712SOL    HW292163   6.907   0.865   7.395
30713SOL     OW92164   6.654   1.333   8.297
30713SOL    HW192165   6.661   1.249   8.242
30713SOL    HW292166   6.716   1.402   8.261
30714SOL     OW92167   5.905   0.810   8.397
30714SOL    HW192168   5.998   0.846   8.402
30714SOL    HW292169   5.899   0.725   8.449
30715SOL     OW92170   5.925   0.509   8.454
30715SOL    HW192171   5.873   0.426   8.437
30715SOL    HW292172   6.002   0.514   8.390
30716SOL     OW92173   6.724   0.380   9.126
30716SOL    HW192174   6.679   0.443   9.190
30716SOL    HW292175   6.817   0.411   9.109
30717SOL     OW92176   6.746   0.207   8.925
30717SOL    HW192177   6.746   0.271   9.002
30717SOL    HW292178   6.774   0.255   8.842
30718SOL     OW92179   5.594   1.326   7.648
30718SOL    HW192180   5.501   1.347   7.617
30718SOL    HW292181   5.604   1.227   7.661
30719SOL     OW92182   5.674   1.801   8.375
30719SOL    HW192183   5.632   1.715   8.348
30719SOL    HW292184   5.768   1.804   8.341
30720SOL     OW92185   6.090   1.568   8.358
30720SOL    HW192186   6.156   1.642   8.367
30720SOL    HW292187   6.134   1.489   8.316
30721SOL     OW92188   6.588   0.796   8.686
30721SOL    HW192189   6.629   0.764   8.772
30721SOL    HW292190   6.492   0.769   8.683
30722SOL     OW92191   5.626   0.544   8.562
30722SOL    HW192192   5.711   0.511   8.521
30722SOL    HW292193   5.639   0.559   8.660
30723SOL     OW92194   5.775   0.520   9.170
30723SOL    HW192195   5.834   0.480   9.100
30723SOL    HW292196   5.717   0.591   9.129
30724SOL     OW92197   6.955   0.950   9.108
30724SOL    HW192198   6.994   1.039   9.128
30724SOL    HW292199   6.965   0.930   9.011
30725SOL     OW92200   6.401   0.572   7.773
30725SOL    HW192201   6.408   0.483   7.727
30725SOL    HW292202   6.307   0.606   7.765
30726SOL     OW92203   7.243   0.604   8.654
30726SOL    HW192204   7.205   0.535   8.716
30726SOL    HW292205   7.325   0.568   8.610
30727SOL     OW92206   5.838   1.564   9.192
30727SOL    HW192207   5.808   1.621   9.268
30727SOL    HW292208   5.831   1.467   9.218
30728SOL     OW92209   6.257   0.464   8.717
30728SOL    HW192210   6.223   0.375   8.687
30728SOL    HW292211   6.283   0.518   8.637
30729SOL     OW92212   6.516   1.678   8.913
30729SOL    HW192213   6.492   1.660   8.818
30729SOL    HW292214   6.546   1.772   8.923
30730SOL     OW92215   6.059   0.500   7.639
30730SOL    HW192216   6.120   0.580   7.643
30730SOL    HW292217   5.964   0.531   7.646
30731SOL     OW92218   5.745   1.137   8.914
30731SOL    HW192219   5.767   1.076   8.990
30731SOL    HW292220   5.755   1.088   8.828
30732SOL     OW92221   6.933   1.059   8.682
30732SOL    HW192222   6.957   0.996   8.608
30732SOL    HW292223   6.843   1.099   8.664
30733SOL     OW92224   6.888   0.855   7.757
30733SOL    HW192225   6.802   0.824   7.799
30733SOL    HW292226   6.884   0.841   7.658
30734SOL     OW92227   7.345   1.747   8.602
30734SOL    HW192228   7.406   1.777   8.529
30734SOL    HW292229   7.307   1.658   8.580
30735SOL     OW92230   6.838   1.731   8.576
30735SOL    HW192231   6.922   1.736   8.522
30735SOL    HW292232   6.815   1.635   8.594
30736SOL     OW92233   5.669   1.258   8.470
30736SOL    HW192234   5.664   1.257   8.570
30736SOL    HW292235   5.586   1.217   8.432
30737SOL     OW92236   6.274   1.662   9.164
30737SOL    HW192237   6.218   1.743   9.173
30737SOL    HW292238   6.326   1.666   9.078
30738SOL     OW92239   7.312   0.135   7.971
30738SOL    HW192240   7.385   0.118   7.904
30738SOL    HW292241   7.281   0.048   8.009
30739SOL     OW92242   6.974   1.573   7.925
30739SOL    HW192243   7.041   1.585   7.851
30739SOL    HW292244   6.934   1.662   7.948
30740SOL     OW92245   5.716   1.794   9.299
30740SOL    HW192246   5.675   1.720   9.352
30740SOL    HW292247   5.780   1.845   9.357
30741SOL     OW92248   6.866   0.927   8.120
30741SOL    HW192249   6.926   0.846   8.122
30741SOL    HW292250   6.906   0.996   8.060
30742SOL     OW92251   6.416   1.273   8.870
30742SOL    HW192252   6.411   1.306   8.965
30742SOL    HW292253   6.330   1.292   8.824
30743SOL     OW92254   6.258   1.616   7.602
30743SOL    HW192255   6.267   1.626   7.503
30743SOL    HW292256   6.218   1.527   7.623
30744SOL     OW92257   7.236   1.720   8.842
30744SOL    HW192258   7.289   1.730   8.758
30744SOL    HW292259   7.209   1.810   8.876
30745SOL     OW92260   7.427   0.175   8.411
30745SOL    HW192261   7.466   0.090   8.375
30745SOL    HW292262   7.329   0.177   8.392
30746SOL     OW92263   5.849   0.326   8.168
30746SOL    HW192264   5.770   0.377   8.134
30746SOL    HW292265   5.840   0.311   8.266
30747SOL     OW92266   6.780   1.612   7.479
30747SOL    HW192267   6.786   1.519   7.516
30747SOL    HW292268   6.721   1.612   7.399
30748SOL     OW92269   6.408   1.002   8.820
30748SOL    HW192270   6.448   1.001   8.728
30748SOL    HW292271   6.418   1.094   8.860
30749SOL     OW92272   6.502   0.910   7.739
30749SOL    HW192273   6.565   0.948   7.671
30749SOL    HW292274   6.542   0.827   7.778
30750SOL     OW92275   7.090   1.607   7.492
30750SOL    HW192276   6.998   1.644   7.499
30750SOL    HW292277   7.128   1.627   7.402
30751SOL     OW92278   5.958   1.288   8.938
30751SOL    HW192279   5.945   1.381   8.904
30751SOL    HW292280   5.874   1.236   8.925
30752SOL     OW92281   7.200   1.292   8.737
30752SOL    HW192282   7.260   1.295   8.817
30752SOL    HW292283   7.125   1.356   8.750
30753SOL     OW92284   6.625   1.098   8.144
30753SOL    HW192285   6.555   1.051   8.198
30753SOL    HW292286   6.684   1.030   8.101
30754SOL     OW92287   6.600   0.236   8.419
30754SOL    HW192288   6.592   0.200   8.326
30754SOL    HW292289   6.598   0.160   8.484
30755SOL     OW92290   6.176   1.487   7.939
30755SOL    HW192291   6.218   1.429   7.869
30755SOL    HW292292   6.132   1.566   7.895
30756SOL     OW92293   7.295   0.385   8.829
30756SOL    HW192294   7.368   0.454   8.833
30756SOL    HW292295   7.323   0.310   8.770
30757SOL     OW92296   5.841   1.348   7.738
30757SOL    HW192297   5.745   1.349   7.711
30757SOL    HW292298   5.853   1.401   7.822
30758SOL     OW92299   5.691   1.013   9.174
30758SOL    HW192300   5.614   0.980   9.228
30758SOL    HW292301   5.776   0.983   9.216
30759SOL     OW92302   6.258   0.203   8.937
30759SOL    HW192303   6.348   0.187   8.897
30759SOL    HW292304   6.266   0.208   9.036
30760SOL     OW92305   5.661   0.345   7.481
30760SOL    HW192306   5.569   0.317   7.452
30760SOL    HW292307   5.692   0.422   7.425
30761SOL     OW92308   7.026   0.856   8.846
30761SOL    HW192309   6.969   0.908   8.783
30761SOL    HW292310   7.122   0.868   8.822
30762SOL     OW92311   5.658   0.166   7.766
30762SOL    HW192312   5.641   0.249   7.712
30762SOL    HW292313   5.748   0.129   7.744
30763SOL     OW92314   6.769   1.335   7.567
30763SOL    HW192315   6.670   1.324   7.569
30763SOL    HW292316   6.803   1.350   7.660
30764SOL     OW92317   6.199   0.842   8.879
30764SOL    HW192318   6.255   0.923   8.862
30764SOL    HW292319   6.258   0.762   8.882
30765SOL     OW92320   7.079   1.767   8.407
30765SOL    HW192321   7.112   1.831   8.338
30765SOL    HW292322   7.145   1.761   8.482
30766SOL     OW92323   6.302   0.565   9.156
30766SOL    HW192324   6.321   0.630   9.230
30766SOL    HW292325   6.362   0.485   9.165
30767SOL     OW92326   7.036   1.220   9.081
30767SOL    HW192327   7.027   1.210   9.180
30767SOL    HW292328   7.132   1.213   9.055
30768SOL     OW92329   5.976   1.741   9.008
30768SOL    HW192330   5.885   1.782   9.006
30768SOL    HW292331   5.969   1.647   9.040
30769SOL     OW92332   7.260   0.883   8.702
30769SOL    HW192333   7.233   0.794   8.665
30769SOL    HW292334   7.261   0.951   8.629
30770SOL     OW92335   6.811   0.325   7.897
30770SOL    HW192336   6.876   0.251   7.886
30770SOL    HW292337   6.831   0.375   7.981
30771SOL     OW92338   6.180   0.745   8.100
30771SOL    HW192339   6.230   0.830   8.081
30771SOL    HW292340   6.092   0.747   8.052
30772SOL     OW92341   7.363   0.342   9.090
30772SOL    HW192342   7.346   0.373   8.996
30772SOL    HW292343   7.279   0.305   9.128
30773SOL     OW92344   7.316   0.934   8.965
30773SOL    HW192345   7.354   1.025   8.980
30773SOL    HW292346   7.308   0.917   8.866
30774SOL     OW92347   6.445   1.374   7.464
30774SOL    HW192348   6.399   1.389   7.552
30774SOL    HW292349   6.489   1.459   7.434
30775SOL     OW92350   6.247   1.790   8.401
30775SOL    HW192351   6.201   1.878   8.388
30775SOL    HW292352   6.346   1.802   8.394
30776SOL     OW92353   6.445   0.956   8.309
30776SOL    HW192354   6.499   0.887   8.357
30776SOL    HW292355   6.413   1.025   8.375
30777SOL     OW92356   6.669   0.984   7.535
30777SOL    HW192357   6.646   1.037   7.453
30777SOL    HW292358   6.750   0.928   7.516
30778SOL     OW92359   7.447   1.569   8.299
30778SOL    HW192360   7.376   1.557   8.229
30778SOL    HW292361   7.448   1.490   8.359
30779SOL     OW92362   5.807   1.314   9.292
30779SOL    HW192363   5.742   1.241   9.271
30779SOL    HW292364   5.811   1.328   9.390
30780SOL     OW92365   5.665   1.240   8.101
30780SOL    HW192366   5.664   1.193   8.189
30780SOL    HW292367   5.747   1.212   8.050
30781SOL     OW92368   6.258   1.391   9.072
30781SOL    HW192369   6.180   1.341   9.110
30781SOL    HW292370   6.255   1.486   9.103
30782SOL     OW92371   7.410   0.192   8.675
30782SOL    HW192372   7.406   0.102   8.719
30782SOL    HW292373   7.413   0.181   8.576
30783SOL     OW92374   6.014   0.424   7.968
30783SOL    HW192375   6.044   0.352   7.906
30783SOL    HW292376   5.975   0.384   8.051
30784SOL     OW92377   7.291   1.487   8.552
30784SOL    HW192378   7.198   1.462   8.525
30784SOL    HW292379   7.317   1.437   8.634
30785SOL     OW92380   5.903   0.547   8.728
30785SOL    HW192381   5.941   0.488   8.800
30785SOL    HW292382   5.943   0.521   8.640
30786SOL     OW92383   6.398   1.586   8.135
30786SOL    HW192384   6.430   1.596   8.041
30786SOL    HW292385   6.319   1.524   8.137
30787SOL     OW92386   7.010   0.214   8.560
30787SOL    HW192387   7.062   0.149   8.615
30787SOL    HW292388   6.961   0.277   8.621
30788SOL     OW92389   6.587   0.034   8.602
30788SOL    HW192390   6.524  -0.038   8.571
30788SOL    HW292391   6.680  -0.002   8.602
30789SOL     OW92392   6.356   1.330   7.749
30789SOL    HW192393   6.310   1.243   7.766
30789SOL    HW292394   6.447   1.327   7.790
30790SOL     OW92395   6.204   1.567   8.732
30790SOL    HW192396   6.199   1.649   8.789
30790SOL    HW292397   6.293   1.564   8.687
30791SOL     OW92398   6.938   0.052   7.616
30791SOL    HW192399   6.973   0.011   7.532
30791SOL    HW292400   6.848   0.014   7.636
30792SOL     OW92401   6.886   0.453   8.139
30792SOL    HW192402   6.827   0.533   8.143
30792SOL    HW292403   6.901   0.418   8.232
30793SOL     OW92404   7.179   0.221   8.330
30793SOL    HW192405   7.095   0.220   8.384
30793SOL    HW292406   7.181   0.304   8.274
30794SOL     OW92407   5.625   1.077   7.748
30794SOL    HW192408   5.724   1.066   7.739
30794SOL    HW292409   5.585   0.991   7.780
30795SOL     OW92410   6.461   1.646   7.785
30795SOL    HW192411   6.384   1.611   7.731
30795SOL    HW292412   6.429   1.717   7.847
30796SOL     OW92413   5.816   0.628   9.423
30796SOL    HW192414   5.723   0.626   9.460
30796SOL    HW292415   5.817   0.589   9.331
30797SOL     OW92416   5.811   0.275  10.306
30797SOL    HW192417   5.846   0.258  10.398
30797SOL    HW292418   5.723   0.230  10.294
30798SOL     OW92419   5.605   0.368   9.957
30798SOL    HW192420   5.523   0.411   9.996
30798SOL    HW292421   5.577   0.295   9.894
30799SOL     OW92422   6.155   1.275  10.475
30799SOL    HW192423   6.062   1.268  10.438
30799SOL    HW292424   6.166   1.364  10.519
30800SOL     OW92425   7.141   1.511  10.013
30800SOL    HW192426   7.084   1.495  10.094
30800SOL    HW292427   7.082   1.521   9.933
30801SOL     OW92428   6.721   0.703  10.027
30801SOL    HW192429   6.778   0.781  10.002
30801SOL    HW292430   6.661   0.729  10.103
30802SOL     OW92431   7.341   0.607   9.541
30802SOL    HW192432   7.329   0.594   9.442
30802SOL    HW292433   7.311   0.526   9.590
30803SOL     OW92434   6.354   1.144  10.333
30803SOL    HW192435   6.276   1.161  10.393
30803SOL    HW292436   6.388   1.231  10.297
30804SOL     OW92437   6.436   0.798  11.133
30804SOL    HW192438   6.432   0.874  11.198
30804SOL    HW292439   6.458   0.834  11.042
30805SOL     OW92440   6.271   1.012   9.975
30805SOL    HW192441   6.340   0.996  10.045
30805SOL    HW292442   6.198   1.069  10.013
30806SOL     OW92443   6.272   1.161  11.113
30806SOL    HW192444   6.332   1.240  11.127
30806SOL    HW292445   6.186   1.192  11.072
30807SOL     OW92446   5.921   1.435  10.371
30807SOL    HW192447   5.843   1.404  10.318
30807SOL    HW292448   5.979   1.493  10.314
30808SOL     OW92449   7.046   1.505  10.649
30808SOL    HW192450   7.070   1.599  10.675
30808SOL    HW292451   7.030   1.451  10.731
30809SOL     OW92452   6.024   0.392  10.809
30809SOL    HW192453   6.106   0.336  10.818
30809SOL    HW292454   5.943   0.334  10.813
30810SOL     OW92455   7.189   0.447  10.047
30810SOL    HW192456   7.115   0.493   9.997
30810SOL    HW292457   7.240   0.515  10.100
30811SOL     OW92458   5.817   1.713   9.793
30811SOL    HW192459   5.851   1.790   9.847
30811SOL    HW292460   5.861   1.713   9.703
30812SOL     OW92461   6.713   1.341  11.000
30812SOL    HW192462   6.760   1.341  11.088
30812SOL    HW292463   6.665   1.254  10.989
30813SOL     OW92464   5.816   1.434   9.848
30813SOL    HW192465   5.790   1.530   9.848
30813SOL    HW292466   5.745   1.380   9.893
30814SOL     OW92467   5.826   1.091  10.196
30814SOL    HW192468   5.840   1.007  10.248
30814SOL    HW292469   5.771   1.155  10.251
30815SOL     OW92470   6.206   1.786  10.749
30815SOL    HW192471   6.114   1.769  10.784
30815SOL    HW292472   6.234   1.878  10.775
30816SOL     OW92473   6.192   0.964   9.433
30816SOL    HW192474   6.199   1.048   9.379
30816SOL    HW292475   6.238   0.977   9.521
30817SOL     OW92476   7.180   0.114  10.790
30817SOL    HW192477   7.162   0.181  10.718
30817SOL    HW292478   7.177   0.160  10.879
30818SOL     OW92479   5.708   0.643   9.873
30818SOL    HW192480   5.663   0.555   9.890
30818SOL    HW292481   5.707   0.697   9.957
30819SOL     OW92482   7.428   1.767   9.669
30819SOL    HW192483   7.482   1.738   9.749
30819SOL    HW292484   7.458   1.857   9.640
30820SOL     OW92485   5.613   1.596   9.427
30820SOL    HW192486   5.594   1.500   9.448
30820SOL    HW292487   5.580   1.654   9.502
30821SOL     OW92488   7.275   0.922   9.922
30821SOL    HW192489   7.370   0.893   9.930
30821SOL    HW292490   7.267   0.987   9.847
30822SOL     OW92491   7.227   1.108   9.742
30822SOL    HW192492   7.313   1.110   9.690
30822SOL    HW292493   7.241   1.155   9.830
30823SOL     OW92494   5.699   0.737  10.907
30823SOL    HW192495   5.787   0.724  10.952
30823SOL    HW292496   5.686   0.834  10.885
30824SOL     OW92497   6.199   1.365  10.036
30824SOL    HW192498   6.150   1.278  10.045
30824SOL    HW292499   6.176   1.408   9.949
30825SOL     OW92500   6.879   1.228  10.733
30825SOL    HW192501   6.916   1.155  10.675
30825SOL    HW292502   6.931   1.233  10.818
30826SOL     OW92503   6.395   0.004   9.812
30826SOL    HW192504   6.435   0.095   9.803
30826SOL    HW292505   6.295   0.012   9.818
30827SOL     OW92506   5.783   0.976  10.574
30827SOL    HW192507   5.872   0.931  10.560
30827SOL    HW292508   5.710   0.911  10.555
30828SOL     OW92509   7.111   0.999   9.500
30828SOL    HW192510   7.048   0.923   9.513
30828SOL    HW292511   7.159   1.017   9.586
30829SOL     OW92512   6.773   1.792  10.926
30829SOL    HW192513   6.797   1.852  10.850
30829SOL    HW292514   6.780   1.697  10.896
30830SOL     OW92515   5.903   0.251  11.111
30830SOL    HW192516   5.974   0.322  11.117
30830SOL    HW292517   5.815   0.290  11.139
30831SOL     OW92518   7.052   1.417  10.263
30831SOL    HW192519   6.993   1.423  10.343
30831SOL    HW292520   7.037   1.329  10.217
30832SOL     OW92521   7.253   1.714   9.882
30832SOL    HW192522   7.212   1.691   9.794
30832SOL    HW292523   7.235   1.640   9.947
30833SOL     OW92524   6.184   0.729   9.580
30833SOL    HW192525   6.208   0.798   9.512
30833SOL    HW292526   6.106   0.762   9.634
30834SOL     OW92527   6.867   0.345  10.254
30834SOL    HW192528   6.781   0.295  10.241
30834SOL    HW292529   6.929   0.291  10.310
30835SOL     OW92530   7.162   1.662   9.617
30835SOL    HW192531   7.251   1.708   9.620
30835SOL    HW292532   7.141   1.638   9.522
30836SOL     OW92533   6.393   0.605  10.775
30836SOL    HW192534   6.346   0.602  10.864
30836SOL    HW292535   6.342   0.550  10.709
30837SOL     OW92536   6.980   0.469  10.984
30837SOL    HW192537   6.960   0.512  11.072
30837SOL    HW292538   7.058   0.407  10.993
30838SOL     OW92539   6.559   0.890  10.882
30838SOL    HW192540   6.605   0.806  10.853
30838SOL    HW292541   6.503   0.924  10.807
30839SOL     OW92542   6.577   0.410  10.552
30839SOL    HW192543   6.500   0.444  10.606
30839SOL    HW292544   6.543   0.359  10.473
30840SOL     OW92545   6.627   0.701   9.739
30840SOL    HW192546   6.653   0.697   9.835
30840SOL    HW292547   6.542   0.650   9.725
30841SOL     OW92548   5.662   0.811  10.099
30841SOL    HW192549   5.761   0.799  10.108
30841SOL    HW292550   5.638   0.906  10.120
30842SOL     OW92551   5.716   1.821  10.881
30842SOL    HW192552   5.706   1.806  10.980
30842SOL    HW292553   5.630   1.857  10.845
30843SOL     OW92554   6.451   0.348   9.505
30843SOL    HW192555   6.510   0.411   9.456
30843SOL    HW292556   6.470   0.254   9.476
30844SOL     OW92557   7.305   0.585  11.141
30844SOL    HW192558   7.279   0.674  11.105
30844SOL    HW292559   7.303   0.517  11.068
30845SOL     OW92560   6.948   1.144   9.855
30845SOL    HW192561   7.031   1.115   9.807
30845SOL    HW292562   6.899   1.211   9.799
30846SOL     OW92563   6.136   0.196  10.195
30846SOL    HW192564   6.131   0.191  10.295
30846SOL    HW292565   6.138   0.292  10.166
30847SOL     OW92566   6.594   1.456   9.787
30847SOL    HW192567   6.548   1.528   9.735
30847SOL    HW292568   6.590   1.476   9.885
30848SOL     OW92569   5.937   1.801  10.163
30848SOL    HW192570   5.987   1.715  10.169
30848SOL    HW292571   6.002   1.878  10.160
30849SOL     OW92572   7.381   1.066  10.183
30849SOL    HW192573   7.319   1.051  10.107
30849SOL    HW292574   7.329   1.077  10.268
30850SOL     OW92575   6.813   1.550  10.816
30850SOL    HW192576   6.819   1.473  10.880
30850SOL    HW292577   6.761   1.524  10.736
30851SOL     OW92578   5.907   0.943   9.552
30851SOL    HW192579   5.989   0.982   9.510
30851SOL    HW292580   5.880   0.861   9.503
30852SOL     OW92581   7.044   0.735  10.038
30852SOL    HW192582   7.039   0.670  10.113
30852SOL    HW292583   7.124   0.794  10.051
30853SOL     OW92584   6.047   1.266  11.037
30853SOL    HW192585   5.997   1.267  10.951
30853SOL    HW292586   5.984   1.248  11.113
30854SOL     OW92587   6.697   1.776   9.547
30854SOL    HW192588   6.637   1.714   9.597
30854SOL    HW292589   6.728   1.732   9.462
30855SOL     OW92590   5.788   0.285  10.808
30855SOL    HW192591   5.708   0.345  10.795
30855SOL    HW292592   5.778   0.236  10.894
30856SOL     OW92593   7.218   1.377   9.391
30856SOL    HW192594   7.186   1.471   9.381
30856SOL    HW292595   7.142   1.314   9.379
30857SOL     OW92596   6.050   1.743   9.633
30857SOL    HW192597   6.083   1.782   9.719
30857SOL    HW292598   6.126   1.736   9.568
30858SOL     OW92599   6.986   0.107   9.736
30858SOL    HW192600   6.962   0.070   9.646
30858SOL    HW292601   7.085   0.123   9.740
30859SOL     OW92602   5.835   1.785  10.551
30859SOL    HW192603   5.892   1.720  10.601
30859SOL    HW292604   5.819   1.752  10.458
30860SOL     OW92605   6.526   1.698  10.214
30860SOL    HW192606   6.606   1.641  10.235
30860SOL    HW292607   6.477   1.658  10.137
30861SOL     OW92608   5.968   0.700   9.790
30861SOL    HW192609   6.013   0.610   9.787
30861SOL    HW292610   5.874   0.689   9.823
30862SOL     OW92611   7.133   0.222  11.039
30862SOL    HW192612   7.128   0.259  11.131
30862SOL    HW292613   7.061   0.153  11.027
30863SOL     OW92614   6.200   0.122   9.427
30863SOL    HW192615   6.298   0.100   9.434
30863SOL    HW292616   6.169   0.105   9.334
30864SOL     OW92617   6.367   0.264  11.059
30864SOL    HW192618   6.434   0.203  11.102
30864SOL    HW292619   6.294   0.283  11.124
30865SOL     OW92620   6.474   1.514  10.505
30865SOL    HW192621   6.451   1.489  10.411
30865SOL    HW292622   6.535   1.445  10.544
30866SOL     OW92623   6.937   0.590  10.743
30866SOL    HW192624   6.965   0.547  10.828
30866SOL    HW292625   6.962   0.686  10.744
30867SOL     OW92626   6.389   1.402  10.234
30867SOL    HW192627   6.479   1.416  10.192
30867SOL    HW292628   6.318   1.404  10.163
30868SOL     OW92629   6.508   0.503  10.209
30868SOL    HW192630   6.483   0.494  10.113
30868SOL    HW292631   6.556   0.421  10.240
30869SOL     OW92632   6.125   0.064   9.822
30869SOL    HW192633   6.044   0.065   9.880
30869SOL    HW292634   6.128   0.147   9.767
30870SOL     OW92635   7.020   1.188   9.351
30870SOL    HW192636   7.052   1.112   9.408
30870SOL    HW292637   6.928   1.215   9.381
30871SOL     OW92638   5.883   0.035   9.481
30871SOL    HW192639   5.932   0.119   9.460
30871SOL    HW292640   5.945  -0.030   9.526
30872SOL     OW92641   6.521   0.236   9.790
30872SOL    HW192642   6.473   0.277   9.712
30872SOL    HW292643   6.620   0.234   9.771
30873SOL     OW92644   6.662   0.683  10.774
30873SOL    HW192645   6.582   0.622  10.777
30873SOL    HW292646   6.743   0.630  10.750
30874SOL     OW92647   6.813   1.570  10.103
30874SOL    HW192648   6.834   1.644  10.038
30874SOL    HW292649   6.881   1.570  10.176
30875SOL     OW92650   6.045   1.152  10.051
30875SOL    HW192651   5.974   1.125  10.116
30875SOL    HW292652   6.019   1.124   9.958
30876SOL     OW92653   6.857   1.797   9.901
30876SOL    HW192654   6.901   1.861   9.837
30876SOL    HW292655   6.807   1.849   9.971
30877SOL     OW92656   6.618   0.549   9.326
30877SOL    HW192657   6.577   0.631   9.287
30877SOL    HW292658   6.682   0.575   9.399
30878SOL     OW92659   5.664   0.556  10.696
30878SOL    HW192660   5.756   0.555  10.655
30878SOL    HW292661   5.658   0.630  10.763
30879SOL     OW92662   6.147   0.222  10.457
30879SOL    HW192663   6.185   0.138  10.494
30879SOL    HW292664   6.059   0.241  10.501
30880SOL     OW92665   6.452   0.454   9.952
30880SOL    HW192666   6.420   0.526   9.890
30880SOL    HW292667   6.476   0.373   9.899
30881SOL     OW92668   6.603   0.039  10.063
30881SOL    HW192669   6.531   0.044   9.994
30881SOL    HW292670   6.579  -0.030  10.132
30882SOL     OW92671   7.015   1.173  10.177
30882SOL    HW192672   6.960   1.089  10.170
30882SOL    HW292673   7.041   1.202  10.085
30883SOL     OW92674   7.052   0.590  10.302
30883SOL    HW192675   7.022   0.495  10.309
30883SOL    HW292676   7.125   0.606  10.368
30884SOL     OW92677   7.443   0.833   9.687
30884SOL    HW192678   7.485   0.769   9.751
30884SOL    HW292679   7.405   0.782   9.609
30885SOL     OW92680   6.074   1.385   9.484
30885SOL    HW192681   5.987   1.370   9.531
30885SOL    HW292682   6.057   1.411   9.389
30886SOL     OW92683   7.250   1.280   9.967
30886SOL    HW192684   7.349   1.288   9.981
30886SOL    HW292685   7.205   1.364   9.998
30887SOL     OW92686   6.976   0.575   9.388
30887SOL    HW192687   6.922   0.554   9.469
30887SOL    HW292688   7.067   0.534   9.397
30888SOL     OW92689   6.113   0.256   9.638
30888SOL    HW192690   6.140   0.197   9.563
30888SOL    HW292691   6.113   0.351   9.607
30889SOL     OW92692   7.340   1.223  10.898
30889SOL    HW192693   7.431   1.184  10.885
30889SOL    HW292694   7.348   1.319  10.922
30890SOL     OW92695   6.650   1.347  10.650
30890SOL    HW192696   6.570   1.324  10.705
30890SOL    HW292697   6.733   1.321  10.699
30891SOL     OW92698   7.178   1.629  10.935
30891SOL    HW192699   7.205   1.663  10.845
30891SOL    HW292700   7.257   1.591  10.981
30892SOL     OW92701   6.697   1.195  10.410
30892SOL    HW192702   6.657   1.239  10.491
30892SOL    HW292703   6.656   1.232  10.327
30893SOL     OW92704   7.224   1.099  10.389
30893SOL    HW192705   7.229   1.180  10.448
30893SOL    HW292706   7.138   1.101  10.338
30894SOL     OW92707   6.501   0.089  10.712
30894SOL    HW192708   6.526   0.069  10.617
30894SOL    HW292709   6.573   0.145  10.754
30895SOL     OW92710   6.566   1.116  11.029
30895SOL    HW192711   6.467   1.122  11.039
30895SOL    HW292712   6.589   1.036  10.973
30896SOL     OW92713   6.291   1.050   9.678
30896SOL    HW192714   6.277   1.057   9.777
30896SOL    HW292715   6.375   0.999   9.660
30897SOL     OW92716   5.996   0.813  10.561
30897SOL    HW192717   6.082   0.825  10.611
30897SOL    HW292718   5.954   0.726  10.588
30898SOL     OW92719   6.860   0.386  10.572
30898SOL    HW192720   6.881   0.460  10.636
30898SOL    HW292721   6.771   0.403  10.529
30899SOL     OW92722   5.650   1.564  10.641
30899SOL    HW192723   5.604   1.646  10.607
30899SOL    HW292724   5.748   1.583  10.650
30900SOL     OW92725   5.953   1.100   9.811
30900SOL    HW192726   5.946   1.183   9.755
30900SOL    HW292727   5.957   1.020   9.751
30901SOL     OW92728   6.152   0.537  10.175
30901SOL    HW192729   6.164   0.603  10.101
30901SOL    HW292730   6.198   0.571  10.258
30902SOL     OW92731   6.838   1.348   9.698
30902SOL    HW192732   6.888   1.425   9.738
30902SOL    HW292733   6.743   1.350   9.730
30903SOL     OW92734   6.858   1.445  10.452
30903SOL    HW192735   6.905   1.458  10.539
30903SOL    HW292736   6.792   1.371  10.461
30904SOL     OW92737   7.168   0.639   9.782
30904SOL    HW192738   7.137   0.700   9.855
30904SOL    HW292739   7.218   0.691   9.713
30905SOL     OW92740   5.940   1.510  10.639
30905SOL    HW192741   5.919   1.466  10.552
30905SOL    HW292742   6.037   1.536  10.642
30906SOL     OW92743   5.988   0.751  10.908
30906SOL    HW192744   6.056   0.806  10.861
30906SOL    HW292745   6.028   0.663  10.935
30907SOL     OW92746   7.173   0.779  10.980
30907SOL    HW192747   7.081   0.817  10.975
30907SOL    HW292748   7.233   0.826  10.915
30908SOL     OW92749   6.599   0.105  11.080
30908SOL    HW192750   6.605   0.190  11.028
30908SOL    HW292751   6.631   0.029  11.023
30909SOL     OW92752   6.090   0.050  11.050
30909SOL    HW192753   6.048  -0.007  10.980
30909SOL    HW292754   6.024   0.119  11.082
30910SOL     OW92755   6.159   0.870  10.339
30910SOL    HW192756   6.203   0.959  10.330
30910SOL    HW292757   6.096   0.870  10.416
30911SOL     OW92758   6.946   0.862  10.355
30911SOL    HW192759   6.871   0.862  10.289
30911SOL    HW292760   6.983   0.770  10.364
30912SOL     OW92761   6.795   0.525   9.585
30912SOL    HW192762   6.808   0.441   9.639
30912SOL    HW292763   6.766   0.599   9.645
30913SOL     OW92764   5.893   0.213  10.541
30913SOL    HW192765   5.870   0.250  10.631
30913SOL    HW292766   5.863   0.118  10.535
30914SOL     OW92767   5.623   1.310  10.592
30914SOL    HW192768   5.676   1.261  10.660
30914SOL    HW292769   5.645   1.408  10.597
30915SOL     OW92770   6.318   0.634  10.374
30915SOL    HW192771   6.377   0.608  10.298
30915SOL    HW292772   6.290   0.730  10.363
30916SOL     OW92773   7.314   0.935  11.164
30916SOL    HW192774   7.268   0.928  11.075
30916SOL    HW292775   7.252   0.979  11.230
30917SOL     OW92776   5.893   0.063   9.928
30917SOL    HW192777   5.882   0.157   9.961
30917SOL    HW292778   5.888   0.000  10.005
30918SOL     OW92779   7.208   0.367   9.684
30918SOL    HW192780   7.210   0.291   9.748
30918SOL    HW292781   7.160   0.444   9.724
30919SOL     OW92782   6.609   0.766  10.276
30919SOL    HW192783   6.624   0.787  10.372
30919SOL    HW292784   6.579   0.671  10.267
30920SOL     OW92785   6.566   1.573  11.010
30920SOL    HW192786   6.546   1.617  10.922
30920SOL    HW292787   6.605   1.482  10.994
30921SOL     OW92788   7.445   1.518  10.915
30921SOL    HW192789   7.459   1.545  10.820
30921SOL    HW292790   7.528   1.540  10.968
30922SOL     OW92791   5.936   0.898  11.114
30922SOL    HW192792   6.012   0.942  11.162
30922SOL    HW292793   5.971   0.851  11.032
30923SOL     OW92794   7.126   0.274   9.435
30923SOL    HW192795   7.065   0.199   9.458
30923SOL    HW292796   7.148   0.326   9.518
30924SOL     OW92797   6.889   0.838   9.352
30924SOL    HW192798   6.923   0.745   9.367
30924SOL    HW292799   6.907   0.865   9.257
30925SOL     OW92800   6.654   1.333  10.159
30925SOL    HW192801   6.661   1.249  10.104
30925SOL    HW292802   6.716   1.402  10.123
30926SOL     OW92803   5.905   0.810  10.259
30926SOL    HW192804   5.998   0.846  10.264
30926SOL    HW292805   5.899   0.725  10.311
30927SOL     OW92806   5.925   0.509  10.316
30927SOL    HW192807   5.873   0.426  10.299
30927SOL    HW292808   6.002   0.514  10.252
30928SOL     OW92809   6.724   0.380  10.988
30928SOL    HW192810   6.679   0.443  11.052
30928SOL    HW292811   6.817   0.411  10.971
30929SOL     OW92812   6.746   0.207  10.787
30929SOL    HW192813   6.746   0.271  10.864
30929SOL    HW292814   6.774   0.255  10.704
30930SOL     OW92815   5.594   1.326   9.510
30930SOL    HW192816   5.501   1.347   9.479
30930SOL    HW292817   5.604   1.227   9.523
30931SOL     OW92818   5.674   1.801  10.237
30931SOL    HW192819   5.632   1.715  10.210
30931SOL    HW292820   5.768   1.804  10.203
30932SOL     OW92821   6.090   1.568  10.220
30932SOL    HW192822   6.156   1.642  10.229
30932SOL    HW292823   6.134   1.489  10.178
30933SOL     OW92824   6.588   0.796  10.548
30933SOL    HW192825   6.629   0.764  10.634
30933SOL    HW292826   6.492   0.769  10.545
30934SOL     OW92827   5.626   0.544  10.424
30934SOL    HW192828   5.711   0.511  10.383
30934SOL    HW292829   5.639   0.559  10.522
30935SOL     OW92830   5.775   0.520  11.032
30935SOL    HW192831   5.834   0.480  10.962
30935SOL    HW292832   5.717   0.591  10.991
30936SOL     OW92833   6.955   0.950  10.970
30936SOL    HW192834   6.994   1.039  10.990
30936SOL    HW292835   6.965   0.930  10.873
30937SOL     OW92836   6.401   0.572   9.635
30937SOL    HW192837   6.408   0.483   9.589
30937SOL    HW292838   6.307   0.606   9.627
30938SOL     OW92839   7.243   0.604  10.516
30938SOL    HW192840   7.205   0.535  10.578
30938SOL    HW292841   7.325   0.568  10.472
30939SOL     OW92842   5.838   1.564  11.054
30939SOL    HW192843   5.808   1.621  11.130
30939SOL    HW292844   5.831   1.467  11.080
30940SOL     OW92845   6.257   0.464  10.579
30940SOL    HW192846   6.223   0.375  10.549
30940SOL    HW292847   6.283   0.518  10.499
30941SOL     OW92848   6.516   1.678  10.775
30941SOL    HW192849   6.492   1.660  10.680
30941SOL    HW292850   6.546   1.772  10.785
30942SOL     OW92851   6.059   0.500   9.501
30942SOL    HW192852   6.120   0.580   9.505
30942SOL    HW292853   5.964   0.531   9.508
30943SOL     OW92854   5.745   1.137  10.776
30943SOL    HW192855   5.767   1.076  10.852
30943SOL    HW292856   5.755   1.088  10.690
30944SOL     OW92857   6.933   1.059  10.544
30944SOL    HW192858   6.957   0.996  10.470
30944SOL    HW292859   6.843   1.099  10.526
30945SOL     OW92860   6.888   0.855   9.619
30945SOL    HW192861   6.802   0.824   9.661
30945SOL    HW292862   6.884   0.841   9.520
30946SOL     OW92863   7.345   1.747  10.464
30946SOL    HW192864   7.406   1.777  10.391
30946SOL    HW292865   7.307   1.658  10.442
30947SOL     OW92866   6.838   1.731  10.438
30947SOL    HW192867   6.922   1.736  10.384
30947SOL    HW292868   6.815   1.635  10.456
30948SOL     OW92869   5.669   1.258  10.332
30948SOL    HW192870   5.664   1.257  10.432
30948SOL    HW292871   5.586   1.217  10.294
30949SOL     OW92872   6.274   1.662  11.026
30949SOL    HW192873   6.218   1.743  11.035
30949SOL    HW292874   6.326   1.666  10.940
30950SOL     OW92875   7.312   0.135   9.833
30950SOL    HW192876   7.385   0.118   9.766
30950SOL    HW292877   7.281   0.048   9.871
30951SOL     OW92878   6.974   1.573   9.787
30951SOL    HW192879   7.041   1.585   9.713
30951SOL    HW292880   6.934   1.662   9.810
30952SOL     OW92881   5.716   1.794  11.161
30952SOL    HW192882   5.675   1.720  11.214
30952SOL    HW292883   5.780   1.845  11.219
30953SOL     OW92884   6.866   0.927   9.982
30953SOL    HW192885   6.926   0.846   9.984
30953SOL    HW292886   6.906   0.996   9.922
30954SOL     OW92887   6.416   1.273  10.732
30954SOL    HW192888   6.411   1.306  10.827
30954SOL    HW292889   6.330   1.292  10.686
30955SOL     OW92890   6.258   1.616   9.464
30955SOL    HW192891   6.267   1.626   9.365
30955SOL    HW292892   6.218   1.527   9.485
30956SOL     OW92893   7.236   1.720  10.704
30956SOL    HW192894   7.289   1.730  10.620
30956SOL    HW292895   7.209   1.810  10.738
30957SOL     OW92896   7.427   0.175  10.273
30957SOL    HW192897   7.466   0.090  10.237
30957SOL    HW292898   7.329   0.177  10.254
30958SOL     OW92899   5.849   0.326  10.030
30958SOL    HW192900   5.770   0.377   9.996
30958SOL    HW292901   5.840   0.311  10.128
30959SOL     OW92902   6.780   1.612   9.341
30959SOL    HW192903   6.786   1.519   9.378
30959SOL    HW292904   6.721   1.612   9.261
30960SOL     OW92905   6.408   1.002  10.682
30960SOL    HW192906   6.448   1.001  10.590
30960SOL    HW292907   6.418   1.094  10.722
30961SOL     OW92908   6.502   0.910   9.601
30961SOL    HW192909   6.565   0.948   9.533
30961SOL    HW292910   6.542   0.827   9.640
30962SOL     OW92911   7.090   1.607   9.354
30962SOL    HW192912   6.998   1.644   9.361
30962SOL    HW292913   7.128   1.627   9.264
30963SOL     OW92914   5.958   1.288  10.800
30963SOL    HW192915   5.945   1.381  10.766
30963SOL    HW292916   5.874   1.236  10.787
30964SOL     OW92917   7.200   1.292  10.599
30964SOL    HW192918   7.260   1.295  10.679
30964SOL    HW292919   7.125   1.356  10.612
30965SOL     OW92920   6.625   1.098  10.006
30965SOL    HW192921   6.555   1.051  10.060
30965SOL    HW292922   6.684   1.030   9.963
30966SOL     OW92923   6.600   0.236  10.281
30966SOL    HW192924   6.592   0.200  10.188
30966SOL    HW292925   6.598   0.160  10.346
30967SOL     OW92926   6.176   1.487   9.801
30967SOL    HW192927   6.218   1.429   9.731
30967SOL    HW292928   6.132   1.566   9.757
30968SOL     OW92929   7.295   0.385  10.691
30968SOL    HW192930   7.368   0.454  10.695
30968SOL    HW292931   7.323   0.310  10.632
30969SOL     OW92932   5.841   1.348   9.600
30969SOL    HW192933   5.745   1.349   9.573
30969SOL    HW292934   5.853   1.401   9.684
30970SOL     OW92935   5.691   1.013  11.036
30970SOL    HW192936   5.614   0.980  11.090
30970SOL    HW292937   5.776   0.983  11.078
30971SOL     OW92938   6.258   0.203  10.799
30971SOL    HW192939   6.348   0.187  10.759
30971SOL    HW292940   6.266   0.208  10.898
30972SOL     OW92941   5.661   0.345   9.343
30972SOL    HW192942   5.569   0.317   9.314
30972SOL    HW292943   5.692   0.422   9.287
30973SOL     OW92944   7.026   0.856  10.708
30973SOL    HW192945   6.969   0.908  10.645
30973SOL    HW292946   7.122   0.868  10.684
30974SOL     OW92947   5.658   0.166   9.628
30974SOL    HW192948   5.641   0.249   9.574
30974SOL    HW292949   5.748   0.129   9.606
30975SOL     OW92950   6.769   1.335   9.429
30975SOL    HW192951   6.670   1.324   9.431
30975SOL    HW292952   6.803   1.350   9.522
30976SOL     OW92953   6.199   0.842  10.741
30976SOL    HW192954   6.255   0.923  10.724
30976SOL    HW292955   6.258   0.762  10.744
30977SOL     OW92956   7.079   1.767  10.269
30977SOL    HW192957   7.112   1.831  10.200
30977SOL    HW292958   7.145   1.761  10.344
30978SOL     OW92959   6.302   0.565  11.018
30978SOL    HW192960   6.321   0.630  11.092
30978SOL    HW292961   6.362   0.485  11.027
30979SOL     OW92962   7.036   1.220  10.943
30979SOL    HW192963   7.027   1.210  11.042
30979SOL    HW292964   7.132   1.213  10.917
30980SOL     OW92965   5.976   1.741  10.870
30980SOL    HW192966   5.885   1.782  10.868
30980SOL    HW292967   5.969   1.647  10.902
30981SOL     OW92968   7.260   0.883  10.564
30981SOL    HW192969   7.233   0.794  10.527
30981SOL    HW292970   7.261   0.951  10.491
30982SOL     OW92971   6.811   0.325   9.759
30982SOL    HW192972   6.876   0.251   9.748
30982SOL    HW292973   6.831   0.375   9.843
30983SOL     OW92974   6.180   0.745   9.962
30983SOL    HW192975   6.230   0.830   9.943
30983SOL    HW292976   6.092   0.747   9.914
30984SOL     OW92977   7.363   0.342  10.952
30984SOL    HW192978   7.346   0.373  10.858
30984SOL    HW292979   7.279   0.305  10.990
30985SOL     OW92980   7.316   0.934  10.827
30985SOL    HW192981   7.354   1.025  10.842
30985SOL    HW292982   7.308   0.917  10.728
30986SOL     OW92983   6.445   1.374   9.326
30986SOL    HW192984   6.399   1.389   9.414
30986SOL    HW292985   6.489   1.459   9.296
30987SOL     OW92986   6.247   1.790  10.263
30987SOL    HW192987   6.201   1.878  10.250
30987SOL    HW292988   6.346   1.802  10.256
30988SOL     OW92989   6.445   0.956  10.171
30988SOL    HW192990   6.499   0.887  10.219
30988SOL    HW292991   6.413   1.025  10.237
30989SOL     OW92992   6.669   0.984   9.397
30989SOL    HW192993   6.646   1.037   9.315
30989SOL    HW292994   6.750   0.928   9.378
30990SOL     OW92995   7.447   1.569  10.161
30990SOL    HW192996   7.376   1.557  10.091
30990SOL    HW292997   7.448   1.490  10.221
30991SOL     OW92998   5.807   1.314  11.154
30991SOL    HW192999   5.742   1.241  11.133
30991SOL    HW293000   5.811   1.328  11.252
30992SOL     OW93001   5.665   1.240   9.963
30992SOL    HW193002   5.664   1.193  10.051
30992SOL    HW293003   5.747   1.212   9.912
30993SOL     OW93004   6.258   1.391  10.934
30993SOL    HW193005   6.180   1.341  10.972
30993SOL    HW293006   6.255   1.486  10.965
30994SOL     OW93007   7.410   0.192  10.537
30994SOL    HW193008   7.406   0.102  10.581
30994SOL    HW293009   7.413   0.181  10.438
30995SOL     OW93010   6.014   0.424   9.830
30995SOL    HW193011   6.044   0.352   9.768
30995SOL    HW293012   5.975   0.384   9.913
30996SOL     OW93013   7.291   1.487  10.414
30996SOL    HW193014   7.198   1.462  10.387
30996SOL    HW293015   7.317   1.437  10.496
30997SOL     OW93016   5.903   0.547  10.590
30997SOL    HW193017   5.941   0.488  10.662
30997SOL    HW293018   5.943   0.521  10.502
30998SOL     OW93019   6.398   1.586   9.997
30998SOL    HW193020   6.430   1.596   9.903
30998SOL    HW293021   6.319   1.524   9.999
30999SOL     OW93022   7.010   0.214  10.422
30999SOL    HW193023   7.062   0.149  10.477
30999SOL    HW293024   6.961   0.277  10.483
31000SOL     OW93025   6.587   0.034  10.464
31000SOL    HW193026   6.524  -0.038  10.433
31000SOL    HW293027   6.680  -0.002  10.464
31001SOL     OW93028   6.356   1.330   9.611
31001SOL    HW193029   6.310   1.243   9.628
31001SOL    HW293030   6.447   1.327   9.652
31002SOL     OW93031   6.204   1.567  10.594
31002SOL    HW193032   6.199   1.649  10.651
31002SOL    HW293033   6.293   1.564  10.549
31003SOL     OW93034   6.938   0.052   9.478
31003SOL    HW193035   6.973   0.011   9.394
31003SOL    HW293036   6.848   0.014   9.498
31004SOL     OW93037   6.886   0.453  10.001
31004SOL    HW193038   6.827   0.533  10.005
31004SOL    HW293039   6.901   0.418  10.094
31005SOL     OW93040   7.179   0.221  10.192
31005SOL    HW193041   7.095   0.220  10.246
31005SOL    HW293042   7.181   0.304  10.136
31006SOL     OW93043   5.625   1.077   9.610
31006SOL    HW193044   5.724   1.066   9.601
31006SOL    HW293045   5.585   0.991   9.642
31007SOL     OW93046   6.461   1.646   9.647
31007SOL    HW193047   6.384   1.611   9.593
31007SOL    HW293048   6.429   1.717   9.709
31008SOL     OW93049   5.816   0.628  11.285
31008SOL    HW193050   5.723   0.626  11.322
31008SOL    HW293051   5.817   0.589  11.193
31009SOL     OW93052   5.811   0.275  12.168
31009SOL    HW193053   5.846   0.258  12.260
31009SOL    HW293054   5.723   0.230  12.156
31010SOL     OW93055   5.605   0.368  11.819
31010SOL    HW193056   5.523   0.411  11.858
31010SOL    HW293057   5.577   0.295  11.756
31011SOL     OW93058   6.155   1.275  12.337
31011SOL    HW193059   6.062   1.268  12.300
31011SOL    HW293060   6.166   1.364  12.381
31012SOL     OW93061   7.141   1.511  11.875
31012SOL    HW193062   7.084   1.495  11.956
31012SOL    HW293063   7.082   1.521  11.795
31013SOL     OW93064   6.721   0.703  11.889
31013SOL    HW193065   6.778   0.781  11.864
31013SOL    HW293066   6.661   0.729  11.965
31014SOL     OW93067   7.341   0.607  11.403
31014SOL    HW193068   7.329   0.594  11.304
31014SOL    HW293069   7.311   0.526  11.452
31015SOL     OW93070   6.354   1.144  12.195
31015SOL    HW193071   6.276   1.161  12.255
31015SOL    HW293072   6.388   1.231  12.159
31016SOL     OW93073   6.271   1.012  11.837
31016SOL    HW193074   6.340   0.996  11.907
31016SOL    HW293075   6.198   1.069  11.875
31017SOL     OW93076   5.921   1.435  12.233
31017SOL    HW193077   5.843   1.404  12.180
31017SOL    HW293078   5.979   1.493  12.176
31018SOL     OW93079   7.046   1.505  12.511
31018SOL    HW193080   7.070   1.599  12.537
31018SOL    HW293081   7.030   1.451  12.593
31019SOL     OW93082   6.024   0.392  12.671
31019SOL    HW193083   6.106   0.336  12.680
31019SOL    HW293084   5.943   0.334  12.675
31020SOL     OW93085   7.189   0.447  11.909
31020SOL    HW193086   7.115   0.493  11.859
31020SOL    HW293087   7.240   0.515  11.962
31021SOL     OW93088   5.817   1.713  11.655
31021SOL    HW193089   5.851   1.790  11.709
31021SOL    HW293090   5.861   1.713  11.565
31022SOL     OW93091   5.816   1.434  11.710
31022SOL    HW193092   5.790   1.530  11.710
31022SOL    HW293093   5.745   1.380  11.755
31023SOL     OW93094   5.826   1.091  12.058
31023SOL    HW193095   5.840   1.007  12.110
31023SOL    HW293096   5.771   1.155  12.113
31024SOL     OW93097   6.206   1.786  12.611
31024SOL    HW193098   6.114   1.769  12.646
31024SOL    HW293099   6.234   1.878  12.637
31025SOL     OW93100   6.192   0.964  11.295
31025SOL    HW193101   6.199   1.048  11.241
31025SOL    HW293102   6.238   0.977  11.383
31026SOL     OW93103   7.180   0.114  12.652
31026SOL    HW193104   7.162   0.181  12.580
31026SOL    HW293105   7.177   0.160  12.741
31027SOL     OW93106   5.708   0.643  11.735
31027SOL    HW193107   5.663   0.555  11.752
31027SOL    HW293108   5.707   0.697  11.819
31028SOL     OW93109   7.428   1.767  11.531
31028SOL    HW193110   7.482   1.738  11.611
31028SOL    HW293111   7.458   1.857  11.502
31029SOL     OW93112   5.613   1.596  11.289
31029SOL    HW193113   5.594   1.500  11.310
31029SOL    HW293114   5.580   1.654  11.364
31030SOL     OW93115   7.275   0.922  11.784
31030SOL    HW193116   7.370   0.893  11.792
31030SOL    HW293117   7.267   0.987  11.709
31031SOL     OW93118   7.227   1.108  11.604
31031SOL    HW193119   7.313   1.110  11.552
31031SOL    HW293120   7.241   1.155  11.692
31032SOL     OW93121   6.199   1.365  11.898
31032SOL    HW193122   6.150   1.278  11.907
31032SOL    HW293123   6.176   1.408  11.811
31033SOL     OW93124   6.395   0.004  11.674
31033SOL    HW193125   6.435   0.095  11.665
31033SOL    HW293126   6.295   0.012  11.680
31034SOL     OW93127   5.783   0.976  12.436
31034SOL    HW193128   5.872   0.931  12.422
31034SOL    HW293129   5.710   0.911  12.417
31035SOL     OW93130   7.111   0.999  11.362
31035SOL    HW193131   7.048   0.923  11.375
31035SOL    HW293132   7.159   1.017  11.448
31036SOL     OW93133   5.903   0.251  12.973
31036SOL    HW193134   5.974   0.322  12.979
31036SOL    HW293135   5.815   0.290  13.001
31037SOL     OW93136   7.052   1.417  12.125
31037SOL    HW193137   6.993   1.423  12.205
31037SOL    HW293138   7.037   1.329  12.079
31038SOL     OW93139   7.253   1.714  11.744
31038SOL    HW193140   7.212   1.691  11.656
31038SOL    HW293141   7.235   1.640  11.809
31039SOL     OW93142   6.184   0.729  11.442
31039SOL    HW193143   6.208   0.798  11.374
31039SOL    HW293144   6.106   0.762  11.496
31040SOL     OW93145   6.867   0.345  12.116
31040SOL    HW193146   6.781   0.295  12.103
31040SOL    HW293147   6.929   0.291  12.172
31041SOL     OW93148   7.162   1.662  11.479
31041SOL    HW193149   7.251   1.708  11.482
31041SOL    HW293150   7.141   1.638  11.384
31042SOL     OW93151   6.393   0.605  12.637
31042SOL    HW193152   6.346   0.602  12.726
31042SOL    HW293153   6.342   0.550  12.571
31043SOL     OW93154   6.577   0.410  12.414
31043SOL    HW193155   6.500   0.444  12.468
31043SOL    HW293156   6.543   0.359  12.335
31044SOL     OW93157   6.627   0.701  11.601
31044SOL    HW193158   6.653   0.697  11.697
31044SOL    HW293159   6.542   0.650  11.587
31045SOL     OW93160   5.662   0.811  11.961
31045SOL    HW193161   5.761   0.799  11.970
31045SOL    HW293162   5.638   0.906  11.982
31046SOL     OW93163   5.716   1.821  12.743
31046SOL    HW193164   5.706   1.806  12.842
31046SOL    HW293165   5.630   1.857  12.707
31047SOL     OW93166   6.451   0.348  11.367
31047SOL    HW193167   6.510   0.411  11.318
31047SOL    HW293168   6.470   0.254  11.338
31048SOL     OW93169   6.948   1.144  11.717
31048SOL    HW193170   7.031   1.115  11.669
31048SOL    HW293171   6.899   1.211  11.661
31049SOL     OW93172   6.136   0.196  12.057
31049SOL    HW193173   6.131   0.191  12.157
31049SOL    HW293174   6.138   0.292  12.028
31050SOL     OW93175   6.594   1.456  11.649
31050SOL    HW193176   6.548   1.528  11.597
31050SOL    HW293177   6.590   1.476  11.747
31051SOL     OW93178   5.937   1.801  12.025
31051SOL    HW193179   5.987   1.715  12.031
31051SOL    HW293180   6.002   1.878  12.022
31052SOL     OW93181   7.381   1.066  12.045
31052SOL    HW193182   7.319   1.051  11.969
31052SOL    HW293183   7.329   1.077  12.130
31053SOL     OW93184   5.907   0.943  11.414
31053SOL    HW193185   5.989   0.982  11.372
31053SOL    HW293186   5.880   0.861  11.365
31054SOL     OW93187   7.044   0.735  11.900
31054SOL    HW193188   7.039   0.670  11.975
31054SOL    HW293189   7.124   0.794  11.913
31055SOL     OW93190   6.697   1.776  11.409
31055SOL    HW193191   6.637   1.714  11.459
31055SOL    HW293192   6.728   1.732  11.324
31056SOL     OW93193   5.788   0.285  12.670
31056SOL    HW193194   5.708   0.345  12.657
31056SOL    HW293195   5.778   0.236  12.756
31057SOL     OW93196   7.218   1.377  11.253
31057SOL    HW193197   7.186   1.471  11.243
31057SOL    HW293198   7.142   1.314  11.241
31058SOL     OW93199   6.050   1.743  11.495
31058SOL    HW193200   6.083   1.782  11.581
31058SOL    HW293201   6.126   1.736  11.430
31059SOL     OW93202   6.986   0.107  11.598
31059SOL    HW193203   6.962   0.070  11.508
31059SOL    HW293204   7.085   0.123  11.602
31060SOL     OW93205   5.835   1.785  12.413
31060SOL    HW193206   5.892   1.720  12.463
31060SOL    HW293207   5.819   1.752  12.320
31061SOL     OW93208   6.526   1.698  12.076
31061SOL    HW193209   6.606   1.641  12.097
31061SOL    HW293210   6.477   1.658  11.999
31062SOL     OW93211   5.968   0.700  11.652
31062SOL    HW193212   6.013   0.610  11.649
31062SOL    HW293213   5.874   0.689  11.685
31063SOL     OW93214   6.200   0.122  11.289
31063SOL    HW193215   6.298   0.100  11.296
31063SOL    HW293216   6.169   0.105  11.196
31064SOL     OW93217   6.474   1.514  12.367
31064SOL    HW193218   6.451   1.489  12.273
31064SOL    HW293219   6.535   1.445  12.406
31065SOL     OW93220   6.389   1.402  12.096
31065SOL    HW193221   6.479   1.416  12.054
31065SOL    HW293222   6.318   1.404  12.025
31066SOL     OW93223   6.508   0.503  12.071
31066SOL    HW193224   6.483   0.494  11.975
31066SOL    HW293225   6.556   0.421  12.102
31067SOL     OW93226   6.125   0.064  11.684
31067SOL    HW193227   6.044   0.065  11.742
31067SOL    HW293228   6.128   0.147  11.629
31068SOL     OW93229   7.020   1.188  11.213
31068SOL    HW193230   7.052   1.112  11.270
31068SOL    HW293231   6.928   1.215  11.243
31069SOL     OW93232   5.883   0.035  11.343
31069SOL    HW193233   5.932   0.119  11.322
31069SOL    HW293234   5.945  -0.030  11.388
31070SOL     OW93235   6.521   0.236  11.652
31070SOL    HW193236   6.473   0.277  11.574
31070SOL    HW293237   6.620   0.234  11.633
31071SOL     OW93238   6.813   1.570  11.965
31071SOL    HW193239   6.834   1.644  11.900
31071SOL    HW293240   6.881   1.570  12.038
31072SOL     OW93241   6.045   1.152  11.913
31072SOL    HW193242   5.974   1.125  11.978
31072SOL    HW293243   6.019   1.124  11.820
31073SOL     OW93244   6.857   1.797  11.763
31073SOL    HW193245   6.901   1.861  11.699
31073SOL    HW293246   6.807   1.849  11.833
31074SOL     OW93247   6.618   0.549  11.188
31074SOL    HW193248   6.577   0.631  11.149
31074SOL    HW293249   6.682   0.575  11.261
31075SOL     OW93250   5.664   0.556  12.558
31075SOL    HW193251   5.756   0.555  12.517
31075SOL    HW293252   5.658   0.630  12.625
31076SOL     OW93253   6.147   0.222  12.319
31076SOL    HW193254   6.185   0.138  12.356
31076SOL    HW293255   6.059   0.241  12.363
31077SOL     OW93256   6.452   0.454  11.814
31077SOL    HW193257   6.420   0.526  11.752
31077SOL    HW293258   6.476   0.373  11.761
31078SOL     OW93259   6.603   0.039  11.925
31078SOL    HW193260   6.531   0.044  11.856
31078SOL    HW293261   6.579  -0.030  11.994
31079SOL     OW93262   7.015   1.173  12.039
31079SOL    HW193263   6.960   1.089  12.032
31079SOL    HW293264   7.041   1.202  11.947
31080SOL     OW93265   7.052   0.590  12.164
31080SOL    HW193266   7.022   0.495  12.171
31080SOL    HW293267   7.125   0.606  12.230
31081SOL     OW93268   7.443   0.833  11.549
31081SOL    HW193269   7.485   0.769  11.613
31081SOL    HW293270   7.405   0.782  11.471
31082SOL     OW93271   6.074   1.385  11.346
31082SOL    HW193272   5.987   1.370  11.393
31082SOL    HW293273   6.057   1.411  11.251
31083SOL     OW93274   7.250   1.280  11.829
31083SOL    HW193275   7.349   1.288  11.843
31083SOL    HW293276   7.205   1.364  11.860
31084SOL     OW93277   6.976   0.575  11.250
31084SOL    HW193278   6.922   0.554  11.331
31084SOL    HW293279   7.067   0.534  11.259
31085SOL     OW93280   6.113   0.256  11.500
31085SOL    HW193281   6.140   0.197  11.425
31085SOL    HW293282   6.113   0.351  11.469
31086SOL     OW93283   6.650   1.347  12.512
31086SOL    HW193284   6.570   1.324  12.567
31086SOL    HW293285   6.733   1.321  12.561
31087SOL     OW93286   6.697   1.195  12.272
31087SOL    HW193287   6.657   1.239  12.353
31087SOL    HW293288   6.656   1.232  12.189
31088SOL     OW93289   7.224   1.099  12.251
31088SOL    HW193290   7.229   1.180  12.310
31088SOL    HW293291   7.138   1.101  12.200
31089SOL     OW93292   6.501   0.089  12.574
31089SOL    HW193293   6.526   0.069  12.479
31089SOL    HW293294   6.573   0.145  12.616
31090SOL     OW93295   6.291   1.050  11.540
31090SOL    HW193296   6.277   1.057  11.639
31090SOL    HW293297   6.375   0.999  11.522
31091SOL     OW93298   5.996   0.813  12.423
31091SOL    HW193299   6.082   0.825  12.473
31091SOL    HW293300   5.954   0.726  12.450
31092SOL     OW93301   6.860   0.386  12.434
31092SOL    HW193302   6.881   0.460  12.498
31092SOL    HW293303   6.771   0.403  12.391
31093SOL     OW93304   5.650   1.564  12.503
31093SOL    HW193305   5.604   1.646  12.469
31093SOL    HW293306   5.748   1.583  12.512
31094SOL     OW93307   5.953   1.100  11.673
31094SOL    HW193308   5.946   1.183  11.617
31094SOL    HW293309   5.957   1.020  11.613
31095SOL     OW93310   6.152   0.537  12.037
31095SOL    HW193311   6.164   0.603  11.963
31095SOL    HW293312   6.198   0.571  12.120
31096SOL     OW93313   6.838   1.348  11.560
31096SOL    HW193314   6.888   1.425  11.600
31096SOL    HW293315   6.743   1.350  11.592
31097SOL     OW93316   6.858   1.445  12.314
31097SOL    HW193317   6.905   1.458  12.401
31097SOL    HW293318   6.792   1.371  12.323
31098SOL     OW93319   7.168   0.639  11.644
31098SOL    HW193320   7.137   0.700  11.717
31098SOL    HW293321   7.218   0.691  11.575
31099SOL     OW93322   5.940   1.510  12.501
31099SOL    HW193323   5.919   1.466  12.414
31099SOL    HW293324   6.037   1.536  12.504
31100SOL     OW93325   5.988   0.751  12.770
31100SOL    HW193326   6.056   0.806  12.723
31100SOL    HW293327   6.028   0.663  12.797
31101SOL     OW93328   7.173   0.779  12.842
31101SOL    HW193329   7.081   0.817  12.837
31101SOL    HW293330   7.233   0.826  12.777
31102SOL     OW93331   6.159   0.870  12.201
31102SOL    HW193332   6.203   0.959  12.192
31102SOL    HW293333   6.096   0.870  12.278
31103SOL     OW93334   6.946   0.862  12.217
31103SOL    HW193335   6.871   0.862  12.151
31103SOL    HW293336   6.983   0.770  12.226
31104SOL     OW93337   6.795   0.525  11.447
31104SOL    HW193338   6.808   0.441  11.501
31104SOL    HW293339   6.766   0.599  11.507
31105SOL     OW93340   5.893   0.213  12.403
31105SOL    HW193341   5.870   0.250  12.493
31105SOL    HW293342   5.863   0.118  12.397
31106SOL     OW93343   5.623   1.310  12.454
31106SOL    HW193344   5.676   1.261  12.522
31106SOL    HW293345   5.645   1.408  12.459
31107SOL     OW93346   6.318   0.634  12.236
31107SOL    HW193347   6.377   0.608  12.160
31107SOL    HW293348   6.290   0.730  12.225
31108SOL     OW93349   5.893   0.063  11.790
31108SOL    HW193350   5.882   0.157  11.823
31108SOL    HW293351   5.888   0.000  11.867
31109SOL     OW93352   7.208   0.367  11.546
31109SOL    HW193353   7.210   0.291  11.610
31109SOL    HW293354   7.160   0.444  11.586
31110SOL     OW93355   6.609   0.766  12.138
31110SOL    HW193356   6.624   0.787  12.234
31110SOL    HW293357   6.579   0.671  12.129
31111SOL     OW93358   6.566   1.573  12.872
31111SOL    HW193359   6.546   1.617  12.784
31111SOL    HW293360   6.605   1.482  12.856
31112SOL     OW93361   7.126   0.274  11.297
31112SOL    HW193362   7.065   0.199  11.320
31112SOL    HW293363   7.148   0.326  11.380
31113SOL     OW93364   6.889   0.838  11.214
31113SOL    HW193365   6.923   0.745  11.229
31113SOL    HW293366   6.907   0.865  11.119
31114SOL     OW93367   6.654   1.333  12.021
31114SOL    HW193368   6.661   1.249  11.966
31114SOL    HW293369   6.716   1.402  11.985
31115SOL     OW93370   5.905   0.810  12.121
31115SOL    HW193371   5.998   0.846  12.126
31115SOL    HW293372   5.899   0.725  12.173
31116SOL     OW93373   5.925   0.509  12.178
31116SOL    HW193374   5.873   0.426  12.161
31116SOL    HW293375   6.002   0.514  12.114
31117SOL     OW93376   6.724   0.380  12.850
31117SOL    HW193377   6.679   0.443  12.914
31117SOL    HW293378   6.817   0.411  12.833
31118SOL     OW93379   6.746   0.207  12.649
31118SOL    HW193380   6.746   0.271  12.726
31118SOL    HW293381   6.774   0.255  12.566
31119SOL     OW93382   5.594   1.326  11.372
31119SOL    HW193383   5.501   1.347  11.341
31119SOL    HW293384   5.604   1.227  11.385
31120SOL     OW93385   5.674   1.801  12.099
31120SOL    HW193386   5.632   1.715  12.072
31120SOL    HW293387   5.768   1.804  12.065
31121SOL     OW93388   6.090   1.568  12.082
31121SOL    HW193389   6.156   1.642  12.091
31121SOL    HW293390   6.134   1.489  12.040
31122SOL     OW93391   6.588   0.796  12.410
31122SOL    HW193392   6.629   0.764  12.496
31122SOL    HW293393   6.492   0.769  12.407
31123SOL     OW93394   5.626   0.544  12.286
31123SOL    HW193395   5.711   0.511  12.245
31123SOL    HW293396   5.639   0.559  12.384
31124SOL     OW93397   6.401   0.572  11.497
31124SOL    HW193398   6.408   0.483  11.451
31124SOL    HW293399   6.307   0.606  11.489
31125SOL     OW93400   7.243   0.604  12.378
31125SOL    HW193401   7.205   0.535  12.440
31125SOL    HW293402   7.325   0.568  12.334
31126SOL     OW93403   6.257   0.464  12.441
31126SOL    HW193404   6.223   0.375  12.411
31126SOL    HW293405   6.283   0.518  12.361
31127SOL     OW93406   6.516   1.678  12.637
31127SOL    HW193407   6.492   1.660  12.542
31127SOL    HW293408   6.546   1.772  12.647
31128SOL     OW93409   6.059   0.500  11.363
31128SOL    HW193410   6.120   0.580  11.367
31128SOL    HW293411   5.964   0.531  11.370
31129SOL     OW93412   5.745   1.137  12.638
31129SOL    HW193413   5.767   1.076  12.714
31129SOL    HW293414   5.755   1.088  12.552
31130SOL     OW93415   6.933   1.059  12.406
31130SOL    HW193416   6.957   0.996  12.332
31130SOL    HW293417   6.843   1.099  12.388
31131SOL     OW93418   6.888   0.855  11.481
31131SOL    HW193419   6.802   0.824  11.523
31131SOL    HW293420   6.884   0.841  11.382
31132SOL     OW93421   7.345   1.747  12.326
31132SOL    HW193422   7.406   1.777  12.253
31132SOL    HW293423   7.307   1.658  12.304
31133SOL     OW93424   6.838   1.731  12.300
31133SOL    HW193425   6.922   1.736  12.246
31133SOL    HW293426   6.815   1.635  12.318
31134SOL     OW93427   5.669   1.258  12.194
31134SOL    HW193428   5.664   1.257  12.294
31134SOL    HW293429   5.586   1.217  12.156
31135SOL     OW93430   7.312   0.135  11.695
31135SOL    HW193431   7.385   0.118  11.628
31135SOL    HW293432   7.281   0.048  11.733
31136SOL     OW93433   6.974   1.573  11.649
31136SOL    HW193434   7.041   1.585  11.575
31136SOL    HW293435   6.934   1.662  11.672
31137SOL     OW93436   6.866   0.927  11.844
31137SOL    HW193437   6.926   0.846  11.846
31137SOL    HW293438   6.906   0.996  11.784
31138SOL     OW93439   6.258   1.616  11.326
31138SOL    HW193440   6.267   1.626  11.227
31138SOL    HW293441   6.218   1.527  11.347
31139SOL     OW93442   7.236   1.720  12.566
31139SOL    HW193443   7.289   1.730  12.482
31139SOL    HW293444   7.209   1.810  12.600
31140SOL     OW93445   7.427   0.175  12.135
31140SOL    HW193446   7.466   0.090  12.099
31140SOL    HW293447   7.329   0.177  12.116
31141SOL     OW93448   5.849   0.326  11.892
31141SOL    HW193449   5.770   0.377  11.858
31141SOL    HW293450   5.840   0.311  11.990
31142SOL     OW93451   6.780   1.612  11.203
31142SOL    HW193452   6.786   1.519  11.240
31142SOL    HW293453   6.721   1.612  11.123
31143SOL     OW93454   6.408   1.002  12.544
31143SOL    HW193455   6.448   1.001  12.452
31143SOL    HW293456   6.418   1.094  12.584
31144SOL     OW93457   6.502   0.910  11.463
31144SOL    HW193458   6.565   0.948  11.395
31144SOL    HW293459   6.542   0.827  11.502
31145SOL     OW93460   7.090   1.607  11.216
31145SOL    HW193461   6.998   1.644  11.223
31145SOL    HW293462   7.128   1.627  11.126
31146SOL     OW93463   5.958   1.288  12.662
31146SOL    HW193464   5.945   1.381  12.628
31146SOL    HW293465   5.874   1.236  12.649
31147SOL     OW93466   7.200   1.292  12.461
31147SOL    HW193467   7.260   1.295  12.541
31147SOL    HW293468   7.125   1.356  12.474
31148SOL     OW93469   6.625   1.098  11.868
31148SOL    HW193470   6.555   1.051  11.922
31148SOL    HW293471   6.684   1.030  11.825
31149SOL     OW93472   6.600   0.236  12.143
31149SOL    HW193473   6.592   0.200  12.050
31149SOL    HW293474   6.598   0.160  12.208
31150SOL     OW93475   6.176   1.487  11.663
31150SOL    HW193476   6.218   1.429  11.593
31150SOL    HW293477   6.132   1.566  11.619
31151SOL     OW93478   7.295   0.385  12.553
31151SOL    HW193479   7.368   0.454  12.557
31151SOL    HW293480   7.323   0.310  12.494
31152SOL     OW93481   5.841   1.348  11.462
31152SOL    HW193482   5.745   1.349  11.435
31152SOL    HW293483   5.853   1.401  11.546
31153SOL     OW93484   5.661   0.345  11.205
31153SOL    HW193485   5.569   0.317  11.176
31153SOL    HW293486   5.692   0.422  11.149
31154SOL     OW93487   7.026   0.856  12.570
31154SOL    HW193488   6.969   0.908  12.507
31154SOL    HW293489   7.122   0.868  12.546
31155SOL     OW93490   5.658   0.166  11.490
31155SOL    HW193491   5.641   0.249  11.436
31155SOL    HW293492   5.748   0.129  11.468
31156SOL     OW93493   6.769   1.335  11.291
31156SOL    HW193494   6.670   1.324  11.293
31156SOL    HW293495   6.803   1.350  11.384
31157SOL     OW93496   6.199   0.842  12.603
31157SOL    HW193497   6.255   0.923  12.586
31157SOL    HW293498   6.258   0.762  12.606
31158SOL     OW93499   7.079   1.767  12.131
31158SOL    HW193500   7.112   1.831  12.062
31158SOL    HW293501   7.145   1.761  12.206
31159SOL     OW93502   5.976   1.741  12.732
31159SOL    HW193503   5.885   1.782  12.730
31159SOL    HW293504   5.969   1.647  12.764
31160SOL     OW93505   7.260   0.883  12.426
31160SOL    HW193506   7.233   0.794  12.389
31160SOL    HW293507   7.261   0.951  12.353
31161SOL     OW93508   6.811   0.325  11.621
31161SOL    HW193509   6.876   0.251  11.610
31161SOL    HW293510   6.831   0.375  11.705
31162SOL     OW93511   6.180   0.745  11.824
31162SOL    HW193512   6.230   0.830  11.805
31162SOL    HW293513   6.092   0.747  11.776
31163SOL     OW93514   7.363   0.342  12.814
31163SOL    HW193515   7.346   0.373  12.720
31163SOL    HW293516   7.279   0.305  12.852
31164SOL     OW93517   7.316   0.934  12.689
31164SOL    HW193518   7.354   1.025  12.704
31164SOL    HW293519   7.308   0.917  12.590
31165SOL     OW93520   6.445   1.374  11.188
31165SOL    HW193521   6.399   1.389  11.276
31165SOL    HW293522   6.489   1.459  11.158
31166SOL     OW93523   6.247   1.790  12.125
31166SOL    HW193524   6.201   1.878  12.112
31166SOL    HW293525   6.346   1.802  12.118
31167SOL     OW93526   6.445   0.956  12.033
31167SOL    HW193527   6.499   0.887  12.081
31167SOL    HW293528   6.413   1.025  12.099
31168SOL     OW93529   6.669   0.984  11.259
31168SOL    HW193530   6.646   1.037  11.177
31168SOL    HW293531   6.750   0.928  11.240
31169SOL     OW93532   7.447   1.569  12.023
31169SOL    HW193533   7.376   1.557  11.953
31169SOL    HW293534   7.448   1.490  12.083
31170SOL     OW93535   5.665   1.240  11.825
31170SOL    HW193536   5.664   1.193  11.913
31170SOL    HW293537   5.747   1.212  11.774
31171SOL     OW93538   7.410   0.192  12.399
31171SOL    HW193539   7.406   0.102  12.443
31171SOL    HW293540   7.413   0.181  12.300
31172SOL     OW93541   6.014   0.424  11.692
31172SOL    HW193542   6.044   0.352  11.630
31172SOL    HW293543   5.975   0.384  11.775
31173SOL     OW93544   7.291   1.487  12.276
31173SOL    HW193545   7.198   1.462  12.249
31173SOL    HW293546   7.317   1.437  12.358
31174SOL     OW93547   5.903   0.547  12.452
31174SOL    HW193548   5.941   0.488  12.524
31174SOL    HW293549   5.943   0.521  12.364
31175SOL     OW93550   6.398   1.586  11.859
31175SOL    HW193551   6.430   1.596  11.765
31175SOL    HW293552   6.319   1.524  11.861
31176SOL     OW93553   7.010   0.214  12.284
31176SOL    HW193554   7.062   0.149  12.339
31176SOL    HW293555   6.961   0.277  12.345
31177SOL     OW93556   6.587   0.034  12.326
31177SOL    HW193557   6.524  -0.038  12.295
31177SOL    HW293558   6.680  -0.002  12.326
31178SOL     OW93559   6.356   1.330  11.473
31178SOL    HW193560   6.310   1.243  11.490
31178SOL    HW293561   6.447   1.327  11.514
31179SOL     OW93562   6.204   1.567  12.456
31179SOL    HW193563   6.199   1.649  12.513
31179SOL    HW293564   6.293   1.564  12.411
31180SOL     OW93565   6.938   0.052  11.340
31180SOL    HW193566   6.973   0.011  11.256
31180SOL    HW293567   6.848   0.014  11.360
31181SOL     OW93568   6.886   0.453  11.863
31181SOL    HW193569   6.827   0.533  11.867
31181SOL    HW293570   6.901   0.418  11.956
31182SOL     OW93571   7.179   0.221  12.054
31182SOL    HW193572   7.095   0.220  12.108
31182SOL    HW293573   7.181   0.304  11.998
31183SOL     OW93574   5.625   1.077  11.472
31183SOL    HW193575   5.724   1.066  11.463
31183SOL    HW293576   5.585   0.991  11.504
31184SOL     OW93577   6.461   1.646  11.509
31184SOL    HW193578   6.384   1.611  11.455
31184SOL    HW293579   6.429   1.717  11.571
31185SOL     OW93580   5.816   2.490   0.113
31185SOL    HW193581   5.723   2.488   0.150
31185SOL    HW293582   5.817   2.451   0.021
31186SOL     OW93583   5.811   2.137   0.996
31186SOL    HW193584   5.846   2.120   1.088
31186SOL    HW293585   5.723   2.092   0.984
31187SOL     OW93586   5.605   2.230   0.647
31187SOL    HW193587   5.523   2.273   0.686
31187SOL    HW293588   5.577   2.157   0.584
31188SOL     OW93589   6.155   3.137   1.165
31188SOL    HW193590   6.062   3.130   1.128
31188SOL    HW293591   6.166   3.226   1.209
31189SOL     OW93592   7.141   3.373   0.703
31189SOL    HW193593   7.084   3.357   0.784
31189SOL    HW293594   7.082   3.383   0.623
31190SOL     OW93595   6.721   2.565   0.717
31190SOL    HW193596   6.778   2.643   0.692
31190SOL    HW293597   6.661   2.591   0.793
31191SOL     OW93598   7.341   2.469   0.231
31191SOL    HW193599   7.329   2.456   0.132
31191SOL    HW293600   7.311   2.388   0.280
31192SOL     OW93601   6.354   3.006   1.023
31192SOL    HW193602   6.276   3.023   1.083
31192SOL    HW293603   6.388   3.093   0.987
31193SOL     OW93604   6.436   2.660   1.823
31193SOL    HW193605   6.432   2.736   1.888
31193SOL    HW293606   6.458   2.696   1.732
31194SOL     OW93607   6.271   2.874   0.665
31194SOL    HW193608   6.340   2.858   0.735
31194SOL    HW293609   6.198   2.931   0.703
31195SOL     OW93610   6.272   3.023   1.803
31195SOL    HW193611   6.332   3.102   1.817
31195SOL    HW293612   6.186   3.054   1.762
31196SOL     OW93613   5.921   3.297   1.061
31196SOL    HW193614   5.843   3.266   1.008
31196SOL    HW293615   5.979   3.355   1.004
31197SOL     OW93616   7.046   3.367   1.339
31197SOL    HW193617   7.070   3.461   1.365
31197SOL    HW293618   7.030   3.313   1.421
31198SOL     OW93619   6.024   2.254   1.499
31198SOL    HW193620   6.106   2.198   1.508
31198SOL    HW293621   5.943   2.196   1.503
31199SOL     OW93622   7.189   2.309   0.737
31199SOL    HW193623   7.115   2.355   0.687
31199SOL    HW293624   7.240   2.377   0.790
31200SOL     OW93625   5.817   3.575   0.483
31200SOL    HW193626   5.851   3.652   0.537
31200SOL    HW293627   5.861   3.575   0.393
31201SOL     OW93628   6.713   3.203   1.690
31201SOL    HW193629   6.760   3.203   1.778
31201SOL    HW293630   6.665   3.116   1.679
31202SOL     OW93631   5.816   3.296   0.538
31202SOL    HW193632   5.790   3.392   0.538
31202SOL    HW293633   5.745   3.242   0.583
31203SOL     OW93634   5.826   2.953   0.886
31203SOL    HW193635   5.840   2.869   0.938
31203SOL    HW293636   5.771   3.017   0.941
31204SOL     OW93637   6.206   3.648   1.439
31204SOL    HW193638   6.114   3.631   1.474
31204SOL    HW293639   6.234   3.740   1.465
31205SOL     OW93640   6.192   2.826   0.123
31205SOL    HW193641   6.199   2.910   0.069
31205SOL    HW293642   6.238   2.839   0.211
31206SOL     OW93643   7.180   1.976   1.480
31206SOL    HW193644   7.162   2.043   1.408
31206SOL    HW293645   7.177   2.022   1.569
31207SOL     OW93646   5.708   2.505   0.563
31207SOL    HW193647   5.663   2.417   0.580
31207SOL    HW293648   5.707   2.559   0.647
31208SOL     OW93649   7.428   3.629   0.359
31208SOL    HW193650   7.482   3.600   0.439
31208SOL    HW293651   7.458   3.719   0.330
31209SOL     OW93652   5.613   3.458   0.117
31209SOL    HW193653   5.594   3.362   0.138
31209SOL    HW293654   5.580   3.516   0.192
31210SOL     OW93655   7.275   2.784   0.612
31210SOL    HW193656   7.370   2.755   0.620
31210SOL    HW293657   7.267   2.849   0.537
31211SOL     OW93658   7.227   2.970   0.432
31211SOL    HW193659   7.313   2.972   0.380
31211SOL    HW293660   7.241   3.017   0.520
31212SOL     OW93661   5.699   2.599   1.597
31212SOL    HW193662   5.787   2.586   1.642
31212SOL    HW293663   5.686   2.696   1.575
31213SOL     OW93664   6.199   3.227   0.726
31213SOL    HW193665   6.150   3.140   0.735
31213SOL    HW293666   6.176   3.270   0.639
31214SOL     OW93667   6.879   3.090   1.423
31214SOL    HW193668   6.916   3.017   1.365
31214SOL    HW293669   6.931   3.095   1.508
31215SOL     OW93670   6.395   1.866   0.502
31215SOL    HW193671   6.435   1.957   0.493
31215SOL    HW293672   6.295   1.874   0.508
31216SOL     OW93673   5.783   2.838   1.264
31216SOL    HW193674   5.872   2.793   1.250
31216SOL    HW293675   5.710   2.773   1.245
31217SOL     OW93676   7.111   2.861   0.190
31217SOL    HW193677   7.048   2.785   0.203
31217SOL    HW293678   7.159   2.879   0.276
31218SOL     OW93679   6.773   3.654   1.616
31218SOL    HW193680   6.797   3.714   1.540
31218SOL    HW293681   6.780   3.559   1.586
31219SOL     OW93682   5.903   2.113   1.801
31219SOL    HW193683   5.974   2.184   1.807
31219SOL    HW293684   5.815   2.152   1.829
31220SOL     OW93685   7.052   3.279   0.953
31220SOL    HW193686   6.993   3.285   1.033
31220SOL    HW293687   7.037   3.191   0.907
31221SOL     OW93688   7.253   3.576   0.572
31221SOL    HW193689   7.212   3.553   0.484
31221SOL    HW293690   7.235   3.502   0.637
31222SOL     OW93691   6.184   2.591   0.270
31222SOL    HW193692   6.208   2.660   0.202
31222SOL    HW293693   6.106   2.624   0.324
31223SOL     OW93694   6.867   2.207   0.944
31223SOL    HW193695   6.781   2.157   0.931
31223SOL    HW293696   6.929   2.153   1.000
31224SOL     OW93697   7.162   3.524   0.307
31224SOL    HW193698   7.251   3.570   0.310
31224SOL    HW293699   7.141   3.500   0.212
31225SOL     OW93700   6.393   2.467   1.465
31225SOL    HW193701   6.346   2.464   1.554
31225SOL    HW293702   6.342   2.412   1.399
31226SOL     OW93703   6.980   2.331   1.674
31226SOL    HW193704   6.960   2.374   1.762
31226SOL    HW293705   7.058   2.269   1.683
31227SOL     OW93706   6.559   2.752   1.572
31227SOL    HW193707   6.605   2.668   1.543
31227SOL    HW293708   6.503   2.786   1.497
31228SOL     OW93709   6.577   2.272   1.242
31228SOL    HW193710   6.500   2.306   1.296
31228SOL    HW293711   6.543   2.221   1.163
31229SOL     OW93712   6.627   2.563   0.429
31229SOL    HW193713   6.653   2.559   0.525
31229SOL    HW293714   6.542   2.512   0.415
31230SOL     OW93715   5.662   2.673   0.789
31230SOL    HW193716   5.761   2.661   0.798
31230SOL    HW293717   5.638   2.768   0.810
31231SOL     OW93718   5.716   3.683   1.571
31231SOL    HW193719   5.706   3.668   1.670
31231SOL    HW293720   5.630   3.719   1.535
31232SOL     OW93721   6.451   2.210   0.195
31232SOL    HW193722   6.510   2.273   0.146
31232SOL    HW293723   6.470   2.116   0.166
31233SOL     OW93724   7.305   2.447   1.831
31233SOL    HW193725   7.279   2.536   1.795
31233SOL    HW293726   7.303   2.379   1.758
31234SOL     OW93727   6.948   3.006   0.545
31234SOL    HW193728   7.031   2.977   0.497
31234SOL    HW293729   6.899   3.073   0.489
31235SOL     OW93730   6.136   2.058   0.885
31235SOL    HW193731   6.131   2.053   0.985
31235SOL    HW293732   6.138   2.154   0.856
31236SOL     OW93733   6.594   3.318   0.477
31236SOL    HW193734   6.548   3.390   0.425
31236SOL    HW293735   6.590   3.338   0.575
31237SOL     OW93736   5.937   3.663   0.853
31237SOL    HW193737   5.987   3.577   0.859
31237SOL    HW293738   6.002   3.740   0.850
31238SOL     OW93739   7.381   2.928   0.873
31238SOL    HW193740   7.319   2.913   0.797
31238SOL    HW293741   7.329   2.939   0.958
31239SOL     OW93742   6.813   3.412   1.506
31239SOL    HW193743   6.819   3.335   1.570
31239SOL    HW293744   6.761   3.386   1.426
31240SOL     OW93745   5.907   2.805   0.242
31240SOL    HW193746   5.989   2.844   0.200
31240SOL    HW293747   5.880   2.723   0.193
31241SOL     OW93748   7.044   2.597   0.728
31241SOL    HW193749   7.039   2.532   0.803
31241SOL    HW293750   7.124   2.656   0.741
31242SOL     OW93751   6.047   3.128   1.727
31242SOL    HW193752   5.997   3.129   1.641
31242SOL    HW293753   5.984   3.110   1.803
31243SOL     OW93754   6.697   3.638   0.237
31243SOL    HW193755   6.637   3.576   0.287
31243SOL    HW293756   6.728   3.594   0.152
31244SOL     OW93757   5.788   2.147   1.498
31244SOL    HW193758   5.708   2.207   1.485
31244SOL    HW293759   5.778   2.098   1.584
31245SOL     OW93760   7.218   3.239   0.081
31245SOL    HW193761   7.186   3.333   0.071
31245SOL    HW293762   7.142   3.176   0.069
31246SOL     OW93763   6.050   3.605   0.323
31246SOL    HW193764   6.083   3.644   0.409
31246SOL    HW293765   6.126   3.598   0.258
31247SOL     OW93766   6.986   1.969   0.426
31247SOL    HW193767   6.962   1.932   0.336
31247SOL    HW293768   7.085   1.985   0.430
31248SOL     OW93769   5.835   3.647   1.241
31248SOL    HW193770   5.892   3.582   1.291
31248SOL    HW293771   5.819   3.614   1.148
31249SOL     OW93772   6.526   3.560   0.904
31249SOL    HW193773   6.606   3.503   0.925
31249SOL    HW293774   6.477   3.520   0.827
31250SOL     OW93775   5.968   2.562   0.480
31250SOL    HW193776   6.013   2.472   0.477
31250SOL    HW293777   5.874   2.551   0.513
31251SOL     OW93778   7.133   2.084   1.729
31251SOL    HW193779   7.128   2.121   1.821
31251SOL    HW293780   7.061   2.015   1.717
31252SOL     OW93781   6.200   1.984   0.117
31252SOL    HW193782   6.298   1.962   0.124
31252SOL    HW293783   6.169   1.967   0.024
31253SOL     OW93784   6.367   2.126   1.749
31253SOL    HW193785   6.434   2.065   1.792
31253SOL    HW293786   6.294   2.145   1.814
31254SOL     OW93787   6.474   3.376   1.195
31254SOL    HW193788   6.451   3.351   1.101
31254SOL    HW293789   6.535   3.307   1.234
31255SOL     OW93790   6.937   2.452   1.433
31255SOL    HW193791   6.965   2.409   1.518
31255SOL    HW293792   6.962   2.548   1.434
31256SOL     OW93793   6.389   3.264   0.924
31256SOL    HW193794   6.479   3.278   0.882
31256SOL    HW293795   6.318   3.266   0.853
31257SOL     OW93796   6.508   2.365   0.899
31257SOL    HW193797   6.483   2.356   0.803
31257SOL    HW293798   6.556   2.283   0.930
31258SOL     OW93799   6.125   1.926   0.512
31258SOL    HW193800   6.044   1.927   0.570
31258SOL    HW293801   6.128   2.009   0.457
31259SOL     OW93802   7.020   3.050   0.041
31259SOL    HW193803   7.052   2.974   0.098
31259SOL    HW293804   6.928   3.077   0.071
31260SOL     OW93805   5.883   1.897   0.171
31260SOL    HW193806   5.932   1.981   0.150
31260SOL    HW293807   5.945   1.832   0.216
31261SOL     OW93808   6.521   2.098   0.480
31261SOL    HW193809   6.473   2.139   0.402
31261SOL    HW293810   6.620   2.096   0.461
31262SOL     OW93811   6.662   2.545   1.464
31262SOL    HW193812   6.582   2.484   1.467
31262SOL    HW293813   6.743   2.492   1.440
31263SOL     OW93814   6.813   3.432   0.793
31263SOL    HW193815   6.834   3.506   0.728
31263SOL    HW293816   6.881   3.432   0.866
31264SOL     OW93817   6.045   3.014   0.741
31264SOL    HW193818   5.974   2.987   0.806
31264SOL    HW293819   6.019   2.986   0.648
31265SOL     OW93820   6.857   3.659   0.591
31265SOL    HW193821   6.901   3.723   0.527
31265SOL    HW293822   6.807   3.711   0.661
31266SOL     OW93823   6.618   2.411   0.016
31266SOL    HW193824   6.577   2.493  -0.023
31266SOL    HW293825   6.682   2.437   0.089
31267SOL     OW93826   5.664   2.418   1.386
31267SOL    HW193827   5.756   2.417   1.345
31267SOL    HW293828   5.658   2.492   1.453
31268SOL     OW93829   6.147   2.084   1.147
31268SOL    HW193830   6.185   2.000   1.184
31268SOL    HW293831   6.059   2.103   1.191
31269SOL     OW93832   6.452   2.316   0.642
31269SOL    HW193833   6.420   2.388   0.580
31269SOL    HW293834   6.476   2.235   0.589
31270SOL     OW93835   6.603   1.901   0.753
31270SOL    HW193836   6.531   1.906   0.684
31270SOL    HW293837   6.579   1.832   0.822
31271SOL     OW93838   7.015   3.035   0.867
31271SOL    HW193839   6.960   2.951   0.860
31271SOL    HW293840   7.041   3.064   0.775
31272SOL     OW93841   7.052   2.452   0.992
31272SOL    HW193842   7.022   2.357   0.999
31272SOL    HW293843   7.125   2.468   1.058
31273SOL     OW93844   7.443   2.695   0.377
31273SOL    HW193845   7.485   2.631   0.441
31273SOL    HW293846   7.405   2.644   0.299
31274SOL     OW93847   6.074   3.247   0.174
31274SOL    HW193848   5.987   3.232   0.221
31274SOL    HW293849   6.057   3.273   0.079
31275SOL     OW93850   7.250   3.142   0.657
31275SOL    HW193851   7.349   3.150   0.671
31275SOL    HW293852   7.205   3.226   0.688
31276SOL     OW93853   6.976   2.437   0.078
31276SOL    HW193854   6.922   2.416   0.159
31276SOL    HW293855   7.067   2.396   0.087
31277SOL     OW93856   6.113   2.118   0.328
31277SOL    HW193857   6.140   2.059   0.253
31277SOL    HW293858   6.113   2.213   0.297
31278SOL     OW93859   7.340   3.085   1.588
31278SOL    HW193860   7.431   3.046   1.575
31278SOL    HW293861   7.348   3.181   1.612
31279SOL     OW93862   6.650   3.209   1.340
31279SOL    HW193863   6.570   3.186   1.395
31279SOL    HW293864   6.733   3.183   1.389
31280SOL     OW93865   7.178   3.491   1.625
31280SOL    HW193866   7.205   3.525   1.535
31280SOL    HW293867   7.257   3.453   1.671
31281SOL     OW93868   6.697   3.057   1.100
31281SOL    HW193869   6.657   3.101   1.181
31281SOL    HW293870   6.656   3.094   1.017
31282SOL     OW93871   7.224   2.961   1.079
31282SOL    HW193872   7.229   3.042   1.138
31282SOL    HW293873   7.138   2.963   1.028
31283SOL     OW93874   6.501   1.951   1.402
31283SOL    HW193875   6.526   1.931   1.307
31283SOL    HW293876   6.573   2.007   1.444
31284SOL     OW93877   6.566   2.978   1.719
31284SOL    HW193878   6.467   2.984   1.729
31284SOL    HW293879   6.589   2.898   1.663
31285SOL     OW93880   6.291   2.912   0.368
31285SOL    HW193881   6.277   2.919   0.467
31285SOL    HW293882   6.375   2.861   0.350
31286SOL     OW93883   5.996   2.675   1.251
31286SOL    HW193884   6.082   2.687   1.301
31286SOL    HW293885   5.954   2.588   1.278
31287SOL     OW93886   6.860   2.248   1.262
31287SOL    HW193887   6.881   2.322   1.326
31287SOL    HW293888   6.771   2.265   1.219
31288SOL     OW93889   5.650   3.426   1.331
31288SOL    HW193890   5.604   3.508   1.297
31288SOL    HW293891   5.748   3.445   1.340
31289SOL     OW93892   5.953   2.962   0.501
31289SOL    HW193893   5.946   3.045   0.445
31289SOL    HW293894   5.957   2.882   0.441
31290SOL     OW93895   6.152   2.399   0.865
31290SOL    HW193896   6.164   2.465   0.791
31290SOL    HW293897   6.198   2.433   0.948
31291SOL     OW93898   6.838   3.210   0.388
31291SOL    HW193899   6.888   3.287   0.428
31291SOL    HW293900   6.743   3.212   0.420
31292SOL     OW93901   6.858   3.307   1.142
31292SOL    HW193902   6.905   3.320   1.229
31292SOL    HW293903   6.792   3.233   1.151
31293SOL     OW93904   7.168   2.501   0.472
31293SOL    HW193905   7.137   2.562   0.545
31293SOL    HW293906   7.218   2.553   0.403
31294SOL     OW93907   5.940   3.372   1.329
31294SOL    HW193908   5.919   3.328   1.242
31294SOL    HW293909   6.037   3.398   1.332
31295SOL     OW93910   5.988   2.613   1.598
31295SOL    HW193911   6.056   2.668   1.551
31295SOL    HW293912   6.028   2.525   1.625
31296SOL     OW93913   7.173   2.641   1.670
31296SOL    HW193914   7.081   2.679   1.665
31296SOL    HW293915   7.233   2.688   1.605
31297SOL     OW93916   6.599   1.967   1.770
31297SOL    HW193917   6.605   2.052   1.718
31297SOL    HW293918   6.631   1.891   1.713
31298SOL     OW93919   6.090   1.912   1.740
31298SOL    HW193920   6.048   1.855   1.670
31298SOL    HW293921   6.024   1.981   1.772
31299SOL     OW93922   6.159   2.732   1.029
31299SOL    HW193923   6.203   2.821   1.020
31299SOL    HW293924   6.096   2.732   1.106
31300SOL     OW93925   6.946   2.724   1.045
31300SOL    HW193926   6.871   2.724   0.979
31300SOL    HW293927   6.983   2.632   1.054
31301SOL     OW93928   6.795   2.387   0.275
31301SOL    HW193929   6.808   2.303   0.329
31301SOL    HW293930   6.766   2.461   0.335
31302SOL     OW93931   5.893   2.075   1.231
31302SOL    HW193932   5.870   2.112   1.321
31302SOL    HW293933   5.863   1.980   1.225
31303SOL     OW93934   5.623   3.172   1.282
31303SOL    HW193935   5.676   3.123   1.350
31303SOL    HW293936   5.645   3.270   1.287
31304SOL     OW93937   6.318   2.496   1.064
31304SOL    HW193938   6.377   2.470   0.988
31304SOL    HW293939   6.290   2.592   1.053
31305SOL     OW93940   7.314   2.797   1.854
31305SOL    HW193941   7.268   2.790   1.765
31305SOL    HW293942   7.252   2.841   1.920
31306SOL     OW93943   5.893   1.925   0.618
31306SOL    HW193944   5.882   2.019   0.651
31306SOL    HW293945   5.888   1.862   0.695
31307SOL     OW93946   7.208   2.229   0.374
31307SOL    HW193947   7.210   2.153   0.438
31307SOL    HW293948   7.160   2.306   0.414
31308SOL     OW93949   6.609   2.628   0.966
31308SOL    HW193950   6.624   2.649   1.062
31308SOL    HW293951   6.579   2.533   0.957
31309SOL     OW93952   6.566   3.435   1.700
31309SOL    HW193953   6.546   3.479   1.612
31309SOL    HW293954   6.605   3.344   1.684
31310SOL     OW93955   7.445   3.380   1.605
31310SOL    HW193956   7.459   3.407   1.510
31310SOL    HW293957   7.528   3.402   1.658
31311SOL     OW93958   5.936   2.760   1.804
31311SOL    HW193959   6.012   2.804   1.852
31311SOL    HW293960   5.971   2.713   1.722
31312SOL     OW93961   7.126   2.136   0.125
31312SOL    HW193962   7.065   2.061   0.148
31312SOL    HW293963   7.148   2.188   0.208
31313SOL     OW93964   6.889   2.700   0.042
31313SOL    HW193965   6.923   2.607   0.057
31313SOL    HW293966   6.907   2.727  -0.053
31314SOL     OW93967   6.654   3.195   0.849
31314SOL    HW193968   6.661   3.111   0.794
31314SOL    HW293969   6.716   3.264   0.813
31315SOL     OW93970   5.905   2.672   0.949
31315SOL    HW193971   5.998   2.708   0.954
31315SOL    HW293972   5.899   2.587   1.001
31316SOL     OW93973   5.925   2.371   1.006
31316SOL    HW193974   5.873   2.288   0.989
31316SOL    HW293975   6.002   2.376   0.942
31317SOL     OW93976   6.724   2.242   1.678
31317SOL    HW193977   6.679   2.305   1.742
31317SOL    HW293978   6.817   2.273   1.661
31318SOL     OW93979   6.746   2.069   1.477
31318SOL    HW193980   6.746   2.133   1.554
31318SOL    HW293981   6.774   2.117   1.394
31319SOL     OW93982   5.594   3.188   0.200
31319SOL    HW193983   5.501   3.209   0.169
31319SOL    HW293984   5.604   3.089   0.213
31320SOL     OW93985   5.674   3.663   0.927
31320SOL    HW193986   5.632   3.577   0.900
31320SOL    HW293987   5.768   3.666   0.893
31321SOL     OW93988   6.090   3.430   0.910
31321SOL    HW193989   6.156   3.504   0.919
31321SOL    HW293990   6.134   3.351   0.868
31322SOL     OW93991   6.588   2.658   1.238
31322SOL    HW193992   6.629   2.626   1.324
31322SOL    HW293993   6.492   2.631   1.235
31323SOL     OW93994   5.626   2.406   1.114
31323SOL    HW193995   5.711   2.373   1.073
31323SOL    HW293996   5.639   2.421   1.212
31324SOL     OW93997   5.775   2.382   1.722
31324SOL    HW193998   5.834   2.342   1.652
31324SOL    HW293999   5.717   2.453   1.681
31325SOL     OW94000   6.955   2.812   1.660
31325SOL    HW194001   6.994   2.901   1.680
31325SOL    HW294002   6.965   2.792   1.563
31326SOL     OW94003   6.401   2.434   0.325
31326SOL    HW194004   6.408   2.345   0.279
31326SOL    HW294005   6.307   2.468   0.317
31327SOL     OW94006   7.243   2.466   1.206
31327SOL    HW194007   7.205   2.397   1.268
31327SOL    HW294008   7.325   2.430   1.162
31328SOL     OW94009   5.838   3.426   1.744
31328SOL    HW194010   5.808   3.483   1.820
31328SOL    HW294011   5.831   3.329   1.770
31329SOL     OW94012   6.257   2.326   1.269
31329SOL    HW194013   6.223   2.237   1.239
31329SOL    HW294014   6.283   2.380   1.189
31330SOL     OW94015   6.516   3.540   1.465
31330SOL    HW194016   6.492   3.522   1.370
31330SOL    HW294017   6.546   3.634   1.475
31331SOL     OW94018   6.059   2.362   0.191
31331SOL    HW194019   6.120   2.442   0.195
31331SOL    HW294020   5.964   2.393   0.198
31332SOL     OW94021   5.745   2.999   1.466
31332SOL    HW194022   5.767   2.938   1.542
31332SOL    HW294023   5.755   2.950   1.380
31333SOL     OW94024   6.933   2.921   1.234
31333SOL    HW194025   6.957   2.858   1.160
31333SOL    HW294026   6.843   2.961   1.216
31334SOL     OW94027   6.888   2.717   0.309
31334SOL    HW194028   6.802   2.686   0.351
31334SOL    HW294029   6.884   2.703   0.210
31335SOL     OW94030   7.345   3.609   1.154
31335SOL    HW194031   7.406   3.639   1.081
31335SOL    HW294032   7.307   3.520   1.132
31336SOL     OW94033   6.838   3.593   1.128
31336SOL    HW194034   6.922   3.598   1.074
31336SOL    HW294035   6.815   3.497   1.146
31337SOL     OW94036   5.669   3.120   1.022
31337SOL    HW194037   5.664   3.119   1.122
31337SOL    HW294038   5.586   3.079   0.984
31338SOL     OW94039   6.274   3.524   1.716
31338SOL    HW194040   6.218   3.605   1.725
31338SOL    HW294041   6.326   3.528   1.630
31339SOL     OW94042   6.489   1.948   0.133
31339SOL    HW194043   6.540   1.949   0.047
31339SOL    HW294044   6.545   1.906   0.204
31340SOL     OW94045   7.312   1.997   0.523
31340SOL    HW194046   7.385   1.980   0.456
31340SOL    HW294047   7.281   1.910   0.561
31341SOL     OW94048   6.974   3.435   0.477
31341SOL    HW194049   7.041   3.447   0.403
31341SOL    HW294050   6.934   3.524   0.500
31342SOL     OW94051   5.716   3.656   1.851
31342SOL    HW194052   5.675   3.582   1.904
31342SOL    HW294053   5.780   3.707   1.909
31343SOL     OW94054   6.866   2.789   0.672
31343SOL    HW194055   6.926   2.708   0.674
31343SOL    HW294056   6.906   2.858   0.612
31344SOL     OW94057   6.416   3.135   1.422
31344SOL    HW194058   6.411   3.168   1.517
31344SOL    HW294059   6.330   3.154   1.376
31345SOL     OW94060   6.258   3.478   0.154
31345SOL    HW194061   6.267   3.488   0.055
31345SOL    HW294062   6.218   3.389   0.175
31346SOL     OW94063   7.236   3.582   1.394
31346SOL    HW194064   7.289   3.592   1.310
31346SOL    HW294065   7.209   3.672   1.428
31347SOL     OW94066   7.427   2.037   0.963
31347SOL    HW194067   7.466   1.952   0.927
31347SOL    HW294068   7.329   2.039   0.944
31348SOL     OW94069   5.849   2.188   0.720
31348SOL    HW194070   5.770   2.239   0.686
31348SOL    HW294071   5.840   2.173   0.818
31349SOL     OW94072   6.780   3.474   0.031
31349SOL    HW194073   6.786   3.381   0.068
31349SOL    HW294074   6.721   3.474  -0.049
31350SOL     OW94075   6.408   2.864   1.372
31350SOL    HW194076   6.448   2.863   1.280
31350SOL    HW294077   6.418   2.956   1.412
31351SOL     OW94078   6.502   2.772   0.291
31351SOL    HW194079   6.565   2.810   0.223
31351SOL    HW294080   6.542   2.689   0.330
31352SOL     OW94081   7.090   3.469   0.044
31352SOL    HW194082   6.998   3.506   0.051
31352SOL    HW294083   7.128   3.489  -0.046
31353SOL     OW94084   5.958   3.150   1.490
31353SOL    HW194085   5.945   3.243   1.456
31353SOL    HW294086   5.874   3.098   1.477
31354SOL     OW94087   7.200   3.154   1.289
31354SOL    HW194088   7.260   3.157   1.369
31354SOL    HW294089   7.125   3.218   1.302
31355SOL     OW94090   6.625   2.960   0.696
31355SOL    HW194091   6.555   2.913   0.750
31355SOL    HW294092   6.684   2.892   0.653
31356SOL     OW94093   6.600   2.098   0.971
31356SOL    HW194094   6.592   2.062   0.878
31356SOL    HW294095   6.598   2.022   1.036
31357SOL     OW94096   6.176   3.349   0.491
31357SOL    HW194097   6.218   3.291   0.421
31357SOL    HW294098   6.132   3.428   0.447
31358SOL     OW94099   7.295   2.247   1.381
31358SOL    HW194100   7.368   2.316   1.385
31358SOL    HW294101   7.323   2.172   1.322
31359SOL     OW94102   5.841   3.210   0.290
31359SOL    HW194103   5.745   3.211   0.263
31359SOL    HW294104   5.853   3.263   0.374
31360SOL     OW94105   5.691   2.875   1.726
31360SOL    HW194106   5.614   2.842   1.780
31360SOL    HW294107   5.776   2.845   1.768
31361SOL     OW94108   6.258   2.065   1.489
31361SOL    HW194109   6.348   2.049   1.449
31361SOL    HW294110   6.266   2.070   1.588
31362SOL     OW94111   7.026   2.718   1.398
31362SOL    HW194112   6.969   2.770   1.335
31362SOL    HW294113   7.122   2.730   1.374
31363SOL     OW94114   5.658   2.028   0.318
31363SOL    HW194115   5.641   2.111   0.264
31363SOL    HW294116   5.748   1.991   0.296
31364SOL     OW94117   6.769   3.197   0.119
31364SOL    HW194118   6.670   3.186   0.121
31364SOL    HW294119   6.803   3.212   0.212
31365SOL     OW94120   6.199   2.704   1.431
31365SOL    HW194121   6.255   2.785   1.414
31365SOL    HW294122   6.258   2.624   1.434
31366SOL     OW94123   7.079   3.629   0.959
31366SOL    HW194124   7.112   3.693   0.890
31366SOL    HW294125   7.145   3.623   1.034
31367SOL     OW94126   6.302   2.427   1.708
31367SOL    HW194127   6.321   2.492   1.782
31367SOL    HW294128   6.362   2.347   1.717
31368SOL     OW94129   7.036   3.082   1.633
31368SOL    HW194130   7.027   3.072   1.732
31368SOL    HW294131   7.132   3.075   1.607
31369SOL     OW94132   5.976   3.603   1.560
31369SOL    HW194133   5.885   3.644   1.558
31369SOL    HW294134   5.969   3.509   1.592
31370SOL     OW94135   7.260   2.745   1.254
31370SOL    HW194136   7.233   2.656   1.217
31370SOL    HW294137   7.261   2.813   1.181
31371SOL     OW94138   6.811   2.187   0.449
31371SOL    HW194139   6.876   2.113   0.438
31371SOL    HW294140   6.831   2.237   0.533
31372SOL     OW94141   6.180   2.607   0.652
31372SOL    HW194142   6.230   2.692   0.633
31372SOL    HW294143   6.092   2.609   0.604
31373SOL     OW94144   7.363   2.204   1.642
31373SOL    HW194145   7.346   2.235   1.548
31373SOL    HW294146   7.279   2.167   1.680
31374SOL     OW94147   7.316   2.796   1.517
31374SOL    HW194148   7.354   2.887   1.532
31374SOL    HW294149   7.308   2.779   1.418
31375SOL     OW94150   6.445   3.236   0.016
31375SOL    HW194151   6.399   3.251   0.104
31375SOL    HW294152   6.489   3.321  -0.014
31376SOL     OW94153   6.247   3.652   0.953
31376SOL    HW194154   6.201   3.740   0.940
31376SOL    HW294155   6.346   3.664   0.946
31377SOL     OW94156   6.445   2.818   0.861
31377SOL    HW194157   6.499   2.749   0.909
31377SOL    HW294158   6.413   2.887   0.927
31378SOL     OW94159   6.669   2.846   0.087
31378SOL    HW194160   6.646   2.899   0.005
31378SOL    HW294161   6.750   2.790   0.068
31379SOL     OW94162   7.447   3.431   0.851
31379SOL    HW194163   7.376   3.419   0.781
31379SOL    HW294164   7.448   3.352   0.911
31380SOL     OW94165   5.807   3.176   1.844
31380SOL    HW194166   5.742   3.103   1.823
31380SOL    HW294167   5.811   3.190   1.942
31381SOL     OW94168   5.665   3.102   0.653
31381SOL    HW194169   5.664   3.055   0.741
31381SOL    HW294170   5.747   3.074   0.602
31382SOL     OW94171   6.258   3.253   1.624
31382SOL    HW194172   6.180   3.203   1.662
31382SOL    HW294173   6.255   3.348   1.655
31383SOL     OW94174   7.410   2.054   1.227
31383SOL    HW194175   7.406   1.964   1.271
31383SOL    HW294176   7.413   2.043   1.128
31384SOL     OW94177   6.014   2.286   0.520
31384SOL    HW194178   6.044   2.214   0.458
31384SOL    HW294179   5.975   2.246   0.603
31385SOL     OW94180   7.291   3.349   1.104
31385SOL    HW194181   7.198   3.324   1.077
31385SOL    HW294182   7.317   3.299   1.186
31386SOL     OW94183   5.903   2.409   1.280
31386SOL    HW194184   5.941   2.350   1.352
31386SOL    HW294185   5.943   2.383   1.192
31387SOL     OW94186   6.398   3.448   0.687
31387SOL    HW194187   6.430   3.458   0.593
31387SOL    HW294188   6.319   3.386   0.689
31388SOL     OW94189   7.010   2.076   1.112
31388SOL    HW194190   7.062   2.011   1.167
31388SOL    HW294191   6.961   2.139   1.173
31389SOL     OW94192   6.587   1.896   1.154
31389SOL    HW194193   6.524   1.824   1.123
31389SOL    HW294194   6.680   1.860   1.154
31390SOL     OW94195   6.356   3.192   0.301
31390SOL    HW194196   6.310   3.105   0.318
31390SOL    HW294197   6.447   3.189   0.342
31391SOL     OW94198   6.204   3.429   1.284
31391SOL    HW194199   6.199   3.511   1.341
31391SOL    HW294200   6.293   3.426   1.239
31392SOL     OW94201   6.938   1.914   0.168
31392SOL    HW194202   6.973   1.873   0.084
31392SOL    HW294203   6.848   1.876   0.188
31393SOL     OW94204   6.886   2.315   0.691
31393SOL    HW194205   6.827   2.395   0.695
31393SOL    HW294206   6.901   2.280   0.784
31394SOL     OW94207   7.179   2.083   0.882
31394SOL    HW194208   7.095   2.082   0.936
31394SOL    HW294209   7.181   2.166   0.826
31395SOL     OW94210   5.625   2.939   0.300
31395SOL    HW194211   5.724   2.928   0.291
31395SOL    HW294212   5.585   2.853   0.332
31396SOL     OW94213   6.461   3.508   0.337
31396SOL    HW194214   6.384   3.473   0.283
31396SOL    HW294215   6.429   3.579   0.399
31397SOL     OW94216   5.816   2.490   1.975
31397SOL    HW194217   5.723   2.488   2.012
31397SOL    HW294218   5.817   2.451   1.883
31398SOL     OW94219   5.811   2.137   2.858
31398SOL    HW194220   5.846   2.120   2.950
31398SOL    HW294221   5.723   2.092   2.846
31399SOL     OW94222   5.605   2.230   2.509
31399SOL    HW194223   5.523   2.273   2.548
31399SOL    HW294224   5.577   2.157   2.446
31400SOL     OW94225   6.155   3.137   3.027
31400SOL    HW194226   6.062   3.130   2.990
31400SOL    HW294227   6.166   3.226   3.071
31401SOL     OW94228   7.141   3.373   2.565
31401SOL    HW194229   7.084   3.357   2.646
31401SOL    HW294230   7.082   3.383   2.485
31402SOL     OW94231   6.721   2.565   2.579
31402SOL    HW194232   6.778   2.643   2.554
31402SOL    HW294233   6.661   2.591   2.655
31403SOL     OW94234   7.341   2.469   2.093
31403SOL    HW194235   7.329   2.456   1.994
31403SOL    HW294236   7.311   2.388   2.142
31404SOL     OW94237   6.354   3.006   2.885
31404SOL    HW194238   6.276   3.023   2.945
31404SOL    HW294239   6.388   3.093   2.849
31405SOL     OW94240   6.436   2.660   3.685
31405SOL    HW194241   6.432   2.736   3.750
31405SOL    HW294242   6.458   2.696   3.594
31406SOL     OW94243   6.271   2.874   2.527
31406SOL    HW194244   6.340   2.858   2.597
31406SOL    HW294245   6.198   2.931   2.565
31407SOL     OW94246   6.272   3.023   3.665
31407SOL    HW194247   6.332   3.102   3.679
31407SOL    HW294248   6.186   3.054   3.624
31408SOL     OW94249   5.921   3.297   2.923
31408SOL    HW194250   5.843   3.266   2.870
31408SOL    HW294251   5.979   3.355   2.866
31409SOL     OW94252   7.046   3.367   3.201
31409SOL    HW194253   7.070   3.461   3.227
31409SOL    HW294254   7.030   3.313   3.283
31410SOL     OW94255   6.024   2.254   3.361
31410SOL    HW194256   6.106   2.198   3.370
31410SOL    HW294257   5.943   2.196   3.365
31411SOL     OW94258   7.189   2.309   2.599
31411SOL    HW194259   7.115   2.355   2.549
31411SOL    HW294260   7.240   2.377   2.652
31412SOL     OW94261   5.817   3.575   2.345
31412SOL    HW194262   5.851   3.652   2.399
31412SOL    HW294263   5.861   3.575   2.255
31413SOL     OW94264   6.713   3.203   3.552
31413SOL    HW194265   6.760   3.203   3.640
31413SOL    HW294266   6.665   3.116   3.541
31414SOL     OW94267   5.816   3.296   2.400
31414SOL    HW194268   5.790   3.392   2.400
31414SOL    HW294269   5.745   3.242   2.445
31415SOL     OW94270   5.826   2.953   2.748
31415SOL    HW194271   5.840   2.869   2.800
31415SOL    HW294272   5.771   3.017   2.803
31416SOL     OW94273   6.206   3.648   3.301
31416SOL    HW194274   6.114   3.631   3.336
31416SOL    HW294275   6.234   3.740   3.327
31417SOL     OW94276   6.192   2.826   1.985
31417SOL    HW194277   6.199   2.910   1.931
31417SOL    HW294278   6.238   2.839   2.073
31418SOL     OW94279   7.180   1.976   3.342
31418SOL    HW194280   7.162   2.043   3.270
31418SOL    HW294281   7.177   2.022   3.431
31419SOL     OW94282   5.708   2.505   2.425
31419SOL    HW194283   5.663   2.417   2.442
31419SOL    HW294284   5.707   2.559   2.509
31420SOL     OW94285   7.428   3.629   2.221
31420SOL    HW194286   7.482   3.600   2.301
31420SOL    HW294287   7.458   3.719   2.192
31421SOL     OW94288   5.613   3.458   1.979
31421SOL    HW194289   5.594   3.362   2.000
31421SOL    HW294290   5.580   3.516   2.054
31422SOL     OW94291   7.275   2.784   2.474
31422SOL    HW194292   7.370   2.755   2.482
31422SOL    HW294293   7.267   2.849   2.399
31423SOL     OW94294   7.227   2.970   2.294
31423SOL    HW194295   7.313   2.972   2.242
31423SOL    HW294296   7.241   3.017   2.382
31424SOL     OW94297   5.699   2.599   3.459
31424SOL    HW194298   5.787   2.586   3.504
31424SOL    HW294299   5.686   2.696   3.437
31425SOL     OW94300   6.199   3.227   2.588
31425SOL    HW194301   6.150   3.140   2.597
31425SOL    HW294302   6.176   3.270   2.501
31426SOL     OW94303   6.879   3.090   3.285
31426SOL    HW194304   6.916   3.017   3.227
31426SOL    HW294305   6.931   3.095   3.370
31427SOL     OW94306   6.395   1.866   2.364
31427SOL    HW194307   6.435   1.957   2.355
31427SOL    HW294308   6.295   1.874   2.370
31428SOL     OW94309   5.783   2.838   3.126
31428SOL    HW194310   5.872   2.793   3.112
31428SOL    HW294311   5.710   2.773   3.107
31429SOL     OW94312   7.111   2.861   2.052
31429SOL    HW194313   7.048   2.785   2.065
31429SOL    HW294314   7.159   2.879   2.138
31430SOL     OW94315   6.773   3.654   3.478
31430SOL    HW194316   6.797   3.714   3.402
31430SOL    HW294317   6.780   3.559   3.448
31431SOL     OW94318   5.903   2.113   3.663
31431SOL    HW194319   5.974   2.184   3.669
31431SOL    HW294320   5.815   2.152   3.691
31432SOL     OW94321   7.052   3.279   2.815
31432SOL    HW194322   6.993   3.285   2.895
31432SOL    HW294323   7.037   3.191   2.769
31433SOL     OW94324   7.253   3.576   2.434
31433SOL    HW194325   7.212   3.553   2.346
31433SOL    HW294326   7.235   3.502   2.499
31434SOL     OW94327   6.184   2.591   2.132
31434SOL    HW194328   6.208   2.660   2.064
31434SOL    HW294329   6.106   2.624   2.186
31435SOL     OW94330   6.867   2.207   2.806
31435SOL    HW194331   6.781   2.157   2.793
31435SOL    HW294332   6.929   2.153   2.862
31436SOL     OW94333   7.162   3.524   2.169
31436SOL    HW194334   7.251   3.570   2.172
31436SOL    HW294335   7.141   3.500   2.074
31437SOL     OW94336   6.393   2.467   3.327
31437SOL    HW194337   6.346   2.464   3.416
31437SOL    HW294338   6.342   2.412   3.261
31438SOL     OW94339   6.980   2.331   3.536
31438SOL    HW194340   6.960   2.374   3.624
31438SOL    HW294341   7.058   2.269   3.545
31439SOL     OW94342   6.559   2.752   3.434
31439SOL    HW194343   6.605   2.668   3.405
31439SOL    HW294344   6.503   2.786   3.359
31440SOL     OW94345   6.577   2.272   3.104
31440SOL    HW194346   6.500   2.306   3.158
31440SOL    HW294347   6.543   2.221   3.025
31441SOL     OW94348   6.627   2.563   2.291
31441SOL    HW194349   6.653   2.559   2.387
31441SOL    HW294350   6.542   2.512   2.277
31442SOL     OW94351   5.662   2.673   2.651
31442SOL    HW194352   5.761   2.661   2.660
31442SOL    HW294353   5.638   2.768   2.672
31443SOL     OW94354   5.716   3.683   3.433
31443SOL    HW194355   5.706   3.668   3.532
31443SOL    HW294356   5.630   3.719   3.397
31444SOL     OW94357   6.451   2.210   2.057
31444SOL    HW194358   6.510   2.273   2.008
31444SOL    HW294359   6.470   2.116   2.028
31445SOL     OW94360   7.305   2.447   3.693
31445SOL    HW194361   7.279   2.536   3.657
31445SOL    HW294362   7.303   2.379   3.620
31446SOL     OW94363   6.948   3.006   2.407
31446SOL    HW194364   7.031   2.977   2.359
31446SOL    HW294365   6.899   3.073   2.351
31447SOL     OW94366   6.136   2.058   2.747
31447SOL    HW194367   6.131   2.053   2.847
31447SOL    HW294368   6.138   2.154   2.718
31448SOL     OW94369   6.594   3.318   2.339
31448SOL    HW194370   6.548   3.390   2.287
31448SOL    HW294371   6.590   3.338   2.437
31449SOL     OW94372   5.937   3.663   2.715
31449SOL    HW194373   5.987   3.577   2.721
31449SOL    HW294374   6.002   3.740   2.712
31450SOL     OW94375   7.381   2.928   2.735
31450SOL    HW194376   7.319   2.913   2.659
31450SOL    HW294377   7.329   2.939   2.820
31451SOL     OW94378   6.813   3.412   3.368
31451SOL    HW194379   6.819   3.335   3.432
31451SOL    HW294380   6.761   3.386   3.288
31452SOL     OW94381   5.907   2.805   2.104
31452SOL    HW194382   5.989   2.844   2.062
31452SOL    HW294383   5.880   2.723   2.055
31453SOL     OW94384   7.044   2.597   2.590
31453SOL    HW194385   7.039   2.532   2.665
31453SOL    HW294386   7.124   2.656   2.603
31454SOL     OW94387   6.047   3.128   3.589
31454SOL    HW194388   5.997   3.129   3.503
31454SOL    HW294389   5.984   3.110   3.665
31455SOL     OW94390   6.697   3.638   2.099
31455SOL    HW194391   6.637   3.576   2.149
31455SOL    HW294392   6.728   3.594   2.014
31456SOL     OW94393   5.788   2.147   3.360
31456SOL    HW194394   5.708   2.207   3.347
31456SOL    HW294395   5.778   2.098   3.446
31457SOL     OW94396   7.218   3.239   1.943
31457SOL    HW194397   7.186   3.333   1.933
31457SOL    HW294398   7.142   3.176   1.931
31458SOL     OW94399   6.050   3.605   2.185
31458SOL    HW194400   6.083   3.644   2.271
31458SOL    HW294401   6.126   3.598   2.120
31459SOL     OW94402   6.986   1.969   2.288
31459SOL    HW194403   6.962   1.932   2.198
31459SOL    HW294404   7.085   1.985   2.292
31460SOL     OW94405   5.835   3.647   3.103
31460SOL    HW194406   5.892   3.582   3.153
31460SOL    HW294407   5.819   3.614   3.010
31461SOL     OW94408   6.526   3.560   2.766
31461SOL    HW194409   6.606   3.503   2.787
31461SOL    HW294410   6.477   3.520   2.689
31462SOL     OW94411   5.968   2.562   2.342
31462SOL    HW194412   6.013   2.472   2.339
31462SOL    HW294413   5.874   2.551   2.375
31463SOL     OW94414   7.133   2.084   3.591
31463SOL    HW194415   7.128   2.121   3.683
31463SOL    HW294416   7.061   2.015   3.579
31464SOL     OW94417   6.200   1.984   1.979
31464SOL    HW194418   6.298   1.962   1.986
31464SOL    HW294419   6.169   1.967   1.886
31465SOL     OW94420   6.367   2.126   3.611
31465SOL    HW194421   6.434   2.065   3.654
31465SOL    HW294422   6.294   2.145   3.676
31466SOL     OW94423   6.474   3.376   3.057
31466SOL    HW194424   6.451   3.351   2.963
31466SOL    HW294425   6.535   3.307   3.096
31467SOL     OW94426   6.937   2.452   3.295
31467SOL    HW194427   6.965   2.409   3.380
31467SOL    HW294428   6.962   2.548   3.296
31468SOL     OW94429   6.389   3.264   2.786
31468SOL    HW194430   6.479   3.278   2.744
31468SOL    HW294431   6.318   3.266   2.715
31469SOL     OW94432   6.508   2.365   2.761
31469SOL    HW194433   6.483   2.356   2.665
31469SOL    HW294434   6.556   2.283   2.792
31470SOL     OW94435   6.125   1.926   2.374
31470SOL    HW194436   6.044   1.927   2.432
31470SOL    HW294437   6.128   2.009   2.319
31471SOL     OW94438   7.020   3.050   1.903
31471SOL    HW194439   7.052   2.974   1.960
31471SOL    HW294440   6.928   3.077   1.933
31472SOL     OW94441   5.883   1.897   2.033
31472SOL    HW194442   5.932   1.981   2.012
31472SOL    HW294443   5.945   1.832   2.078
31473SOL     OW94444   6.521   2.098   2.342
31473SOL    HW194445   6.473   2.139   2.264
31473SOL    HW294446   6.620   2.096   2.323
31474SOL     OW94447   6.662   2.545   3.326
31474SOL    HW194448   6.582   2.484   3.329
31474SOL    HW294449   6.743   2.492   3.302
31475SOL     OW94450   6.813   3.432   2.655
31475SOL    HW194451   6.834   3.506   2.590
31475SOL    HW294452   6.881   3.432   2.728
31476SOL     OW94453   6.045   3.014   2.603
31476SOL    HW194454   5.974   2.987   2.668
31476SOL    HW294455   6.019   2.986   2.510
31477SOL     OW94456   6.857   3.659   2.453
31477SOL    HW194457   6.901   3.723   2.389
31477SOL    HW294458   6.807   3.711   2.523
31478SOL     OW94459   6.618   2.411   1.878
31478SOL    HW194460   6.577   2.493   1.839
31478SOL    HW294461   6.682   2.437   1.951
31479SOL     OW94462   5.664   2.418   3.248
31479SOL    HW194463   5.756   2.417   3.207
31479SOL    HW294464   5.658   2.492   3.315
31480SOL     OW94465   6.147   2.084   3.009
31480SOL    HW194466   6.185   2.000   3.046
31480SOL    HW294467   6.059   2.103   3.053
31481SOL     OW94468   6.452   2.316   2.504
31481SOL    HW194469   6.420   2.388   2.442
31481SOL    HW294470   6.476   2.235   2.451
31482SOL     OW94471   6.603   1.901   2.615
31482SOL    HW194472   6.531   1.906   2.546
31482SOL    HW294473   6.579   1.832   2.684
31483SOL     OW94474   7.015   3.035   2.729
31483SOL    HW194475   6.960   2.951   2.722
31483SOL    HW294476   7.041   3.064   2.637
31484SOL     OW94477   7.052   2.452   2.854
31484SOL    HW194478   7.022   2.357   2.861
31484SOL    HW294479   7.125   2.468   2.920
31485SOL     OW94480   7.443   2.695   2.239
31485SOL    HW194481   7.485   2.631   2.303
31485SOL    HW294482   7.405   2.644   2.161
31486SOL     OW94483   6.074   3.247   2.036
31486SOL    HW194484   5.987   3.232   2.083
31486SOL    HW294485   6.057   3.273   1.941
31487SOL     OW94486   7.250   3.142   2.519
31487SOL    HW194487   7.349   3.150   2.533
31487SOL    HW294488   7.205   3.226   2.550
31488SOL     OW94489   6.976   2.437   1.940
31488SOL    HW194490   6.922   2.416   2.021
31488SOL    HW294491   7.067   2.396   1.949
31489SOL     OW94492   6.113   2.118   2.190
31489SOL    HW194493   6.140   2.059   2.115
31489SOL    HW294494   6.113   2.213   2.159
31490SOL     OW94495   7.340   3.085   3.450
31490SOL    HW194496   7.431   3.046   3.437
31490SOL    HW294497   7.348   3.181   3.474
31491SOL     OW94498   6.650   3.209   3.202
31491SOL    HW194499   6.570   3.186   3.257
31491SOL    HW294500   6.733   3.183   3.251
31492SOL     OW94501   7.178   3.491   3.487
31492SOL    HW194502   7.205   3.525   3.397
31492SOL    HW294503   7.257   3.453   3.533
31493SOL     OW94504   6.697   3.057   2.962
31493SOL    HW194505   6.657   3.101   3.043
31493SOL    HW294506   6.656   3.094   2.879
31494SOL     OW94507   7.224   2.961   2.941
31494SOL    HW194508   7.229   3.042   3.000
31494SOL    HW294509   7.138   2.963   2.890
31495SOL     OW94510   6.501   1.951   3.264
31495SOL    HW194511   6.526   1.931   3.169
31495SOL    HW294512   6.573   2.007   3.306
31496SOL     OW94513   6.566   2.978   3.581
31496SOL    HW194514   6.467   2.984   3.591
31496SOL    HW294515   6.589   2.898   3.525
31497SOL     OW94516   6.291   2.912   2.230
31497SOL    HW194517   6.277   2.919   2.329
31497SOL    HW294518   6.375   2.861   2.212
31498SOL     OW94519   5.996   2.675   3.113
31498SOL    HW194520   6.082   2.687   3.163
31498SOL    HW294521   5.954   2.588   3.140
31499SOL     OW94522   6.860   2.248   3.124
31499SOL    HW194523   6.881   2.322   3.188
31499SOL    HW294524   6.771   2.265   3.081
31500SOL     OW94525   5.650   3.426   3.193
31500SOL    HW194526   5.604   3.508   3.159
31500SOL    HW294527   5.748   3.445   3.202
31501SOL     OW94528   5.953   2.962   2.363
31501SOL    HW194529   5.946   3.045   2.307
31501SOL    HW294530   5.957   2.882   2.303
31502SOL     OW94531   6.152   2.399   2.727
31502SOL    HW194532   6.164   2.465   2.653
31502SOL    HW294533   6.198   2.433   2.810
31503SOL     OW94534   6.838   3.210   2.250
31503SOL    HW194535   6.888   3.287   2.290
31503SOL    HW294536   6.743   3.212   2.282
31504SOL     OW94537   6.858   3.307   3.004
31504SOL    HW194538   6.905   3.320   3.091
31504SOL    HW294539   6.792   3.233   3.013
31505SOL     OW94540   7.168   2.501   2.334
31505SOL    HW194541   7.137   2.562   2.407
31505SOL    HW294542   7.218   2.553   2.265
31506SOL     OW94543   5.940   3.372   3.191
31506SOL    HW194544   5.919   3.328   3.104
31506SOL    HW294545   6.037   3.398   3.194
31507SOL     OW94546   5.988   2.613   3.460
31507SOL    HW194547   6.056   2.668   3.413
31507SOL    HW294548   6.028   2.525   3.487
31508SOL     OW94549   7.173   2.641   3.532
31508SOL    HW194550   7.081   2.679   3.527
31508SOL    HW294551   7.233   2.688   3.467
31509SOL     OW94552   6.599   1.967   3.632
31509SOL    HW194553   6.605   2.052   3.580
31509SOL    HW294554   6.631   1.891   3.575
31510SOL     OW94555   6.090   1.912   3.602
31510SOL    HW194556   6.048   1.855   3.532
31510SOL    HW294557   6.024   1.981   3.634
31511SOL     OW94558   6.159   2.732   2.891
31511SOL    HW194559   6.203   2.821   2.882
31511SOL    HW294560   6.096   2.732   2.968
31512SOL     OW94561   6.946   2.724   2.907
31512SOL    HW194562   6.871   2.724   2.841
31512SOL    HW294563   6.983   2.632   2.916
31513SOL     OW94564   6.795   2.387   2.137
31513SOL    HW194565   6.808   2.303   2.191
31513SOL    HW294566   6.766   2.461   2.197
31514SOL     OW94567   5.893   2.075   3.093
31514SOL    HW194568   5.870   2.112   3.183
31514SOL    HW294569   5.863   1.980   3.087
31515SOL     OW94570   5.623   3.172   3.144
31515SOL    HW194571   5.676   3.123   3.212
31515SOL    HW294572   5.645   3.270   3.149
31516SOL     OW94573   6.318   2.496   2.926
31516SOL    HW194574   6.377   2.470   2.850
31516SOL    HW294575   6.290   2.592   2.915
31517SOL     OW94576   7.314   2.797   3.716
31517SOL    HW194577   7.268   2.790   3.627
31517SOL    HW294578   7.252   2.841   3.782
31518SOL     OW94579   5.893   1.925   2.480
31518SOL    HW194580   5.882   2.019   2.513
31518SOL    HW294581   5.888   1.862   2.557
31519SOL     OW94582   7.208   2.229   2.236
31519SOL    HW194583   7.210   2.153   2.300
31519SOL    HW294584   7.160   2.306   2.276
31520SOL     OW94585   6.609   2.628   2.828
31520SOL    HW194586   6.624   2.649   2.924
31520SOL    HW294587   6.579   2.533   2.819
31521SOL     OW94588   6.566   3.435   3.562
31521SOL    HW194589   6.546   3.479   3.474
31521SOL    HW294590   6.605   3.344   3.546
31522SOL     OW94591   7.445   3.380   3.467
31522SOL    HW194592   7.459   3.407   3.372
31522SOL    HW294593   7.528   3.402   3.520
31523SOL     OW94594   5.936   2.760   3.666
31523SOL    HW194595   6.012   2.804   3.714
31523SOL    HW294596   5.971   2.713   3.584
31524SOL     OW94597   7.126   2.136   1.987
31524SOL    HW194598   7.065   2.061   2.010
31524SOL    HW294599   7.148   2.188   2.070
31525SOL     OW94600   6.889   2.700   1.904
31525SOL    HW194601   6.923   2.607   1.919
31525SOL    HW294602   6.907   2.727   1.809
31526SOL     OW94603   6.654   3.195   2.711
31526SOL    HW194604   6.661   3.111   2.656
31526SOL    HW294605   6.716   3.264   2.675
31527SOL     OW94606   5.905   2.672   2.811
31527SOL    HW194607   5.998   2.708   2.816
31527SOL    HW294608   5.899   2.587   2.863
31528SOL     OW94609   5.925   2.371   2.868
31528SOL    HW194610   5.873   2.288   2.851
31528SOL    HW294611   6.002   2.376   2.804
31529SOL     OW94612   6.724   2.242   3.540
31529SOL    HW194613   6.679   2.305   3.604
31529SOL    HW294614   6.817   2.273   3.523
31530SOL     OW94615   6.746   2.069   3.339
31530SOL    HW194616   6.746   2.133   3.416
31530SOL    HW294617   6.774   2.117   3.256
31531SOL     OW94618   5.594   3.188   2.062
31531SOL    HW194619   5.501   3.209   2.031
31531SOL    HW294620   5.604   3.089   2.075
31532SOL     OW94621   5.674   3.663   2.789
31532SOL    HW194622   5.632   3.577   2.762
31532SOL    HW294623   5.768   3.666   2.755
31533SOL     OW94624   6.090   3.430   2.772
31533SOL    HW194625   6.156   3.504   2.781
31533SOL    HW294626   6.134   3.351   2.730
31534SOL     OW94627   6.588   2.658   3.100
31534SOL    HW194628   6.629   2.626   3.186
31534SOL    HW294629   6.492   2.631   3.097
31535SOL     OW94630   5.626   2.406   2.976
31535SOL    HW194631   5.711   2.373   2.935
31535SOL    HW294632   5.639   2.421   3.074
31536SOL     OW94633   5.775   2.382   3.584
31536SOL    HW194634   5.834   2.342   3.514
31536SOL    HW294635   5.717   2.453   3.543
31537SOL     OW94636   6.955   2.812   3.522
31537SOL    HW194637   6.994   2.901   3.542
31537SOL    HW294638   6.965   2.792   3.425
31538SOL     OW94639   6.401   2.434   2.187
31538SOL    HW194640   6.408   2.345   2.141
31538SOL    HW294641   6.307   2.468   2.179
31539SOL     OW94642   7.243   2.466   3.068
31539SOL    HW194643   7.205   2.397   3.130
31539SOL    HW294644   7.325   2.430   3.024
31540SOL     OW94645   5.838   3.426   3.606
31540SOL    HW194646   5.808   3.483   3.682
31540SOL    HW294647   5.831   3.329   3.632
31541SOL     OW94648   6.257   2.326   3.131
31541SOL    HW194649   6.223   2.237   3.101
31541SOL    HW294650   6.283   2.380   3.051
31542SOL     OW94651   6.516   3.540   3.327
31542SOL    HW194652   6.492   3.522   3.232
31542SOL    HW294653   6.546   3.634   3.337
31543SOL     OW94654   6.059   2.362   2.053
31543SOL    HW194655   6.120   2.442   2.057
31543SOL    HW294656   5.964   2.393   2.060
31544SOL     OW94657   5.745   2.999   3.328
31544SOL    HW194658   5.767   2.938   3.404
31544SOL    HW294659   5.755   2.950   3.242
31545SOL     OW94660   6.933   2.921   3.096
31545SOL    HW194661   6.957   2.858   3.022
31545SOL    HW294662   6.843   2.961   3.078
31546SOL     OW94663   6.888   2.717   2.171
31546SOL    HW194664   6.802   2.686   2.213
31546SOL    HW294665   6.884   2.703   2.072
31547SOL     OW94666   7.345   3.609   3.016
31547SOL    HW194667   7.406   3.639   2.943
31547SOL    HW294668   7.307   3.520   2.994
31548SOL     OW94669   6.838   3.593   2.990
31548SOL    HW194670   6.922   3.598   2.936
31548SOL    HW294671   6.815   3.497   3.008
31549SOL     OW94672   5.669   3.120   2.884
31549SOL    HW194673   5.664   3.119   2.984
31549SOL    HW294674   5.586   3.079   2.846
31550SOL     OW94675   6.274   3.524   3.578
31550SOL    HW194676   6.218   3.605   3.587
31550SOL    HW294677   6.326   3.528   3.492
31551SOL     OW94678   7.312   1.997   2.385
31551SOL    HW194679   7.385   1.980   2.318
31551SOL    HW294680   7.281   1.910   2.423
31552SOL     OW94681   6.974   3.435   2.339
31552SOL    HW194682   7.041   3.447   2.265
31552SOL    HW294683   6.934   3.524   2.362
31553SOL     OW94684   5.716   3.656   3.713
31553SOL    HW194685   5.675   3.582   3.766
31553SOL    HW294686   5.780   3.707   3.771
31554SOL     OW94687   6.866   2.789   2.534
31554SOL    HW194688   6.926   2.708   2.536
31554SOL    HW294689   6.906   2.858   2.474
31555SOL     OW94690   6.416   3.135   3.284
31555SOL    HW194691   6.411   3.168   3.379
31555SOL    HW294692   6.330   3.154   3.238
31556SOL     OW94693   6.258   3.478   2.016
31556SOL    HW194694   6.267   3.488   1.917
31556SOL    HW294695   6.218   3.389   2.037
31557SOL     OW94696   7.236   3.582   3.256
31557SOL    HW194697   7.289   3.592   3.172
31557SOL    HW294698   7.209   3.672   3.290
31558SOL     OW94699   7.427   2.037   2.825
31558SOL    HW194700   7.466   1.952   2.789
31558SOL    HW294701   7.329   2.039   2.806
31559SOL     OW94702   5.849   2.188   2.582
31559SOL    HW194703   5.770   2.239   2.548
31559SOL    HW294704   5.840   2.173   2.680
31560SOL     OW94705   6.780   3.474   1.893
31560SOL    HW194706   6.786   3.381   1.930
31560SOL    HW294707   6.721   3.474   1.813
31561SOL     OW94708   6.408   2.864   3.234
31561SOL    HW194709   6.448   2.863   3.142
31561SOL    HW294710   6.418   2.956   3.274
31562SOL     OW94711   6.502   2.772   2.153
31562SOL    HW194712   6.565   2.810   2.085
31562SOL    HW294713   6.542   2.689   2.192
31563SOL     OW94714   7.090   3.469   1.906
31563SOL    HW194715   6.998   3.506   1.913
31563SOL    HW294716   7.128   3.489   1.816
31564SOL     OW94717   5.958   3.150   3.352
31564SOL    HW194718   5.945   3.243   3.318
31564SOL    HW294719   5.874   3.098   3.339
31565SOL     OW94720   7.200   3.154   3.151
31565SOL    HW194721   7.260   3.157   3.231
31565SOL    HW294722   7.125   3.218   3.164
31566SOL     OW94723   6.625   2.960   2.558
31566SOL    HW194724   6.555   2.913   2.612
31566SOL    HW294725   6.684   2.892   2.515
31567SOL     OW94726   6.600   2.098   2.833
31567SOL    HW194727   6.592   2.062   2.740
31567SOL    HW294728   6.598   2.022   2.898
31568SOL     OW94729   6.176   3.349   2.353
31568SOL    HW194730   6.218   3.291   2.283
31568SOL    HW294731   6.132   3.428   2.309
31569SOL     OW94732   7.295   2.247   3.243
31569SOL    HW194733   7.368   2.316   3.247
31569SOL    HW294734   7.323   2.172   3.184
31570SOL     OW94735   5.841   3.210   2.152
31570SOL    HW194736   5.745   3.211   2.125
31570SOL    HW294737   5.853   3.263   2.236
31571SOL     OW94738   5.691   2.875   3.588
31571SOL    HW194739   5.614   2.842   3.642
31571SOL    HW294740   5.776   2.845   3.630
31572SOL     OW94741   6.258   2.065   3.351
31572SOL    HW194742   6.348   2.049   3.311
31572SOL    HW294743   6.266   2.070   3.450
31573SOL     OW94744   5.661   2.207   1.895
31573SOL    HW194745   5.569   2.179   1.866
31573SOL    HW294746   5.692   2.284   1.839
31574SOL     OW94747   7.026   2.718   3.260
31574SOL    HW194748   6.969   2.770   3.197
31574SOL    HW294749   7.122   2.730   3.236
31575SOL     OW94750   5.658   2.028   2.180
31575SOL    HW194751   5.641   2.111   2.126
31575SOL    HW294752   5.748   1.991   2.158
31576SOL     OW94753   6.769   3.197   1.981
31576SOL    HW194754   6.670   3.186   1.983
31576SOL    HW294755   6.803   3.212   2.074
31577SOL     OW94756   6.199   2.704   3.293
31577SOL    HW194757   6.255   2.785   3.276
31577SOL    HW294758   6.258   2.624   3.296
31578SOL     OW94759   7.079   3.629   2.821
31578SOL    HW194760   7.112   3.693   2.752
31578SOL    HW294761   7.145   3.623   2.896
31579SOL     OW94762   6.302   2.427   3.570
31579SOL    HW194763   6.321   2.492   3.644
31579SOL    HW294764   6.362   2.347   3.579
31580SOL     OW94765   7.036   3.082   3.495
31580SOL    HW194766   7.027   3.072   3.594
31580SOL    HW294767   7.132   3.075   3.469
31581SOL     OW94768   5.976   3.603   3.422
31581SOL    HW194769   5.885   3.644   3.420
31581SOL    HW294770   5.969   3.509   3.454
31582SOL     OW94771   7.260   2.745   3.116
31582SOL    HW194772   7.233   2.656   3.079
31582SOL    HW294773   7.261   2.813   3.043
31583SOL     OW94774   6.811   2.187   2.311
31583SOL    HW194775   6.876   2.113   2.300
31583SOL    HW294776   6.831   2.237   2.395
31584SOL     OW94777   6.180   2.607   2.514
31584SOL    HW194778   6.230   2.692   2.495
31584SOL    HW294779   6.092   2.609   2.466
31585SOL     OW94780   7.363   2.204   3.504
31585SOL    HW194781   7.346   2.235   3.410
31585SOL    HW294782   7.279   2.167   3.542
31586SOL     OW94783   7.316   2.796   3.379
31586SOL    HW194784   7.354   2.887   3.394
31586SOL    HW294785   7.308   2.779   3.280
31587SOL     OW94786   6.445   3.236   1.878
31587SOL    HW194787   6.399   3.251   1.966
31587SOL    HW294788   6.489   3.321   1.848
31588SOL     OW94789   6.247   3.652   2.815
31588SOL    HW194790   6.201   3.740   2.802
31588SOL    HW294791   6.346   3.664   2.808
31589SOL     OW94792   6.445   2.818   2.723
31589SOL    HW194793   6.499   2.749   2.771
31589SOL    HW294794   6.413   2.887   2.789
31590SOL     OW94795   6.669   2.846   1.949
31590SOL    HW194796   6.646   2.899   1.867
31590SOL    HW294797   6.750   2.790   1.930
31591SOL     OW94798   7.447   3.431   2.713
31591SOL    HW194799   7.376   3.419   2.643
31591SOL    HW294800   7.448   3.352   2.773
31592SOL     OW94801   5.807   3.176   3.706
31592SOL    HW194802   5.742   3.103   3.685
31592SOL    HW294803   5.811   3.190   3.804
31593SOL     OW94804   5.665   3.102   2.515
31593SOL    HW194805   5.664   3.055   2.603
31593SOL    HW294806   5.747   3.074   2.464
31594SOL     OW94807   6.258   3.253   3.486
31594SOL    HW194808   6.180   3.203   3.524
31594SOL    HW294809   6.255   3.348   3.517
31595SOL     OW94810   7.410   2.054   3.089
31595SOL    HW194811   7.406   1.964   3.133
31595SOL    HW294812   7.413   2.043   2.990
31596SOL     OW94813   6.014   2.286   2.382
31596SOL    HW194814   6.044   2.214   2.320
31596SOL    HW294815   5.975   2.246   2.465
31597SOL     OW94816   7.291   3.349   2.966
31597SOL    HW194817   7.198   3.324   2.939
31597SOL    HW294818   7.317   3.299   3.048
31598SOL     OW94819   5.903   2.409   3.142
31598SOL    HW194820   5.941   2.350   3.214
31598SOL    HW294821   5.943   2.383   3.054
31599SOL     OW94822   6.398   3.448   2.549
31599SOL    HW194823   6.430   3.458   2.455
31599SOL    HW294824   6.319   3.386   2.551
31600SOL     OW94825   7.010   2.076   2.974
31600SOL    HW194826   7.062   2.011   3.029
31600SOL    HW294827   6.961   2.139   3.035
31601SOL     OW94828   6.587   1.896   3.016
31601SOL    HW194829   6.524   1.824   2.985
31601SOL    HW294830   6.680   1.860   3.016
31602SOL     OW94831   6.356   3.192   2.163
31602SOL    HW194832   6.310   3.105   2.180
31602SOL    HW294833   6.447   3.189   2.204
31603SOL     OW94834   6.204   3.429   3.146
31603SOL    HW194835   6.199   3.511   3.203
31603SOL    HW294836   6.293   3.426   3.101
31604SOL     OW94837   6.938   1.914   2.030
31604SOL    HW194838   6.973   1.873   1.946
31604SOL    HW294839   6.848   1.876   2.050
31605SOL     OW94840   6.886   2.315   2.553
31605SOL    HW194841   6.827   2.395   2.557
31605SOL    HW294842   6.901   2.280   2.646
31606SOL     OW94843   7.179   2.083   2.744
31606SOL    HW194844   7.095   2.082   2.798
31606SOL    HW294845   7.181   2.166   2.688
31607SOL     OW94846   5.625   2.939   2.162
31607SOL    HW194847   5.724   2.928   2.153
31607SOL    HW294848   5.585   2.853   2.194
31608SOL     OW94849   6.461   3.508   2.199
31608SOL    HW194850   6.384   3.473   2.145
31608SOL    HW294851   6.429   3.579   2.261
31609SOL     OW94852   5.816   2.490   3.837
31609SOL    HW194853   5.723   2.488   3.874
31609SOL    HW294854   5.817   2.451   3.745
31610SOL     OW94855   5.811   2.137   4.720
31610SOL    HW194856   5.846   2.120   4.812
31610SOL    HW294857   5.723   2.092   4.708
31611SOL     OW94858   5.605   2.230   4.371
31611SOL    HW194859   5.523   2.273   4.410
31611SOL    HW294860   5.577   2.157   4.308
31612SOL     OW94861   6.155   3.137   4.889
31612SOL    HW194862   6.062   3.130   4.852
31612SOL    HW294863   6.166   3.226   4.933
31613SOL     OW94864   7.141   3.373   4.427
31613SOL    HW194865   7.084   3.357   4.508
31613SOL    HW294866   7.082   3.383   4.347
31614SOL     OW94867   6.721   2.565   4.441
31614SOL    HW194868   6.778   2.643   4.416
31614SOL    HW294869   6.661   2.591   4.517
31615SOL     OW94870   7.341   2.469   3.955
31615SOL    HW194871   7.329   2.456   3.856
31615SOL    HW294872   7.311   2.388   4.004
31616SOL     OW94873   6.354   3.006   4.747
31616SOL    HW194874   6.276   3.023   4.807
31616SOL    HW294875   6.388   3.093   4.711
31617SOL     OW94876   6.436   2.660   5.547
31617SOL    HW194877   6.432   2.736   5.612
31617SOL    HW294878   6.458   2.696   5.456
31618SOL     OW94879   6.271   2.874   4.389
31618SOL    HW194880   6.340   2.858   4.459
31618SOL    HW294881   6.198   2.931   4.427
31619SOL     OW94882   6.272   3.023   5.527
31619SOL    HW194883   6.332   3.102   5.541
31619SOL    HW294884   6.186   3.054   5.486
31620SOL     OW94885   5.921   3.297   4.785
31620SOL    HW194886   5.843   3.266   4.732
31620SOL    HW294887   5.979   3.355   4.728
31621SOL     OW94888   7.046   3.367   5.063
31621SOL    HW194889   7.070   3.461   5.089
31621SOL    HW294890   7.030   3.313   5.145
31622SOL     OW94891   6.024   2.254   5.223
31622SOL    HW194892   6.106   2.198   5.232
31622SOL    HW294893   5.943   2.196   5.227
31623SOL     OW94894   7.189   2.309   4.461
31623SOL    HW194895   7.115   2.355   4.411
31623SOL    HW294896   7.240   2.377   4.514
31624SOL     OW94897   5.817   3.575   4.207
31624SOL    HW194898   5.851   3.652   4.261
31624SOL    HW294899   5.861   3.575   4.117
31625SOL     OW94900   6.713   3.203   5.414
31625SOL    HW194901   6.760   3.203   5.502
31625SOL    HW294902   6.665   3.116   5.403
31626SOL     OW94903   5.816   3.296   4.262
31626SOL    HW194904   5.790   3.392   4.262
31626SOL    HW294905   5.745   3.242   4.307
31627SOL     OW94906   5.826   2.953   4.610
31627SOL    HW194907   5.840   2.869   4.662
31627SOL    HW294908   5.771   3.017   4.665
31628SOL     OW94909   6.206   3.648   5.163
31628SOL    HW194910   6.114   3.631   5.198
31628SOL    HW294911   6.234   3.740   5.189
31629SOL     OW94912   6.192   2.826   3.847
31629SOL    HW194913   6.199   2.910   3.793
31629SOL    HW294914   6.238   2.839   3.935
31630SOL     OW94915   7.180   1.976   5.204
31630SOL    HW194916   7.162   2.043   5.132
31630SOL    HW294917   7.177   2.022   5.293
31631SOL     OW94918   5.708   2.505   4.287
31631SOL    HW194919   5.663   2.417   4.304
31631SOL    HW294920   5.707   2.559   4.371
31632SOL     OW94921   7.428   3.629   4.083
31632SOL    HW194922   7.482   3.600   4.163
31632SOL    HW294923   7.458   3.719   4.054
31633SOL     OW94924   5.613   3.458   3.841
31633SOL    HW194925   5.594   3.362   3.862
31633SOL    HW294926   5.580   3.516   3.916
31634SOL     OW94927   7.275   2.784   4.336
31634SOL    HW194928   7.370   2.755   4.344
31634SOL    HW294929   7.267   2.849   4.261
31635SOL     OW94930   7.227   2.970   4.156
31635SOL    HW194931   7.313   2.972   4.104
31635SOL    HW294932   7.241   3.017   4.244
31636SOL     OW94933   5.699   2.599   5.321
31636SOL    HW194934   5.787   2.586   5.366
31636SOL    HW294935   5.686   2.696   5.299
31637SOL     OW94936   6.199   3.227   4.450
31637SOL    HW194937   6.150   3.140   4.459
31637SOL    HW294938   6.176   3.270   4.363
31638SOL     OW94939   6.879   3.090   5.147
31638SOL    HW194940   6.916   3.017   5.089
31638SOL    HW294941   6.931   3.095   5.232
31639SOL     OW94942   6.395   1.866   4.226
31639SOL    HW194943   6.435   1.957   4.217
31639SOL    HW294944   6.295   1.874   4.232
31640SOL     OW94945   5.783   2.838   4.988
31640SOL    HW194946   5.872   2.793   4.974
31640SOL    HW294947   5.710   2.773   4.969
31641SOL     OW94948   7.111   2.861   3.914
31641SOL    HW194949   7.048   2.785   3.927
31641SOL    HW294950   7.159   2.879   4.000
31642SOL     OW94951   6.773   3.654   5.340
31642SOL    HW194952   6.797   3.714   5.264
31642SOL    HW294953   6.780   3.559   5.310
31643SOL     OW94954   5.903   2.113   5.525
31643SOL    HW194955   5.974   2.184   5.531
31643SOL    HW294956   5.815   2.152   5.553
31644SOL     OW94957   7.052   3.279   4.677
31644SOL    HW194958   6.993   3.285   4.757
31644SOL    HW294959   7.037   3.191   4.631
31645SOL     OW94960   7.253   3.576   4.296
31645SOL    HW194961   7.212   3.553   4.208
31645SOL    HW294962   7.235   3.502   4.361
31646SOL     OW94963   6.184   2.591   3.994
31646SOL    HW194964   6.208   2.660   3.926
31646SOL    HW294965   6.106   2.624   4.048
31647SOL     OW94966   6.867   2.207   4.668
31647SOL    HW194967   6.781   2.157   4.655
31647SOL    HW294968   6.929   2.153   4.724
31648SOL     OW94969   7.162   3.524   4.031
31648SOL    HW194970   7.251   3.570   4.034
31648SOL    HW294971   7.141   3.500   3.936
31649SOL     OW94972   6.393   2.467   5.189
31649SOL    HW194973   6.346   2.464   5.278
31649SOL    HW294974   6.342   2.412   5.123
31650SOL     OW94975   6.980   2.331   5.398
31650SOL    HW194976   6.960   2.374   5.486
31650SOL    HW294977   7.058   2.269   5.407
31651SOL     OW94978   6.559   2.752   5.296
31651SOL    HW194979   6.605   2.668   5.267
31651SOL    HW294980   6.503   2.786   5.221
31652SOL     OW94981   6.577   2.272   4.966
31652SOL    HW194982   6.500   2.306   5.020
31652SOL    HW294983   6.543   2.221   4.887
31653SOL     OW94984   6.627   2.563   4.153
31653SOL    HW194985   6.653   2.559   4.249
31653SOL    HW294986   6.542   2.512   4.139
31654SOL     OW94987   5.662   2.673   4.513
31654SOL    HW194988   5.761   2.661   4.522
31654SOL    HW294989   5.638   2.768   4.534
31655SOL     OW94990   5.716   3.683   5.295
31655SOL    HW194991   5.706   3.668   5.394
31655SOL    HW294992   5.630   3.719   5.259
31656SOL     OW94993   6.451   2.210   3.919
31656SOL    HW194994   6.510   2.273   3.870
31656SOL    HW294995   6.470   2.116   3.890
31657SOL     OW94996   7.305   2.447   5.555
31657SOL    HW194997   7.279   2.536   5.519
31657SOL    HW294998   7.303   2.379   5.482
31658SOL     OW94999   6.948   3.006   4.269
31658SOL    HW195000   7.031   2.977   4.221
31658SOL    HW295001   6.899   3.073   4.213
31659SOL     OW95002   6.136   2.058   4.609
31659SOL    HW195003   6.131   2.053   4.709
31659SOL    HW295004   6.138   2.154   4.580
31660SOL     OW95005   6.594   3.318   4.201
31660SOL    HW195006   6.548   3.390   4.149
31660SOL    HW295007   6.590   3.338   4.299
31661SOL     OW95008   5.937   3.663   4.577
31661SOL    HW195009   5.987   3.577   4.583
31661SOL    HW295010   6.002   3.740   4.574
31662SOL     OW95011   7.381   2.928   4.597
31662SOL    HW195012   7.319   2.913   4.521
31662SOL    HW295013   7.329   2.939   4.682
31663SOL     OW95014   6.813   3.412   5.230
31663SOL    HW195015   6.819   3.335   5.294
31663SOL    HW295016   6.761   3.386   5.150
31664SOL     OW95017   5.907   2.805   3.966
31664SOL    HW195018   5.989   2.844   3.924
31664SOL    HW295019   5.880   2.723   3.917
31665SOL     OW95020   7.044   2.597   4.452
31665SOL    HW195021   7.039   2.532   4.527
31665SOL    HW295022   7.124   2.656   4.465
31666SOL     OW95023   6.047   3.128   5.451
31666SOL    HW195024   5.997   3.129   5.365
31666SOL    HW295025   5.984   3.110   5.527
31667SOL     OW95026   6.697   3.638   3.961
31667SOL    HW195027   6.637   3.576   4.011
31667SOL    HW295028   6.728   3.594   3.876
31668SOL     OW95029   5.788   2.147   5.222
31668SOL    HW195030   5.708   2.207   5.209
31668SOL    HW295031   5.778   2.098   5.308
31669SOL     OW95032   7.218   3.239   3.805
31669SOL    HW195033   7.186   3.333   3.795
31669SOL    HW295034   7.142   3.176   3.793
31670SOL     OW95035   6.050   3.605   4.047
31670SOL    HW195036   6.083   3.644   4.133
31670SOL    HW295037   6.126   3.598   3.982
31671SOL     OW95038   6.986   1.969   4.150
31671SOL    HW195039   6.962   1.932   4.060
31671SOL    HW295040   7.085   1.985   4.154
31672SOL     OW95041   5.835   3.647   4.965
31672SOL    HW195042   5.892   3.582   5.015
31672SOL    HW295043   5.819   3.614   4.872
31673SOL     OW95044   6.526   3.560   4.628
31673SOL    HW195045   6.606   3.503   4.649
31673SOL    HW295046   6.477   3.520   4.551
31674SOL     OW95047   5.968   2.562   4.204
31674SOL    HW195048   6.013   2.472   4.201
31674SOL    HW295049   5.874   2.551   4.237
31675SOL     OW95050   7.133   2.084   5.453
31675SOL    HW195051   7.128   2.121   5.545
31675SOL    HW295052   7.061   2.015   5.441
31676SOL     OW95053   6.200   1.984   3.841
31676SOL    HW195054   6.298   1.962   3.848
31676SOL    HW295055   6.169   1.967   3.748
31677SOL     OW95056   6.367   2.126   5.473
31677SOL    HW195057   6.434   2.065   5.516
31677SOL    HW295058   6.294   2.145   5.538
31678SOL     OW95059   6.474   3.376   4.919
31678SOL    HW195060   6.451   3.351   4.825
31678SOL    HW295061   6.535   3.307   4.958
31679SOL     OW95062   6.937   2.452   5.157
31679SOL    HW195063   6.965   2.409   5.242
31679SOL    HW295064   6.962   2.548   5.158
31680SOL     OW95065   6.389   3.264   4.648
31680SOL    HW195066   6.479   3.278   4.606
31680SOL    HW295067   6.318   3.266   4.577
31681SOL     OW95068   6.508   2.365   4.623
31681SOL    HW195069   6.483   2.356   4.527
31681SOL    HW295070   6.556   2.283   4.654
31682SOL     OW95071   6.125   1.926   4.236
31682SOL    HW195072   6.044   1.927   4.294
31682SOL    HW295073   6.128   2.009   4.181
31683SOL     OW95074   7.020   3.050   3.765
31683SOL    HW195075   7.052   2.974   3.822
31683SOL    HW295076   6.928   3.077   3.795
31684SOL     OW95077   5.883   1.897   3.895
31684SOL    HW195078   5.932   1.981   3.874
31684SOL    HW295079   5.945   1.832   3.940
31685SOL     OW95080   6.521   2.098   4.204
31685SOL    HW195081   6.473   2.139   4.126
31685SOL    HW295082   6.620   2.096   4.185
31686SOL     OW95083   6.662   2.545   5.188
31686SOL    HW195084   6.582   2.484   5.191
31686SOL    HW295085   6.743   2.492   5.164
31687SOL     OW95086   6.813   3.432   4.517
31687SOL    HW195087   6.834   3.506   4.452
31687SOL    HW295088   6.881   3.432   4.590
31688SOL     OW95089   6.045   3.014   4.465
31688SOL    HW195090   5.974   2.987   4.530
31688SOL    HW295091   6.019   2.986   4.372
31689SOL     OW95092   6.857   3.659   4.315
31689SOL    HW195093   6.901   3.723   4.251
31689SOL    HW295094   6.807   3.711   4.385
31690SOL     OW95095   6.618   2.411   3.740
31690SOL    HW195096   6.577   2.493   3.701
31690SOL    HW295097   6.682   2.437   3.813
31691SOL     OW95098   5.664   2.418   5.110
31691SOL    HW195099   5.756   2.417   5.069
31691SOL    HW295100   5.658   2.492   5.177
31692SOL     OW95101   6.147   2.084   4.871
31692SOL    HW195102   6.185   2.000   4.908
31692SOL    HW295103   6.059   2.103   4.915
31693SOL     OW95104   6.452   2.316   4.366
31693SOL    HW195105   6.420   2.388   4.304
31693SOL    HW295106   6.476   2.235   4.313
31694SOL     OW95107   6.603   1.901   4.477
31694SOL    HW195108   6.531   1.906   4.408
31694SOL    HW295109   6.579   1.832   4.546
31695SOL     OW95110   7.015   3.035   4.591
31695SOL    HW195111   6.960   2.951   4.584
31695SOL    HW295112   7.041   3.064   4.499
31696SOL     OW95113   7.052   2.452   4.716
31696SOL    HW195114   7.022   2.357   4.723
31696SOL    HW295115   7.125   2.468   4.782
31697SOL     OW95116   7.443   2.695   4.101
31697SOL    HW195117   7.485   2.631   4.165
31697SOL    HW295118   7.405   2.644   4.023
31698SOL     OW95119   6.074   3.247   3.898
31698SOL    HW195120   5.987   3.232   3.945
31698SOL    HW295121   6.057   3.273   3.803
31699SOL     OW95122   7.250   3.142   4.381
31699SOL    HW195123   7.349   3.150   4.395
31699SOL    HW295124   7.205   3.226   4.412
31700SOL     OW95125   6.976   2.437   3.802
31700SOL    HW195126   6.922   2.416   3.883
31700SOL    HW295127   7.067   2.396   3.811
31701SOL     OW95128   6.113   2.118   4.052
31701SOL    HW195129   6.140   2.059   3.977
31701SOL    HW295130   6.113   2.213   4.021
31702SOL     OW95131   7.340   3.085   5.312
31702SOL    HW195132   7.431   3.046   5.299
31702SOL    HW295133   7.348   3.181   5.336
31703SOL     OW95134   6.650   3.209   5.064
31703SOL    HW195135   6.570   3.186   5.119
31703SOL    HW295136   6.733   3.183   5.113
31704SOL     OW95137   7.178   3.491   5.349
31704SOL    HW195138   7.205   3.525   5.259
31704SOL    HW295139   7.257   3.453   5.395
31705SOL     OW95140   6.697   3.057   4.824
31705SOL    HW195141   6.657   3.101   4.905
31705SOL    HW295142   6.656   3.094   4.741
31706SOL     OW95143   7.224   2.961   4.803
31706SOL    HW195144   7.229   3.042   4.862
31706SOL    HW295145   7.138   2.963   4.752
31707SOL     OW95146   6.501   1.951   5.126
31707SOL    HW195147   6.526   1.931   5.031
31707SOL    HW295148   6.573   2.007   5.168
31708SOL     OW95149   6.566   2.978   5.443
31708SOL    HW195150   6.467   2.984   5.453
31708SOL    HW295151   6.589   2.898   5.387
31709SOL     OW95152   6.291   2.912   4.092
31709SOL    HW195153   6.277   2.919   4.191
31709SOL    HW295154   6.375   2.861   4.074
31710SOL     OW95155   5.996   2.675   4.975
31710SOL    HW195156   6.082   2.687   5.025
31710SOL    HW295157   5.954   2.588   5.002
31711SOL     OW95158   6.860   2.248   4.986
31711SOL    HW195159   6.881   2.322   5.050
31711SOL    HW295160   6.771   2.265   4.943
31712SOL     OW95161   5.650   3.426   5.055
31712SOL    HW195162   5.604   3.508   5.021
31712SOL    HW295163   5.748   3.445   5.064
31713SOL     OW95164   5.953   2.962   4.225
31713SOL    HW195165   5.946   3.045   4.169
31713SOL    HW295166   5.957   2.882   4.165
31714SOL     OW95167   6.152   2.399   4.589
31714SOL    HW195168   6.164   2.465   4.515
31714SOL    HW295169   6.198   2.433   4.672
31715SOL     OW95170   6.838   3.210   4.112
31715SOL    HW195171   6.888   3.287   4.152
31715SOL    HW295172   6.743   3.212   4.144
31716SOL     OW95173   6.858   3.307   4.866
31716SOL    HW195174   6.905   3.320   4.953
31716SOL    HW295175   6.792   3.233   4.875
31717SOL     OW95176   7.168   2.501   4.196
31717SOL    HW195177   7.137   2.562   4.269
31717SOL    HW295178   7.218   2.553   4.127
31718SOL     OW95179   5.940   3.372   5.053
31718SOL    HW195180   5.919   3.328   4.966
31718SOL    HW295181   6.037   3.398   5.056
31719SOL     OW95182   5.988   2.613   5.322
31719SOL    HW195183   6.056   2.668   5.275
31719SOL    HW295184   6.028   2.525   5.349
31720SOL     OW95185   7.173   2.641   5.394
31720SOL    HW195186   7.081   2.679   5.389
31720SOL    HW295187   7.233   2.688   5.329
31721SOL     OW95188   6.599   1.967   5.494
31721SOL    HW195189   6.605   2.052   5.442
31721SOL    HW295190   6.631   1.891   5.437
31722SOL     OW95191   6.090   1.912   5.464
31722SOL    HW195192   6.048   1.855   5.394
31722SOL    HW295193   6.024   1.981   5.496
31723SOL     OW95194   6.159   2.732   4.753
31723SOL    HW195195   6.203   2.821   4.744
31723SOL    HW295196   6.096   2.732   4.830
31724SOL     OW95197   6.946   2.724   4.769
31724SOL    HW195198   6.871   2.724   4.703
31724SOL    HW295199   6.983   2.632   4.778
31725SOL     OW95200   6.795   2.387   3.999
31725SOL    HW195201   6.808   2.303   4.053
31725SOL    HW295202   6.766   2.461   4.059
31726SOL     OW95203   5.893   2.075   4.955
31726SOL    HW195204   5.870   2.112   5.045
31726SOL    HW295205   5.863   1.980   4.949
31727SOL     OW95206   5.623   3.172   5.006
31727SOL    HW195207   5.676   3.123   5.074
31727SOL    HW295208   5.645   3.270   5.011
31728SOL     OW95209   6.318   2.496   4.788
31728SOL    HW195210   6.377   2.470   4.712
31728SOL    HW295211   6.290   2.592   4.777
31729SOL     OW95212   7.314   2.797   5.578
31729SOL    HW195213   7.268   2.790   5.489
31729SOL    HW295214   7.252   2.841   5.644
31730SOL     OW95215   5.893   1.925   4.342
31730SOL    HW195216   5.882   2.019   4.375
31730SOL    HW295217   5.888   1.862   4.419
31731SOL     OW95218   7.208   2.229   4.098
31731SOL    HW195219   7.210   2.153   4.162
31731SOL    HW295220   7.160   2.306   4.138
31732SOL     OW95221   6.609   2.628   4.690
31732SOL    HW195222   6.624   2.649   4.786
31732SOL    HW295223   6.579   2.533   4.681
31733SOL     OW95224   6.566   3.435   5.424
31733SOL    HW195225   6.546   3.479   5.336
31733SOL    HW295226   6.605   3.344   5.408
31734SOL     OW95227   7.445   3.380   5.329
31734SOL    HW195228   7.459   3.407   5.234
31734SOL    HW295229   7.528   3.402   5.382
31735SOL     OW95230   5.936   2.760   5.528
31735SOL    HW195231   6.012   2.804   5.576
31735SOL    HW295232   5.971   2.713   5.446
31736SOL     OW95233   7.126   2.136   3.849
31736SOL    HW195234   7.065   2.061   3.872
31736SOL    HW295235   7.148   2.188   3.932
31737SOL     OW95236   6.889   2.700   3.766
31737SOL    HW195237   6.923   2.607   3.781
31737SOL    HW295238   6.907   2.727   3.671
31738SOL     OW95239   6.654   3.195   4.573
31738SOL    HW195240   6.661   3.111   4.518
31738SOL    HW295241   6.716   3.264   4.537
31739SOL     OW95242   5.905   2.672   4.673
31739SOL    HW195243   5.998   2.708   4.678
31739SOL    HW295244   5.899   2.587   4.725
31740SOL     OW95245   5.925   2.371   4.730
31740SOL    HW195246   5.873   2.288   4.713
31740SOL    HW295247   6.002   2.376   4.666
31741SOL     OW95248   6.724   2.242   5.402
31741SOL    HW195249   6.679   2.305   5.466
31741SOL    HW295250   6.817   2.273   5.385
31742SOL     OW95251   6.746   2.069   5.201
31742SOL    HW195252   6.746   2.133   5.278
31742SOL    HW295253   6.774   2.117   5.118
31743SOL     OW95254   5.594   3.188   3.924
31743SOL    HW195255   5.501   3.209   3.893
31743SOL    HW295256   5.604   3.089   3.937
31744SOL     OW95257   5.674   3.663   4.651
31744SOL    HW195258   5.632   3.577   4.624
31744SOL    HW295259   5.768   3.666   4.617
31745SOL     OW95260   6.090   3.430   4.634
31745SOL    HW195261   6.156   3.504   4.643
31745SOL    HW295262   6.134   3.351   4.592
31746SOL     OW95263   6.588   2.658   4.962
31746SOL    HW195264   6.629   2.626   5.048
31746SOL    HW295265   6.492   2.631   4.959
31747SOL     OW95266   5.626   2.406   4.838
31747SOL    HW195267   5.711   2.373   4.797
31747SOL    HW295268   5.639   2.421   4.936
31748SOL     OW95269   5.775   2.382   5.446
31748SOL    HW195270   5.834   2.342   5.376
31748SOL    HW295271   5.717   2.453   5.405
31749SOL     OW95272   6.955   2.812   5.384
31749SOL    HW195273   6.994   2.901   5.404
31749SOL    HW295274   6.965   2.792   5.287
31750SOL     OW95275   6.401   2.434   4.049
31750SOL    HW195276   6.408   2.345   4.003
31750SOL    HW295277   6.307   2.468   4.041
31751SOL     OW95278   7.243   2.466   4.930
31751SOL    HW195279   7.205   2.397   4.992
31751SOL    HW295280   7.325   2.430   4.886
31752SOL     OW95281   5.838   3.426   5.468
31752SOL    HW195282   5.808   3.483   5.544
31752SOL    HW295283   5.831   3.329   5.494
31753SOL     OW95284   6.257   2.326   4.993
31753SOL    HW195285   6.223   2.237   4.963
31753SOL    HW295286   6.283   2.380   4.913
31754SOL     OW95287   6.516   3.540   5.189
31754SOL    HW195288   6.492   3.522   5.094
31754SOL    HW295289   6.546   3.634   5.199
31755SOL     OW95290   6.059   2.362   3.915
31755SOL    HW195291   6.120   2.442   3.919
31755SOL    HW295292   5.964   2.393   3.922
31756SOL     OW95293   5.745   2.999   5.190
31756SOL    HW195294   5.767   2.938   5.266
31756SOL    HW295295   5.755   2.950   5.104
31757SOL     OW95296   6.933   2.921   4.958
31757SOL    HW195297   6.957   2.858   4.884
31757SOL    HW295298   6.843   2.961   4.940
31758SOL     OW95299   6.888   2.717   4.033
31758SOL    HW195300   6.802   2.686   4.075
31758SOL    HW295301   6.884   2.703   3.934
31759SOL     OW95302   7.345   3.609   4.878
31759SOL    HW195303   7.406   3.639   4.805
31759SOL    HW295304   7.307   3.520   4.856
31760SOL     OW95305   6.838   3.593   4.852
31760SOL    HW195306   6.922   3.598   4.798
31760SOL    HW295307   6.815   3.497   4.870
31761SOL     OW95308   5.669   3.120   4.746
31761SOL    HW195309   5.664   3.119   4.846
31761SOL    HW295310   5.586   3.079   4.708
31762SOL     OW95311   6.274   3.524   5.440
31762SOL    HW195312   6.218   3.605   5.449
31762SOL    HW295313   6.326   3.528   5.354
31763SOL     OW95314   7.312   1.997   4.247
31763SOL    HW195315   7.385   1.980   4.180
31763SOL    HW295316   7.281   1.910   4.285
31764SOL     OW95317   6.974   3.435   4.201
31764SOL    HW195318   7.041   3.447   4.127
31764SOL    HW295319   6.934   3.524   4.224
31765SOL     OW95320   5.716   3.656   5.575
31765SOL    HW195321   5.675   3.582   5.628
31765SOL    HW295322   5.780   3.707   5.633
31766SOL     OW95323   6.866   2.789   4.396
31766SOL    HW195324   6.926   2.708   4.398
31766SOL    HW295325   6.906   2.858   4.336
31767SOL     OW95326   6.416   3.135   5.146
31767SOL    HW195327   6.411   3.168   5.241
31767SOL    HW295328   6.330   3.154   5.100
31768SOL     OW95329   6.258   3.478   3.878
31768SOL    HW195330   6.267   3.488   3.779
31768SOL    HW295331   6.218   3.389   3.899
31769SOL     OW95332   7.236   3.582   5.118
31769SOL    HW195333   7.289   3.592   5.034
31769SOL    HW295334   7.209   3.672   5.152
31770SOL     OW95335   7.427   2.037   4.687
31770SOL    HW195336   7.466   1.952   4.651
31770SOL    HW295337   7.329   2.039   4.668
31771SOL     OW95338   5.849   2.188   4.444
31771SOL    HW195339   5.770   2.239   4.410
31771SOL    HW295340   5.840   2.173   4.542
31772SOL     OW95341   6.780   3.474   3.755
31772SOL    HW195342   6.786   3.381   3.792
31772SOL    HW295343   6.721   3.474   3.675
31773SOL     OW95344   6.408   2.864   5.096
31773SOL    HW195345   6.448   2.863   5.004
31773SOL    HW295346   6.418   2.956   5.136
31774SOL     OW95347   6.502   2.772   4.015
31774SOL    HW195348   6.565   2.810   3.947
31774SOL    HW295349   6.542   2.689   4.054
31775SOL     OW95350   7.090   3.469   3.768
31775SOL    HW195351   6.998   3.506   3.775
31775SOL    HW295352   7.128   3.489   3.678
31776SOL     OW95353   5.958   3.150   5.214
31776SOL    HW195354   5.945   3.243   5.180
31776SOL    HW295355   5.874   3.098   5.201
31777SOL     OW95356   7.200   3.154   5.013
31777SOL    HW195357   7.260   3.157   5.093
31777SOL    HW295358   7.125   3.218   5.026
31778SOL     OW95359   6.625   2.960   4.420
31778SOL    HW195360   6.555   2.913   4.474
31778SOL    HW295361   6.684   2.892   4.377
31779SOL     OW95362   6.600   2.098   4.695
31779SOL    HW195363   6.592   2.062   4.602
31779SOL    HW295364   6.598   2.022   4.760
31780SOL     OW95365   6.176   3.349   4.215
31780SOL    HW195366   6.218   3.291   4.145
31780SOL    HW295367   6.132   3.428   4.171
31781SOL     OW95368   7.295   2.247   5.105
31781SOL    HW195369   7.368   2.316   5.109
31781SOL    HW295370   7.323   2.172   5.046
31782SOL     OW95371   5.841   3.210   4.014
31782SOL    HW195372   5.745   3.211   3.987
31782SOL    HW295373   5.853   3.263   4.098
31783SOL     OW95374   5.691   2.875   5.450
31783SOL    HW195375   5.614   2.842   5.504
31783SOL    HW295376   5.776   2.845   5.492
31784SOL     OW95377   6.258   2.065   5.213
31784SOL    HW195378   6.348   2.049   5.173
31784SOL    HW295379   6.266   2.070   5.312
31785SOL     OW95380   5.661   2.207   3.757
31785SOL    HW195381   5.569   2.179   3.728
31785SOL    HW295382   5.692   2.284   3.701
31786SOL     OW95383   7.026   2.718   5.122
31786SOL    HW195384   6.969   2.770   5.059
31786SOL    HW295385   7.122   2.730   5.098
31787SOL     OW95386   5.658   2.028   4.042
31787SOL    HW195387   5.641   2.111   3.988
31787SOL    HW295388   5.748   1.991   4.020
31788SOL     OW95389   6.769   3.197   3.843
31788SOL    HW195390   6.670   3.186   3.845
31788SOL    HW295391   6.803   3.212   3.936
31789SOL     OW95392   6.199   2.704   5.155
31789SOL    HW195393   6.255   2.785   5.138
31789SOL    HW295394   6.258   2.624   5.158
31790SOL     OW95395   7.079   3.629   4.683
31790SOL    HW195396   7.112   3.693   4.614
31790SOL    HW295397   7.145   3.623   4.758
31791SOL     OW95398   6.302   2.427   5.432
31791SOL    HW195399   6.321   2.492   5.506
31791SOL    HW295400   6.362   2.347   5.441
31792SOL     OW95401   7.036   3.082   5.357
31792SOL    HW195402   7.027   3.072   5.456
31792SOL    HW295403   7.132   3.075   5.331
31793SOL     OW95404   5.976   3.603   5.284
31793SOL    HW195405   5.885   3.644   5.282
31793SOL    HW295406   5.969   3.509   5.316
31794SOL     OW95407   7.260   2.745   4.978
31794SOL    HW195408   7.233   2.656   4.941
31794SOL    HW295409   7.261   2.813   4.905
31795SOL     OW95410   6.811   2.187   4.173
31795SOL    HW195411   6.876   2.113   4.162
31795SOL    HW295412   6.831   2.237   4.257
31796SOL     OW95413   6.180   2.607   4.376
31796SOL    HW195414   6.230   2.692   4.357
31796SOL    HW295415   6.092   2.609   4.328
31797SOL     OW95416   7.363   2.204   5.366
31797SOL    HW195417   7.346   2.235   5.272
31797SOL    HW295418   7.279   2.167   5.404
31798SOL     OW95419   7.316   2.796   5.241
31798SOL    HW195420   7.354   2.887   5.256
31798SOL    HW295421   7.308   2.779   5.142
31799SOL     OW95422   6.445   3.236   3.740
31799SOL    HW195423   6.399   3.251   3.828
31799SOL    HW295424   6.489   3.321   3.710
31800SOL     OW95425   6.247   3.652   4.677
31800SOL    HW195426   6.201   3.740   4.664
31800SOL    HW295427   6.346   3.664   4.670
31801SOL     OW95428   6.445   2.818   4.585
31801SOL    HW195429   6.499   2.749   4.633
31801SOL    HW295430   6.413   2.887   4.651
31802SOL     OW95431   6.669   2.846   3.811
31802SOL    HW195432   6.646   2.899   3.729
31802SOL    HW295433   6.750   2.790   3.792
31803SOL     OW95434   7.447   3.431   4.575
31803SOL    HW195435   7.376   3.419   4.505
31803SOL    HW295436   7.448   3.352   4.635
31804SOL     OW95437   5.807   3.176   5.568
31804SOL    HW195438   5.742   3.103   5.547
31804SOL    HW295439   5.811   3.190   5.666
31805SOL     OW95440   5.665   3.102   4.377
31805SOL    HW195441   5.664   3.055   4.465
31805SOL    HW295442   5.747   3.074   4.326
31806SOL     OW95443   6.258   3.253   5.348
31806SOL    HW195444   6.180   3.203   5.386
31806SOL    HW295445   6.255   3.348   5.379
31807SOL     OW95446   7.410   2.054   4.951
31807SOL    HW195447   7.406   1.964   4.995
31807SOL    HW295448   7.413   2.043   4.852
31808SOL     OW95449   6.014   2.286   4.244
31808SOL    HW195450   6.044   2.214   4.182
31808SOL    HW295451   5.975   2.246   4.327
31809SOL     OW95452   7.291   3.349   4.828
31809SOL    HW195453   7.198   3.324   4.801
31809SOL    HW295454   7.317   3.299   4.910
31810SOL     OW95455   5.903   2.409   5.004
31810SOL    HW195456   5.941   2.350   5.076
31810SOL    HW295457   5.943   2.383   4.916
31811SOL     OW95458   6.398   3.448   4.411
31811SOL    HW195459   6.430   3.458   4.317
31811SOL    HW295460   6.319   3.386   4.413
31812SOL     OW95461   7.010   2.076   4.836
31812SOL    HW195462   7.062   2.011   4.891
31812SOL    HW295463   6.961   2.139   4.897
31813SOL     OW95464   6.587   1.896   4.878
31813SOL    HW195465   6.524   1.824   4.847
31813SOL    HW295466   6.680   1.860   4.878
31814SOL     OW95467   6.356   3.192   4.025
31814SOL    HW195468   6.310   3.105   4.042
31814SOL    HW295469   6.447   3.189   4.066
31815SOL     OW95470   6.204   3.429   5.008
31815SOL    HW195471   6.199   3.511   5.065
31815SOL    HW295472   6.293   3.426   4.963
31816SOL     OW95473   6.938   1.914   3.892
31816SOL    HW195474   6.973   1.873   3.808
31816SOL    HW295475   6.848   1.876   3.912
31817SOL     OW95476   6.886   2.315   4.415
31817SOL    HW195477   6.827   2.395   4.419
31817SOL    HW295478   6.901   2.280   4.508
31818SOL     OW95479   7.179   2.083   4.606
31818SOL    HW195480   7.095   2.082   4.660
31818SOL    HW295481   7.181   2.166   4.550
31819SOL     OW95482   5.625   2.939   4.024
31819SOL    HW195483   5.724   2.928   4.015
31819SOL    HW295484   5.585   2.853   4.056
31820SOL     OW95485   6.461   3.508   4.061
31820SOL    HW195486   6.384   3.473   4.007
31820SOL    HW295487   6.429   3.579   4.123
31821SOL     OW95488   5.816   2.490   5.699
31821SOL    HW195489   5.723   2.488   5.736
31821SOL    HW295490   5.817   2.451   5.607
31822SOL     OW95491   5.811   2.137   6.582
31822SOL    HW195492   5.846   2.120   6.674
31822SOL    HW295493   5.723   2.092   6.570
31823SOL     OW95494   5.605   2.230   6.233
31823SOL    HW195495   5.523   2.273   6.272
31823SOL    HW295496   5.577   2.157   6.170
31824SOL     OW95497   6.155   3.137   6.751
31824SOL    HW195498   6.062   3.130   6.714
31824SOL    HW295499   6.166   3.226   6.795
31825SOL     OW95500   7.141   3.373   6.289
31825SOL    HW195501   7.084   3.357   6.370
31825SOL    HW295502   7.082   3.383   6.209
31826SOL     OW95503   6.721   2.565   6.303
31826SOL    HW195504   6.778   2.643   6.278
31826SOL    HW295505   6.661   2.591   6.379
31827SOL     OW95506   7.341   2.469   5.817
31827SOL    HW195507   7.329   2.456   5.718
31827SOL    HW295508   7.311   2.388   5.866
31828SOL     OW95509   6.354   3.006   6.609
31828SOL    HW195510   6.276   3.023   6.669
31828SOL    HW295511   6.388   3.093   6.573
31829SOL     OW95512   6.436   2.660   7.409
31829SOL    HW195513   6.432   2.736   7.474
31829SOL    HW295514   6.458   2.696   7.318
31830SOL     OW95515   6.271   2.874   6.251
31830SOL    HW195516   6.340   2.858   6.321
31830SOL    HW295517   6.198   2.931   6.289
31831SOL     OW95518   6.272   3.023   7.389
31831SOL    HW195519   6.332   3.102   7.403
31831SOL    HW295520   6.186   3.054   7.348
31832SOL     OW95521   5.921   3.297   6.647
31832SOL    HW195522   5.843   3.266   6.594
31832SOL    HW295523   5.979   3.355   6.590
31833SOL     OW95524   7.046   3.367   6.925
31833SOL    HW195525   7.070   3.461   6.951
31833SOL    HW295526   7.030   3.313   7.007
31834SOL     OW95527   6.024   2.254   7.085
31834SOL    HW195528   6.106   2.198   7.094
31834SOL    HW295529   5.943   2.196   7.089
31835SOL     OW95530   7.189   2.309   6.323
31835SOL    HW195531   7.115   2.355   6.273
31835SOL    HW295532   7.240   2.377   6.376
31836SOL     OW95533   5.817   3.575   6.069
31836SOL    HW195534   5.851   3.652   6.123
31836SOL    HW295535   5.861   3.575   5.979
31837SOL     OW95536   6.713   3.203   7.276
31837SOL    HW195537   6.760   3.203   7.364
31837SOL    HW295538   6.665   3.116   7.265
31838SOL     OW95539   5.816   3.296   6.124
31838SOL    HW195540   5.790   3.392   6.124
31838SOL    HW295541   5.745   3.242   6.169
31839SOL     OW95542   5.826   2.953   6.472
31839SOL    HW195543   5.840   2.869   6.524
31839SOL    HW295544   5.771   3.017   6.527
31840SOL     OW95545   6.206   3.648   7.025
31840SOL    HW195546   6.114   3.631   7.060
31840SOL    HW295547   6.234   3.740   7.051
31841SOL     OW95548   6.192   2.826   5.709
31841SOL    HW195549   6.199   2.910   5.655
31841SOL    HW295550   6.238   2.839   5.797
31842SOL     OW95551   7.180   1.976   7.066
31842SOL    HW195552   7.162   2.043   6.994
31842SOL    HW295553   7.177   2.022   7.155
31843SOL     OW95554   5.708   2.505   6.149
31843SOL    HW195555   5.663   2.417   6.166
31843SOL    HW295556   5.707   2.559   6.233
31844SOL     OW95557   7.428   3.629   5.945
31844SOL    HW195558   7.482   3.600   6.025
31844SOL    HW295559   7.458   3.719   5.916
31845SOL     OW95560   5.613   3.458   5.703
31845SOL    HW195561   5.594   3.362   5.724
31845SOL    HW295562   5.580   3.516   5.778
31846SOL     OW95563   7.275   2.784   6.198
31846SOL    HW195564   7.370   2.755   6.206
31846SOL    HW295565   7.267   2.849   6.123
31847SOL     OW95566   7.227   2.970   6.018
31847SOL    HW195567   7.313   2.972   5.966
31847SOL    HW295568   7.241   3.017   6.106
31848SOL     OW95569   5.699   2.599   7.183
31848SOL    HW195570   5.787   2.586   7.228
31848SOL    HW295571   5.686   2.696   7.161
31849SOL     OW95572   6.199   3.227   6.312
31849SOL    HW195573   6.150   3.140   6.321
31849SOL    HW295574   6.176   3.270   6.225
31850SOL     OW95575   6.879   3.090   7.009
31850SOL    HW195576   6.916   3.017   6.951
31850SOL    HW295577   6.931   3.095   7.094
31851SOL     OW95578   6.395   1.866   6.088
31851SOL    HW195579   6.435   1.957   6.079
31851SOL    HW295580   6.295   1.874   6.094
31852SOL     OW95581   5.783   2.838   6.850
31852SOL    HW195582   5.872   2.793   6.836
31852SOL    HW295583   5.710   2.773   6.831
31853SOL     OW95584   7.111   2.861   5.776
31853SOL    HW195585   7.048   2.785   5.789
31853SOL    HW295586   7.159   2.879   5.862
31854SOL     OW95587   6.773   3.654   7.202
31854SOL    HW195588   6.797   3.714   7.126
31854SOL    HW295589   6.780   3.559   7.172
31855SOL     OW95590   5.903   2.113   7.387
31855SOL    HW195591   5.974   2.184   7.393
31855SOL    HW295592   5.815   2.152   7.415
31856SOL     OW95593   7.052   3.279   6.539
31856SOL    HW195594   6.993   3.285   6.619
31856SOL    HW295595   7.037   3.191   6.493
31857SOL     OW95596   7.253   3.576   6.158
31857SOL    HW195597   7.212   3.553   6.070
31857SOL    HW295598   7.235   3.502   6.223
31858SOL     OW95599   6.184   2.591   5.856
31858SOL    HW195600   6.208   2.660   5.788
31858SOL    HW295601   6.106   2.624   5.910
31859SOL     OW95602   6.867   2.207   6.530
31859SOL    HW195603   6.781   2.157   6.517
31859SOL    HW295604   6.929   2.153   6.586
31860SOL     OW95605   7.162   3.524   5.893
31860SOL    HW195606   7.251   3.570   5.896
31860SOL    HW295607   7.141   3.500   5.798
31861SOL     OW95608   6.393   2.467   7.051
31861SOL    HW195609   6.346   2.464   7.140
31861SOL    HW295610   6.342   2.412   6.985
31862SOL     OW95611   6.980   2.331   7.260
31862SOL    HW195612   6.960   2.374   7.348
31862SOL    HW295613   7.058   2.269   7.269
31863SOL     OW95614   6.559   2.752   7.158
31863SOL    HW195615   6.605   2.668   7.129
31863SOL    HW295616   6.503   2.786   7.083
31864SOL     OW95617   6.577   2.272   6.828
31864SOL    HW195618   6.500   2.306   6.882
31864SOL    HW295619   6.543   2.221   6.749
31865SOL     OW95620   6.627   2.563   6.015
31865SOL    HW195621   6.653   2.559   6.111
31865SOL    HW295622   6.542   2.512   6.001
31866SOL     OW95623   5.662   2.673   6.375
31866SOL    HW195624   5.761   2.661   6.384
31866SOL    HW295625   5.638   2.768   6.396
31867SOL     OW95626   5.716   3.683   7.157
31867SOL    HW195627   5.706   3.668   7.256
31867SOL    HW295628   5.630   3.719   7.121
31868SOL     OW95629   6.451   2.210   5.781
31868SOL    HW195630   6.510   2.273   5.732
31868SOL    HW295631   6.470   2.116   5.752
31869SOL     OW95632   7.305   2.447   7.417
31869SOL    HW195633   7.279   2.536   7.381
31869SOL    HW295634   7.303   2.379   7.344
31870SOL     OW95635   6.948   3.006   6.131
31870SOL    HW195636   7.031   2.977   6.083
31870SOL    HW295637   6.899   3.073   6.075
31871SOL     OW95638   6.136   2.058   6.471
31871SOL    HW195639   6.131   2.053   6.571
31871SOL    HW295640   6.138   2.154   6.442
31872SOL     OW95641   6.594   3.318   6.063
31872SOL    HW195642   6.548   3.390   6.011
31872SOL    HW295643   6.590   3.338   6.161
31873SOL     OW95644   5.937   3.663   6.439
31873SOL    HW195645   5.987   3.577   6.445
31873SOL    HW295646   6.002   3.740   6.436
31874SOL     OW95647   7.381   2.928   6.459
31874SOL    HW195648   7.319   2.913   6.383
31874SOL    HW295649   7.329   2.939   6.544
31875SOL     OW95650   6.813   3.412   7.092
31875SOL    HW195651   6.819   3.335   7.156
31875SOL    HW295652   6.761   3.386   7.012
31876SOL     OW95653   5.907   2.805   5.828
31876SOL    HW195654   5.989   2.844   5.786
31876SOL    HW295655   5.880   2.723   5.779
31877SOL     OW95656   7.044   2.597   6.314
31877SOL    HW195657   7.039   2.532   6.389
31877SOL    HW295658   7.124   2.656   6.327
31878SOL     OW95659   6.047   3.128   7.313
31878SOL    HW195660   5.997   3.129   7.227
31878SOL    HW295661   5.984   3.110   7.389
31879SOL     OW95662   6.697   3.638   5.823
31879SOL    HW195663   6.637   3.576   5.873
31879SOL    HW295664   6.728   3.594   5.738
31880SOL     OW95665   5.788   2.147   7.084
31880SOL    HW195666   5.708   2.207   7.071
31880SOL    HW295667   5.778   2.098   7.170
31881SOL     OW95668   7.218   3.239   5.667
31881SOL    HW195669   7.186   3.333   5.657
31881SOL    HW295670   7.142   3.176   5.655
31882SOL     OW95671   6.050   3.605   5.909
31882SOL    HW195672   6.083   3.644   5.995
31882SOL    HW295673   6.126   3.598   5.844
31883SOL     OW95674   6.986   1.969   6.012
31883SOL    HW195675   6.962   1.932   5.922
31883SOL    HW295676   7.085   1.985   6.016
31884SOL     OW95677   5.835   3.647   6.827
31884SOL    HW195678   5.892   3.582   6.877
31884SOL    HW295679   5.819   3.614   6.734
31885SOL     OW95680   6.526   3.560   6.490
31885SOL    HW195681   6.606   3.503   6.511
31885SOL    HW295682   6.477   3.520   6.413
31886SOL     OW95683   5.968   2.562   6.066
31886SOL    HW195684   6.013   2.472   6.063
31886SOL    HW295685   5.874   2.551   6.099
31887SOL     OW95686   7.133   2.084   7.315
31887SOL    HW195687   7.128   2.121   7.407
31887SOL    HW295688   7.061   2.015   7.303
31888SOL     OW95689   6.200   1.984   5.703
31888SOL    HW195690   6.298   1.962   5.710
31888SOL    HW295691   6.169   1.967   5.610
31889SOL     OW95692   6.367   2.126   7.335
31889SOL    HW195693   6.434   2.065   7.378
31889SOL    HW295694   6.294   2.145   7.400
31890SOL     OW95695   6.474   3.376   6.781
31890SOL    HW195696   6.451   3.351   6.687
31890SOL    HW295697   6.535   3.307   6.820
31891SOL     OW95698   6.937   2.452   7.019
31891SOL    HW195699   6.965   2.409   7.104
31891SOL    HW295700   6.962   2.548   7.020
31892SOL     OW95701   6.389   3.264   6.510
31892SOL    HW195702   6.479   3.278   6.468
31892SOL    HW295703   6.318   3.266   6.439
31893SOL     OW95704   6.508   2.365   6.485
31893SOL    HW195705   6.483   2.356   6.389
31893SOL    HW295706   6.556   2.283   6.516
31894SOL     OW95707   6.125   1.926   6.098
31894SOL    HW195708   6.044   1.927   6.156
31894SOL    HW295709   6.128   2.009   6.043
31895SOL     OW95710   7.020   3.050   5.627
31895SOL    HW195711   7.052   2.974   5.684
31895SOL    HW295712   6.928   3.077   5.657
31896SOL     OW95713   5.883   1.897   5.757
31896SOL    HW195714   5.932   1.981   5.736
31896SOL    HW295715   5.945   1.832   5.802
31897SOL     OW95716   6.521   2.098   6.066
31897SOL    HW195717   6.473   2.139   5.988
31897SOL    HW295718   6.620   2.096   6.047
31898SOL     OW95719   6.662   2.545   7.050
31898SOL    HW195720   6.582   2.484   7.053
31898SOL    HW295721   6.743   2.492   7.026
31899SOL     OW95722   6.813   3.432   6.379
31899SOL    HW195723   6.834   3.506   6.314
31899SOL    HW295724   6.881   3.432   6.452
31900SOL     OW95725   6.045   3.014   6.327
31900SOL    HW195726   5.974   2.987   6.392
31900SOL    HW295727   6.019   2.986   6.234
31901SOL     OW95728   6.857   3.659   6.177
31901SOL    HW195729   6.901   3.723   6.113
31901SOL    HW295730   6.807   3.711   6.247
31902SOL     OW95731   6.618   2.411   5.602
31902SOL    HW195732   6.577   2.493   5.563
31902SOL    HW295733   6.682   2.437   5.675
31903SOL     OW95734   5.664   2.418   6.972
31903SOL    HW195735   5.756   2.417   6.931
31903SOL    HW295736   5.658   2.492   7.039
31904SOL     OW95737   6.147   2.084   6.733
31904SOL    HW195738   6.185   2.000   6.770
31904SOL    HW295739   6.059   2.103   6.777
31905SOL     OW95740   6.452   2.316   6.228
31905SOL    HW195741   6.420   2.388   6.166
31905SOL    HW295742   6.476   2.235   6.175
31906SOL     OW95743   6.603   1.901   6.339
31906SOL    HW195744   6.531   1.906   6.270
31906SOL    HW295745   6.579   1.832   6.408
31907SOL     OW95746   7.015   3.035   6.453
31907SOL    HW195747   6.960   2.951   6.446
31907SOL    HW295748   7.041   3.064   6.361
31908SOL     OW95749   7.052   2.452   6.578
31908SOL    HW195750   7.022   2.357   6.585
31908SOL    HW295751   7.125   2.468   6.644
31909SOL     OW95752   7.443   2.695   5.963
31909SOL    HW195753   7.485   2.631   6.027
31909SOL    HW295754   7.405   2.644   5.885
31910SOL     OW95755   6.074   3.247   5.760
31910SOL    HW195756   5.987   3.232   5.807
31910SOL    HW295757   6.057   3.273   5.665
31911SOL     OW95758   7.250   3.142   6.243
31911SOL    HW195759   7.349   3.150   6.257
31911SOL    HW295760   7.205   3.226   6.274
31912SOL     OW95761   6.976   2.437   5.664
31912SOL    HW195762   6.922   2.416   5.745
31912SOL    HW295763   7.067   2.396   5.673
31913SOL     OW95764   6.113   2.118   5.914
31913SOL    HW195765   6.140   2.059   5.839
31913SOL    HW295766   6.113   2.213   5.883
31914SOL     OW95767   7.340   3.085   7.174
31914SOL    HW195768   7.431   3.046   7.161
31914SOL    HW295769   7.348   3.181   7.198
31915SOL     OW95770   6.650   3.209   6.926
31915SOL    HW195771   6.570   3.186   6.981
31915SOL    HW295772   6.733   3.183   6.975
31916SOL     OW95773   7.178   3.491   7.211
31916SOL    HW195774   7.205   3.525   7.121
31916SOL    HW295775   7.257   3.453   7.257
31917SOL     OW95776   6.697   3.057   6.686
31917SOL    HW195777   6.657   3.101   6.767
31917SOL    HW295778   6.656   3.094   6.603
31918SOL     OW95779   7.224   2.961   6.665
31918SOL    HW195780   7.229   3.042   6.724
31918SOL    HW295781   7.138   2.963   6.614
31919SOL     OW95782   6.501   1.951   6.988
31919SOL    HW195783   6.526   1.931   6.893
31919SOL    HW295784   6.573   2.007   7.030
31920SOL     OW95785   6.566   2.978   7.305
31920SOL    HW195786   6.467   2.984   7.315
31920SOL    HW295787   6.589   2.898   7.249
31921SOL     OW95788   6.291   2.912   5.954
31921SOL    HW195789   6.277   2.919   6.053
31921SOL    HW295790   6.375   2.861   5.936
31922SOL     OW95791   5.996   2.675   6.837
31922SOL    HW195792   6.082   2.687   6.887
31922SOL    HW295793   5.954   2.588   6.864
31923SOL     OW95794   6.860   2.248   6.848
31923SOL    HW195795   6.881   2.322   6.912
31923SOL    HW295796   6.771   2.265   6.805
31924SOL     OW95797   5.650   3.426   6.917
31924SOL    HW195798   5.604   3.508   6.883
31924SOL    HW295799   5.748   3.445   6.926
31925SOL     OW95800   5.953   2.962   6.087
31925SOL    HW195801   5.946   3.045   6.031
31925SOL    HW295802   5.957   2.882   6.027
31926SOL     OW95803   6.152   2.399   6.451
31926SOL    HW195804   6.164   2.465   6.377
31926SOL    HW295805   6.198   2.433   6.534
31927SOL     OW95806   6.838   3.210   5.974
31927SOL    HW195807   6.888   3.287   6.014
31927SOL    HW295808   6.743   3.212   6.006
31928SOL     OW95809   6.858   3.307   6.728
31928SOL    HW195810   6.905   3.320   6.815
31928SOL    HW295811   6.792   3.233   6.737
31929SOL     OW95812   7.168   2.501   6.058
31929SOL    HW195813   7.137   2.562   6.131
31929SOL    HW295814   7.218   2.553   5.989
31930SOL     OW95815   5.940   3.372   6.915
31930SOL    HW195816   5.919   3.328   6.828
31930SOL    HW295817   6.037   3.398   6.918
31931SOL     OW95818   5.988   2.613   7.184
31931SOL    HW195819   6.056   2.668   7.137
31931SOL    HW295820   6.028   2.525   7.211
31932SOL     OW95821   7.173   2.641   7.256
31932SOL    HW195822   7.081   2.679   7.251
31932SOL    HW295823   7.233   2.688   7.191
31933SOL     OW95824   6.599   1.967   7.356
31933SOL    HW195825   6.605   2.052   7.304
31933SOL    HW295826   6.631   1.891   7.299
31934SOL     OW95827   6.090   1.912   7.326
31934SOL    HW195828   6.048   1.855   7.256
31934SOL    HW295829   6.024   1.981   7.358
31935SOL     OW95830   6.159   2.732   6.615
31935SOL    HW195831   6.203   2.821   6.606
31935SOL    HW295832   6.096   2.732   6.692
31936SOL     OW95833   6.946   2.724   6.631
31936SOL    HW195834   6.871   2.724   6.565
31936SOL    HW295835   6.983   2.632   6.640
31937SOL     OW95836   6.795   2.387   5.861
31937SOL    HW195837   6.808   2.303   5.915
31937SOL    HW295838   6.766   2.461   5.921
31938SOL     OW95839   5.893   2.075   6.817
31938SOL    HW195840   5.870   2.112   6.907
31938SOL    HW295841   5.863   1.980   6.811
31939SOL     OW95842   5.623   3.172   6.868
31939SOL    HW195843   5.676   3.123   6.936
31939SOL    HW295844   5.645   3.270   6.873
31940SOL     OW95845   6.318   2.496   6.650
31940SOL    HW195846   6.377   2.470   6.574
31940SOL    HW295847   6.290   2.592   6.639
31941SOL     OW95848   7.314   2.797   7.440
31941SOL    HW195849   7.268   2.790   7.351
31941SOL    HW295850   7.252   2.841   7.506
31942SOL     OW95851   5.893   1.925   6.204
31942SOL    HW195852   5.882   2.019   6.237
31942SOL    HW295853   5.888   1.862   6.281
31943SOL     OW95854   7.208   2.229   5.960
31943SOL    HW195855   7.210   2.153   6.024
31943SOL    HW295856   7.160   2.306   6.000
31944SOL     OW95857   6.609   2.628   6.552
31944SOL    HW195858   6.624   2.649   6.648
31944SOL    HW295859   6.579   2.533   6.543
31945SOL     OW95860   6.566   3.435   7.286
31945SOL    HW195861   6.546   3.479   7.198
31945SOL    HW295862   6.605   3.344   7.270
31946SOL     OW95863   7.445   3.380   7.191
31946SOL    HW195864   7.459   3.407   7.096
31946SOL    HW295865   7.528   3.402   7.244
31947SOL     OW95866   5.936   2.760   7.390
31947SOL    HW195867   6.012   2.804   7.438
31947SOL    HW295868   5.971   2.713   7.308
31948SOL     OW95869   7.126   2.136   5.711
31948SOL    HW195870   7.065   2.061   5.734
31948SOL    HW295871   7.148   2.188   5.794
31949SOL     OW95872   6.889   2.700   5.628
31949SOL    HW195873   6.923   2.607   5.643
31949SOL    HW295874   6.907   2.727   5.533
31950SOL     OW95875   6.654   3.195   6.435
31950SOL    HW195876   6.661   3.111   6.380
31950SOL    HW295877   6.716   3.264   6.399
31951SOL     OW95878   5.905   2.672   6.535
31951SOL    HW195879   5.998   2.708   6.540
31951SOL    HW295880   5.899   2.587   6.587
31952SOL     OW95881   5.925   2.371   6.592
31952SOL    HW195882   5.873   2.288   6.575
31952SOL    HW295883   6.002   2.376   6.528
31953SOL     OW95884   6.724   2.242   7.264
31953SOL    HW195885   6.679   2.305   7.328
31953SOL    HW295886   6.817   2.273   7.247
31954SOL     OW95887   6.746   2.069   7.063
31954SOL    HW195888   6.746   2.133   7.140
31954SOL    HW295889   6.774   2.117   6.980
31955SOL     OW95890   5.594   3.188   5.786
31955SOL    HW195891   5.501   3.209   5.755
31955SOL    HW295892   5.604   3.089   5.799
31956SOL     OW95893   5.674   3.663   6.513
31956SOL    HW195894   5.632   3.577   6.486
31956SOL    HW295895   5.768   3.666   6.479
31957SOL     OW95896   6.090   3.430   6.496
31957SOL    HW195897   6.156   3.504   6.505
31957SOL    HW295898   6.134   3.351   6.454
31958SOL     OW95899   6.588   2.658   6.824
31958SOL    HW195900   6.629   2.626   6.910
31958SOL    HW295901   6.492   2.631   6.821
31959SOL     OW95902   5.626   2.406   6.700
31959SOL    HW195903   5.711   2.373   6.659
31959SOL    HW295904   5.639   2.421   6.798
31960SOL     OW95905   5.775   2.382   7.308
31960SOL    HW195906   5.834   2.342   7.238
31960SOL    HW295907   5.717   2.453   7.267
31961SOL     OW95908   6.955   2.812   7.246
31961SOL    HW195909   6.994   2.901   7.266
31961SOL    HW295910   6.965   2.792   7.149
31962SOL     OW95911   6.401   2.434   5.911
31962SOL    HW195912   6.408   2.345   5.865
31962SOL    HW295913   6.307   2.468   5.903
31963SOL     OW95914   7.243   2.466   6.792
31963SOL    HW195915   7.205   2.397   6.854
31963SOL    HW295916   7.325   2.430   6.748
31964SOL     OW95917   5.838   3.426   7.330
31964SOL    HW195918   5.808   3.483   7.406
31964SOL    HW295919   5.831   3.329   7.356
31965SOL     OW95920   6.257   2.326   6.855
31965SOL    HW195921   6.223   2.237   6.825
31965SOL    HW295922   6.283   2.380   6.775
31966SOL     OW95923   6.516   3.540   7.051
31966SOL    HW195924   6.492   3.522   6.956
31966SOL    HW295925   6.546   3.634   7.061
31967SOL     OW95926   6.059   2.362   5.777
31967SOL    HW195927   6.120   2.442   5.781
31967SOL    HW295928   5.964   2.393   5.784
31968SOL     OW95929   5.745   2.999   7.052
31968SOL    HW195930   5.767   2.938   7.128
31968SOL    HW295931   5.755   2.950   6.966
31969SOL     OW95932   6.933   2.921   6.820
31969SOL    HW195933   6.957   2.858   6.746
31969SOL    HW295934   6.843   2.961   6.802
31970SOL     OW95935   6.888   2.717   5.895
31970SOL    HW195936   6.802   2.686   5.937
31970SOL    HW295937   6.884   2.703   5.796
31971SOL     OW95938   7.345   3.609   6.740
31971SOL    HW195939   7.406   3.639   6.667
31971SOL    HW295940   7.307   3.520   6.718
31972SOL     OW95941   6.838   3.593   6.714
31972SOL    HW195942   6.922   3.598   6.660
31972SOL    HW295943   6.815   3.497   6.732
31973SOL     OW95944   5.669   3.120   6.608
31973SOL    HW195945   5.664   3.119   6.708
31973SOL    HW295946   5.586   3.079   6.570
31974SOL     OW95947   6.274   3.524   7.302
31974SOL    HW195948   6.218   3.605   7.311
31974SOL    HW295949   6.326   3.528   7.216
31975SOL     OW95950   7.312   1.997   6.109
31975SOL    HW195951   7.385   1.980   6.042
31975SOL    HW295952   7.281   1.910   6.147
31976SOL     OW95953   6.974   3.435   6.063
31976SOL    HW195954   7.041   3.447   5.989
31976SOL    HW295955   6.934   3.524   6.086
31977SOL     OW95956   5.716   3.656   7.437
31977SOL    HW195957   5.675   3.582   7.490
31977SOL    HW295958   5.780   3.707   7.495
31978SOL     OW95959   6.866   2.789   6.258
31978SOL    HW195960   6.926   2.708   6.260
31978SOL    HW295961   6.906   2.858   6.198
31979SOL     OW95962   6.416   3.135   7.008
31979SOL    HW195963   6.411   3.168   7.103
31979SOL    HW295964   6.330   3.154   6.962
31980SOL     OW95965   6.258   3.478   5.740
31980SOL    HW195966   6.267   3.488   5.641
31980SOL    HW295967   6.218   3.389   5.761
31981SOL     OW95968   7.236   3.582   6.980
31981SOL    HW195969   7.289   3.592   6.896
31981SOL    HW295970   7.209   3.672   7.014
31982SOL     OW95971   7.427   2.037   6.549
31982SOL    HW195972   7.466   1.952   6.513
31982SOL    HW295973   7.329   2.039   6.530
31983SOL     OW95974   5.849   2.188   6.306
31983SOL    HW195975   5.770   2.239   6.272
31983SOL    HW295976   5.840   2.173   6.404
31984SOL     OW95977   6.780   3.474   5.617
31984SOL    HW195978   6.786   3.381   5.654
31984SOL    HW295979   6.721   3.474   5.537
31985SOL     OW95980   6.408   2.864   6.958
31985SOL    HW195981   6.448   2.863   6.866
31985SOL    HW295982   6.418   2.956   6.998
31986SOL     OW95983   6.502   2.772   5.877
31986SOL    HW195984   6.565   2.810   5.809
31986SOL    HW295985   6.542   2.689   5.916
31987SOL     OW95986   7.090   3.469   5.630
31987SOL    HW195987   6.998   3.506   5.637
31987SOL    HW295988   7.128   3.489   5.540
31988SOL     OW95989   5.958   3.150   7.076
31988SOL    HW195990   5.945   3.243   7.042
31988SOL    HW295991   5.874   3.098   7.063
31989SOL     OW95992   7.200   3.154   6.875
31989SOL    HW195993   7.260   3.157   6.955
31989SOL    HW295994   7.125   3.218   6.888
31990SOL     OW95995   6.625   2.960   6.282
31990SOL    HW195996   6.555   2.913   6.336
31990SOL    HW295997   6.684   2.892   6.239
31991SOL     OW95998   6.600   2.098   6.557
31991SOL    HW195999   6.592   2.062   6.464
31991SOL    HW296000   6.598   2.022   6.622
31992SOL     OW96001   6.176   3.349   6.077
31992SOL    HW196002   6.218   3.291   6.007
31992SOL    HW296003   6.132   3.428   6.033
31993SOL     OW96004   7.295   2.247   6.967
31993SOL    HW196005   7.368   2.316   6.971
31993SOL    HW296006   7.323   2.172   6.908
31994SOL     OW96007   5.841   3.210   5.876
31994SOL    HW196008   5.745   3.211   5.849
31994SOL    HW296009   5.853   3.263   5.960
31995SOL     OW96010   5.691   2.875   7.312
31995SOL    HW196011   5.614   2.842   7.366
31995SOL    HW296012   5.776   2.845   7.354
31996SOL     OW96013   6.258   2.065   7.075
31996SOL    HW196014   6.348   2.049   7.035
31996SOL    HW296015   6.266   2.070   7.174
31997SOL     OW96016   5.661   2.207   5.619
31997SOL    HW196017   5.569   2.179   5.590
31997SOL    HW296018   5.692   2.284   5.563
31998SOL     OW96019   7.026   2.718   6.984
31998SOL    HW196020   6.969   2.770   6.921
31998SOL    HW296021   7.122   2.730   6.960
31999SOL     OW96022   5.658   2.028   5.904
31999SOL    HW196023   5.641   2.111   5.850
31999SOL    HW296024   5.748   1.991   5.882
32000SOL     OW96025   6.769   3.197   5.705
32000SOL    HW196026   6.670   3.186   5.707
32000SOL    HW296027   6.803   3.212   5.798
32001SOL     OW96028   6.199   2.704   7.017
32001SOL    HW196029   6.255   2.785   7.000
32001SOL    HW296030   6.258   2.624   7.020
32002SOL     OW96031   7.079   3.629   6.545
32002SOL    HW196032   7.112   3.693   6.476
32002SOL    HW296033   7.145   3.623   6.620
32003SOL     OW96034   6.302   2.427   7.294
32003SOL    HW196035   6.321   2.492   7.368
32003SOL    HW296036   6.362   2.347   7.303
32004SOL     OW96037   7.036   3.082   7.219
32004SOL    HW196038   7.027   3.072   7.318
32004SOL    HW296039   7.132   3.075   7.193
32005SOL     OW96040   5.976   3.603   7.146
32005SOL    HW196041   5.885   3.644   7.144
32005SOL    HW296042   5.969   3.509   7.178
32006SOL     OW96043   7.260   2.745   6.840
32006SOL    HW196044   7.233   2.656   6.803
32006SOL    HW296045   7.261   2.813   6.767
32007SOL     OW96046   6.811   2.187   6.035
32007SOL    HW196047   6.876   2.113   6.024
32007SOL    HW296048   6.831   2.237   6.119
32008SOL     OW96049   6.180   2.607   6.238
32008SOL    HW196050   6.230   2.692   6.219
32008SOL    HW296051   6.092   2.609   6.190
32009SOL     OW96052   7.363   2.204   7.228
32009SOL    HW196053   7.346   2.235   7.134
32009SOL    HW296054   7.279   2.167   7.266
32010SOL     OW96055   7.316   2.796   7.103
32010SOL    HW196056   7.354   2.887   7.118
32010SOL    HW296057   7.308   2.779   7.004
32011SOL     OW96058   6.445   3.236   5.602
32011SOL    HW196059   6.399   3.251   5.690
32011SOL    HW296060   6.489   3.321   5.572
32012SOL     OW96061   6.247   3.652   6.539
32012SOL    HW196062   6.201   3.740   6.526
32012SOL    HW296063   6.346   3.664   6.532
32013SOL     OW96064   6.445   2.818   6.447
32013SOL    HW196065   6.499   2.749   6.495
32013SOL    HW296066   6.413   2.887   6.513
32014SOL     OW96067   6.669   2.846   5.673
32014SOL    HW196068   6.646   2.899   5.591
32014SOL    HW296069   6.750   2.790   5.654
32015SOL     OW96070   7.447   3.431   6.437
32015SOL    HW196071   7.376   3.419   6.367
32015SOL    HW296072   7.448   3.352   6.497
32016SOL     OW96073   5.807   3.176   7.430
32016SOL    HW196074   5.742   3.103   7.409
32016SOL    HW296075   5.811   3.190   7.528
32017SOL     OW96076   5.665   3.102   6.239
32017SOL    HW196077   5.664   3.055   6.327
32017SOL    HW296078   5.747   3.074   6.188
32018SOL     OW96079   6.258   3.253   7.210
32018SOL    HW196080   6.180   3.203   7.248
32018SOL    HW296081   6.255   3.348   7.241
32019SOL     OW96082   7.410   2.054   6.813
32019SOL    HW196083   7.406   1.964   6.857
32019SOL    HW296084   7.413   2.043   6.714
32020SOL     OW96085   6.014   2.286   6.106
32020SOL    HW196086   6.044   2.214   6.044
32020SOL    HW296087   5.975   2.246   6.189
32021SOL     OW96088   7.291   3.349   6.690
32021SOL    HW196089   7.198   3.324   6.663
32021SOL    HW296090   7.317   3.299   6.772
32022SOL     OW96091   5.903   2.409   6.866
32022SOL    HW196092   5.941   2.350   6.938
32022SOL    HW296093   5.943   2.383   6.778
32023SOL     OW96094   6.398   3.448   6.273
32023SOL    HW196095   6.430   3.458   6.179
32023SOL    HW296096   6.319   3.386   6.275
32024SOL     OW96097   7.010   2.076   6.698
32024SOL    HW196098   7.062   2.011   6.753
32024SOL    HW296099   6.961   2.139   6.759
32025SOL     OW96100   6.587   1.896   6.740
32025SOL    HW196101   6.524   1.824   6.709
32025SOL    HW296102   6.680   1.860   6.740
32026SOL     OW96103   6.356   3.192   5.887
32026SOL    HW196104   6.310   3.105   5.904
32026SOL    HW296105   6.447   3.189   5.928
32027SOL     OW96106   6.204   3.429   6.870
32027SOL    HW196107   6.199   3.511   6.927
32027SOL    HW296108   6.293   3.426   6.825
32028SOL     OW96109   6.938   1.914   5.754
32028SOL    HW196110   6.973   1.873   5.670
32028SOL    HW296111   6.848   1.876   5.774
32029SOL     OW96112   6.886   2.315   6.277
32029SOL    HW196113   6.827   2.395   6.281
32029SOL    HW296114   6.901   2.280   6.370
32030SOL     OW96115   7.179   2.083   6.468
32030SOL    HW196116   7.095   2.082   6.522
32030SOL    HW296117   7.181   2.166   6.412
32031SOL     OW96118   5.625   2.939   5.886
32031SOL    HW196119   5.724   2.928   5.877
32031SOL    HW296120   5.585   2.853   5.918
32032SOL     OW96121   6.461   3.508   5.923
32032SOL    HW196122   6.384   3.473   5.869
32032SOL    HW296123   6.429   3.579   5.985
32033SOL     OW96124   5.816   2.490   7.561
32033SOL    HW196125   5.723   2.488   7.598
32033SOL    HW296126   5.817   2.451   7.469
32034SOL     OW96127   5.811   2.137   8.444
32034SOL    HW196128   5.846   2.120   8.536
32034SOL    HW296129   5.723   2.092   8.432
32035SOL     OW96130   5.605   2.230   8.095
32035SOL    HW196131   5.523   2.273   8.134
32035SOL    HW296132   5.577   2.157   8.032
32036SOL     OW96133   6.155   3.137   8.613
32036SOL    HW196134   6.062   3.130   8.576
32036SOL    HW296135   6.166   3.226   8.657
32037SOL     OW96136   7.141   3.373   8.151
32037SOL    HW196137   7.084   3.357   8.232
32037SOL    HW296138   7.082   3.383   8.071
32038SOL     OW96139   6.721   2.565   8.165
32038SOL    HW196140   6.778   2.643   8.140
32038SOL    HW296141   6.661   2.591   8.241
32039SOL     OW96142   7.341   2.469   7.679
32039SOL    HW196143   7.329   2.456   7.580
32039SOL    HW296144   7.311   2.388   7.728
32040SOL     OW96145   6.354   3.006   8.471
32040SOL    HW196146   6.276   3.023   8.531
32040SOL    HW296147   6.388   3.093   8.435
32041SOL     OW96148   6.436   2.660   9.271
32041SOL    HW196149   6.432   2.736   9.336
32041SOL    HW296150   6.458   2.696   9.180
32042SOL     OW96151   6.271   2.874   8.113
32042SOL    HW196152   6.340   2.858   8.183
32042SOL    HW296153   6.198   2.931   8.151
32043SOL     OW96154   6.272   3.023   9.251
32043SOL    HW196155   6.332   3.102   9.265
32043SOL    HW296156   6.186   3.054   9.210
32044SOL     OW96157   5.921   3.297   8.509
32044SOL    HW196158   5.843   3.266   8.456
32044SOL    HW296159   5.979   3.355   8.452
32045SOL     OW96160   7.046   3.367   8.787
32045SOL    HW196161   7.070   3.461   8.813
32045SOL    HW296162   7.030   3.313   8.869
32046SOL     OW96163   6.024   2.254   8.947
32046SOL    HW196164   6.106   2.198   8.956
32046SOL    HW296165   5.943   2.196   8.951
32047SOL     OW96166   7.189   2.309   8.185
32047SOL    HW196167   7.115   2.355   8.135
32047SOL    HW296168   7.240   2.377   8.238
32048SOL     OW96169   5.817   3.575   7.931
32048SOL    HW196170   5.851   3.652   7.985
32048SOL    HW296171   5.861   3.575   7.841
32049SOL     OW96172   6.713   3.203   9.138
32049SOL    HW196173   6.760   3.203   9.226
32049SOL    HW296174   6.665   3.116   9.127
32050SOL     OW96175   5.816   3.296   7.986
32050SOL    HW196176   5.790   3.392   7.986
32050SOL    HW296177   5.745   3.242   8.031
32051SOL     OW96178   5.826   2.953   8.334
32051SOL    HW196179   5.840   2.869   8.386
32051SOL    HW296180   5.771   3.017   8.389
32052SOL     OW96181   6.206   3.648   8.887
32052SOL    HW196182   6.114   3.631   8.922
32052SOL    HW296183   6.234   3.740   8.913
32053SOL     OW96184   6.192   2.826   7.571
32053SOL    HW196185   6.199   2.910   7.517
32053SOL    HW296186   6.238   2.839   7.659
32054SOL     OW96187   7.180   1.976   8.928
32054SOL    HW196188   7.162   2.043   8.856
32054SOL    HW296189   7.177   2.022   9.017
32055SOL     OW96190   5.708   2.505   8.011
32055SOL    HW196191   5.663   2.417   8.028
32055SOL    HW296192   5.707   2.559   8.095
32056SOL     OW96193   7.428   3.629   7.807
32056SOL    HW196194   7.482   3.600   7.887
32056SOL    HW296195   7.458   3.719   7.778
32057SOL     OW96196   5.613   3.458   7.565
32057SOL    HW196197   5.594   3.362   7.586
32057SOL    HW296198   5.580   3.516   7.640
32058SOL     OW96199   7.275   2.784   8.060
32058SOL    HW196200   7.370   2.755   8.068
32058SOL    HW296201   7.267   2.849   7.985
32059SOL     OW96202   7.227   2.970   7.880
32059SOL    HW196203   7.313   2.972   7.828
32059SOL    HW296204   7.241   3.017   7.968
32060SOL     OW96205   5.699   2.599   9.045
32060SOL    HW196206   5.787   2.586   9.090
32060SOL    HW296207   5.686   2.696   9.023
32061SOL     OW96208   6.199   3.227   8.174
32061SOL    HW196209   6.150   3.140   8.183
32061SOL    HW296210   6.176   3.270   8.087
32062SOL     OW96211   6.879   3.090   8.871
32062SOL    HW196212   6.916   3.017   8.813
32062SOL    HW296213   6.931   3.095   8.956
32063SOL     OW96214   6.395   1.866   7.950
32063SOL    HW196215   6.435   1.957   7.941
32063SOL    HW296216   6.295   1.874   7.956
32064SOL     OW96217   5.783   2.838   8.712
32064SOL    HW196218   5.872   2.793   8.698
32064SOL    HW296219   5.710   2.773   8.693
32065SOL     OW96220   7.111   2.861   7.638
32065SOL    HW196221   7.048   2.785   7.651
32065SOL    HW296222   7.159   2.879   7.724
32066SOL     OW96223   6.773   3.654   9.064
32066SOL    HW196224   6.797   3.714   8.988
32066SOL    HW296225   6.780   3.559   9.034
32067SOL     OW96226   5.903   2.113   9.249
32067SOL    HW196227   5.974   2.184   9.255
32067SOL    HW296228   5.815   2.152   9.277
32068SOL     OW96229   7.052   3.279   8.401
32068SOL    HW196230   6.993   3.285   8.481
32068SOL    HW296231   7.037   3.191   8.355
32069SOL     OW96232   7.253   3.576   8.020
32069SOL    HW196233   7.212   3.553   7.932
32069SOL    HW296234   7.235   3.502   8.085
32070SOL     OW96235   6.184   2.591   7.718
32070SOL    HW196236   6.208   2.660   7.650
32070SOL    HW296237   6.106   2.624   7.772
32071SOL     OW96238   6.867   2.207   8.392
32071SOL    HW196239   6.781   2.157   8.379
32071SOL    HW296240   6.929   2.153   8.448
32072SOL     OW96241   7.162   3.524   7.755
32072SOL    HW196242   7.251   3.570   7.758
32072SOL    HW296243   7.141   3.500   7.660
32073SOL     OW96244   6.393   2.467   8.913
32073SOL    HW196245   6.346   2.464   9.002
32073SOL    HW296246   6.342   2.412   8.847
32074SOL     OW96247   6.980   2.331   9.122
32074SOL    HW196248   6.960   2.374   9.210
32074SOL    HW296249   7.058   2.269   9.131
32075SOL     OW96250   6.559   2.752   9.020
32075SOL    HW196251   6.605   2.668   8.991
32075SOL    HW296252   6.503   2.786   8.945
32076SOL     OW96253   6.577   2.272   8.690
32076SOL    HW196254   6.500   2.306   8.744
32076SOL    HW296255   6.543   2.221   8.611
32077SOL     OW96256   6.627   2.563   7.877
32077SOL    HW196257   6.653   2.559   7.973
32077SOL    HW296258   6.542   2.512   7.863
32078SOL     OW96259   5.662   2.673   8.237
32078SOL    HW196260   5.761   2.661   8.246
32078SOL    HW296261   5.638   2.768   8.258
32079SOL     OW96262   5.716   3.683   9.019
32079SOL    HW196263   5.706   3.668   9.118
32079SOL    HW296264   5.630   3.719   8.983
32080SOL     OW96265   6.451   2.210   7.643
32080SOL    HW196266   6.510   2.273   7.594
32080SOL    HW296267   6.470   2.116   7.614
32081SOL     OW96268   7.305   2.447   9.279
32081SOL    HW196269   7.279   2.536   9.243
32081SOL    HW296270   7.303   2.379   9.206
32082SOL     OW96271   6.948   3.006   7.993
32082SOL    HW196272   7.031   2.977   7.945
32082SOL    HW296273   6.899   3.073   7.937
32083SOL     OW96274   6.136   2.058   8.333
32083SOL    HW196275   6.131   2.053   8.433
32083SOL    HW296276   6.138   2.154   8.304
32084SOL     OW96277   6.594   3.318   7.925
32084SOL    HW196278   6.548   3.390   7.873
32084SOL    HW296279   6.590   3.338   8.023
32085SOL     OW96280   5.937   3.663   8.301
32085SOL    HW196281   5.987   3.577   8.307
32085SOL    HW296282   6.002   3.740   8.298
32086SOL     OW96283   7.381   2.928   8.321
32086SOL    HW196284   7.319   2.913   8.245
32086SOL    HW296285   7.329   2.939   8.406
32087SOL     OW96286   6.813   3.412   8.954
32087SOL    HW196287   6.819   3.335   9.018
32087SOL    HW296288   6.761   3.386   8.874
32088SOL     OW96289   5.907   2.805   7.690
32088SOL    HW196290   5.989   2.844   7.648
32088SOL    HW296291   5.880   2.723   7.641
32089SOL     OW96292   7.044   2.597   8.176
32089SOL    HW196293   7.039   2.532   8.251
32089SOL    HW296294   7.124   2.656   8.189
32090SOL     OW96295   6.047   3.128   9.175
32090SOL    HW196296   5.997   3.129   9.089
32090SOL    HW296297   5.984   3.110   9.251
32091SOL     OW96298   6.697   3.638   7.685
32091SOL    HW196299   6.637   3.576   7.735
32091SOL    HW296300   6.728   3.594   7.600
32092SOL     OW96301   5.788   2.147   8.946
32092SOL    HW196302   5.708   2.207   8.933
32092SOL    HW296303   5.778   2.098   9.032
32093SOL     OW96304   7.218   3.239   7.529
32093SOL    HW196305   7.186   3.333   7.519
32093SOL    HW296306   7.142   3.176   7.517
32094SOL     OW96307   6.050   3.605   7.771
32094SOL    HW196308   6.083   3.644   7.857
32094SOL    HW296309   6.126   3.598   7.706
32095SOL     OW96310   6.986   1.969   7.874
32095SOL    HW196311   6.962   1.932   7.784
32095SOL    HW296312   7.085   1.985   7.878
32096SOL     OW96313   5.835   3.647   8.689
32096SOL    HW196314   5.892   3.582   8.739
32096SOL    HW296315   5.819   3.614   8.596
32097SOL     OW96316   6.526   3.560   8.352
32097SOL    HW196317   6.606   3.503   8.373
32097SOL    HW296318   6.477   3.520   8.275
32098SOL     OW96319   5.968   2.562   7.928
32098SOL    HW196320   6.013   2.472   7.925
32098SOL    HW296321   5.874   2.551   7.961
32099SOL     OW96322   7.133   2.084   9.177
32099SOL    HW196323   7.128   2.121   9.269
32099SOL    HW296324   7.061   2.015   9.165
32100SOL     OW96325   6.200   1.984   7.565
32100SOL    HW196326   6.298   1.962   7.572
32100SOL    HW296327   6.169   1.967   7.472
32101SOL     OW96328   6.367   2.126   9.197
32101SOL    HW196329   6.434   2.065   9.240
32101SOL    HW296330   6.294   2.145   9.262
32102SOL     OW96331   6.474   3.376   8.643
32102SOL    HW196332   6.451   3.351   8.549
32102SOL    HW296333   6.535   3.307   8.682
32103SOL     OW96334   6.937   2.452   8.881
32103SOL    HW196335   6.965   2.409   8.966
32103SOL    HW296336   6.962   2.548   8.882
32104SOL     OW96337   6.389   3.264   8.372
32104SOL    HW196338   6.479   3.278   8.330
32104SOL    HW296339   6.318   3.266   8.301
32105SOL     OW96340   6.508   2.365   8.347
32105SOL    HW196341   6.483   2.356   8.251
32105SOL    HW296342   6.556   2.283   8.378
32106SOL     OW96343   6.125   1.926   7.960
32106SOL    HW196344   6.044   1.927   8.018
32106SOL    HW296345   6.128   2.009   7.905
32107SOL     OW96346   7.020   3.050   7.489
32107SOL    HW196347   7.052   2.974   7.546
32107SOL    HW296348   6.928   3.077   7.519
32108SOL     OW96349   5.883   1.897   7.619
32108SOL    HW196350   5.932   1.981   7.598
32108SOL    HW296351   5.945   1.832   7.664
32109SOL     OW96352   6.521   2.098   7.928
32109SOL    HW196353   6.473   2.139   7.850
32109SOL    HW296354   6.620   2.096   7.909
32110SOL     OW96355   6.662   2.545   8.912
32110SOL    HW196356   6.582   2.484   8.915
32110SOL    HW296357   6.743   2.492   8.888
32111SOL     OW96358   6.813   3.432   8.241
32111SOL    HW196359   6.834   3.506   8.176
32111SOL    HW296360   6.881   3.432   8.314
32112SOL     OW96361   6.045   3.014   8.189
32112SOL    HW196362   5.974   2.987   8.254
32112SOL    HW296363   6.019   2.986   8.096
32113SOL     OW96364   6.857   3.659   8.039
32113SOL    HW196365   6.901   3.723   7.975
32113SOL    HW296366   6.807   3.711   8.109
32114SOL     OW96367   6.618   2.411   7.464
32114SOL    HW196368   6.577   2.493   7.425
32114SOL    HW296369   6.682   2.437   7.537
32115SOL     OW96370   5.664   2.418   8.834
32115SOL    HW196371   5.756   2.417   8.793
32115SOL    HW296372   5.658   2.492   8.901
32116SOL     OW96373   6.147   2.084   8.595
32116SOL    HW196374   6.185   2.000   8.632
32116SOL    HW296375   6.059   2.103   8.639
32117SOL     OW96376   6.452   2.316   8.090
32117SOL    HW196377   6.420   2.388   8.028
32117SOL    HW296378   6.476   2.235   8.037
32118SOL     OW96379   6.603   1.901   8.201
32118SOL    HW196380   6.531   1.906   8.132
32118SOL    HW296381   6.579   1.832   8.270
32119SOL     OW96382   7.015   3.035   8.315
32119SOL    HW196383   6.960   2.951   8.308
32119SOL    HW296384   7.041   3.064   8.223
32120SOL     OW96385   7.052   2.452   8.440
32120SOL    HW196386   7.022   2.357   8.447
32120SOL    HW296387   7.125   2.468   8.506
32121SOL     OW96388   7.443   2.695   7.825
32121SOL    HW196389   7.485   2.631   7.889
32121SOL    HW296390   7.405   2.644   7.747
32122SOL     OW96391   6.074   3.247   7.622
32122SOL    HW196392   5.987   3.232   7.669
32122SOL    HW296393   6.057   3.273   7.527
32123SOL     OW96394   7.250   3.142   8.105
32123SOL    HW196395   7.349   3.150   8.119
32123SOL    HW296396   7.205   3.226   8.136
32124SOL     OW96397   6.976   2.437   7.526
32124SOL    HW196398   6.922   2.416   7.607
32124SOL    HW296399   7.067   2.396   7.535
32125SOL     OW96400   6.113   2.118   7.776
32125SOL    HW196401   6.140   2.059   7.701
32125SOL    HW296402   6.113   2.213   7.745
32126SOL     OW96403   7.340   3.085   9.036
32126SOL    HW196404   7.431   3.046   9.023
32126SOL    HW296405   7.348   3.181   9.060
32127SOL     OW96406   6.650   3.209   8.788
32127SOL    HW196407   6.570   3.186   8.843
32127SOL    HW296408   6.733   3.183   8.837
32128SOL     OW96409   7.178   3.491   9.073
32128SOL    HW196410   7.205   3.525   8.983
32128SOL    HW296411   7.257   3.453   9.119
32129SOL     OW96412   6.697   3.057   8.548
32129SOL    HW196413   6.657   3.101   8.629
32129SOL    HW296414   6.656   3.094   8.465
32130SOL     OW96415   7.224   2.961   8.527
32130SOL    HW196416   7.229   3.042   8.586
32130SOL    HW296417   7.138   2.963   8.476
32131SOL     OW96418   6.501   1.951   8.850
32131SOL    HW196419   6.526   1.931   8.755
32131SOL    HW296420   6.573   2.007   8.892
32132SOL     OW96421   6.566   2.978   9.167
32132SOL    HW196422   6.467   2.984   9.177
32132SOL    HW296423   6.589   2.898   9.111
32133SOL     OW96424   6.291   2.912   7.816
32133SOL    HW196425   6.277   2.919   7.915
32133SOL    HW296426   6.375   2.861   7.798
32134SOL     OW96427   5.996   2.675   8.699
32134SOL    HW196428   6.082   2.687   8.749
32134SOL    HW296429   5.954   2.588   8.726
32135SOL     OW96430   6.860   2.248   8.710
32135SOL    HW196431   6.881   2.322   8.774
32135SOL    HW296432   6.771   2.265   8.667
32136SOL     OW96433   5.650   3.426   8.779
32136SOL    HW196434   5.604   3.508   8.745
32136SOL    HW296435   5.748   3.445   8.788
32137SOL     OW96436   5.953   2.962   7.949
32137SOL    HW196437   5.946   3.045   7.893
32137SOL    HW296438   5.957   2.882   7.889
32138SOL     OW96439   6.152   2.399   8.313
32138SOL    HW196440   6.164   2.465   8.239
32138SOL    HW296441   6.198   2.433   8.396
32139SOL     OW96442   6.838   3.210   7.836
32139SOL    HW196443   6.888   3.287   7.876
32139SOL    HW296444   6.743   3.212   7.868
32140SOL     OW96445   6.858   3.307   8.590
32140SOL    HW196446   6.905   3.320   8.677
32140SOL    HW296447   6.792   3.233   8.599
32141SOL     OW96448   7.168   2.501   7.920
32141SOL    HW196449   7.137   2.562   7.993
32141SOL    HW296450   7.218   2.553   7.851
32142SOL     OW96451   5.940   3.372   8.777
32142SOL    HW196452   5.919   3.328   8.690
32142SOL    HW296453   6.037   3.398   8.780
32143SOL     OW96454   5.988   2.613   9.046
32143SOL    HW196455   6.056   2.668   8.999
32143SOL    HW296456   6.028   2.525   9.073
32144SOL     OW96457   7.173   2.641   9.118
32144SOL    HW196458   7.081   2.679   9.113
32144SOL    HW296459   7.233   2.688   9.053
32145SOL     OW96460   6.599   1.967   9.218
32145SOL    HW196461   6.605   2.052   9.166
32145SOL    HW296462   6.631   1.891   9.161
32146SOL     OW96463   6.090   1.912   9.188
32146SOL    HW196464   6.048   1.855   9.118
32146SOL    HW296465   6.024   1.981   9.220
32147SOL     OW96466   6.159   2.732   8.477
32147SOL    HW196467   6.203   2.821   8.468
32147SOL    HW296468   6.096   2.732   8.554
32148SOL     OW96469   6.946   2.724   8.493
32148SOL    HW196470   6.871   2.724   8.427
32148SOL    HW296471   6.983   2.632   8.502
32149SOL     OW96472   6.795   2.387   7.723
32149SOL    HW196473   6.808   2.303   7.777
32149SOL    HW296474   6.766   2.461   7.783
32150SOL     OW96475   5.893   2.075   8.679
32150SOL    HW196476   5.870   2.112   8.769
32150SOL    HW296477   5.863   1.980   8.673
32151SOL     OW96478   5.623   3.172   8.730
32151SOL    HW196479   5.676   3.123   8.798
32151SOL    HW296480   5.645   3.270   8.735
32152SOL     OW96481   6.318   2.496   8.512
32152SOL    HW196482   6.377   2.470   8.436
32152SOL    HW296483   6.290   2.592   8.501
32153SOL     OW96484   7.314   2.797   9.302
32153SOL    HW196485   7.268   2.790   9.213
32153SOL    HW296486   7.252   2.841   9.368
32154SOL     OW96487   5.893   1.925   8.066
32154SOL    HW196488   5.882   2.019   8.099
32154SOL    HW296489   5.888   1.862   8.143
32155SOL     OW96490   7.208   2.229   7.822
32155SOL    HW196491   7.210   2.153   7.886
32155SOL    HW296492   7.160   2.306   7.862
32156SOL     OW96493   6.609   2.628   8.414
32156SOL    HW196494   6.624   2.649   8.510
32156SOL    HW296495   6.579   2.533   8.405
32157SOL     OW96496   6.566   3.435   9.148
32157SOL    HW196497   6.546   3.479   9.060
32157SOL    HW296498   6.605   3.344   9.132
32158SOL     OW96499   7.445   3.380   9.053
32158SOL    HW196500   7.459   3.407   8.958
32158SOL    HW296501   7.528   3.402   9.106
32159SOL     OW96502   5.936   2.760   9.252
32159SOL    HW196503   6.012   2.804   9.300
32159SOL    HW296504   5.971   2.713   9.170
32160SOL     OW96505   7.126   2.136   7.573
32160SOL    HW196506   7.065   2.061   7.596
32160SOL    HW296507   7.148   2.188   7.656
32161SOL     OW96508   6.889   2.700   7.490
32161SOL    HW196509   6.923   2.607   7.505
32161SOL    HW296510   6.907   2.727   7.395
32162SOL     OW96511   6.654   3.195   8.297
32162SOL    HW196512   6.661   3.111   8.242
32162SOL    HW296513   6.716   3.264   8.261
32163SOL     OW96514   5.905   2.672   8.397
32163SOL    HW196515   5.998   2.708   8.402
32163SOL    HW296516   5.899   2.587   8.449
32164SOL     OW96517   5.925   2.371   8.454
32164SOL    HW196518   5.873   2.288   8.437
32164SOL    HW296519   6.002   2.376   8.390
32165SOL     OW96520   6.724   2.242   9.126
32165SOL    HW196521   6.679   2.305   9.190
32165SOL    HW296522   6.817   2.273   9.109
32166SOL     OW96523   6.746   2.069   8.925
32166SOL    HW196524   6.746   2.133   9.002
32166SOL    HW296525   6.774   2.117   8.842
32167SOL     OW96526   5.594   3.188   7.648
32167SOL    HW196527   5.501   3.209   7.617
32167SOL    HW296528   5.604   3.089   7.661
32168SOL     OW96529   5.674   3.663   8.375
32168SOL    HW196530   5.632   3.577   8.348
32168SOL    HW296531   5.768   3.666   8.341
32169SOL     OW96532   6.090   3.430   8.358
32169SOL    HW196533   6.156   3.504   8.367
32169SOL    HW296534   6.134   3.351   8.316
32170SOL     OW96535   6.588   2.658   8.686
32170SOL    HW196536   6.629   2.626   8.772
32170SOL    HW296537   6.492   2.631   8.683
32171SOL     OW96538   5.626   2.406   8.562
32171SOL    HW196539   5.711   2.373   8.521
32171SOL    HW296540   5.639   2.421   8.660
32172SOL     OW96541   5.775   2.382   9.170
32172SOL    HW196542   5.834   2.342   9.100
32172SOL    HW296543   5.717   2.453   9.129
32173SOL     OW96544   6.955   2.812   9.108
32173SOL    HW196545   6.994   2.901   9.128
32173SOL    HW296546   6.965   2.792   9.011
32174SOL     OW96547   6.401   2.434   7.773
32174SOL    HW196548   6.408   2.345   7.727
32174SOL    HW296549   6.307   2.468   7.765
32175SOL     OW96550   7.243   2.466   8.654
32175SOL    HW196551   7.205   2.397   8.716
32175SOL    HW296552   7.325   2.430   8.610
32176SOL     OW96553   5.838   3.426   9.192
32176SOL    HW196554   5.808   3.483   9.268
32176SOL    HW296555   5.831   3.329   9.218
32177SOL     OW96556   6.257   2.326   8.717
32177SOL    HW196557   6.223   2.237   8.687
32177SOL    HW296558   6.283   2.380   8.637
32178SOL     OW96559   6.516   3.540   8.913
32178SOL    HW196560   6.492   3.522   8.818
32178SOL    HW296561   6.546   3.634   8.923
32179SOL     OW96562   6.059   2.362   7.639
32179SOL    HW196563   6.120   2.442   7.643
32179SOL    HW296564   5.964   2.393   7.646
32180SOL     OW96565   5.745   2.999   8.914
32180SOL    HW196566   5.767   2.938   8.990
32180SOL    HW296567   5.755   2.950   8.828
32181SOL     OW96568   6.933   2.921   8.682
32181SOL    HW196569   6.957   2.858   8.608
32181SOL    HW296570   6.843   2.961   8.664
32182SOL     OW96571   6.888   2.717   7.757
32182SOL    HW196572   6.802   2.686   7.799
32182SOL    HW296573   6.884   2.703   7.658
32183SOL     OW96574   7.345   3.609   8.602
32183SOL    HW196575   7.406   3.639   8.529
32183SOL    HW296576   7.307   3.520   8.580
32184SOL     OW96577   6.838   3.593   8.576
32184SOL    HW196578   6.922   3.598   8.522
32184SOL    HW296579   6.815   3.497   8.594
32185SOL     OW96580   5.669   3.120   8.470
32185SOL    HW196581   5.664   3.119   8.570
32185SOL    HW296582   5.586   3.079   8.432
32186SOL     OW96583   6.274   3.524   9.164
32186SOL    HW196584   6.218   3.605   9.173
32186SOL    HW296585   6.326   3.528   9.078
32187SOL     OW96586   7.312   1.997   7.971
32187SOL    HW196587   7.385   1.980   7.904
32187SOL    HW296588   7.281   1.910   8.009
32188SOL     OW96589   6.974   3.435   7.925
32188SOL    HW196590   7.041   3.447   7.851
32188SOL    HW296591   6.934   3.524   7.948
32189SOL     OW96592   5.716   3.656   9.299
32189SOL    HW196593   5.675   3.582   9.352
32189SOL    HW296594   5.780   3.707   9.357
32190SOL     OW96595   6.866   2.789   8.120
32190SOL    HW196596   6.926   2.708   8.122
32190SOL    HW296597   6.906   2.858   8.060
32191SOL     OW96598   6.416   3.135   8.870
32191SOL    HW196599   6.411   3.168   8.965
32191SOL    HW296600   6.330   3.154   8.824
32192SOL     OW96601   6.258   3.478   7.602
32192SOL    HW196602   6.267   3.488   7.503
32192SOL    HW296603   6.218   3.389   7.623
32193SOL     OW96604   7.236   3.582   8.842
32193SOL    HW196605   7.289   3.592   8.758
32193SOL    HW296606   7.209   3.672   8.876
32194SOL     OW96607   7.427   2.037   8.411
32194SOL    HW196608   7.466   1.952   8.375
32194SOL    HW296609   7.329   2.039   8.392
32195SOL     OW96610   5.849   2.188   8.168
32195SOL    HW196611   5.770   2.239   8.134
32195SOL    HW296612   5.840   2.173   8.266
32196SOL     OW96613   6.780   3.474   7.479
32196SOL    HW196614   6.786   3.381   7.516
32196SOL    HW296615   6.721   3.474   7.399
32197SOL     OW96616   6.408   2.864   8.820
32197SOL    HW196617   6.448   2.863   8.728
32197SOL    HW296618   6.418   2.956   8.860
32198SOL     OW96619   6.502   2.772   7.739
32198SOL    HW196620   6.565   2.810   7.671
32198SOL    HW296621   6.542   2.689   7.778
32199SOL     OW96622   7.090   3.469   7.492
32199SOL    HW196623   6.998   3.506   7.499
32199SOL    HW296624   7.128   3.489   7.402
32200SOL     OW96625   5.958   3.150   8.938
32200SOL    HW196626   5.945   3.243   8.904
32200SOL    HW296627   5.874   3.098   8.925
32201SOL     OW96628   7.200   3.154   8.737
32201SOL    HW196629   7.260   3.157   8.817
32201SOL    HW296630   7.125   3.218   8.750
32202SOL     OW96631   6.625   2.960   8.144
32202SOL    HW196632   6.555   2.913   8.198
32202SOL    HW296633   6.684   2.892   8.101
32203SOL     OW96634   6.600   2.098   8.419
32203SOL    HW196635   6.592   2.062   8.326
32203SOL    HW296636   6.598   2.022   8.484
32204SOL     OW96637   6.176   3.349   7.939
32204SOL    HW196638   6.218   3.291   7.869
32204SOL    HW296639   6.132   3.428   7.895
32205SOL     OW96640   7.295   2.247   8.829
32205SOL    HW196641   7.368   2.316   8.833
32205SOL    HW296642   7.323   2.172   8.770
32206SOL     OW96643   5.841   3.210   7.738
32206SOL    HW196644   5.745   3.211   7.711
32206SOL    HW296645   5.853   3.263   7.822
32207SOL     OW96646   5.691   2.875   9.174
32207SOL    HW196647   5.614   2.842   9.228
32207SOL    HW296648   5.776   2.845   9.216
32208SOL     OW96649   6.258   2.065   8.937
32208SOL    HW196650   6.348   2.049   8.897
32208SOL    HW296651   6.266   2.070   9.036
32209SOL     OW96652   5.661   2.207   7.481
32209SOL    HW196653   5.569   2.179   7.452
32209SOL    HW296654   5.692   2.284   7.425
32210SOL     OW96655   7.026   2.718   8.846
32210SOL    HW196656   6.969   2.770   8.783
32210SOL    HW296657   7.122   2.730   8.822
32211SOL     OW96658   5.658   2.028   7.766
32211SOL    HW196659   5.641   2.111   7.712
32211SOL    HW296660   5.748   1.991   7.744
32212SOL     OW96661   6.769   3.197   7.567
32212SOL    HW196662   6.670   3.186   7.569
32212SOL    HW296663   6.803   3.212   7.660
32213SOL     OW96664   6.199   2.704   8.879
32213SOL    HW196665   6.255   2.785   8.862
32213SOL    HW296666   6.258   2.624   8.882
32214SOL     OW96667   7.079   3.629   8.407
32214SOL    HW196668   7.112   3.693   8.338
32214SOL    HW296669   7.145   3.623   8.482
32215SOL     OW96670   6.302   2.427   9.156
32215SOL    HW196671   6.321   2.492   9.230
32215SOL    HW296672   6.362   2.347   9.165
32216SOL     OW96673   7.036   3.082   9.081
32216SOL    HW196674   7.027   3.072   9.180
32216SOL    HW296675   7.132   3.075   9.055
32217SOL     OW96676   5.976   3.603   9.008
32217SOL    HW196677   5.885   3.644   9.006
32217SOL    HW296678   5.969   3.509   9.040
32218SOL     OW96679   7.260   2.745   8.702
32218SOL    HW196680   7.233   2.656   8.665
32218SOL    HW296681   7.261   2.813   8.629
32219SOL     OW96682   6.811   2.187   7.897
32219SOL    HW196683   6.876   2.113   7.886
32219SOL    HW296684   6.831   2.237   7.981
32220SOL     OW96685   6.180   2.607   8.100
32220SOL    HW196686   6.230   2.692   8.081
32220SOL    HW296687   6.092   2.609   8.052
32221SOL     OW96688   7.363   2.204   9.090
32221SOL    HW196689   7.346   2.235   8.996
32221SOL    HW296690   7.279   2.167   9.128
32222SOL     OW96691   7.316   2.796   8.965
32222SOL    HW196692   7.354   2.887   8.980
32222SOL    HW296693   7.308   2.779   8.866
32223SOL     OW96694   6.445   3.236   7.464
32223SOL    HW196695   6.399   3.251   7.552
32223SOL    HW296696   6.489   3.321   7.434
32224SOL     OW96697   6.247   3.652   8.401
32224SOL    HW196698   6.201   3.740   8.388
32224SOL    HW296699   6.346   3.664   8.394
32225SOL     OW96700   6.445   2.818   8.309
32225SOL    HW196701   6.499   2.749   8.357
32225SOL    HW296702   6.413   2.887   8.375
32226SOL     OW96703   6.669   2.846   7.535
32226SOL    HW196704   6.646   2.899   7.453
32226SOL    HW296705   6.750   2.790   7.516
32227SOL     OW96706   7.447   3.431   8.299
32227SOL    HW196707   7.376   3.419   8.229
32227SOL    HW296708   7.448   3.352   8.359
32228SOL     OW96709   5.807   3.176   9.292
32228SOL    HW196710   5.742   3.103   9.271
32228SOL    HW296711   5.811   3.190   9.390
32229SOL     OW96712   5.665   3.102   8.101
32229SOL    HW196713   5.664   3.055   8.189
32229SOL    HW296714   5.747   3.074   8.050
32230SOL     OW96715   6.258   3.253   9.072
32230SOL    HW196716   6.180   3.203   9.110
32230SOL    HW296717   6.255   3.348   9.103
32231SOL     OW96718   7.410   2.054   8.675
32231SOL    HW196719   7.406   1.964   8.719
32231SOL    HW296720   7.413   2.043   8.576
32232SOL     OW96721   6.014   2.286   7.968
32232SOL    HW196722   6.044   2.214   7.906
32232SOL    HW296723   5.975   2.246   8.051
32233SOL     OW96724   7.291   3.349   8.552
32233SOL    HW196725   7.198   3.324   8.525
32233SOL    HW296726   7.317   3.299   8.634
32234SOL     OW96727   5.903   2.409   8.728
32234SOL    HW196728   5.941   2.350   8.800
32234SOL    HW296729   5.943   2.383   8.640
32235SOL     OW96730   6.398   3.448   8.135
32235SOL    HW196731   6.430   3.458   8.041
32235SOL    HW296732   6.319   3.386   8.137
32236SOL     OW96733   7.010   2.076   8.560
32236SOL    HW196734   7.062   2.011   8.615
32236SOL    HW296735   6.961   2.139   8.621
32237SOL     OW96736   6.587   1.896   8.602
32237SOL    HW196737   6.524   1.824   8.571
32237SOL    HW296738   6.680   1.860   8.602
32238SOL     OW96739   6.356   3.192   7.749
32238SOL    HW196740   6.310   3.105   7.766
32238SOL    HW296741   6.447   3.189   7.790
32239SOL     OW96742   6.204   3.429   8.732
32239SOL    HW196743   6.199   3.511   8.789
32239SOL    HW296744   6.293   3.426   8.687
32240SOL     OW96745   6.938   1.914   7.616
32240SOL    HW196746   6.973   1.873   7.532
32240SOL    HW296747   6.848   1.876   7.636
32241SOL     OW96748   6.886   2.315   8.139
32241SOL    HW196749   6.827   2.395   8.143
32241SOL    HW296750   6.901   2.280   8.232
32242SOL     OW96751   7.179   2.083   8.330
32242SOL    HW196752   7.095   2.082   8.384
32242SOL    HW296753   7.181   2.166   8.274
32243SOL     OW96754   5.625   2.939   7.748
32243SOL    HW196755   5.724   2.928   7.739
32243SOL    HW296756   5.585   2.853   7.780
32244SOL     OW96757   6.461   3.508   7.785
32244SOL    HW196758   6.384   3.473   7.731
32244SOL    HW296759   6.429   3.579   7.847
32245SOL     OW96760   5.816   2.490   9.423
32245SOL    HW196761   5.723   2.488   9.460
32245SOL    HW296762   5.817   2.451   9.331
32246SOL     OW96763   5.811   2.137  10.306
32246SOL    HW196764   5.846   2.120  10.398
32246SOL    HW296765   5.723   2.092  10.294
32247SOL     OW96766   5.605   2.230   9.957
32247SOL    HW196767   5.523   2.273   9.996
32247SOL    HW296768   5.577   2.157   9.894
32248SOL     OW96769   6.155   3.137  10.475
32248SOL    HW196770   6.062   3.130  10.438
32248SOL    HW296771   6.166   3.226  10.519
32249SOL     OW96772   7.141   3.373  10.013
32249SOL    HW196773   7.084   3.357  10.094
32249SOL    HW296774   7.082   3.383   9.933
32250SOL     OW96775   6.721   2.565  10.027
32250SOL    HW196776   6.778   2.643  10.002
32250SOL    HW296777   6.661   2.591  10.103
32251SOL     OW96778   7.341   2.469   9.541
32251SOL    HW196779   7.329   2.456   9.442
32251SOL    HW296780   7.311   2.388   9.590
32252SOL     OW96781   6.354   3.006  10.333
32252SOL    HW196782   6.276   3.023  10.393
32252SOL    HW296783   6.388   3.093  10.297
32253SOL     OW96784   6.436   2.660  11.133
32253SOL    HW196785   6.432   2.736  11.198
32253SOL    HW296786   6.458   2.696  11.042
32254SOL     OW96787   6.271   2.874   9.975
32254SOL    HW196788   6.340   2.858  10.045
32254SOL    HW296789   6.198   2.931  10.013
32255SOL     OW96790   6.272   3.023  11.113
32255SOL    HW196791   6.332   3.102  11.127
32255SOL    HW296792   6.186   3.054  11.072
32256SOL     OW96793   5.921   3.297  10.371
32256SOL    HW196794   5.843   3.266  10.318
32256SOL    HW296795   5.979   3.355  10.314
32257SOL     OW96796   7.046   3.367  10.649
32257SOL    HW196797   7.070   3.461  10.675
32257SOL    HW296798   7.030   3.313  10.731
32258SOL     OW96799   6.024   2.254  10.809
32258SOL    HW196800   6.106   2.198  10.818
32258SOL    HW296801   5.943   2.196  10.813
32259SOL     OW96802   7.189   2.309  10.047
32259SOL    HW196803   7.115   2.355   9.997
32259SOL    HW296804   7.240   2.377  10.100
32260SOL     OW96805   5.817   3.575   9.793
32260SOL    HW196806   5.851   3.652   9.847
32260SOL    HW296807   5.861   3.575   9.703
32261SOL     OW96808   6.713   3.203  11.000
32261SOL    HW196809   6.760   3.203  11.088
32261SOL    HW296810   6.665   3.116  10.989
32262SOL     OW96811   5.816   3.296   9.848
32262SOL    HW196812   5.790   3.392   9.848
32262SOL    HW296813   5.745   3.242   9.893
32263SOL     OW96814   5.826   2.953  10.196
32263SOL    HW196815   5.840   2.869  10.248
32263SOL    HW296816   5.771   3.017  10.251
32264SOL     OW96817   6.206   3.648  10.749
32264SOL    HW196818   6.114   3.631  10.784
32264SOL    HW296819   6.234   3.740  10.775
32265SOL     OW96820   6.192   2.826   9.433
32265SOL    HW196821   6.199   2.910   9.379
32265SOL    HW296822   6.238   2.839   9.521
32266SOL     OW96823   7.180   1.976  10.790
32266SOL    HW196824   7.162   2.043  10.718
32266SOL    HW296825   7.177   2.022  10.879
32267SOL     OW96826   5.708   2.505   9.873
32267SOL    HW196827   5.663   2.417   9.890
32267SOL    HW296828   5.707   2.559   9.957
32268SOL     OW96829   7.428   3.629   9.669
32268SOL    HW196830   7.482   3.600   9.749
32268SOL    HW296831   7.458   3.719   9.640
32269SOL     OW96832   5.613   3.458   9.427
32269SOL    HW196833   5.594   3.362   9.448
32269SOL    HW296834   5.580   3.516   9.502
32270SOL     OW96835   7.275   2.784   9.922
32270SOL    HW196836   7.370   2.755   9.930
32270SOL    HW296837   7.267   2.849   9.847
32271SOL     OW96838   7.227   2.970   9.742
32271SOL    HW196839   7.313   2.972   9.690
32271SOL    HW296840   7.241   3.017   9.830
32272SOL     OW96841   5.699   2.599  10.907
32272SOL    HW196842   5.787   2.586  10.952
32272SOL    HW296843   5.686   2.696  10.885
32273SOL     OW96844   6.199   3.227  10.036
32273SOL    HW196845   6.150   3.140  10.045
32273SOL    HW296846   6.176   3.270   9.949
32274SOL     OW96847   6.879   3.090  10.733
32274SOL    HW196848   6.916   3.017  10.675
32274SOL    HW296849   6.931   3.095  10.818
32275SOL     OW96850   6.395   1.866   9.812
32275SOL    HW196851   6.435   1.957   9.803
32275SOL    HW296852   6.295   1.874   9.818
32276SOL     OW96853   5.783   2.838  10.574
32276SOL    HW196854   5.872   2.793  10.560
32276SOL    HW296855   5.710   2.773  10.555
32277SOL     OW96856   7.111   2.861   9.500
32277SOL    HW196857   7.048   2.785   9.513
32277SOL    HW296858   7.159   2.879   9.586
32278SOL     OW96859   6.773   3.654  10.926
32278SOL    HW196860   6.797   3.714  10.850
32278SOL    HW296861   6.780   3.559  10.896
32279SOL     OW96862   5.903   2.113  11.111
32279SOL    HW196863   5.974   2.184  11.117
32279SOL    HW296864   5.815   2.152  11.139
32280SOL     OW96865   7.052   3.279  10.263
32280SOL    HW196866   6.993   3.285  10.343
32280SOL    HW296867   7.037   3.191  10.217
32281SOL     OW96868   7.253   3.576   9.882
32281SOL    HW196869   7.212   3.553   9.794
32281SOL    HW296870   7.235   3.502   9.947
32282SOL     OW96871   6.184   2.591   9.580
32282SOL    HW196872   6.208   2.660   9.512
32282SOL    HW296873   6.106   2.624   9.634
32283SOL     OW96874   6.867   2.207  10.254
32283SOL    HW196875   6.781   2.157  10.241
32283SOL    HW296876   6.929   2.153  10.310
32284SOL     OW96877   7.162   3.524   9.617
32284SOL    HW196878   7.251   3.570   9.620
32284SOL    HW296879   7.141   3.500   9.522
32285SOL     OW96880   6.393   2.467  10.775
32285SOL    HW196881   6.346   2.464  10.864
32285SOL    HW296882   6.342   2.412  10.709
32286SOL     OW96883   6.980   2.331  10.984
32286SOL    HW196884   6.960   2.374  11.072
32286SOL    HW296885   7.058   2.269  10.993
32287SOL     OW96886   6.559   2.752  10.882
32287SOL    HW196887   6.605   2.668  10.853
32287SOL    HW296888   6.503   2.786  10.807
32288SOL     OW96889   6.577   2.272  10.552
32288SOL    HW196890   6.500   2.306  10.606
32288SOL    HW296891   6.543   2.221  10.473
32289SOL     OW96892   6.627   2.563   9.739
32289SOL    HW196893   6.653   2.559   9.835
32289SOL    HW296894   6.542   2.512   9.725
32290SOL     OW96895   5.662   2.673  10.099
32290SOL    HW196896   5.761   2.661  10.108
32290SOL    HW296897   5.638   2.768  10.120
32291SOL     OW96898   5.716   3.683  10.881
32291SOL    HW196899   5.706   3.668  10.980
32291SOL    HW296900   5.630   3.719  10.845
32292SOL     OW96901   6.451   2.210   9.505
32292SOL    HW196902   6.510   2.273   9.456
32292SOL    HW296903   6.470   2.116   9.476
32293SOL     OW96904   7.305   2.447  11.141
32293SOL    HW196905   7.279   2.536  11.105
32293SOL    HW296906   7.303   2.379  11.068
32294SOL     OW96907   6.948   3.006   9.855
32294SOL    HW196908   7.031   2.977   9.807
32294SOL    HW296909   6.899   3.073   9.799
32295SOL     OW96910   6.136   2.058  10.195
32295SOL    HW196911   6.131   2.053  10.295
32295SOL    HW296912   6.138   2.154  10.166
32296SOL     OW96913   6.594   3.318   9.787
32296SOL    HW196914   6.548   3.390   9.735
32296SOL    HW296915   6.590   3.338   9.885
32297SOL     OW96916   5.937   3.663  10.163
32297SOL    HW196917   5.987   3.577  10.169
32297SOL    HW296918   6.002   3.740  10.160
32298SOL     OW96919   7.381   2.928  10.183
32298SOL    HW196920   7.319   2.913  10.107
32298SOL    HW296921   7.329   2.939  10.268
32299SOL     OW96922   6.813   3.412  10.816
32299SOL    HW196923   6.819   3.335  10.880
32299SOL    HW296924   6.761   3.386  10.736
32300SOL     OW96925   5.907   2.805   9.552
32300SOL    HW196926   5.989   2.844   9.510
32300SOL    HW296927   5.880   2.723   9.503
32301SOL     OW96928   7.044   2.597  10.038
32301SOL    HW196929   7.039   2.532  10.113
32301SOL    HW296930   7.124   2.656  10.051
32302SOL     OW96931   6.047   3.128  11.037
32302SOL    HW196932   5.997   3.129  10.951
32302SOL    HW296933   5.984   3.110  11.113
32303SOL     OW96934   6.697   3.638   9.547
32303SOL    HW196935   6.637   3.576   9.597
32303SOL    HW296936   6.728   3.594   9.462
32304SOL     OW96937   5.788   2.147  10.808
32304SOL    HW196938   5.708   2.207  10.795
32304SOL    HW296939   5.778   2.098  10.894
32305SOL     OW96940   7.218   3.239   9.391
32305SOL    HW196941   7.186   3.333   9.381
32305SOL    HW296942   7.142   3.176   9.379
32306SOL     OW96943   6.050   3.605   9.633
32306SOL    HW196944   6.083   3.644   9.719
32306SOL    HW296945   6.126   3.598   9.568
32307SOL     OW96946   6.986   1.969   9.736
32307SOL    HW196947   6.962   1.932   9.646
32307SOL    HW296948   7.085   1.985   9.740
32308SOL     OW96949   5.835   3.647  10.551
32308SOL    HW196950   5.892   3.582  10.601
32308SOL    HW296951   5.819   3.614  10.458
32309SOL     OW96952   6.526   3.560  10.214
32309SOL    HW196953   6.606   3.503  10.235
32309SOL    HW296954   6.477   3.520  10.137
32310SOL     OW96955   5.968   2.562   9.790
32310SOL    HW196956   6.013   2.472   9.787
32310SOL    HW296957   5.874   2.551   9.823
32311SOL     OW96958   7.133   2.084  11.039
32311SOL    HW196959   7.128   2.121  11.131
32311SOL    HW296960   7.061   2.015  11.027
32312SOL     OW96961   6.200   1.984   9.427
32312SOL    HW196962   6.298   1.962   9.434
32312SOL    HW296963   6.169   1.967   9.334
32313SOL     OW96964   6.367   2.126  11.059
32313SOL    HW196965   6.434   2.065  11.102
32313SOL    HW296966   6.294   2.145  11.124
32314SOL     OW96967   6.474   3.376  10.505
32314SOL    HW196968   6.451   3.351  10.411
32314SOL    HW296969   6.535   3.307  10.544
32315SOL     OW96970   6.937   2.452  10.743
32315SOL    HW196971   6.965   2.409  10.828
32315SOL    HW296972   6.962   2.548  10.744
32316SOL     OW96973   6.389   3.264  10.234
32316SOL    HW196974   6.479   3.278  10.192
32316SOL    HW296975   6.318   3.266  10.163
32317SOL     OW96976   6.508   2.365  10.209
32317SOL    HW196977   6.483   2.356  10.113
32317SOL    HW296978   6.556   2.283  10.240
32318SOL     OW96979   6.125   1.926   9.822
32318SOL    HW196980   6.044   1.927   9.880
32318SOL    HW296981   6.128   2.009   9.767
32319SOL     OW96982   7.020   3.050   9.351
32319SOL    HW196983   7.052   2.974   9.408
32319SOL    HW296984   6.928   3.077   9.381
32320SOL     OW96985   5.883   1.897   9.481
32320SOL    HW196986   5.932   1.981   9.460
32320SOL    HW296987   5.945   1.832   9.526
32321SOL     OW96988   6.521   2.098   9.790
32321SOL    HW196989   6.473   2.139   9.712
32321SOL    HW296990   6.620   2.096   9.771
32322SOL     OW96991   6.662   2.545  10.774
32322SOL    HW196992   6.582   2.484  10.777
32322SOL    HW296993   6.743   2.492  10.750
32323SOL     OW96994   6.813   3.432  10.103
32323SOL    HW196995   6.834   3.506  10.038
32323SOL    HW296996   6.881   3.432  10.176
32324SOL     OW96997   6.045   3.014  10.051
32324SOL    HW196998   5.974   2.987  10.116
32324SOL    HW296999   6.019   2.986   9.958
32325SOL     OW97000   6.857   3.659   9.901
32325SOL    HW197001   6.901   3.723   9.837
32325SOL    HW297002   6.807   3.711   9.971
32326SOL     OW97003   6.618   2.411   9.326
32326SOL    HW197004   6.577   2.493   9.287
32326SOL    HW297005   6.682   2.437   9.399
32327SOL     OW97006   5.664   2.418  10.696
32327SOL    HW197007   5.756   2.417  10.655
32327SOL    HW297008   5.658   2.492  10.763
32328SOL     OW97009   6.147   2.084  10.457
32328SOL    HW197010   6.185   2.000  10.494
32328SOL    HW297011   6.059   2.103  10.501
32329SOL     OW97012   6.452   2.316   9.952
32329SOL    HW197013   6.420   2.388   9.890
32329SOL    HW297014   6.476   2.235   9.899
32330SOL     OW97015   6.603   1.901  10.063
32330SOL    HW197016   6.531   1.906   9.994
32330SOL    HW297017   6.579   1.832  10.132
32331SOL     OW97018   7.015   3.035  10.177
32331SOL    HW197019   6.960   2.951  10.170
32331SOL    HW297020   7.041   3.064  10.085
32332SOL     OW97021   7.052   2.452  10.302
32332SOL    HW197022   7.022   2.357  10.309
32332SOL    HW297023   7.125   2.468  10.368
32333SOL     OW97024   7.443   2.695   9.687
32333SOL    HW197025   7.485   2.631   9.751
32333SOL    HW297026   7.405   2.644   9.609
32334SOL     OW97027   6.074   3.247   9.484
32334SOL    HW197028   5.987   3.232   9.531
32334SOL    HW297029   6.057   3.273   9.389
32335SOL     OW97030   7.250   3.142   9.967
32335SOL    HW197031   7.349   3.150   9.981
32335SOL    HW297032   7.205   3.226   9.998
32336SOL     OW97033   6.976   2.437   9.388
32336SOL    HW197034   6.922   2.416   9.469
32336SOL    HW297035   7.067   2.396   9.397
32337SOL     OW97036   6.113   2.118   9.638
32337SOL    HW197037   6.140   2.059   9.563
32337SOL    HW297038   6.113   2.213   9.607
32338SOL     OW97039   7.340   3.085  10.898
32338SOL    HW197040   7.431   3.046  10.885
32338SOL    HW297041   7.348   3.181  10.922
32339SOL     OW97042   6.650   3.209  10.650
32339SOL    HW197043   6.570   3.186  10.705
32339SOL    HW297044   6.733   3.183  10.699
32340SOL     OW97045   7.178   3.491  10.935
32340SOL    HW197046   7.205   3.525  10.845
32340SOL    HW297047   7.257   3.453  10.981
32341SOL     OW97048   6.697   3.057  10.410
32341SOL    HW197049   6.657   3.101  10.491
32341SOL    HW297050   6.656   3.094  10.327
32342SOL     OW97051   7.224   2.961  10.389
32342SOL    HW197052   7.229   3.042  10.448
32342SOL    HW297053   7.138   2.963  10.338
32343SOL     OW97054   6.501   1.951  10.712
32343SOL    HW197055   6.526   1.931  10.617
32343SOL    HW297056   6.573   2.007  10.754
32344SOL     OW97057   6.566   2.978  11.029
32344SOL    HW197058   6.467   2.984  11.039
32344SOL    HW297059   6.589   2.898  10.973
32345SOL     OW97060   6.291   2.912   9.678
32345SOL    HW197061   6.277   2.919   9.777
32345SOL    HW297062   6.375   2.861   9.660
32346SOL     OW97063   5.996   2.675  10.561
32346SOL    HW197064   6.082   2.687  10.611
32346SOL    HW297065   5.954   2.588  10.588
32347SOL     OW97066   6.860   2.248  10.572
32347SOL    HW197067   6.881   2.322  10.636
32347SOL    HW297068   6.771   2.265  10.529
32348SOL     OW97069   5.650   3.426  10.641
32348SOL    HW197070   5.604   3.508  10.607
32348SOL    HW297071   5.748   3.445  10.650
32349SOL     OW97072   5.953   2.962   9.811
32349SOL    HW197073   5.946   3.045   9.755
32349SOL    HW297074   5.957   2.882   9.751
32350SOL     OW97075   6.152   2.399  10.175
32350SOL    HW197076   6.164   2.465  10.101
32350SOL    HW297077   6.198   2.433  10.258
32351SOL     OW97078   6.838   3.210   9.698
32351SOL    HW197079   6.888   3.287   9.738
32351SOL    HW297080   6.743   3.212   9.730
32352SOL     OW97081   6.858   3.307  10.452
32352SOL    HW197082   6.905   3.320  10.539
32352SOL    HW297083   6.792   3.233  10.461
32353SOL     OW97084   7.168   2.501   9.782
32353SOL    HW197085   7.137   2.562   9.855
32353SOL    HW297086   7.218   2.553   9.713
32354SOL     OW97087   5.940   3.372  10.639
32354SOL    HW197088   5.919   3.328  10.552
32354SOL    HW297089   6.037   3.398  10.642
32355SOL     OW97090   5.988   2.613  10.908
32355SOL    HW197091   6.056   2.668  10.861
32355SOL    HW297092   6.028   2.525  10.935
32356SOL     OW97093   7.173   2.641  10.980
32356SOL    HW197094   7.081   2.679  10.975
32356SOL    HW297095   7.233   2.688  10.915
32357SOL     OW97096   6.599   1.967  11.080
32357SOL    HW197097   6.605   2.052  11.028
32357SOL    HW297098   6.631   1.891  11.023
32358SOL     OW97099   6.090   1.912  11.050
32358SOL    HW197100   6.048   1.855  10.980
32358SOL    HW297101   6.024   1.981  11.082
32359SOL     OW97102   6.159   2.732  10.339
32359SOL    HW197103   6.203   2.821  10.330
32359SOL    HW297104   6.096   2.732  10.416
32360SOL     OW97105   6.946   2.724  10.355
32360SOL    HW197106   6.871   2.724  10.289
32360SOL    HW297107   6.983   2.632  10.364
32361SOL     OW97108   6.795   2.387   9.585
32361SOL    HW197109   6.808   2.303   9.639
32361SOL    HW297110   6.766   2.461   9.645
32362SOL     OW97111   5.893   2.075  10.541
32362SOL    HW197112   5.870   2.112  10.631
32362SOL    HW297113   5.863   1.980  10.535
32363SOL     OW97114   5.623   3.172  10.592
32363SOL    HW197115   5.676   3.123  10.660
32363SOL    HW297116   5.645   3.270  10.597
32364SOL     OW97117   6.318   2.496  10.374
32364SOL    HW197118   6.377   2.470  10.298
32364SOL    HW297119   6.290   2.592  10.363
32365SOL     OW97120   7.314   2.797  11.164
32365SOL    HW197121   7.268   2.790  11.075
32365SOL    HW297122   7.252   2.841  11.230
32366SOL     OW97123   5.893   1.925   9.928
32366SOL    HW197124   5.882   2.019   9.961
32366SOL    HW297125   5.888   1.862  10.005
32367SOL     OW97126   7.208   2.229   9.684
32367SOL    HW197127   7.210   2.153   9.748
32367SOL    HW297128   7.160   2.306   9.724
32368SOL     OW97129   6.609   2.628  10.276
32368SOL    HW197130   6.624   2.649  10.372
32368SOL    HW297131   6.579   2.533  10.267
32369SOL     OW97132   6.566   3.435  11.010
32369SOL    HW197133   6.546   3.479  10.922
32369SOL    HW297134   6.605   3.344  10.994
32370SOL     OW97135   7.445   3.380  10.915
32370SOL    HW197136   7.459   3.407  10.820
32370SOL    HW297137   7.528   3.402  10.968
32371SOL     OW97138   5.936   2.760  11.114
32371SOL    HW197139   6.012   2.804  11.162
32371SOL    HW297140   5.971   2.713  11.032
32372SOL     OW97141   7.126   2.136   9.435
32372SOL    HW197142   7.065   2.061   9.458
32372SOL    HW297143   7.148   2.188   9.518
32373SOL     OW97144   6.889   2.700   9.352
32373SOL    HW197145   6.923   2.607   9.367
32373SOL    HW297146   6.907   2.727   9.257
32374SOL     OW97147   6.654   3.195  10.159
32374SOL    HW197148   6.661   3.111  10.104
32374SOL    HW297149   6.716   3.264  10.123
32375SOL     OW97150   5.905   2.672  10.259
32375SOL    HW197151   5.998   2.708  10.264
32375SOL    HW297152   5.899   2.587  10.311
32376SOL     OW97153   5.925   2.371  10.316
32376SOL    HW197154   5.873   2.288  10.299
32376SOL    HW297155   6.002   2.376  10.252
32377SOL     OW97156   6.724   2.242  10.988
32377SOL    HW197157   6.679   2.305  11.052
32377SOL    HW297158   6.817   2.273  10.971
32378SOL     OW97159   6.746   2.069  10.787
32378SOL    HW197160   6.746   2.133  10.864
32378SOL    HW297161   6.774   2.117  10.704
32379SOL     OW97162   5.594   3.188   9.510
32379SOL    HW197163   5.501   3.209   9.479
32379SOL    HW297164   5.604   3.089   9.523
32380SOL     OW97165   5.674   3.663  10.237
32380SOL    HW197166   5.632   3.577  10.210
32380SOL    HW297167   5.768   3.666  10.203
32381SOL     OW97168   6.090   3.430  10.220
32381SOL    HW197169   6.156   3.504  10.229
32381SOL    HW297170   6.134   3.351  10.178
32382SOL     OW97171   6.588   2.658  10.548
32382SOL    HW197172   6.629   2.626  10.634
32382SOL    HW297173   6.492   2.631  10.545
32383SOL     OW97174   5.626   2.406  10.424
32383SOL    HW197175   5.711   2.373  10.383
32383SOL    HW297176   5.639   2.421  10.522
32384SOL     OW97177   5.775   2.382  11.032
32384SOL    HW197178   5.834   2.342  10.962
32384SOL    HW297179   5.717   2.453  10.991
32385SOL     OW97180   6.955   2.812  10.970
32385SOL    HW197181   6.994   2.901  10.990
32385SOL    HW297182   6.965   2.792  10.873
32386SOL     OW97183   6.401   2.434   9.635
32386SOL    HW197184   6.408   2.345   9.589
32386SOL    HW297185   6.307   2.468   9.627
32387SOL     OW97186   7.243   2.466  10.516
32387SOL    HW197187   7.205   2.397  10.578
32387SOL    HW297188   7.325   2.430  10.472
32388SOL     OW97189   5.838   3.426  11.054
32388SOL    HW197190   5.808   3.483  11.130
32388SOL    HW297191   5.831   3.329  11.080
32389SOL     OW97192   6.257   2.326  10.579
32389SOL    HW197193   6.223   2.237  10.549
32389SOL    HW297194   6.283   2.380  10.499
32390SOL     OW97195   6.516   3.540  10.775
32390SOL    HW197196   6.492   3.522  10.680
32390SOL    HW297197   6.546   3.634  10.785
32391SOL     OW97198   6.059   2.362   9.501
32391SOL    HW197199   6.120   2.442   9.505
32391SOL    HW297200   5.964   2.393   9.508
32392SOL     OW97201   5.745   2.999  10.776
32392SOL    HW197202   5.767   2.938  10.852
32392SOL    HW297203   5.755   2.950  10.690
32393SOL     OW97204   6.933   2.921  10.544
32393SOL    HW197205   6.957   2.858  10.470
32393SOL    HW297206   6.843   2.961  10.526
32394SOL     OW97207   6.888   2.717   9.619
32394SOL    HW197208   6.802   2.686   9.661
32394SOL    HW297209   6.884   2.703   9.520
32395SOL     OW97210   7.345   3.609  10.464
32395SOL    HW197211   7.406   3.639  10.391
32395SOL    HW297212   7.307   3.520  10.442
32396SOL     OW97213   6.838   3.593  10.438
32396SOL    HW197214   6.922   3.598  10.384
32396SOL    HW297215   6.815   3.497  10.456
32397SOL     OW97216   5.669   3.120  10.332
32397SOL    HW197217   5.664   3.119  10.432
32397SOL    HW297218   5.586   3.079  10.294
32398SOL     OW97219   6.274   3.524  11.026
32398SOL    HW197220   6.218   3.605  11.035
32398SOL    HW297221   6.326   3.528  10.940
32399SOL     OW97222   7.312   1.997   9.833
32399SOL    HW197223   7.385   1.980   9.766
32399SOL    HW297224   7.281   1.910   9.871
32400SOL     OW97225   6.974   3.435   9.787
32400SOL    HW197226   7.041   3.447   9.713
32400SOL    HW297227   6.934   3.524   9.810
32401SOL     OW97228   5.716   3.656  11.161
32401SOL    HW197229   5.675   3.582  11.214
32401SOL    HW297230   5.780   3.707  11.219
32402SOL     OW97231   6.866   2.789   9.982
32402SOL    HW197232   6.926   2.708   9.984
32402SOL    HW297233   6.906   2.858   9.922
32403SOL     OW97234   6.416   3.135  10.732
32403SOL    HW197235   6.411   3.168  10.827
32403SOL    HW297236   6.330   3.154  10.686
32404SOL     OW97237   6.258   3.478   9.464
32404SOL    HW197238   6.267   3.488   9.365
32404SOL    HW297239   6.218   3.389   9.485
32405SOL     OW97240   7.236   3.582  10.704
32405SOL    HW197241   7.289   3.592  10.620
32405SOL    HW297242   7.209   3.672  10.738
32406SOL     OW97243   7.427   2.037  10.273
32406SOL    HW197244   7.466   1.952  10.237
32406SOL    HW297245   7.329   2.039  10.254
32407SOL     OW97246   5.849   2.188  10.030
32407SOL    HW197247   5.770   2.239   9.996
32407SOL    HW297248   5.840   2.173  10.128
32408SOL     OW97249   6.780   3.474   9.341
32408SOL    HW197250   6.786   3.381   9.378
32408SOL    HW297251   6.721   3.474   9.261
32409SOL     OW97252   6.408   2.864  10.682
32409SOL    HW197253   6.448   2.863  10.590
32409SOL    HW297254   6.418   2.956  10.722
32410SOL     OW97255   6.502   2.772   9.601
32410SOL    HW197256   6.565   2.810   9.533
32410SOL    HW297257   6.542   2.689   9.640
32411SOL     OW97258   7.090   3.469   9.354
32411SOL    HW197259   6.998   3.506   9.361
32411SOL    HW297260   7.128   3.489   9.264
32412SOL     OW97261   5.958   3.150  10.800
32412SOL    HW197262   5.945   3.243  10.766
32412SOL    HW297263   5.874   3.098  10.787
32413SOL     OW97264   7.200   3.154  10.599
32413SOL    HW197265   7.260   3.157  10.679
32413SOL    HW297266   7.125   3.218  10.612
32414SOL     OW97267   6.625   2.960  10.006
32414SOL    HW197268   6.555   2.913  10.060
32414SOL    HW297269   6.684   2.892   9.963
32415SOL     OW97270   6.600   2.098  10.281
32415SOL    HW197271   6.592   2.062  10.188
32415SOL    HW297272   6.598   2.022  10.346
32416SOL     OW97273   6.176   3.349   9.801
32416SOL    HW197274   6.218   3.291   9.731
32416SOL    HW297275   6.132   3.428   9.757
32417SOL     OW97276   7.295   2.247  10.691
32417SOL    HW197277   7.368   2.316  10.695
32417SOL    HW297278   7.323   2.172  10.632
32418SOL     OW97279   5.841   3.210   9.600
32418SOL    HW197280   5.745   3.211   9.573
32418SOL    HW297281   5.853   3.263   9.684
32419SOL     OW97282   5.691   2.875  11.036
32419SOL    HW197283   5.614   2.842  11.090
32419SOL    HW297284   5.776   2.845  11.078
32420SOL     OW97285   6.258   2.065  10.799
32420SOL    HW197286   6.348   2.049  10.759
32420SOL    HW297287   6.266   2.070  10.898
32421SOL     OW97288   5.661   2.207   9.343
32421SOL    HW197289   5.569   2.179   9.314
32421SOL    HW297290   5.692   2.284   9.287
32422SOL     OW97291   7.026   2.718  10.708
32422SOL    HW197292   6.969   2.770  10.645
32422SOL    HW297293   7.122   2.730  10.684
32423SOL     OW97294   5.658   2.028   9.628
32423SOL    HW197295   5.641   2.111   9.574
32423SOL    HW297296   5.748   1.991   9.606
32424SOL     OW97297   6.769   3.197   9.429
32424SOL    HW197298   6.670   3.186   9.431
32424SOL    HW297299   6.803   3.212   9.522
32425SOL     OW97300   6.199   2.704  10.741
32425SOL    HW197301   6.255   2.785  10.724
32425SOL    HW297302   6.258   2.624  10.744
32426SOL     OW97303   7.079   3.629  10.269
32426SOL    HW197304   7.112   3.693  10.200
32426SOL    HW297305   7.145   3.623  10.344
32427SOL     OW97306   6.302   2.427  11.018
32427SOL    HW197307   6.321   2.492  11.092
32427SOL    HW297308   6.362   2.347  11.027
32428SOL     OW97309   7.036   3.082  10.943
32428SOL    HW197310   7.027   3.072  11.042
32428SOL    HW297311   7.132   3.075  10.917
32429SOL     OW97312   5.976   3.603  10.870
32429SOL    HW197313   5.885   3.644  10.868
32429SOL    HW297314   5.969   3.509  10.902
32430SOL     OW97315   7.260   2.745  10.564
32430SOL    HW197316   7.233   2.656  10.527
32430SOL    HW297317   7.261   2.813  10.491
32431SOL     OW97318   6.811   2.187   9.759
32431SOL    HW197319   6.876   2.113   9.748
32431SOL    HW297320   6.831   2.237   9.843
32432SOL     OW97321   6.180   2.607   9.962
32432SOL    HW197322   6.230   2.692   9.943
32432SOL    HW297323   6.092   2.609   9.914
32433SOL     OW97324   7.363   2.204  10.952
32433SOL    HW197325   7.346   2.235  10.858
32433SOL    HW297326   7.279   2.167  10.990
32434SOL     OW97327   7.316   2.796  10.827
32434SOL    HW197328   7.354   2.887  10.842
32434SOL    HW297329   7.308   2.779  10.728
32435SOL     OW97330   6.445   3.236   9.326
32435SOL    HW197331   6.399   3.251   9.414
32435SOL    HW297332   6.489   3.321   9.296
32436SOL     OW97333   6.247   3.652  10.263
32436SOL    HW197334   6.201   3.740  10.250
32436SOL    HW297335   6.346   3.664  10.256
32437SOL     OW97336   6.445   2.818  10.171
32437SOL    HW197337   6.499   2.749  10.219
32437SOL    HW297338   6.413   2.887  10.237
32438SOL     OW97339   6.669   2.846   9.397
32438SOL    HW197340   6.646   2.899   9.315
32438SOL    HW297341   6.750   2.790   9.378
32439SOL     OW97342   7.447   3.431  10.161
32439SOL    HW197343   7.376   3.419  10.091
32439SOL    HW297344   7.448   3.352  10.221
32440SOL     OW97345   5.807   3.176  11.154
32440SOL    HW197346   5.742   3.103  11.133
32440SOL    HW297347   5.811   3.190  11.252
32441SOL     OW97348   5.665   3.102   9.963
32441SOL    HW197349   5.664   3.055  10.051
32441SOL    HW297350   5.747   3.074   9.912
32442SOL     OW97351   6.258   3.253  10.934
32442SOL    HW197352   6.180   3.203  10.972
32442SOL    HW297353   6.255   3.348  10.965
32443SOL     OW97354   7.410   2.054  10.537
32443SOL    HW197355   7.406   1.964  10.581
32443SOL    HW297356   7.413   2.043  10.438
32444SOL     OW97357   6.014   2.286   9.830
32444SOL    HW197358   6.044   2.214   9.768
32444SOL    HW297359   5.975   2.246   9.913
32445SOL     OW97360   7.291   3.349  10.414
32445SOL    HW197361   7.198   3.324  10.387
32445SOL    HW297362   7.317   3.299  10.496
32446SOL     OW97363   5.903   2.409  10.590
32446SOL    HW197364   5.941   2.350  10.662
32446SOL    HW297365   5.943   2.383  10.502
32447SOL     OW97366   6.398   3.448   9.997
32447SOL    HW197367   6.430   3.458   9.903
32447SOL    HW297368   6.319   3.386   9.999
32448SOL     OW97369   7.010   2.076  10.422
32448SOL    HW197370   7.062   2.011  10.477
32448SOL    HW297371   6.961   2.139  10.483
32449SOL     OW97372   6.587   1.896  10.464
32449SOL    HW197373   6.524   1.824  10.433
32449SOL    HW297374   6.680   1.860  10.464
32450SOL     OW97375   6.356   3.192   9.611
32450SOL    HW197376   6.310   3.105   9.628
32450SOL    HW297377   6.447   3.189   9.652
32451SOL     OW97378   6.204   3.429  10.594
32451SOL    HW197379   6.199   3.511  10.651
32451SOL    HW297380   6.293   3.426  10.549
32452SOL     OW97381   6.938   1.914   9.478
32452SOL    HW197382   6.973   1.873   9.394
32452SOL    HW297383   6.848   1.876   9.498
32453SOL     OW97384   6.886   2.315  10.001
32453SOL    HW197385   6.827   2.395  10.005
32453SOL    HW297386   6.901   2.280  10.094
32454SOL     OW97387   7.179   2.083  10.192
32454SOL    HW197388   7.095   2.082  10.246
32454SOL    HW297389   7.181   2.166  10.136
32455SOL     OW97390   5.625   2.939   9.610
32455SOL    HW197391   5.724   2.928   9.601
32455SOL    HW297392   5.585   2.853   9.642
32456SOL     OW97393   6.461   3.508   9.647
32456SOL    HW197394   6.384   3.473   9.593
32456SOL    HW297395   6.429   3.579   9.709
32457SOL     OW97396   5.816   2.490  11.285
32457SOL    HW197397   5.723   2.488  11.322
32457SOL    HW297398   5.817   2.451  11.193
32458SOL     OW97399   5.811   2.137  12.168
32458SOL    HW197400   5.846   2.120  12.260
32458SOL    HW297401   5.723   2.092  12.156
32459SOL     OW97402   5.605   2.230  11.819
32459SOL    HW197403   5.523   2.273  11.858
32459SOL    HW297404   5.577   2.157  11.756
32460SOL     OW97405   6.155   3.137  12.337
32460SOL    HW197406   6.062   3.130  12.300
32460SOL    HW297407   6.166   3.226  12.381
32461SOL     OW97408   7.141   3.373  11.875
32461SOL    HW197409   7.084   3.357  11.956
32461SOL    HW297410   7.082   3.383  11.795
32462SOL     OW97411   6.721   2.565  11.889
32462SOL    HW197412   6.778   2.643  11.864
32462SOL    HW297413   6.661   2.591  11.965
32463SOL     OW97414   7.341   2.469  11.403
32463SOL    HW197415   7.329   2.456  11.304
32463SOL    HW297416   7.311   2.388  11.452
32464SOL     OW97417   6.354   3.006  12.195
32464SOL    HW197418   6.276   3.023  12.255
32464SOL    HW297419   6.388   3.093  12.159
32465SOL     OW97420   6.271   2.874  11.837
32465SOL    HW197421   6.340   2.858  11.907
32465SOL    HW297422   6.198   2.931  11.875
32466SOL     OW97423   5.921   3.297  12.233
32466SOL    HW197424   5.843   3.266  12.180
32466SOL    HW297425   5.979   3.355  12.176
32467SOL     OW97426   7.046   3.367  12.511
32467SOL    HW197427   7.070   3.461  12.537
32467SOL    HW297428   7.030   3.313  12.593
32468SOL     OW97429   6.024   2.254  12.671
32468SOL    HW197430   6.106   2.198  12.680
32468SOL    HW297431   5.943   2.196  12.675
32469SOL     OW97432   7.189   2.309  11.909
32469SOL    HW197433   7.115   2.355  11.859
32469SOL    HW297434   7.240   2.377  11.962
32470SOL     OW97435   5.817   3.575  11.655
32470SOL    HW197436   5.851   3.652  11.709
32470SOL    HW297437   5.861   3.575  11.565
32471SOL     OW97438   5.816   3.296  11.710
32471SOL    HW197439   5.790   3.392  11.710
32471SOL    HW297440   5.745   3.242  11.755
32472SOL     OW97441   5.826   2.953  12.058
32472SOL    HW197442   5.840   2.869  12.110
32472SOL    HW297443   5.771   3.017  12.113
32473SOL     OW97444   6.206   3.648  12.611
32473SOL    HW197445   6.114   3.631  12.646
32473SOL    HW297446   6.234   3.740  12.637
32474SOL     OW97447   6.192   2.826  11.295
32474SOL    HW197448   6.199   2.910  11.241
32474SOL    HW297449   6.238   2.839  11.383
32475SOL     OW97450   7.180   1.976  12.652
32475SOL    HW197451   7.162   2.043  12.580
32475SOL    HW297452   7.177   2.022  12.741
32476SOL     OW97453   5.708   2.505  11.735
32476SOL    HW197454   5.663   2.417  11.752
32476SOL    HW297455   5.707   2.559  11.819
32477SOL     OW97456   7.428   3.629  11.531
32477SOL    HW197457   7.482   3.600  11.611
32477SOL    HW297458   7.458   3.719  11.502
32478SOL     OW97459   5.613   3.458  11.289
32478SOL    HW197460   5.594   3.362  11.310
32478SOL    HW297461   5.580   3.516  11.364
32479SOL     OW97462   7.275   2.784  11.784
32479SOL    HW197463   7.370   2.755  11.792
32479SOL    HW297464   7.267   2.849  11.709
32480SOL     OW97465   7.227   2.970  11.604
32480SOL    HW197466   7.313   2.972  11.552
32480SOL    HW297467   7.241   3.017  11.692
32481SOL     OW97468   6.199   3.227  11.898
32481SOL    HW197469   6.150   3.140  11.907
32481SOL    HW297470   6.176   3.270  11.811
32482SOL     OW97471   6.395   1.866  11.674
32482SOL    HW197472   6.435   1.957  11.665
32482SOL    HW297473   6.295   1.874  11.680
32483SOL     OW97474   5.783   2.838  12.436
32483SOL    HW197475   5.872   2.793  12.422
32483SOL    HW297476   5.710   2.773  12.417
32484SOL     OW97477   7.111   2.861  11.362
32484SOL    HW197478   7.048   2.785  11.375
32484SOL    HW297479   7.159   2.879  11.448
32485SOL     OW97480   5.903   2.113  12.973
32485SOL    HW197481   5.974   2.184  12.979
32485SOL    HW297482   5.815   2.152  13.001
32486SOL     OW97483   7.052   3.279  12.125
32486SOL    HW197484   6.993   3.285  12.205
32486SOL    HW297485   7.037   3.191  12.079
32487SOL     OW97486   7.253   3.576  11.744
32487SOL    HW197487   7.212   3.553  11.656
32487SOL    HW297488   7.235   3.502  11.809
32488SOL     OW97489   6.184   2.591  11.442
32488SOL    HW197490   6.208   2.660  11.374
32488SOL    HW297491   6.106   2.624  11.496
32489SOL     OW97492   6.867   2.207  12.116
32489SOL    HW197493   6.781   2.157  12.103
32489SOL    HW297494   6.929   2.153  12.172
32490SOL     OW97495   7.162   3.524  11.479
32490SOL    HW197496   7.251   3.570  11.482
32490SOL    HW297497   7.141   3.500  11.384
32491SOL     OW97498   6.393   2.467  12.637
32491SOL    HW197499   6.346   2.464  12.726
32491SOL    HW297500   6.342   2.412  12.571
32492SOL     OW97501   6.577   2.272  12.414
32492SOL    HW197502   6.500   2.306  12.468
32492SOL    HW297503   6.543   2.221  12.335
32493SOL     OW97504   6.627   2.563  11.601
32493SOL    HW197505   6.653   2.559  11.697
32493SOL    HW297506   6.542   2.512  11.587
32494SOL     OW97507   5.662   2.673  11.961
32494SOL    HW197508   5.761   2.661  11.970
32494SOL    HW297509   5.638   2.768  11.982
32495SOL     OW97510   5.716   3.683  12.743
32495SOL    HW197511   5.706   3.668  12.842
32495SOL    HW297512   5.630   3.719  12.707
32496SOL     OW97513   6.451   2.210  11.367
32496SOL    HW197514   6.510   2.273  11.318
32496SOL    HW297515   6.470   2.116  11.338
32497SOL     OW97516   6.948   3.006  11.717
32497SOL    HW197517   7.031   2.977  11.669
32497SOL    HW297518   6.899   3.073  11.661
32498SOL     OW97519   6.136   2.058  12.057
32498SOL    HW197520   6.131   2.053  12.157
32498SOL    HW297521   6.138   2.154  12.028
32499SOL     OW97522   6.594   3.318  11.649
32499SOL    HW197523   6.548   3.390  11.597
32499SOL    HW297524   6.590   3.338  11.747
32500SOL     OW97525   5.937   3.663  12.025
32500SOL    HW197526   5.987   3.577  12.031
32500SOL    HW297527   6.002   3.740  12.022
32501SOL     OW97528   7.381   2.928  12.045
32501SOL    HW197529   7.319   2.913  11.969
32501SOL    HW297530   7.329   2.939  12.130
32502SOL     OW97531   5.907   2.805  11.414
32502SOL    HW197532   5.989   2.844  11.372
32502SOL    HW297533   5.880   2.723  11.365
32503SOL     OW97534   7.044   2.597  11.900
32503SOL    HW197535   7.039   2.532  11.975
32503SOL    HW297536   7.124   2.656  11.913
32504SOL     OW97537   6.697   3.638  11.409
32504SOL    HW197538   6.637   3.576  11.459
32504SOL    HW297539   6.728   3.594  11.324
32505SOL     OW97540   5.788   2.147  12.670
32505SOL    HW197541   5.708   2.207  12.657
32505SOL    HW297542   5.778   2.098  12.756
32506SOL     OW97543   7.218   3.239  11.253
32506SOL    HW197544   7.186   3.333  11.243
32506SOL    HW297545   7.142   3.176  11.241
32507SOL     OW97546   6.050   3.605  11.495
32507SOL    HW197547   6.083   3.644  11.581
32507SOL    HW297548   6.126   3.598  11.430
32508SOL     OW97549   6.986   1.969  11.598
32508SOL    HW197550   6.962   1.932  11.508
32508SOL    HW297551   7.085   1.985  11.602
32509SOL     OW97552   5.835   3.647  12.413
32509SOL    HW197553   5.892   3.582  12.463
32509SOL    HW297554   5.819   3.614  12.320
32510SOL     OW97555   6.526   3.560  12.076
32510SOL    HW197556   6.606   3.503  12.097
32510SOL    HW297557   6.477   3.520  11.999
32511SOL     OW97558   5.968   2.562  11.652
32511SOL    HW197559   6.013   2.472  11.649
32511SOL    HW297560   5.874   2.551  11.685
32512SOL     OW97561   6.200   1.984  11.289
32512SOL    HW197562   6.298   1.962  11.296
32512SOL    HW297563   6.169   1.967  11.196
32513SOL     OW97564   6.474   3.376  12.367
32513SOL    HW197565   6.451   3.351  12.273
32513SOL    HW297566   6.535   3.307  12.406
32514SOL     OW97567   6.389   3.264  12.096
32514SOL    HW197568   6.479   3.278  12.054
32514SOL    HW297569   6.318   3.266  12.025
32515SOL     OW97570   6.508   2.365  12.071
32515SOL    HW197571   6.483   2.356  11.975
32515SOL    HW297572   6.556   2.283  12.102
32516SOL     OW97573   6.125   1.926  11.684
32516SOL    HW197574   6.044   1.927  11.742
32516SOL    HW297575   6.128   2.009  11.629
32517SOL     OW97576   7.020   3.050  11.213
32517SOL    HW197577   7.052   2.974  11.270
32517SOL    HW297578   6.928   3.077  11.243
32518SOL     OW97579   5.883   1.897  11.343
32518SOL    HW197580   5.932   1.981  11.322
32518SOL    HW297581   5.945   1.832  11.388
32519SOL     OW97582   6.521   2.098  11.652
32519SOL    HW197583   6.473   2.139  11.574
32519SOL    HW297584   6.620   2.096  11.633
32520SOL     OW97585   6.813   3.432  11.965
32520SOL    HW197586   6.834   3.506  11.900
32520SOL    HW297587   6.881   3.432  12.038
32521SOL     OW97588   6.045   3.014  11.913
32521SOL    HW197589   5.974   2.987  11.978
32521SOL    HW297590   6.019   2.986  11.820
32522SOL     OW97591   6.857   3.659  11.763
32522SOL    HW197592   6.901   3.723  11.699
32522SOL    HW297593   6.807   3.711  11.833
32523SOL     OW97594   6.618   2.411  11.188
32523SOL    HW197595   6.577   2.493  11.149
32523SOL    HW297596   6.682   2.437  11.261
32524SOL     OW97597   5.664   2.418  12.558
32524SOL    HW197598   5.756   2.417  12.517
32524SOL    HW297599   5.658   2.492  12.625
32525SOL     OW97600   6.147   2.084  12.319
32525SOL    HW197601   6.185   2.000  12.356
32525SOL    HW297602   6.059   2.103  12.363
32526SOL     OW97603   6.452   2.316  11.814
32526SOL    HW197604   6.420   2.388  11.752
32526SOL    HW297605   6.476   2.235  11.761
32527SOL     OW97606   6.603   1.901  11.925
32527SOL    HW197607   6.531   1.906  11.856
32527SOL    HW297608   6.579   1.832  11.994
32528SOL     OW97609   7.015   3.035  12.039
32528SOL    HW197610   6.960   2.951  12.032
32528SOL    HW297611   7.041   3.064  11.947
32529SOL     OW97612   7.052   2.452  12.164
32529SOL    HW197613   7.022   2.357  12.171
32529SOL    HW297614   7.125   2.468  12.230
32530SOL     OW97615   7.443   2.695  11.549
32530SOL    HW197616   7.485   2.631  11.613
32530SOL    HW297617   7.405   2.644  11.471
32531SOL     OW97618   6.074   3.247  11.346
32531SOL    HW197619   5.987   3.232  11.393
32531SOL    HW297620   6.057   3.273  11.251
32532SOL     OW97621   7.250   3.142  11.829
32532SOL    HW197622   7.349   3.150  11.843
32532SOL    HW297623   7.205   3.226  11.860
32533SOL     OW97624   6.976   2.437  11.250
32533SOL    HW197625   6.922   2.416  11.331
32533SOL    HW297626   7.067   2.396  11.259
32534SOL     OW97627   6.113   2.118  11.500
32534SOL    HW197628   6.140   2.059  11.425
32534SOL    HW297629   6.113   2.213  11.469
32535SOL     OW97630   6.650   3.209  12.512
32535SOL    HW197631   6.570   3.186  12.567
32535SOL    HW297632   6.733   3.183  12.561
32536SOL     OW97633   6.697   3.057  12.272
32536SOL    HW197634   6.657   3.101  12.353
32536SOL    HW297635   6.656   3.094  12.189
32537SOL     OW97636   7.224   2.961  12.251
32537SOL    HW197637   7.229   3.042  12.310
32537SOL    HW297638   7.138   2.963  12.200
32538SOL     OW97639   6.501   1.951  12.574
32538SOL    HW197640   6.526   1.931  12.479
32538SOL    HW297641   6.573   2.007  12.616
32539SOL     OW97642   6.291   2.912  11.540
32539SOL    HW197643   6.277   2.919  11.639
32539SOL    HW297644   6.375   2.861  11.522
32540SOL     OW97645   5.996   2.675  12.423
32540SOL    HW197646   6.082   2.687  12.473
32540SOL    HW297647   5.954   2.588  12.450
32541SOL     OW97648   6.860   2.248  12.434
32541SOL    HW197649   6.881   2.322  12.498
32541SOL    HW297650   6.771   2.265  12.391
32542SOL     OW97651   5.650   3.426  12.503
32542SOL    HW197652   5.604   3.508  12.469
32542SOL    HW297653   5.748   3.445  12.512
32543SOL     OW97654   5.953   2.962  11.673
32543SOL    HW197655   5.946   3.045  11.617
32543SOL    HW297656   5.957   2.882  11.613
32544SOL     OW97657   6.152   2.399  12.037
32544SOL    HW197658   6.164   2.465  11.963
32544SOL    HW297659   6.198   2.433  12.120
32545SOL     OW97660   6.838   3.210  11.560
32545SOL    HW197661   6.888   3.287  11.600
32545SOL    HW297662   6.743   3.212  11.592
32546SOL     OW97663   6.858   3.307  12.314
32546SOL    HW197664   6.905   3.320  12.401
32546SOL    HW297665   6.792   3.233  12.323
32547SOL     OW97666   7.168   2.501  11.644
32547SOL    HW197667   7.137   2.562  11.717
32547SOL    HW297668   7.218   2.553  11.575
32548SOL     OW97669   5.940   3.372  12.501
32548SOL    HW197670   5.919   3.328  12.414
32548SOL    HW297671   6.037   3.398  12.504
32549SOL     OW97672   5.988   2.613  12.770
32549SOL    HW197673   6.056   2.668  12.723
32549SOL    HW297674   6.028   2.525  12.797
32550SOL     OW97675   7.173   2.641  12.842
32550SOL    HW197676   7.081   2.679  12.837
32550SOL    HW297677   7.233   2.688  12.777
32551SOL     OW97678   6.159   2.732  12.201
32551SOL    HW197679   6.203   2.821  12.192
32551SOL    HW297680   6.096   2.732  12.278
32552SOL     OW97681   6.946   2.724  12.217
32552SOL    HW197682   6.871   2.724  12.151
32552SOL    HW297683   6.983   2.632  12.226
32553SOL     OW97684   6.795   2.387  11.447
32553SOL    HW197685   6.808   2.303  11.501
32553SOL    HW297686   6.766   2.461  11.507
32554SOL     OW97687   5.893   2.075  12.403
32554SOL    HW197688   5.870   2.112  12.493
32554SOL    HW297689   5.863   1.980  12.397
32555SOL     OW97690   5.623   3.172  12.454
32555SOL    HW197691   5.676   3.123  12.522
32555SOL    HW297692   5.645   3.270  12.459
32556SOL     OW97693   6.318   2.496  12.236
32556SOL    HW197694   6.377   2.470  12.160
32556SOL    HW297695   6.290   2.592  12.225
32557SOL     OW97696   5.893   1.925  11.790
32557SOL    HW197697   5.882   2.019  11.823
32557SOL    HW297698   5.888   1.862  11.867
32558SOL     OW97699   7.208   2.229  11.546
32558SOL    HW197700   7.210   2.153  11.610
32558SOL    HW297701   7.160   2.306  11.586
32559SOL     OW97702   6.609   2.628  12.138
32559SOL    HW197703   6.624   2.649  12.234
32559SOL    HW297704   6.579   2.533  12.129
32560SOL     OW97705   6.566   3.435  12.872
32560SOL    HW197706   6.546   3.479  12.784
32560SOL    HW297707   6.605   3.344  12.856
32561SOL     OW97708   7.126   2.136  11.297
32561SOL    HW197709   7.065   2.061  11.320
32561SOL    HW297710   7.148   2.188  11.380
32562SOL     OW97711   6.889   2.700  11.214
32562SOL    HW197712   6.923   2.607  11.229
32562SOL    HW297713   6.907   2.727  11.119
32563SOL     OW97714   6.654   3.195  12.021
32563SOL    HW197715   6.661   3.111  11.966
32563SOL    HW297716   6.716   3.264  11.985
32564SOL     OW97717   5.905   2.672  12.121
32564SOL    HW197718   5.998   2.708  12.126
32564SOL    HW297719   5.899   2.587  12.173
32565SOL     OW97720   5.925   2.371  12.178
32565SOL    HW197721   5.873   2.288  12.161
32565SOL    HW297722   6.002   2.376  12.114
32566SOL     OW97723   6.724   2.242  12.850
32566SOL    HW197724   6.679   2.305  12.914
32566SOL    HW297725   6.817   2.273  12.833
32567SOL     OW97726   6.746   2.069  12.649
32567SOL    HW197727   6.746   2.133  12.726
32567SOL    HW297728   6.774   2.117  12.566
32568SOL     OW97729   5.594   3.188  11.372
32568SOL    HW197730   5.501   3.209  11.341
32568SOL    HW297731   5.604   3.089  11.385
32569SOL     OW97732   5.674   3.663  12.099
32569SOL    HW197733   5.632   3.577  12.072
32569SOL    HW297734   5.768   3.666  12.065
32570SOL     OW97735   6.090   3.430  12.082
32570SOL    HW197736   6.156   3.504  12.091
32570SOL    HW297737   6.134   3.351  12.040
32571SOL     OW97738   6.588   2.658  12.410
32571SOL    HW197739   6.629   2.626  12.496
32571SOL    HW297740   6.492   2.631  12.407
32572SOL     OW97741   5.626   2.406  12.286
32572SOL    HW197742   5.711   2.373  12.245
32572SOL    HW297743   5.639   2.421  12.384
32573SOL     OW97744   6.401   2.434  11.497
32573SOL    HW197745   6.408   2.345  11.451
32573SOL    HW297746   6.307   2.468  11.489
32574SOL     OW97747   7.243   2.466  12.378
32574SOL    HW197748   7.205   2.397  12.440
32574SOL    HW297749   7.325   2.430  12.334
32575SOL     OW97750   6.257   2.326  12.441
32575SOL    HW197751   6.223   2.237  12.411
32575SOL    HW297752   6.283   2.380  12.361
32576SOL     OW97753   6.516   3.540  12.637
32576SOL    HW197754   6.492   3.522  12.542
32576SOL    HW297755   6.546   3.634  12.647
32577SOL     OW97756   6.059   2.362  11.363
32577SOL    HW197757   6.120   2.442  11.367
32577SOL    HW297758   5.964   2.393  11.370
32578SOL     OW97759   5.745   2.999  12.638
32578SOL    HW197760   5.767   2.938  12.714
32578SOL    HW297761   5.755   2.950  12.552
32579SOL     OW97762   6.933   2.921  12.406
32579SOL    HW197763   6.957   2.858  12.332
32579SOL    HW297764   6.843   2.961  12.388
32580SOL     OW97765   6.888   2.717  11.481
32580SOL    HW197766   6.802   2.686  11.523
32580SOL    HW297767   6.884   2.703  11.382
32581SOL     OW97768   7.345   3.609  12.326
32581SOL    HW197769   7.406   3.639  12.253
32581SOL    HW297770   7.307   3.520  12.304
32582SOL     OW97771   6.838   3.593  12.300
32582SOL    HW197772   6.922   3.598  12.246
32582SOL    HW297773   6.815   3.497  12.318
32583SOL     OW97774   5.669   3.120  12.194
32583SOL    HW197775   5.664   3.119  12.294
32583SOL    HW297776   5.586   3.079  12.156
32584SOL     OW97777   7.312   1.997  11.695
32584SOL    HW197778   7.385   1.980  11.628
32584SOL    HW297779   7.281   1.910  11.733
32585SOL     OW97780   6.974   3.435  11.649
32585SOL    HW197781   7.041   3.447  11.575
32585SOL    HW297782   6.934   3.524  11.672
32586SOL     OW97783   6.866   2.789  11.844
32586SOL    HW197784   6.926   2.708  11.846
32586SOL    HW297785   6.906   2.858  11.784
32587SOL     OW97786   6.258   3.478  11.326
32587SOL    HW197787   6.267   3.488  11.227
32587SOL    HW297788   6.218   3.389  11.347
32588SOL     OW97789   7.236   3.582  12.566
32588SOL    HW197790   7.289   3.592  12.482
32588SOL    HW297791   7.209   3.672  12.600
32589SOL     OW97792   7.427   2.037  12.135
32589SOL    HW197793   7.466   1.952  12.099
32589SOL    HW297794   7.329   2.039  12.116
32590SOL     OW97795   5.849   2.188  11.892
32590SOL    HW197796   5.770   2.239  11.858
32590SOL    HW297797   5.840   2.173  11.990
32591SOL     OW97798   6.780   3.474  11.203
32591SOL    HW197799   6.786   3.381  11.240
32591SOL    HW297800   6.721   3.474  11.123
32592SOL     OW97801   6.408   2.864  12.544
32592SOL    HW197802   6.448   2.863  12.452
32592SOL    HW297803   6.418   2.956  12.584
32593SOL     OW97804   6.502   2.772  11.463
32593SOL    HW197805   6.565   2.810  11.395
32593SOL    HW297806   6.542   2.689  11.502
32594SOL     OW97807   7.090   3.469  11.216
32594SOL    HW197808   6.998   3.506  11.223
32594SOL    HW297809   7.128   3.489  11.126
32595SOL     OW97810   5.958   3.150  12.662
32595SOL    HW197811   5.945   3.243  12.628
32595SOL    HW297812   5.874   3.098  12.649
32596SOL     OW97813   7.200   3.154  12.461
32596SOL    HW197814   7.260   3.157  12.541
32596SOL    HW297815   7.125   3.218  12.474
32597SOL     OW97816   6.625   2.960  11.868
32597SOL    HW197817   6.555   2.913  11.922
32597SOL    HW297818   6.684   2.892  11.825
32598SOL     OW97819   6.600   2.098  12.143
32598SOL    HW197820   6.592   2.062  12.050
32598SOL    HW297821   6.598   2.022  12.208
32599SOL     OW97822   6.176   3.349  11.663
32599SOL    HW197823   6.218   3.291  11.593
32599SOL    HW297824   6.132   3.428  11.619
32600SOL     OW97825   7.295   2.247  12.553
32600SOL    HW197826   7.368   2.316  12.557
32600SOL    HW297827   7.323   2.172  12.494
32601SOL     OW97828   5.841   3.210  11.462
32601SOL    HW197829   5.745   3.211  11.435
32601SOL    HW297830   5.853   3.263  11.546
32602SOL     OW97831   5.661   2.207  11.205
32602SOL    HW197832   5.569   2.179  11.176
32602SOL    HW297833   5.692   2.284  11.149
32603SOL     OW97834   7.026   2.718  12.570
32603SOL    HW197835   6.969   2.770  12.507
32603SOL    HW297836   7.122   2.730  12.546
32604SOL     OW97837   5.658   2.028  11.490
32604SOL    HW197838   5.641   2.111  11.436
32604SOL    HW297839   5.748   1.991  11.468
32605SOL     OW97840   6.769   3.197  11.291
32605SOL    HW197841   6.670   3.186  11.293
32605SOL    HW297842   6.803   3.212  11.384
32606SOL     OW97843   6.199   2.704  12.603
32606SOL    HW197844   6.255   2.785  12.586
32606SOL    HW297845   6.258   2.624  12.606
32607SOL     OW97846   7.079   3.629  12.131
32607SOL    HW197847   7.112   3.693  12.062
32607SOL    HW297848   7.145   3.623  12.206
32608SOL     OW97849   5.976   3.603  12.732
32608SOL    HW197850   5.885   3.644  12.730
32608SOL    HW297851   5.969   3.509  12.764
32609SOL     OW97852   7.260   2.745  12.426
32609SOL    HW197853   7.233   2.656  12.389
32609SOL    HW297854   7.261   2.813  12.353
32610SOL     OW97855   6.811   2.187  11.621
32610SOL    HW197856   6.876   2.113  11.610
32610SOL    HW297857   6.831   2.237  11.705
32611SOL     OW97858   6.180   2.607  11.824
32611SOL    HW197859   6.230   2.692  11.805
32611SOL    HW297860   6.092   2.609  11.776
32612SOL     OW97861   7.363   2.204  12.814
32612SOL    HW197862   7.346   2.235  12.720
32612SOL    HW297863   7.279   2.167  12.852
32613SOL     OW97864   7.316   2.796  12.689
32613SOL    HW197865   7.354   2.887  12.704
32613SOL    HW297866   7.308   2.779  12.590
32614SOL     OW97867   6.445   3.236  11.188
32614SOL    HW197868   6.399   3.251  11.276
32614SOL    HW297869   6.489   3.321  11.158
32615SOL     OW97870   6.247   3.652  12.125
32615SOL    HW197871   6.201   3.740  12.112
32615SOL    HW297872   6.346   3.664  12.118
32616SOL     OW97873   6.445   2.818  12.033
32616SOL    HW197874   6.499   2.749  12.081
32616SOL    HW297875   6.413   2.887  12.099
32617SOL     OW97876   6.669   2.846  11.259
32617SOL    HW197877   6.646   2.899  11.177
32617SOL    HW297878   6.750   2.790  11.240
32618SOL     OW97879   7.447   3.431  12.023
32618SOL    HW197880   7.376   3.419  11.953
32618SOL    HW297881   7.448   3.352  12.083
32619SOL     OW97882   5.665   3.102  11.825
32619SOL    HW197883   5.664   3.055  11.913
32619SOL    HW297884   5.747   3.074  11.774
32620SOL     OW97885   7.410   2.054  12.399
32620SOL    HW197886   7.406   1.964  12.443
32620SOL    HW297887   7.413   2.043  12.300
32621SOL     OW97888   6.014   2.286  11.692
32621SOL    HW197889   6.044   2.214  11.630
32621SOL    HW297890   5.975   2.246  11.775
32622SOL     OW97891   7.291   3.349  12.276
32622SOL    HW197892   7.198   3.324  12.249
32622SOL    HW297893   7.317   3.299  12.358
32623SOL     OW97894   5.903   2.409  12.452
32623SOL    HW197895   5.941   2.350  12.524
32623SOL    HW297896   5.943   2.383  12.364
32624SOL     OW97897   6.398   3.448  11.859
32624SOL    HW197898   6.430   3.458  11.765
32624SOL    HW297899   6.319   3.386  11.861
32625SOL     OW97900   7.010   2.076  12.284
32625SOL    HW197901   7.062   2.011  12.339
32625SOL    HW297902   6.961   2.139  12.345
32626SOL     OW97903   6.587   1.896  12.326
32626SOL    HW197904   6.524   1.824  12.295
32626SOL    HW297905   6.680   1.860  12.326
32627SOL     OW97906   6.356   3.192  11.473
32627SOL    HW197907   6.310   3.105  11.490
32627SOL    HW297908   6.447   3.189  11.514
32628SOL     OW97909   6.204   3.429  12.456
32628SOL    HW197910   6.199   3.511  12.513
32628SOL    HW297911   6.293   3.426  12.411
32629SOL     OW97912   6.938   1.914  11.340
32629SOL    HW197913   6.973   1.873  11.256
32629SOL    HW297914   6.848   1.876  11.360
32630SOL     OW97915   6.886   2.315  11.863
32630SOL    HW197916   6.827   2.395  11.867
32630SOL    HW297917   6.901   2.280  11.956
32631SOL     OW97918   7.179   2.083  12.054
32631SOL    HW197919   7.095   2.082  12.108
32631SOL    HW297920   7.181   2.166  11.998
32632SOL     OW97921   5.625   2.939  11.472
32632SOL    HW197922   5.724   2.928  11.463
32632SOL    HW297923   5.585   2.853  11.504
32633SOL     OW97924   6.461   3.508  11.509
32633SOL    HW197925   6.384   3.473  11.455
32633SOL    HW297926   6.429   3.579  11.571
32634SOL     OW97927   5.816   4.352   0.113
32634SOL    HW197928   5.723   4.350   0.150
32634SOL    HW297929   5.817   4.313   0.021
32635SOL     OW97930   5.811   3.999   0.996
32635SOL    HW197931   5.846   3.982   1.088
32635SOL    HW297932   5.723   3.954   0.984
32636SOL     OW97933   5.605   4.092   0.647
32636SOL    HW197934   5.523   4.135   0.686
32636SOL    HW297935   5.577   4.019   0.584
32637SOL     OW97936   6.155   4.999   1.165
32637SOL    HW197937   6.062   4.992   1.128
32637SOL    HW297938   6.166   5.088   1.209
32638SOL     OW97939   7.141   5.235   0.703
32638SOL    HW197940   7.084   5.219   0.784
32638SOL    HW297941   7.082   5.245   0.623
32639SOL     OW97942   6.721   4.427   0.717
32639SOL    HW197943   6.778   4.505   0.692
32639SOL    HW297944   6.661   4.453   0.793
32640SOL     OW97945   7.341   4.331   0.231
32640SOL    HW197946   7.329   4.318   0.132
32640SOL    HW297947   7.311   4.250   0.280
32641SOL     OW97948   6.354   4.868   1.023
32641SOL    HW197949   6.276   4.885   1.083
32641SOL    HW297950   6.388   4.955   0.987
32642SOL     OW97951   6.436   4.522   1.823
32642SOL    HW197952   6.432   4.598   1.888
32642SOL    HW297953   6.458   4.558   1.732
32643SOL     OW97954   6.271   4.736   0.665
32643SOL    HW197955   6.340   4.720   0.735
32643SOL    HW297956   6.198   4.793   0.703
32644SOL     OW97957   6.272   4.885   1.803
32644SOL    HW197958   6.332   4.964   1.817
32644SOL    HW297959   6.186   4.916   1.762
32645SOL     OW97960   5.921   5.159   1.061
32645SOL    HW197961   5.843   5.128   1.008
32645SOL    HW297962   5.979   5.217   1.004
32646SOL     OW97963   7.046   5.229   1.339
32646SOL    HW197964   7.070   5.323   1.365
32646SOL    HW297965   7.030   5.175   1.421
32647SOL     OW97966   6.024   4.116   1.499
32647SOL    HW197967   6.106   4.060   1.508
32647SOL    HW297968   5.943   4.058   1.503
32648SOL     OW97969   7.189   4.171   0.737
32648SOL    HW197970   7.115   4.217   0.687
32648SOL    HW297971   7.240   4.239   0.790
32649SOL     OW97972   5.817   5.437   0.483
32649SOL    HW197973   5.851   5.514   0.537
32649SOL    HW297974   5.861   5.437   0.393
32650SOL     OW97975   6.713   5.065   1.690
32650SOL    HW197976   6.760   5.065   1.778
32650SOL    HW297977   6.665   4.978   1.679
32651SOL     OW97978   5.816   5.158   0.538
32651SOL    HW197979   5.790   5.254   0.538
32651SOL    HW297980   5.745   5.104   0.583
32652SOL     OW97981   5.826   4.815   0.886
32652SOL    HW197982   5.840   4.731   0.938
32652SOL    HW297983   5.771   4.879   0.941
32653SOL     OW97984   6.206   5.510   1.439
32653SOL    HW197985   6.114   5.493   1.474
32653SOL    HW297986   6.234   5.602   1.465
32654SOL     OW97987   6.192   4.688   0.123
32654SOL    HW197988   6.199   4.772   0.069
32654SOL    HW297989   6.238   4.701   0.211
32655SOL     OW97990   7.180   3.838   1.480
32655SOL    HW197991   7.162   3.905   1.408
32655SOL    HW297992   7.177   3.884   1.569
32656SOL     OW97993   5.708   4.367   0.563
32656SOL    HW197994   5.663   4.279   0.580
32656SOL    HW297995   5.707   4.421   0.647
32657SOL     OW97996   7.428   5.491   0.359
32657SOL    HW197997   7.482   5.462   0.439
32657SOL    HW297998   7.458   5.581   0.330
32658SOL     OW97999   5.613   5.320   0.117
32658SOL    HW198000   5.594   5.224   0.138
32658SOL    HW298001   5.580   5.378   0.192
32659SOL     OW98002   7.275   4.646   0.612
32659SOL    HW198003   7.370   4.617   0.620
32659SOL    HW298004   7.267   4.711   0.537
32660SOL     OW98005   7.227   4.832   0.432
32660SOL    HW198006   7.313   4.834   0.380
32660SOL    HW298007   7.241   4.879   0.520
32661SOL     OW98008   5.699   4.461   1.597
32661SOL    HW198009   5.787   4.448   1.642
32661SOL    HW298010   5.686   4.558   1.575
32662SOL     OW98011   6.199   5.089   0.726
32662SOL    HW198012   6.150   5.002   0.735
32662SOL    HW298013   6.176   5.132   0.639
32663SOL     OW98014   6.879   4.952   1.423
32663SOL    HW198015   6.916   4.879   1.365
32663SOL    HW298016   6.931   4.957   1.508
32664SOL     OW98017   6.395   3.728   0.502
32664SOL    HW198018   6.435   3.819   0.493
32664SOL    HW298019   6.295   3.736   0.508
32665SOL     OW98020   5.783   4.700   1.264
32665SOL    HW198021   5.872   4.655   1.250
32665SOL    HW298022   5.710   4.635   1.245
32666SOL     OW98023   7.111   4.723   0.190
32666SOL    HW198024   7.048   4.647   0.203
32666SOL    HW298025   7.159   4.741   0.276
32667SOL     OW98026   6.773   5.516   1.616
32667SOL    HW198027   6.797   5.576   1.540
32667SOL    HW298028   6.780   5.421   1.586
32668SOL     OW98029   5.903   3.975   1.801
32668SOL    HW198030   5.974   4.046   1.807
32668SOL    HW298031   5.815   4.014   1.829
32669SOL     OW98032   7.052   5.141   0.953
32669SOL    HW198033   6.993   5.147   1.033
32669SOL    HW298034   7.037   5.053   0.907
32670SOL     OW98035   7.253   5.438   0.572
32670SOL    HW198036   7.212   5.415   0.484
32670SOL    HW298037   7.235   5.364   0.637
32671SOL     OW98038   6.184   4.453   0.270
32671SOL    HW198039   6.208   4.522   0.202
32671SOL    HW298040   6.106   4.486   0.324
32672SOL     OW98041   6.867   4.069   0.944
32672SOL    HW198042   6.781   4.019   0.931
32672SOL    HW298043   6.929   4.015   1.000
32673SOL     OW98044   7.162   5.386   0.307
32673SOL    HW198045   7.251   5.432   0.310
32673SOL    HW298046   7.141   5.362   0.212
32674SOL     OW98047   6.393   4.329   1.465
32674SOL    HW198048   6.346   4.326   1.554
32674SOL    HW298049   6.342   4.274   1.399
32675SOL     OW98050   6.980   4.193   1.674
32675SOL    HW198051   6.960   4.236   1.762
32675SOL    HW298052   7.058   4.131   1.683
32676SOL     OW98053   6.559   4.614   1.572
32676SOL    HW198054   6.605   4.530   1.543
32676SOL    HW298055   6.503   4.648   1.497
32677SOL     OW98056   6.577   4.134   1.242
32677SOL    HW198057   6.500   4.168   1.296
32677SOL    HW298058   6.543   4.083   1.163
32678SOL     OW98059   6.627   4.425   0.429
32678SOL    HW198060   6.653   4.421   0.525
32678SOL    HW298061   6.542   4.374   0.415
32679SOL     OW98062   5.662   4.535   0.789
32679SOL    HW198063   5.761   4.523   0.798
32679SOL    HW298064   5.638   4.630   0.810
32680SOL     OW98065   5.716   5.545   1.571
32680SOL    HW198066   5.706   5.530   1.670
32680SOL    HW298067   5.630   5.581   1.535
32681SOL     OW98068   6.451   4.072   0.195
32681SOL    HW198069   6.510   4.135   0.146
32681SOL    HW298070   6.470   3.978   0.166
32682SOL     OW98071   7.305   4.309   1.831
32682SOL    HW198072   7.279   4.398   1.795
32682SOL    HW298073   7.303   4.241   1.758
32683SOL     OW98074   6.948   4.868   0.545
32683SOL    HW198075   7.031   4.839   0.497
32683SOL    HW298076   6.899   4.935   0.489
32684SOL     OW98077   6.136   3.920   0.885
32684SOL    HW198078   6.131   3.915   0.985
32684SOL    HW298079   6.138   4.016   0.856
32685SOL     OW98080   6.594   5.180   0.477
32685SOL    HW198081   6.548   5.252   0.425
32685SOL    HW298082   6.590   5.200   0.575
32686SOL     OW98083   5.937   5.525   0.853
32686SOL    HW198084   5.987   5.439   0.859
32686SOL    HW298085   6.002   5.602   0.850
32687SOL     OW98086   7.381   4.790   0.873
32687SOL    HW198087   7.319   4.775   0.797
32687SOL    HW298088   7.329   4.801   0.958
32688SOL     OW98089   6.813   5.274   1.506
32688SOL    HW198090   6.819   5.197   1.570
32688SOL    HW298091   6.761   5.248   1.426
32689SOL     OW98092   5.907   4.667   0.242
32689SOL    HW198093   5.989   4.706   0.200
32689SOL    HW298094   5.880   4.585   0.193
32690SOL     OW98095   7.044   4.459   0.728
32690SOL    HW198096   7.039   4.394   0.803
32690SOL    HW298097   7.124   4.518   0.741
32691SOL     OW98098   6.047   4.990   1.727
32691SOL    HW198099   5.997   4.991   1.641
32691SOL    HW298100   5.984   4.972   1.803
32692SOL     OW98101   6.697   5.500   0.237
32692SOL    HW198102   6.637   5.438   0.287
32692SOL    HW298103   6.728   5.456   0.152
32693SOL     OW98104   5.788   4.009   1.498
32693SOL    HW198105   5.708   4.069   1.485
32693SOL    HW298106   5.778   3.960   1.584
32694SOL     OW98107   7.218   5.101   0.081
32694SOL    HW198108   7.186   5.195   0.071
32694SOL    HW298109   7.142   5.038   0.069
32695SOL     OW98110   6.050   5.467   0.323
32695SOL    HW198111   6.083   5.506   0.409
32695SOL    HW298112   6.126   5.460   0.258
32696SOL     OW98113   6.986   3.831   0.426
32696SOL    HW198114   6.962   3.794   0.336
32696SOL    HW298115   7.085   3.847   0.430
32697SOL     OW98116   5.835   5.509   1.241
32697SOL    HW198117   5.892   5.444   1.291
32697SOL    HW298118   5.819   5.476   1.148
32698SOL     OW98119   6.526   5.422   0.904
32698SOL    HW198120   6.606   5.365   0.925
32698SOL    HW298121   6.477   5.382   0.827
32699SOL     OW98122   5.968   4.424   0.480
32699SOL    HW198123   6.013   4.334   0.477
32699SOL    HW298124   5.874   4.413   0.513
32700SOL     OW98125   7.133   3.946   1.729
32700SOL    HW198126   7.128   3.983   1.821
32700SOL    HW298127   7.061   3.877   1.717
32701SOL     OW98128   6.200   3.846   0.117
32701SOL    HW198129   6.298   3.824   0.124
32701SOL    HW298130   6.169   3.829   0.024
32702SOL     OW98131   6.367   3.988   1.749
32702SOL    HW198132   6.434   3.927   1.792
32702SOL    HW298133   6.294   4.007   1.814
32703SOL     OW98134   6.474   5.238   1.195
32703SOL    HW198135   6.451   5.213   1.101
32703SOL    HW298136   6.535   5.169   1.234
32704SOL     OW98137   6.937   4.314   1.433
32704SOL    HW198138   6.965   4.271   1.518
32704SOL    HW298139   6.962   4.410   1.434
32705SOL     OW98140   6.389   5.126   0.924
32705SOL    HW198141   6.479   5.140   0.882
32705SOL    HW298142   6.318   5.128   0.853
32706SOL     OW98143   6.508   4.227   0.899
32706SOL    HW198144   6.483   4.218   0.803
32706SOL    HW298145   6.556   4.145   0.930
32707SOL     OW98146   6.125   3.788   0.512
32707SOL    HW198147   6.044   3.789   0.570
32707SOL    HW298148   6.128   3.871   0.457
32708SOL     OW98149   7.020   4.912   0.041
32708SOL    HW198150   7.052   4.836   0.098
32708SOL    HW298151   6.928   4.939   0.071
32709SOL     OW98152   5.883   3.759   0.171
32709SOL    HW198153   5.932   3.843   0.150
32709SOL    HW298154   5.945   3.694   0.216
32710SOL     OW98155   6.521   3.960   0.480
32710SOL    HW198156   6.473   4.001   0.402
32710SOL    HW298157   6.620   3.958   0.461
32711SOL     OW98158   6.662   4.407   1.464
32711SOL    HW198159   6.582   4.346   1.467
32711SOL    HW298160   6.743   4.354   1.440
32712SOL     OW98161   6.813   5.294   0.793
32712SOL    HW198162   6.834   5.368   0.728
32712SOL    HW298163   6.881   5.294   0.866
32713SOL     OW98164   6.045   4.876   0.741
32713SOL    HW198165   5.974   4.849   0.806
32713SOL    HW298166   6.019   4.848   0.648
32714SOL     OW98167   6.857   5.521   0.591
32714SOL    HW198168   6.901   5.585   0.527
32714SOL    HW298169   6.807   5.573   0.661
32715SOL     OW98170   6.618   4.273   0.016
32715SOL    HW198171   6.577   4.355  -0.023
32715SOL    HW298172   6.682   4.299   0.089
32716SOL     OW98173   5.664   4.280   1.386
32716SOL    HW198174   5.756   4.279   1.345
32716SOL    HW298175   5.658   4.354   1.453
32717SOL     OW98176   6.147   3.946   1.147
32717SOL    HW198177   6.185   3.862   1.184
32717SOL    HW298178   6.059   3.965   1.191
32718SOL     OW98179   6.452   4.178   0.642
32718SOL    HW198180   6.420   4.250   0.580
32718SOL    HW298181   6.476   4.097   0.589
32719SOL     OW98182   6.603   3.763   0.753
32719SOL    HW198183   6.531   3.768   0.684
32719SOL    HW298184   6.579   3.694   0.822
32720SOL     OW98185   7.015   4.897   0.867
32720SOL    HW198186   6.960   4.813   0.860
32720SOL    HW298187   7.041   4.926   0.775
32721SOL     OW98188   7.052   4.314   0.992
32721SOL    HW198189   7.022   4.219   0.999
32721SOL    HW298190   7.125   4.330   1.058
32722SOL     OW98191   7.443   4.557   0.377
32722SOL    HW198192   7.485   4.493   0.441
32722SOL    HW298193   7.405   4.506   0.299
32723SOL     OW98194   6.074   5.109   0.174
32723SOL    HW198195   5.987   5.094   0.221
32723SOL    HW298196   6.057   5.135   0.079
32724SOL     OW98197   7.250   5.004   0.657
32724SOL    HW198198   7.349   5.012   0.671
32724SOL    HW298199   7.205   5.088   0.688
32725SOL     OW98200   6.976   4.299   0.078
32725SOL    HW198201   6.922   4.278   0.159
32725SOL    HW298202   7.067   4.258   0.087
32726SOL     OW98203   6.113   3.980   0.328
32726SOL    HW198204   6.140   3.921   0.253
32726SOL    HW298205   6.113   4.075   0.297
32727SOL     OW98206   7.340   4.947   1.588
32727SOL    HW198207   7.431   4.908   1.575
32727SOL    HW298208   7.348   5.043   1.612
32728SOL     OW98209   6.650   5.071   1.340
32728SOL    HW198210   6.570   5.048   1.395
32728SOL    HW298211   6.733   5.045   1.389
32729SOL     OW98212   7.178   5.353   1.625
32729SOL    HW198213   7.205   5.387   1.535
32729SOL    HW298214   7.257   5.315   1.671
32730SOL     OW98215   6.697   4.919   1.100
32730SOL    HW198216   6.657   4.963   1.181
32730SOL    HW298217   6.656   4.956   1.017
32731SOL     OW98218   7.224   4.823   1.079
32731SOL    HW198219   7.229   4.904   1.138
32731SOL    HW298220   7.138   4.825   1.028
32732SOL     OW98221   6.501   3.813   1.402
32732SOL    HW198222   6.526   3.793   1.307
32732SOL    HW298223   6.573   3.869   1.444
32733SOL     OW98224   6.566   4.840   1.719
32733SOL    HW198225   6.467   4.846   1.729
32733SOL    HW298226   6.589   4.760   1.663
32734SOL     OW98227   6.291   4.774   0.368
32734SOL    HW198228   6.277   4.781   0.467
32734SOL    HW298229   6.375   4.723   0.350
32735SOL     OW98230   5.996   4.537   1.251
32735SOL    HW198231   6.082   4.549   1.301
32735SOL    HW298232   5.954   4.450   1.278
32736SOL     OW98233   6.860   4.110   1.262
32736SOL    HW198234   6.881   4.184   1.326
32736SOL    HW298235   6.771   4.127   1.219
32737SOL     OW98236   5.650   5.288   1.331
32737SOL    HW198237   5.604   5.370   1.297
32737SOL    HW298238   5.748   5.307   1.340
32738SOL     OW98239   5.953   4.824   0.501
32738SOL    HW198240   5.946   4.907   0.445
32738SOL    HW298241   5.957   4.744   0.441
32739SOL     OW98242   6.152   4.261   0.865
32739SOL    HW198243   6.164   4.327   0.791
32739SOL    HW298244   6.198   4.295   0.948
32740SOL     OW98245   6.838   5.072   0.388
32740SOL    HW198246   6.888   5.149   0.428
32740SOL    HW298247   6.743   5.074   0.420
32741SOL     OW98248   6.858   5.169   1.142
32741SOL    HW198249   6.905   5.182   1.229
32741SOL    HW298250   6.792   5.095   1.151
32742SOL     OW98251   7.168   4.363   0.472
32742SOL    HW198252   7.137   4.424   0.545
32742SOL    HW298253   7.218   4.415   0.403
32743SOL     OW98254   5.940   5.234   1.329
32743SOL    HW198255   5.919   5.190   1.242
32743SOL    HW298256   6.037   5.260   1.332
32744SOL     OW98257   5.988   4.475   1.598
32744SOL    HW198258   6.056   4.530   1.551
32744SOL    HW298259   6.028   4.387   1.625
32745SOL     OW98260   7.173   4.503   1.670
32745SOL    HW198261   7.081   4.541   1.665
32745SOL    HW298262   7.233   4.550   1.605
32746SOL     OW98263   6.599   3.829   1.770
32746SOL    HW198264   6.605   3.914   1.718
32746SOL    HW298265   6.631   3.753   1.713
32747SOL     OW98266   6.090   3.774   1.740
32747SOL    HW198267   6.048   3.717   1.670
32747SOL    HW298268   6.024   3.843   1.772
32748SOL     OW98269   6.159   4.594   1.029
32748SOL    HW198270   6.203   4.683   1.020
32748SOL    HW298271   6.096   4.594   1.106
32749SOL     OW98272   6.946   4.586   1.045
32749SOL    HW198273   6.871   4.586   0.979
32749SOL    HW298274   6.983   4.494   1.054
32750SOL     OW98275   6.795   4.249   0.275
32750SOL    HW198276   6.808   4.165   0.329
32750SOL    HW298277   6.766   4.323   0.335
32751SOL     OW98278   5.893   3.937   1.231
32751SOL    HW198279   5.870   3.974   1.321
32751SOL    HW298280   5.863   3.842   1.225
32752SOL     OW98281   5.623   5.034   1.282
32752SOL    HW198282   5.676   4.985   1.350
32752SOL    HW298283   5.645   5.132   1.287
32753SOL     OW98284   6.318   4.358   1.064
32753SOL    HW198285   6.377   4.332   0.988
32753SOL    HW298286   6.290   4.454   1.053
32754SOL     OW98287   7.314   4.659   1.854
32754SOL    HW198288   7.268   4.652   1.765
32754SOL    HW298289   7.252   4.703   1.920
32755SOL     OW98290   5.893   3.787   0.618
32755SOL    HW198291   5.882   3.881   0.651
32755SOL    HW298292   5.888   3.724   0.695
32756SOL     OW98293   7.208   4.091   0.374
32756SOL    HW198294   7.210   4.015   0.438
32756SOL    HW298295   7.160   4.168   0.414
32757SOL     OW98296   6.609   4.490   0.966
32757SOL    HW198297   6.624   4.511   1.062
32757SOL    HW298298   6.579   4.395   0.957
32758SOL     OW98299   6.566   5.297   1.700
32758SOL    HW198300   6.546   5.341   1.612
32758SOL    HW298301   6.605   5.206   1.684
32759SOL     OW98302   7.445   5.242   1.605
32759SOL    HW198303   7.459   5.269   1.510
32759SOL    HW298304   7.528   5.264   1.658
32760SOL     OW98305   5.936   4.622   1.804
32760SOL    HW198306   6.012   4.666   1.852
32760SOL    HW298307   5.971   4.575   1.722
32761SOL     OW98308   7.126   3.998   0.125
32761SOL    HW198309   7.065   3.923   0.148
32761SOL    HW298310   7.148   4.050   0.208
32762SOL     OW98311   6.889   4.562   0.042
32762SOL    HW198312   6.923   4.469   0.057
32762SOL    HW298313   6.907   4.589  -0.053
32763SOL     OW98314   6.654   5.057   0.849
32763SOL    HW198315   6.661   4.973   0.794
32763SOL    HW298316   6.716   5.126   0.813
32764SOL     OW98317   5.905   4.534   0.949
32764SOL    HW198318   5.998   4.570   0.954
32764SOL    HW298319   5.899   4.449   1.001
32765SOL     OW98320   5.925   4.233   1.006
32765SOL    HW198321   5.873   4.150   0.989
32765SOL    HW298322   6.002   4.238   0.942
32766SOL     OW98323   6.724   4.104   1.678
32766SOL    HW198324   6.679   4.167   1.742
32766SOL    HW298325   6.817   4.135   1.661
32767SOL     OW98326   6.746   3.931   1.477
32767SOL    HW198327   6.746   3.995   1.554
32767SOL    HW298328   6.774   3.979   1.394
32768SOL     OW98329   5.594   5.050   0.200
32768SOL    HW198330   5.501   5.071   0.169
32768SOL    HW298331   5.604   4.951   0.213
32769SOL     OW98332   5.674   5.525   0.927
32769SOL    HW198333   5.632   5.439   0.900
32769SOL    HW298334   5.768   5.528   0.893
32770SOL     OW98335   6.090   5.292   0.910
32770SOL    HW198336   6.156   5.366   0.919
32770SOL    HW298337   6.134   5.213   0.868
32771SOL     OW98338   6.588   4.520   1.238
32771SOL    HW198339   6.629   4.488   1.324
32771SOL    HW298340   6.492   4.493   1.235
32772SOL     OW98341   5.626   4.268   1.114
32772SOL    HW198342   5.711   4.235   1.073
32772SOL    HW298343   5.639   4.283   1.212
32773SOL     OW98344   5.775   4.244   1.722
32773SOL    HW198345   5.834   4.204   1.652
32773SOL    HW298346   5.717   4.315   1.681
32774SOL     OW98347   6.955   4.674   1.660
32774SOL    HW198348   6.994   4.763   1.680
32774SOL    HW298349   6.965   4.654   1.563
32775SOL     OW98350   6.401   4.296   0.325
32775SOL    HW198351   6.408   4.207   0.279
32775SOL    HW298352   6.307   4.330   0.317
32776SOL     OW98353   7.243   4.328   1.206
32776SOL    HW198354   7.205   4.259   1.268
32776SOL    HW298355   7.325   4.292   1.162
32777SOL     OW98356   5.838   5.288   1.744
32777SOL    HW198357   5.808   5.345   1.820
32777SOL    HW298358   5.831   5.191   1.770
32778SOL     OW98359   6.257   4.188   1.269
32778SOL    HW198360   6.223   4.099   1.239
32778SOL    HW298361   6.283   4.242   1.189
32779SOL     OW98362   6.516   5.402   1.465
32779SOL    HW198363   6.492   5.384   1.370
32779SOL    HW298364   6.546   5.496   1.475
32780SOL     OW98365   6.059   4.224   0.191
32780SOL    HW198366   6.120   4.304   0.195
32780SOL    HW298367   5.964   4.255   0.198
32781SOL     OW98368   5.745   4.861   1.466
32781SOL    HW198369   5.767   4.800   1.542
32781SOL    HW298370   5.755   4.812   1.380
32782SOL     OW98371   6.933   4.783   1.234
32782SOL    HW198372   6.957   4.720   1.160
32782SOL    HW298373   6.843   4.823   1.216
32783SOL     OW98374   6.888   4.579   0.309
32783SOL    HW198375   6.802   4.548   0.351
32783SOL    HW298376   6.884   4.565   0.210
32784SOL     OW98377   7.345   5.471   1.154
32784SOL    HW198378   7.406   5.501   1.081
32784SOL    HW298379   7.307   5.382   1.132
32785SOL     OW98380   6.838   5.455   1.128
32785SOL    HW198381   6.922   5.460   1.074
32785SOL    HW298382   6.815   5.359   1.146
32786SOL     OW98383   5.669   4.982   1.022
32786SOL    HW198384   5.664   4.981   1.122
32786SOL    HW298385   5.586   4.941   0.984
32787SOL     OW98386   6.274   5.386   1.716
32787SOL    HW198387   6.218   5.467   1.725
32787SOL    HW298388   6.326   5.390   1.630
32788SOL     OW98389   6.489   3.810   0.133
32788SOL    HW198390   6.540   3.811   0.047
32788SOL    HW298391   6.545   3.768   0.204
32789SOL     OW98392   7.312   3.859   0.523
32789SOL    HW198393   7.385   3.842   0.456
32789SOL    HW298394   7.281   3.772   0.561
32790SOL     OW98395   6.974   5.297   0.477
32790SOL    HW198396   7.041   5.309   0.403
32790SOL    HW298397   6.934   5.386   0.500
32791SOL     OW98398   5.716   5.518   1.851
32791SOL    HW198399   5.675   5.444   1.904
32791SOL    HW298400   5.780   5.569   1.909
32792SOL     OW98401   6.866   4.651   0.672
32792SOL    HW198402   6.926   4.570   0.674
32792SOL    HW298403   6.906   4.720   0.612
32793SOL     OW98404   6.416   4.997   1.422
32793SOL    HW198405   6.411   5.030   1.517
32793SOL    HW298406   6.330   5.016   1.376
32794SOL     OW98407   6.258   5.340   0.154
32794SOL    HW198408   6.267   5.350   0.055
32794SOL    HW298409   6.218   5.251   0.175
32795SOL     OW98410   7.236   5.444   1.394
32795SOL    HW198411   7.289   5.454   1.310
32795SOL    HW298412   7.209   5.534   1.428
32796SOL     OW98413   7.427   3.899   0.963
32796SOL    HW198414   7.466   3.814   0.927
32796SOL    HW298415   7.329   3.901   0.944
32797SOL     OW98416   5.849   4.050   0.720
32797SOL    HW198417   5.770   4.101   0.686
32797SOL    HW298418   5.840   4.035   0.818
32798SOL     OW98419   6.780   5.336   0.031
32798SOL    HW198420   6.786   5.243   0.068
32798SOL    HW298421   6.721   5.336  -0.049
32799SOL     OW98422   6.408   4.726   1.372
32799SOL    HW198423   6.448   4.725   1.280
32799SOL    HW298424   6.418   4.818   1.412
32800SOL     OW98425   6.502   4.634   0.291
32800SOL    HW198426   6.565   4.672   0.223
32800SOL    HW298427   6.542   4.551   0.330
32801SOL     OW98428   7.090   5.331   0.044
32801SOL    HW198429   6.998   5.368   0.051
32801SOL    HW298430   7.128   5.351  -0.046
32802SOL     OW98431   5.958   5.012   1.490
32802SOL    HW198432   5.945   5.105   1.456
32802SOL    HW298433   5.874   4.960   1.477
32803SOL     OW98434   7.200   5.016   1.289
32803SOL    HW198435   7.260   5.019   1.369
32803SOL    HW298436   7.125   5.080   1.302
32804SOL     OW98437   6.625   4.822   0.696
32804SOL    HW198438   6.555   4.775   0.750
32804SOL    HW298439   6.684   4.754   0.653
32805SOL     OW98440   6.600   3.960   0.971
32805SOL    HW198441   6.592   3.924   0.878
32805SOL    HW298442   6.598   3.884   1.036
32806SOL     OW98443   6.176   5.211   0.491
32806SOL    HW198444   6.218   5.153   0.421
32806SOL    HW298445   6.132   5.290   0.447
32807SOL     OW98446   7.295   4.109   1.381
32807SOL    HW198447   7.368   4.178   1.385
32807SOL    HW298448   7.323   4.034   1.322
32808SOL     OW98449   5.841   5.072   0.290
32808SOL    HW198450   5.745   5.073   0.263
32808SOL    HW298451   5.853   5.125   0.374
32809SOL     OW98452   5.691   4.737   1.726
32809SOL    HW198453   5.614   4.704   1.780
32809SOL    HW298454   5.776   4.707   1.768
32810SOL     OW98455   6.258   3.927   1.489
32810SOL    HW198456   6.348   3.911   1.449
32810SOL    HW298457   6.266   3.932   1.588
32811SOL     OW98458   7.026   4.580   1.398
32811SOL    HW198459   6.969   4.632   1.335
32811SOL    HW298460   7.122   4.592   1.374
32812SOL     OW98461   5.658   3.890   0.318
32812SOL    HW198462   5.641   3.973   0.264
32812SOL    HW298463   5.748   3.853   0.296
32813SOL     OW98464   6.769   5.059   0.119
32813SOL    HW198465   6.670   5.048   0.121
32813SOL    HW298466   6.803   5.074   0.212
32814SOL     OW98467   6.199   4.566   1.431
32814SOL    HW198468   6.255   4.647   1.414
32814SOL    HW298469   6.258   4.486   1.434
32815SOL     OW98470   7.079   5.491   0.959
32815SOL    HW198471   7.112   5.555   0.890
32815SOL    HW298472   7.145   5.485   1.034
32816SOL     OW98473   6.302   4.289   1.708
32816SOL    HW198474   6.321   4.354   1.782
32816SOL    HW298475   6.362   4.209   1.717
32817SOL     OW98476   7.036   4.944   1.633
32817SOL    HW198477   7.027   4.934   1.732
32817SOL    HW298478   7.132   4.937   1.607
32818SOL     OW98479   5.976   5.465   1.560
32818SOL    HW198480   5.885   5.506   1.558
32818SOL    HW298481   5.969   5.371   1.592
32819SOL     OW98482   7.260   4.607   1.254
32819SOL    HW198483   7.233   4.518   1.217
32819SOL    HW298484   7.261   4.675   1.181
32820SOL     OW98485   6.811   4.049   0.449
32820SOL    HW198486   6.876   3.975   0.438
32820SOL    HW298487   6.831   4.099   0.533
32821SOL     OW98488   6.180   4.469   0.652
32821SOL    HW198489   6.230   4.554   0.633
32821SOL    HW298490   6.092   4.471   0.604
32822SOL     OW98491   7.363   4.066   1.642
32822SOL    HW198492   7.346   4.097   1.548
32822SOL    HW298493   7.279   4.029   1.680
32823SOL     OW98494   7.316   4.658   1.517
32823SOL    HW198495   7.354   4.749   1.532
32823SOL    HW298496   7.308   4.641   1.418
32824SOL     OW98497   6.445   5.098   0.016
32824SOL    HW198498   6.399   5.113   0.104
32824SOL    HW298499   6.489   5.183  -0.014
32825SOL     OW98500   6.247   5.514   0.953
32825SOL    HW198501   6.201   5.602   0.940
32825SOL    HW298502   6.346   5.526   0.946
32826SOL     OW98503   6.445   4.680   0.861
32826SOL    HW198504   6.499   4.611   0.909
32826SOL    HW298505   6.413   4.749   0.927
32827SOL     OW98506   6.669   4.708   0.087
32827SOL    HW198507   6.646   4.761   0.005
32827SOL    HW298508   6.750   4.652   0.068
32828SOL     OW98509   7.447   5.293   0.851
32828SOL    HW198510   7.376   5.281   0.781
32828SOL    HW298511   7.448   5.214   0.911
32829SOL     OW98512   5.807   5.038   1.844
32829SOL    HW198513   5.742   4.965   1.823
32829SOL    HW298514   5.811   5.052   1.942
32830SOL     OW98515   5.665   4.964   0.653
32830SOL    HW198516   5.664   4.917   0.741
32830SOL    HW298517   5.747   4.936   0.602
32831SOL     OW98518   6.258   5.115   1.624
32831SOL    HW198519   6.180   5.065   1.662
32831SOL    HW298520   6.255   5.210   1.655
32832SOL     OW98521   7.410   3.916   1.227
32832SOL    HW198522   7.406   3.826   1.271
32832SOL    HW298523   7.413   3.905   1.128
32833SOL     OW98524   6.014   4.148   0.520
32833SOL    HW198525   6.044   4.076   0.458
32833SOL    HW298526   5.975   4.108   0.603
32834SOL     OW98527   7.291   5.211   1.104
32834SOL    HW198528   7.198   5.186   1.077
32834SOL    HW298529   7.317   5.161   1.186
32835SOL     OW98530   5.903   4.271   1.280
32835SOL    HW198531   5.941   4.212   1.352
32835SOL    HW298532   5.943   4.245   1.192
32836SOL     OW98533   6.398   5.310   0.687
32836SOL    HW198534   6.430   5.320   0.593
32836SOL    HW298535   6.319   5.248   0.689
32837SOL     OW98536   7.010   3.938   1.112
32837SOL    HW198537   7.062   3.873   1.167
32837SOL    HW298538   6.961   4.001   1.173
32838SOL     OW98539   6.587   3.758   1.154
32838SOL    HW198540   6.524   3.686   1.123
32838SOL    HW298541   6.680   3.722   1.154
32839SOL     OW98542   6.356   5.054   0.301
32839SOL    HW198543   6.310   4.967   0.318
32839SOL    HW298544   6.447   5.051   0.342
32840SOL     OW98545   6.204   5.291   1.284
32840SOL    HW198546   6.199   5.373   1.341
32840SOL    HW298547   6.293   5.288   1.239
32841SOL     OW98548   6.938   3.776   0.168
32841SOL    HW198549   6.973   3.735   0.084
32841SOL    HW298550   6.848   3.738   0.188
32842SOL     OW98551   6.886   4.177   0.691
32842SOL    HW198552   6.827   4.257   0.695
32842SOL    HW298553   6.901   4.142   0.784
32843SOL     OW98554   7.179   3.945   0.882
32843SOL    HW198555   7.095   3.944   0.936
32843SOL    HW298556   7.181   4.028   0.826
32844SOL     OW98557   5.625   4.801   0.300
32844SOL    HW198558   5.724   4.790   0.291
32844SOL    HW298559   5.585   4.715   0.332
32845SOL     OW98560   6.461   5.370   0.337
32845SOL    HW198561   6.384   5.335   0.283
32845SOL    HW298562   6.429   5.441   0.399
32846SOL     OW98563   5.816   4.352   1.975
32846SOL    HW198564   5.723   4.350   2.012
32846SOL    HW298565   5.817   4.313   1.883
32847SOL     OW98566   5.811   3.999   2.858
32847SOL    HW198567   5.846   3.982   2.950
32847SOL    HW298568   5.723   3.954   2.846
32848SOL     OW98569   5.605   4.092   2.509
32848SOL    HW198570   5.523   4.135   2.548
32848SOL    HW298571   5.577   4.019   2.446
32849SOL     OW98572   6.155   4.999   3.027
32849SOL    HW198573   6.062   4.992   2.990
32849SOL    HW298574   6.166   5.088   3.071
32850SOL     OW98575   7.141   5.235   2.565
32850SOL    HW198576   7.084   5.219   2.646
32850SOL    HW298577   7.082   5.245   2.485
32851SOL     OW98578   6.721   4.427   2.579
32851SOL    HW198579   6.778   4.505   2.554
32851SOL    HW298580   6.661   4.453   2.655
32852SOL     OW98581   7.341   4.331   2.093
32852SOL    HW198582   7.329   4.318   1.994
32852SOL    HW298583   7.311   4.250   2.142
32853SOL     OW98584   6.354   4.868   2.885
32853SOL    HW198585   6.276   4.885   2.945
32853SOL    HW298586   6.388   4.955   2.849
32854SOL     OW98587   6.436   4.522   3.685
32854SOL    HW198588   6.432   4.598   3.750
32854SOL    HW298589   6.458   4.558   3.594
32855SOL     OW98590   6.271   4.736   2.527
32855SOL    HW198591   6.340   4.720   2.597
32855SOL    HW298592   6.198   4.793   2.565
32856SOL     OW98593   6.272   4.885   3.665
32856SOL    HW198594   6.332   4.964   3.679
32856SOL    HW298595   6.186   4.916   3.624
32857SOL     OW98596   5.921   5.159   2.923
32857SOL    HW198597   5.843   5.128   2.870
32857SOL    HW298598   5.979   5.217   2.866
32858SOL     OW98599   7.046   5.229   3.201
32858SOL    HW198600   7.070   5.323   3.227
32858SOL    HW298601   7.030   5.175   3.283
32859SOL     OW98602   6.024   4.116   3.361
32859SOL    HW198603   6.106   4.060   3.370
32859SOL    HW298604   5.943   4.058   3.365
32860SOL     OW98605   7.189   4.171   2.599
32860SOL    HW198606   7.115   4.217   2.549
32860SOL    HW298607   7.240   4.239   2.652
32861SOL     OW98608   5.817   5.437   2.345
32861SOL    HW198609   5.851   5.514   2.399
32861SOL    HW298610   5.861   5.437   2.255
32862SOL     OW98611   6.713   5.065   3.552
32862SOL    HW198612   6.760   5.065   3.640
32862SOL    HW298613   6.665   4.978   3.541
32863SOL     OW98614   5.816   5.158   2.400
32863SOL    HW198615   5.790   5.254   2.400
32863SOL    HW298616   5.745   5.104   2.445
32864SOL     OW98617   5.826   4.815   2.748
32864SOL    HW198618   5.840   4.731   2.800
32864SOL    HW298619   5.771   4.879   2.803
32865SOL     OW98620   6.206   5.510   3.301
32865SOL    HW198621   6.114   5.493   3.336
32865SOL    HW298622   6.234   5.602   3.327
32866SOL     OW98623   6.192   4.688   1.985
32866SOL    HW198624   6.199   4.772   1.931
32866SOL    HW298625   6.238   4.701   2.073
32867SOL     OW98626   7.180   3.838   3.342
32867SOL    HW198627   7.162   3.905   3.270
32867SOL    HW298628   7.177   3.884   3.431
32868SOL     OW98629   5.708   4.367   2.425
32868SOL    HW198630   5.663   4.279   2.442
32868SOL    HW298631   5.707   4.421   2.509
32869SOL     OW98632   7.428   5.491   2.221
32869SOL    HW198633   7.482   5.462   2.301
32869SOL    HW298634   7.458   5.581   2.192
32870SOL     OW98635   5.613   5.320   1.979
32870SOL    HW198636   5.594   5.224   2.000
32870SOL    HW298637   5.580   5.378   2.054
32871SOL     OW98638   7.275   4.646   2.474
32871SOL    HW198639   7.370   4.617   2.482
32871SOL    HW298640   7.267   4.711   2.399
32872SOL     OW98641   7.227   4.832   2.294
32872SOL    HW198642   7.313   4.834   2.242
32872SOL    HW298643   7.241   4.879   2.382
32873SOL     OW98644   5.699   4.461   3.459
32873SOL    HW198645   5.787   4.448   3.504
32873SOL    HW298646   5.686   4.558   3.437
32874SOL     OW98647   6.199   5.089   2.588
32874SOL    HW198648   6.150   5.002   2.597
32874SOL    HW298649   6.176   5.132   2.501
32875SOL     OW98650   6.879   4.952   3.285
32875SOL    HW198651   6.916   4.879   3.227
32875SOL    HW298652   6.931   4.957   3.370
32876SOL     OW98653   6.395   3.728   2.364
32876SOL    HW198654   6.435   3.819   2.355
32876SOL    HW298655   6.295   3.736   2.370
32877SOL     OW98656   5.783   4.700   3.126
32877SOL    HW198657   5.872   4.655   3.112
32877SOL    HW298658   5.710   4.635   3.107
32878SOL     OW98659   7.111   4.723   2.052
32878SOL    HW198660   7.048   4.647   2.065
32878SOL    HW298661   7.159   4.741   2.138
32879SOL     OW98662   6.773   5.516   3.478
32879SOL    HW198663   6.797   5.576   3.402
32879SOL    HW298664   6.780   5.421   3.448
32880SOL     OW98665   5.903   3.975   3.663
32880SOL    HW198666   5.974   4.046   3.669
32880SOL    HW298667   5.815   4.014   3.691
32881SOL     OW98668   7.052   5.141   2.815
32881SOL    HW198669   6.993   5.147   2.895
32881SOL    HW298670   7.037   5.053   2.769
32882SOL     OW98671   7.253   5.438   2.434
32882SOL    HW198672   7.212   5.415   2.346
32882SOL    HW298673   7.235   5.364   2.499
32883SOL     OW98674   6.184   4.453   2.132
32883SOL    HW198675   6.208   4.522   2.064
32883SOL    HW298676   6.106   4.486   2.186
32884SOL     OW98677   6.867   4.069   2.806
32884SOL    HW198678   6.781   4.019   2.793
32884SOL    HW298679   6.929   4.015   2.862
32885SOL     OW98680   7.162   5.386   2.169
32885SOL    HW198681   7.251   5.432   2.172
32885SOL    HW298682   7.141   5.362   2.074
32886SOL     OW98683   6.393   4.329   3.327
32886SOL    HW198684   6.346   4.326   3.416
32886SOL    HW298685   6.342   4.274   3.261
32887SOL     OW98686   6.980   4.193   3.536
32887SOL    HW198687   6.960   4.236   3.624
32887SOL    HW298688   7.058   4.131   3.545
32888SOL     OW98689   6.559   4.614   3.434
32888SOL    HW198690   6.605   4.530   3.405
32888SOL    HW298691   6.503   4.648   3.359
32889SOL     OW98692   6.577   4.134   3.104
32889SOL    HW198693   6.500   4.168   3.158
32889SOL    HW298694   6.543   4.083   3.025
32890SOL     OW98695   6.627   4.425   2.291
32890SOL    HW198696   6.653   4.421   2.387
32890SOL    HW298697   6.542   4.374   2.277
32891SOL     OW98698   5.662   4.535   2.651
32891SOL    HW198699   5.761   4.523   2.660
32891SOL    HW298700   5.638   4.630   2.672
32892SOL     OW98701   5.716   5.545   3.433
32892SOL    HW198702   5.706   5.530   3.532
32892SOL    HW298703   5.630   5.581   3.397
32893SOL     OW98704   6.451   4.072   2.057
32893SOL    HW198705   6.510   4.135   2.008
32893SOL    HW298706   6.470   3.978   2.028
32894SOL     OW98707   7.305   4.309   3.693
32894SOL    HW198708   7.279   4.398   3.657
32894SOL    HW298709   7.303   4.241   3.620
32895SOL     OW98710   6.948   4.868   2.407
32895SOL    HW198711   7.031   4.839   2.359
32895SOL    HW298712   6.899   4.935   2.351
32896SOL     OW98713   6.136   3.920   2.747
32896SOL    HW198714   6.131   3.915   2.847
32896SOL    HW298715   6.138   4.016   2.718
32897SOL     OW98716   6.594   5.180   2.339
32897SOL    HW198717   6.548   5.252   2.287
32897SOL    HW298718   6.590   5.200   2.437
32898SOL     OW98719   5.937   5.525   2.715
32898SOL    HW198720   5.987   5.439   2.721
32898SOL    HW298721   6.002   5.602   2.712
32899SOL     OW98722   7.381   4.790   2.735
32899SOL    HW198723   7.319   4.775   2.659
32899SOL    HW298724   7.329   4.801   2.820
32900SOL     OW98725   6.813   5.274   3.368
32900SOL    HW198726   6.819   5.197   3.432
32900SOL    HW298727   6.761   5.248   3.288
32901SOL     OW98728   5.907   4.667   2.104
32901SOL    HW198729   5.989   4.706   2.062
32901SOL    HW298730   5.880   4.585   2.055
32902SOL     OW98731   7.044   4.459   2.590
32902SOL    HW198732   7.039   4.394   2.665
32902SOL    HW298733   7.124   4.518   2.603
32903SOL     OW98734   6.047   4.990   3.589
32903SOL    HW198735   5.997   4.991   3.503
32903SOL    HW298736   5.984   4.972   3.665
32904SOL     OW98737   6.697   5.500   2.099
32904SOL    HW198738   6.637   5.438   2.149
32904SOL    HW298739   6.728   5.456   2.014
32905SOL     OW98740   5.788   4.009   3.360
32905SOL    HW198741   5.708   4.069   3.347
32905SOL    HW298742   5.778   3.960   3.446
32906SOL     OW98743   7.218   5.101   1.943
32906SOL    HW198744   7.186   5.195   1.933
32906SOL    HW298745   7.142   5.038   1.931
32907SOL     OW98746   6.050   5.467   2.185
32907SOL    HW198747   6.083   5.506   2.271
32907SOL    HW298748   6.126   5.460   2.120
32908SOL     OW98749   6.986   3.831   2.288
32908SOL    HW198750   6.962   3.794   2.198
32908SOL    HW298751   7.085   3.847   2.292
32909SOL     OW98752   5.835   5.509   3.103
32909SOL    HW198753   5.892   5.444   3.153
32909SOL    HW298754   5.819   5.476   3.010
32910SOL     OW98755   6.526   5.422   2.766
32910SOL    HW198756   6.606   5.365   2.787
32910SOL    HW298757   6.477   5.382   2.689
32911SOL     OW98758   5.968   4.424   2.342
32911SOL    HW198759   6.013   4.334   2.339
32911SOL    HW298760   5.874   4.413   2.375
32912SOL     OW98761   7.133   3.946   3.591
32912SOL    HW198762   7.128   3.983   3.683
32912SOL    HW298763   7.061   3.877   3.579
32913SOL     OW98764   6.200   3.846   1.979
32913SOL    HW198765   6.298   3.824   1.986
32913SOL    HW298766   6.169   3.829   1.886
32914SOL     OW98767   6.367   3.988   3.611
32914SOL    HW198768   6.434   3.927   3.654
32914SOL    HW298769   6.294   4.007   3.676
32915SOL     OW98770   6.474   5.238   3.057
32915SOL    HW198771   6.451   5.213   2.963
32915SOL    HW298772   6.535   5.169   3.096
32916SOL     OW98773   6.937   4.314   3.295
32916SOL    HW198774   6.965   4.271   3.380
32916SOL    HW298775   6.962   4.410   3.296
32917SOL     OW98776   6.389   5.126   2.786
32917SOL    HW198777   6.479   5.140   2.744
32917SOL    HW298778   6.318   5.128   2.715
32918SOL     OW98779   6.508   4.227   2.761
32918SOL    HW198780   6.483   4.218   2.665
32918SOL    HW298781   6.556   4.145   2.792
32919SOL     OW98782   6.125   3.788   2.374
32919SOL    HW198783   6.044   3.789   2.432
32919SOL    HW298784   6.128   3.871   2.319
32920SOL     OW98785   7.020   4.912   1.903
32920SOL    HW198786   7.052   4.836   1.960
32920SOL    HW298787   6.928   4.939   1.933
32921SOL     OW98788   5.883   3.759   2.033
32921SOL    HW198789   5.932   3.843   2.012
32921SOL    HW298790   5.945   3.694   2.078
32922SOL     OW98791   6.521   3.960   2.342
32922SOL    HW198792   6.473   4.001   2.264
32922SOL    HW298793   6.620   3.958   2.323
32923SOL     OW98794   6.662   4.407   3.326
32923SOL    HW198795   6.582   4.346   3.329
32923SOL    HW298796   6.743   4.354   3.302
32924SOL     OW98797   6.813   5.294   2.655
32924SOL    HW198798   6.834   5.368   2.590
32924SOL    HW298799   6.881   5.294   2.728
32925SOL     OW98800   6.045   4.876   2.603
32925SOL    HW198801   5.974   4.849   2.668
32925SOL    HW298802   6.019   4.848   2.510
32926SOL     OW98803   6.857   5.521   2.453
32926SOL    HW198804   6.901   5.585   2.389
32926SOL    HW298805   6.807   5.573   2.523
32927SOL     OW98806   6.618   4.273   1.878
32927SOL    HW198807   6.577   4.355   1.839
32927SOL    HW298808   6.682   4.299   1.951
32928SOL     OW98809   5.664   4.280   3.248
32928SOL    HW198810   5.756   4.279   3.207
32928SOL    HW298811   5.658   4.354   3.315
32929SOL     OW98812   6.147   3.946   3.009
32929SOL    HW198813   6.185   3.862   3.046
32929SOL    HW298814   6.059   3.965   3.053
32930SOL     OW98815   6.452   4.178   2.504
32930SOL    HW198816   6.420   4.250   2.442
32930SOL    HW298817   6.476   4.097   2.451
32931SOL     OW98818   6.603   3.763   2.615
32931SOL    HW198819   6.531   3.768   2.546
32931SOL    HW298820   6.579   3.694   2.684
32932SOL     OW98821   7.015   4.897   2.729
32932SOL    HW198822   6.960   4.813   2.722
32932SOL    HW298823   7.041   4.926   2.637
32933SOL     OW98824   7.052   4.314   2.854
32933SOL    HW198825   7.022   4.219   2.861
32933SOL    HW298826   7.125   4.330   2.920
32934SOL     OW98827   7.443   4.557   2.239
32934SOL    HW198828   7.485   4.493   2.303
32934SOL    HW298829   7.405   4.506   2.161
32935SOL     OW98830   6.074   5.109   2.036
32935SOL    HW198831   5.987   5.094   2.083
32935SOL    HW298832   6.057   5.135   1.941
32936SOL     OW98833   7.250   5.004   2.519
32936SOL    HW198834   7.349   5.012   2.533
32936SOL    HW298835   7.205   5.088   2.550
32937SOL     OW98836   6.976   4.299   1.940
32937SOL    HW198837   6.922   4.278   2.021
32937SOL    HW298838   7.067   4.258   1.949
32938SOL     OW98839   6.113   3.980   2.190
32938SOL    HW198840   6.140   3.921   2.115
32938SOL    HW298841   6.113   4.075   2.159
32939SOL     OW98842   7.340   4.947   3.450
32939SOL    HW198843   7.431   4.908   3.437
32939SOL    HW298844   7.348   5.043   3.474
32940SOL     OW98845   6.650   5.071   3.202
32940SOL    HW198846   6.570   5.048   3.257
32940SOL    HW298847   6.733   5.045   3.251
32941SOL     OW98848   7.178   5.353   3.487
32941SOL    HW198849   7.205   5.387   3.397
32941SOL    HW298850   7.257   5.315   3.533
32942SOL     OW98851   6.697   4.919   2.962
32942SOL    HW198852   6.657   4.963   3.043
32942SOL    HW298853   6.656   4.956   2.879
32943SOL     OW98854   7.224   4.823   2.941
32943SOL    HW198855   7.229   4.904   3.000
32943SOL    HW298856   7.138   4.825   2.890
32944SOL     OW98857   6.501   3.813   3.264
32944SOL    HW198858   6.526   3.793   3.169
32944SOL    HW298859   6.573   3.869   3.306
32945SOL     OW98860   6.566   4.840   3.581
32945SOL    HW198861   6.467   4.846   3.591
32945SOL    HW298862   6.589   4.760   3.525
32946SOL     OW98863   6.291   4.774   2.230
32946SOL    HW198864   6.277   4.781   2.329
32946SOL    HW298865   6.375   4.723   2.212
32947SOL     OW98866   5.996   4.537   3.113
32947SOL    HW198867   6.082   4.549   3.163
32947SOL    HW298868   5.954   4.450   3.140
32948SOL     OW98869   6.860   4.110   3.124
32948SOL    HW198870   6.881   4.184   3.188
32948SOL    HW298871   6.771   4.127   3.081
32949SOL     OW98872   5.650   5.288   3.193
32949SOL    HW198873   5.604   5.370   3.159
32949SOL    HW298874   5.748   5.307   3.202
32950SOL     OW98875   5.953   4.824   2.363
32950SOL    HW198876   5.946   4.907   2.307
32950SOL    HW298877   5.957   4.744   2.303
32951SOL     OW98878   6.152   4.261   2.727
32951SOL    HW198879   6.164   4.327   2.653
32951SOL    HW298880   6.198   4.295   2.810
32952SOL     OW98881   6.838   5.072   2.250
32952SOL    HW198882   6.888   5.149   2.290
32952SOL    HW298883   6.743   5.074   2.282
32953SOL     OW98884   6.858   5.169   3.004
32953SOL    HW198885   6.905   5.182   3.091
32953SOL    HW298886   6.792   5.095   3.013
32954SOL     OW98887   7.168   4.363   2.334
32954SOL    HW198888   7.137   4.424   2.407
32954SOL    HW298889   7.218   4.415   2.265
32955SOL     OW98890   5.940   5.234   3.191
32955SOL    HW198891   5.919   5.190   3.104
32955SOL    HW298892   6.037   5.260   3.194
32956SOL     OW98893   5.988   4.475   3.460
32956SOL    HW198894   6.056   4.530   3.413
32956SOL    HW298895   6.028   4.387   3.487
32957SOL     OW98896   7.173   4.503   3.532
32957SOL    HW198897   7.081   4.541   3.527
32957SOL    HW298898   7.233   4.550   3.467
32958SOL     OW98899   6.599   3.829   3.632
32958SOL    HW198900   6.605   3.914   3.580
32958SOL    HW298901   6.631   3.753   3.575
32959SOL     OW98902   6.090   3.774   3.602
32959SOL    HW198903   6.048   3.717   3.532
32959SOL    HW298904   6.024   3.843   3.634
32960SOL     OW98905   6.159   4.594   2.891
32960SOL    HW198906   6.203   4.683   2.882
32960SOL    HW298907   6.096   4.594   2.968
32961SOL     OW98908   6.946   4.586   2.907
32961SOL    HW198909   6.871   4.586   2.841
32961SOL    HW298910   6.983   4.494   2.916
32962SOL     OW98911   6.795   4.249   2.137
32962SOL    HW198912   6.808   4.165   2.191
32962SOL    HW298913   6.766   4.323   2.197
32963SOL     OW98914   5.893   3.937   3.093
32963SOL    HW198915   5.870   3.974   3.183
32963SOL    HW298916   5.863   3.842   3.087
32964SOL     OW98917   5.623   5.034   3.144
32964SOL    HW198918   5.676   4.985   3.212
32964SOL    HW298919   5.645   5.132   3.149
32965SOL     OW98920   6.318   4.358   2.926
32965SOL    HW198921   6.377   4.332   2.850
32965SOL    HW298922   6.290   4.454   2.915
32966SOL     OW98923   7.314   4.659   3.716
32966SOL    HW198924   7.268   4.652   3.627
32966SOL    HW298925   7.252   4.703   3.782
32967SOL     OW98926   5.893   3.787   2.480
32967SOL    HW198927   5.882   3.881   2.513
32967SOL    HW298928   5.888   3.724   2.557
32968SOL     OW98929   7.208   4.091   2.236
32968SOL    HW198930   7.210   4.015   2.300
32968SOL    HW298931   7.160   4.168   2.276
32969SOL     OW98932   6.609   4.490   2.828
32969SOL    HW198933   6.624   4.511   2.924
32969SOL    HW298934   6.579   4.395   2.819
32970SOL     OW98935   6.566   5.297   3.562
32970SOL    HW198936   6.546   5.341   3.474
32970SOL    HW298937   6.605   5.206   3.546
32971SOL     OW98938   7.445   5.242   3.467
32971SOL    HW198939   7.459   5.269   3.372
32971SOL    HW298940   7.528   5.264   3.520
32972SOL     OW98941   5.936   4.622   3.666
32972SOL    HW198942   6.012   4.666   3.714
32972SOL    HW298943   5.971   4.575   3.584
32973SOL     OW98944   7.126   3.998   1.987
32973SOL    HW198945   7.065   3.923   2.010
32973SOL    HW298946   7.148   4.050   2.070
32974SOL     OW98947   6.889   4.562   1.904
32974SOL    HW198948   6.923   4.469   1.919
32974SOL    HW298949   6.907   4.589   1.809
32975SOL     OW98950   6.654   5.057   2.711
32975SOL    HW198951   6.661   4.973   2.656
32975SOL    HW298952   6.716   5.126   2.675
32976SOL     OW98953   5.905   4.534   2.811
32976SOL    HW198954   5.998   4.570   2.816
32976SOL    HW298955   5.899   4.449   2.863
32977SOL     OW98956   5.925   4.233   2.868
32977SOL    HW198957   5.873   4.150   2.851
32977SOL    HW298958   6.002   4.238   2.804
32978SOL     OW98959   6.724   4.104   3.540
32978SOL    HW198960   6.679   4.167   3.604
32978SOL    HW298961   6.817   4.135   3.523
32979SOL     OW98962   6.746   3.931   3.339
32979SOL    HW198963   6.746   3.995   3.416
32979SOL    HW298964   6.774   3.979   3.256
32980SOL     OW98965   5.594   5.050   2.062
32980SOL    HW198966   5.501   5.071   2.031
32980SOL    HW298967   5.604   4.951   2.075
32981SOL     OW98968   5.674   5.525   2.789
32981SOL    HW198969   5.632   5.439   2.762
32981SOL    HW298970   5.768   5.528   2.755
32982SOL     OW98971   6.090   5.292   2.772
32982SOL    HW198972   6.156   5.366   2.781
32982SOL    HW298973   6.134   5.213   2.730
32983SOL     OW98974   6.588   4.520   3.100
32983SOL    HW198975   6.629   4.488   3.186
32983SOL    HW298976   6.492   4.493   3.097
32984SOL     OW98977   5.626   4.268   2.976
32984SOL    HW198978   5.711   4.235   2.935
32984SOL    HW298979   5.639   4.283   3.074
32985SOL     OW98980   5.775   4.244   3.584
32985SOL    HW198981   5.834   4.204   3.514
32985SOL    HW298982   5.717   4.315   3.543
32986SOL     OW98983   6.955   4.674   3.522
32986SOL    HW198984   6.994   4.763   3.542
32986SOL    HW298985   6.965   4.654   3.425
32987SOL     OW98986   6.401   4.296   2.187
32987SOL    HW198987   6.408   4.207   2.141
32987SOL    HW298988   6.307   4.330   2.179
32988SOL     OW98989   7.243   4.328   3.068
32988SOL    HW198990   7.205   4.259   3.130
32988SOL    HW298991   7.325   4.292   3.024
32989SOL     OW98992   5.838   5.288   3.606
32989SOL    HW198993   5.808   5.345   3.682
32989SOL    HW298994   5.831   5.191   3.632
32990SOL     OW98995   6.257   4.188   3.131
32990SOL    HW198996   6.223   4.099   3.101
32990SOL    HW298997   6.283   4.242   3.051
32991SOL     OW98998   6.516   5.402   3.327
32991SOL    HW198999   6.492   5.384   3.232
32991SOL    HW299000   6.546   5.496   3.337
32992SOL     OW99001   6.059   4.224   2.053
32992SOL    HW199002   6.120   4.304   2.057
32992SOL    HW299003   5.964   4.255   2.060
32993SOL     OW99004   5.745   4.861   3.328
32993SOL    HW199005   5.767   4.800   3.404
32993SOL    HW299006   5.755   4.812   3.242
32994SOL     OW99007   6.933   4.783   3.096
32994SOL    HW199008   6.957   4.720   3.022
32994SOL    HW299009   6.843   4.823   3.078
32995SOL     OW99010   6.888   4.579   2.171
32995SOL    HW199011   6.802   4.548   2.213
32995SOL    HW299012   6.884   4.565   2.072
32996SOL     OW99013   7.345   5.471   3.016
32996SOL    HW199014   7.406   5.501   2.943
32996SOL    HW299015   7.307   5.382   2.994
32997SOL     OW99016   6.838   5.455   2.990
32997SOL    HW199017   6.922   5.460   2.936
32997SOL    HW299018   6.815   5.359   3.008
32998SOL     OW99019   5.669   4.982   2.884
32998SOL    HW199020   5.664   4.981   2.984
32998SOL    HW299021   5.586   4.941   2.846
32999SOL     OW99022   6.274   5.386   3.578
32999SOL    HW199023   6.218   5.467   3.587
32999SOL    HW299024   6.326   5.390   3.492
33000SOL     OW99025   7.312   3.859   2.385
33000SOL    HW199026   7.385   3.842   2.318
33000SOL    HW299027   7.281   3.772   2.423
33001SOL     OW99028   6.974   5.297   2.339
33001SOL    HW199029   7.041   5.309   2.265
33001SOL    HW299030   6.934   5.386   2.362
33002SOL     OW99031   5.716   5.518   3.713
33002SOL    HW199032   5.675   5.444   3.766
33002SOL    HW299033   5.780   5.569   3.771
33003SOL     OW99034   6.866   4.651   2.534
33003SOL    HW199035   6.926   4.570   2.536
33003SOL    HW299036   6.906   4.720   2.474
33004SOL     OW99037   6.416   4.997   3.284
33004SOL    HW199038   6.411   5.030   3.379
33004SOL    HW299039   6.330   5.016   3.238
33005SOL     OW99040   6.258   5.340   2.016
33005SOL    HW199041   6.267   5.350   1.917
33005SOL    HW299042   6.218   5.251   2.037
33006SOL     OW99043   7.236   5.444   3.256
33006SOL    HW199044   7.289   5.454   3.172
33006SOL    HW299045   7.209   5.534   3.290
33007SOL     OW99046   7.427   3.899   2.825
33007SOL    HW199047   7.466   3.814   2.789
33007SOL    HW299048   7.329   3.901   2.806
33008SOL     OW99049   5.849   4.050   2.582
33008SOL    HW199050   5.770   4.101   2.548
33008SOL    HW299051   5.840   4.035   2.680
33009SOL     OW99052   6.780   5.336   1.893
33009SOL    HW199053   6.786   5.243   1.930
33009SOL    HW299054   6.721   5.336   1.813
33010SOL     OW99055   6.408   4.726   3.234
33010SOL    HW199056   6.448   4.725   3.142
33010SOL    HW299057   6.418   4.818   3.274
33011SOL     OW99058   6.502   4.634   2.153
33011SOL    HW199059   6.565   4.672   2.085
33011SOL    HW299060   6.542   4.551   2.192
33012SOL     OW99061   7.090   5.331   1.906
33012SOL    HW199062   6.998   5.368   1.913
33012SOL    HW299063   7.128   5.351   1.816
33013SOL     OW99064   5.958   5.012   3.352
33013SOL    HW199065   5.945   5.105   3.318
33013SOL    HW299066   5.874   4.960   3.339
33014SOL     OW99067   7.200   5.016   3.151
33014SOL    HW199068   7.260   5.019   3.231
33014SOL    HW299069   7.125   5.080   3.164
33015SOL     OW99070   6.625   4.822   2.558
33015SOL    HW199071   6.555   4.775   2.612
33015SOL    HW299072   6.684   4.754   2.515
33016SOL     OW99073   6.600   3.960   2.833
33016SOL    HW199074   6.592   3.924   2.740
33016SOL    HW299075   6.598   3.884   2.898
33017SOL     OW99076   6.176   5.211   2.353
33017SOL    HW199077   6.218   5.153   2.283
33017SOL    HW299078   6.132   5.290   2.309
33018SOL     OW99079   7.295   4.109   3.243
33018SOL    HW199080   7.368   4.178   3.247
33018SOL    HW299081   7.323   4.034   3.184
33019SOL     OW99082   5.841   5.072   2.152
33019SOL    HW199083   5.745   5.073   2.125
33019SOL    HW299084   5.853   5.125   2.236
33020SOL     OW99085   5.691   4.737   3.588
33020SOL    HW199086   5.614   4.704   3.642
33020SOL    HW299087   5.776   4.707   3.630
33021SOL     OW99088   6.258   3.927   3.351
33021SOL    HW199089   6.348   3.911   3.311
33021SOL    HW299090   6.266   3.932   3.450
33022SOL     OW99091   5.661   4.069   1.895
33022SOL    HW199092   5.569   4.041   1.866
33022SOL    HW299093   5.692   4.146   1.839
33023SOL     OW99094   7.026   4.580   3.260
33023SOL    HW199095   6.969   4.632   3.197
33023SOL    HW299096   7.122   4.592   3.236
33024SOL     OW99097   5.658   3.890   2.180
33024SOL    HW199098   5.641   3.973   2.126
33024SOL    HW299099   5.748   3.853   2.158
33025SOL     OW99100   6.769   5.059   1.981
33025SOL    HW199101   6.670   5.048   1.983
33025SOL    HW299102   6.803   5.074   2.074
33026SOL     OW99103   6.199   4.566   3.293
33026SOL    HW199104   6.255   4.647   3.276
33026SOL    HW299105   6.258   4.486   3.296
33027SOL     OW99106   7.079   5.491   2.821
33027SOL    HW199107   7.112   5.555   2.752
33027SOL    HW299108   7.145   5.485   2.896
33028SOL     OW99109   6.302   4.289   3.570
33028SOL    HW199110   6.321   4.354   3.644
33028SOL    HW299111   6.362   4.209   3.579
33029SOL     OW99112   7.036   4.944   3.495
33029SOL    HW199113   7.027   4.934   3.594
33029SOL    HW299114   7.132   4.937   3.469
33030SOL     OW99115   5.976   5.465   3.422
33030SOL    HW199116   5.885   5.506   3.420
33030SOL    HW299117   5.969   5.371   3.454
33031SOL     OW99118   7.260   4.607   3.116
33031SOL    HW199119   7.233   4.518   3.079
33031SOL    HW299120   7.261   4.675   3.043
33032SOL     OW99121   6.811   4.049   2.311
33032SOL    HW199122   6.876   3.975   2.300
33032SOL    HW299123   6.831   4.099   2.395
33033SOL     OW99124   6.180   4.469   2.514
33033SOL    HW199125   6.230   4.554   2.495
33033SOL    HW299126   6.092   4.471   2.466
33034SOL     OW99127   7.363   4.066   3.504
33034SOL    HW199128   7.346   4.097   3.410
33034SOL    HW299129   7.279   4.029   3.542
33035SOL     OW99130   7.316   4.658   3.379
33035SOL    HW199131   7.354   4.749   3.394
33035SOL    HW299132   7.308   4.641   3.280
33036SOL     OW99133   6.445   5.098   1.878
33036SOL    HW199134   6.399   5.113   1.966
33036SOL    HW299135   6.489   5.183   1.848
33037SOL     OW99136   6.247   5.514   2.815
33037SOL    HW199137   6.201   5.602   2.802
33037SOL    HW299138   6.346   5.526   2.808
33038SOL     OW99139   6.445   4.680   2.723
33038SOL    HW199140   6.499   4.611   2.771
33038SOL    HW299141   6.413   4.749   2.789
33039SOL     OW99142   6.669   4.708   1.949
33039SOL    HW199143   6.646   4.761   1.867
33039SOL    HW299144   6.750   4.652   1.930
33040SOL     OW99145   7.447   5.293   2.713
33040SOL    HW199146   7.376   5.281   2.643
33040SOL    HW299147   7.448   5.214   2.773
33041SOL     OW99148   5.807   5.038   3.706
33041SOL    HW199149   5.742   4.965   3.685
33041SOL    HW299150   5.811   5.052   3.804
33042SOL     OW99151   5.665   4.964   2.515
33042SOL    HW199152   5.664   4.917   2.603
33042SOL    HW299153   5.747   4.936   2.464
33043SOL     OW99154   6.258   5.115   3.486
33043SOL    HW199155   6.180   5.065   3.524
33043SOL    HW299156   6.255   5.210   3.517
33044SOL     OW99157   7.410   3.916   3.089
33044SOL    HW199158   7.406   3.826   3.133
33044SOL    HW299159   7.413   3.905   2.990
33045SOL     OW99160   6.014   4.148   2.382
33045SOL    HW199161   6.044   4.076   2.320
33045SOL    HW299162   5.975   4.108   2.465
33046SOL     OW99163   7.291   5.211   2.966
33046SOL    HW199164   7.198   5.186   2.939
33046SOL    HW299165   7.317   5.161   3.048
33047SOL     OW99166   5.903   4.271   3.142
33047SOL    HW199167   5.941   4.212   3.214
33047SOL    HW299168   5.943   4.245   3.054
33048SOL     OW99169   6.398   5.310   2.549
33048SOL    HW199170   6.430   5.320   2.455
33048SOL    HW299171   6.319   5.248   2.551
33049SOL     OW99172   7.010   3.938   2.974
33049SOL    HW199173   7.062   3.873   3.029
33049SOL    HW299174   6.961   4.001   3.035
33050SOL     OW99175   6.587   3.758   3.016
33050SOL    HW199176   6.524   3.686   2.985
33050SOL    HW299177   6.680   3.722   3.016
33051SOL     OW99178   6.356   5.054   2.163
33051SOL    HW199179   6.310   4.967   2.180
33051SOL    HW299180   6.447   5.051   2.204
33052SOL     OW99181   6.204   5.291   3.146
33052SOL    HW199182   6.199   5.373   3.203
33052SOL    HW299183   6.293   5.288   3.101
33053SOL     OW99184   6.938   3.776   2.030
33053SOL    HW199185   6.973   3.735   1.946
33053SOL    HW299186   6.848   3.738   2.050
33054SOL     OW99187   6.886   4.177   2.553
33054SOL    HW199188   6.827   4.257   2.557
33054SOL    HW299189   6.901   4.142   2.646
33055SOL     OW99190   7.179   3.945   2.744
33055SOL    HW199191   7.095   3.944   2.798
33055SOL    HW299192   7.181   4.028   2.688
33056SOL     OW99193   5.625   4.801   2.162
33056SOL    HW199194   5.724   4.790   2.153
33056SOL    HW299195   5.585   4.715   2.194
33057SOL     OW99196   6.461   5.370   2.199
33057SOL    HW199197   6.384   5.335   2.145
33057SOL    HW299198   6.429   5.441   2.261
33058SOL     OW99199   5.816   4.352   3.837
33058SOL    HW199200   5.723   4.350   3.874
33058SOL    HW299201   5.817   4.313   3.745
33059SOL     OW99202   5.811   3.999   4.720
33059SOL    HW199203   5.846   3.982   4.812
33059SOL    HW299204   5.723   3.954   4.708
33060SOL     OW99205   5.605   4.092   4.371
33060SOL    HW199206   5.523   4.135   4.410
33060SOL    HW299207   5.577   4.019   4.308
33061SOL     OW99208   6.155   4.999   4.889
33061SOL    HW199209   6.062   4.992   4.852
33061SOL    HW299210   6.166   5.088   4.933
33062SOL     OW99211   7.141   5.235   4.427
33062SOL    HW199212   7.084   5.219   4.508
33062SOL    HW299213   7.082   5.245   4.347
33063SOL     OW99214   6.721   4.427   4.441
33063SOL    HW199215   6.778   4.505   4.416
33063SOL    HW299216   6.661   4.453   4.517
33064SOL     OW99217   7.341   4.331   3.955
33064SOL    HW199218   7.329   4.318   3.856
33064SOL    HW299219   7.311   4.250   4.004
33065SOL     OW99220   6.354   4.868   4.747
33065SOL    HW199221   6.276   4.885   4.807
33065SOL    HW299222   6.388   4.955   4.711
33066SOL     OW99223   6.436   4.522   5.547
33066SOL    HW199224   6.432   4.598   5.612
33066SOL    HW299225   6.458   4.558   5.456
33067SOL     OW99226   6.271   4.736   4.389
33067SOL    HW199227   6.340   4.720   4.459
33067SOL    HW299228   6.198   4.793   4.427
33068SOL     OW99229   6.272   4.885   5.527
33068SOL    HW199230   6.332   4.964   5.541
33068SOL    HW299231   6.186   4.916   5.486
33069SOL     OW99232   5.921   5.159   4.785
33069SOL    HW199233   5.843   5.128   4.732
33069SOL    HW299234   5.979   5.217   4.728
33070SOL     OW99235   7.046   5.229   5.063
33070SOL    HW199236   7.070   5.323   5.089
33070SOL    HW299237   7.030   5.175   5.145
33071SOL     OW99238   6.024   4.116   5.223
33071SOL    HW199239   6.106   4.060   5.232
33071SOL    HW299240   5.943   4.058   5.227
33072SOL     OW99241   7.189   4.171   4.461
33072SOL    HW199242   7.115   4.217   4.411
33072SOL    HW299243   7.240   4.239   4.514
33073SOL     OW99244   5.817   5.437   4.207
33073SOL    HW199245   5.851   5.514   4.261
33073SOL    HW299246   5.861   5.437   4.117
33074SOL     OW99247   6.713   5.065   5.414
33074SOL    HW199248   6.760   5.065   5.502
33074SOL    HW299249   6.665   4.978   5.403
33075SOL     OW99250   5.816   5.158   4.262
33075SOL    HW199251   5.790   5.254   4.262
33075SOL    HW299252   5.745   5.104   4.307
33076SOL     OW99253   5.826   4.815   4.610
33076SOL    HW199254   5.840   4.731   4.662
33076SOL    HW299255   5.771   4.879   4.665
33077SOL     OW99256   6.206   5.510   5.163
33077SOL    HW199257   6.114   5.493   5.198
33077SOL    HW299258   6.234   5.602   5.189
33078SOL     OW99259   6.192   4.688   3.847
33078SOL    HW199260   6.199   4.772   3.793
33078SOL    HW299261   6.238   4.701   3.935
33079SOL     OW99262   7.180   3.838   5.204
33079SOL    HW199263   7.162   3.905   5.132
33079SOL    HW299264   7.177   3.884   5.293
33080SOL     OW99265   5.708   4.367   4.287
33080SOL    HW199266   5.663   4.279   4.304
33080SOL    HW299267   5.707   4.421   4.371
33081SOL     OW99268   7.428   5.491   4.083
33081SOL    HW199269   7.482   5.462   4.163
33081SOL    HW299270   7.458   5.581   4.054
33082SOL     OW99271   5.613   5.320   3.841
33082SOL    HW199272   5.594   5.224   3.862
33082SOL    HW299273   5.580   5.378   3.916
33083SOL     OW99274   7.275   4.646   4.336
33083SOL    HW199275   7.370   4.617   4.344
33083SOL    HW299276   7.267   4.711   4.261
33084SOL     OW99277   7.227   4.832   4.156
33084SOL    HW199278   7.313   4.834   4.104
33084SOL    HW299279   7.241   4.879   4.244
33085SOL     OW99280   5.699   4.461   5.321
33085SOL    HW199281   5.787   4.448   5.366
33085SOL    HW299282   5.686   4.558   5.299
33086SOL     OW99283   6.199   5.089   4.450
33086SOL    HW199284   6.150   5.002   4.459
33086SOL    HW299285   6.176   5.132   4.363
33087SOL     OW99286   6.879   4.952   5.147
33087SOL    HW199287   6.916   4.879   5.089
33087SOL    HW299288   6.931   4.957   5.232
33088SOL     OW99289   6.395   3.728   4.226
33088SOL    HW199290   6.435   3.819   4.217
33088SOL    HW299291   6.295   3.736   4.232
33089SOL     OW99292   5.783   4.700   4.988
33089SOL    HW199293   5.872   4.655   4.974
33089SOL    HW299294   5.710   4.635   4.969
33090SOL     OW99295   7.111   4.723   3.914
33090SOL    HW199296   7.048   4.647   3.927
33090SOL    HW299297   7.159   4.741   4.000
33091SOL     OW99298   6.773   5.516   5.340
33091SOL    HW199299   6.797   5.576   5.264
33091SOL    HW299300   6.780   5.421   5.310
33092SOL     OW99301   5.903   3.975   5.525
33092SOL    HW199302   5.974   4.046   5.531
33092SOL    HW299303   5.815   4.014   5.553
33093SOL     OW99304   7.052   5.141   4.677
33093SOL    HW199305   6.993   5.147   4.757
33093SOL    HW299306   7.037   5.053   4.631
33094SOL     OW99307   7.253   5.438   4.296
33094SOL    HW199308   7.212   5.415   4.208
33094SOL    HW299309   7.235   5.364   4.361
33095SOL     OW99310   6.184   4.453   3.994
33095SOL    HW199311   6.208   4.522   3.926
33095SOL    HW299312   6.106   4.486   4.048
33096SOL     OW99313   6.867   4.069   4.668
33096SOL    HW199314   6.781   4.019   4.655
33096SOL    HW299315   6.929   4.015   4.724
33097SOL     OW99316   7.162   5.386   4.031
33097SOL    HW199317   7.251   5.432   4.034
33097SOL    HW299318   7.141   5.362   3.936
33098SOL     OW99319   6.393   4.329   5.189
33098SOL    HW199320   6.346   4.326   5.278
33098SOL    HW299321   6.342   4.274   5.123
33099SOL     OW99322   6.980   4.193   5.398
33099SOL    HW199323   6.960   4.236   5.486
33099SOL    HW299324   7.058   4.131   5.407
33100SOL     OW99325   6.559   4.614   5.296
33100SOL    HW199326   6.605   4.530   5.267
33100SOL    HW299327   6.503   4.648   5.221
33101SOL     OW99328   6.577   4.134   4.966
33101SOL    HW199329   6.500   4.168   5.020
33101SOL    HW299330   6.543   4.083   4.887
33102SOL     OW99331   6.627   4.425   4.153
33102SOL    HW199332   6.653   4.421   4.249
33102SOL    HW299333   6.542   4.374   4.139
33103SOL     OW99334   5.662   4.535   4.513
33103SOL    HW199335   5.761   4.523   4.522
33103SOL    HW299336   5.638   4.630   4.534
33104SOL     OW99337   5.716   5.545   5.295
33104SOL    HW199338   5.706   5.530   5.394
33104SOL    HW299339   5.630   5.581   5.259
33105SOL     OW99340   6.451   4.072   3.919
33105SOL    HW199341   6.510   4.135   3.870
33105SOL    HW299342   6.470   3.978   3.890
33106SOL     OW99343   7.305   4.309   5.555
33106SOL    HW199344   7.279   4.398   5.519
33106SOL    HW299345   7.303   4.241   5.482
33107SOL     OW99346   6.948   4.868   4.269
33107SOL    HW199347   7.031   4.839   4.221
33107SOL    HW299348   6.899   4.935   4.213
33108SOL     OW99349   6.136   3.920   4.609
33108SOL    HW199350   6.131   3.915   4.709
33108SOL    HW299351   6.138   4.016   4.580
33109SOL     OW99352   6.594   5.180   4.201
33109SOL    HW199353   6.548   5.252   4.149
33109SOL    HW299354   6.590   5.200   4.299
33110SOL     OW99355   5.937   5.525   4.577
33110SOL    HW199356   5.987   5.439   4.583
33110SOL    HW299357   6.002   5.602   4.574
33111SOL     OW99358   7.381   4.790   4.597
33111SOL    HW199359   7.319   4.775   4.521
33111SOL    HW299360   7.329   4.801   4.682
33112SOL     OW99361   6.813   5.274   5.230
33112SOL    HW199362   6.819   5.197   5.294
33112SOL    HW299363   6.761   5.248   5.150
33113SOL     OW99364   5.907   4.667   3.966
33113SOL    HW199365   5.989   4.706   3.924
33113SOL    HW299366   5.880   4.585   3.917
33114SOL     OW99367   7.044   4.459   4.452
33114SOL    HW199368   7.039   4.394   4.527
33114SOL    HW299369   7.124   4.518   4.465
33115SOL     OW99370   6.047   4.990   5.451
33115SOL    HW199371   5.997   4.991   5.365
33115SOL    HW299372   5.984   4.972   5.527
33116SOL     OW99373   6.697   5.500   3.961
33116SOL    HW199374   6.637   5.438   4.011
33116SOL    HW299375   6.728   5.456   3.876
33117SOL     OW99376   5.788   4.009   5.222
33117SOL    HW199377   5.708   4.069   5.209
33117SOL    HW299378   5.778   3.960   5.308
33118SOL     OW99379   7.218   5.101   3.805
33118SOL    HW199380   7.186   5.195   3.795
33118SOL    HW299381   7.142   5.038   3.793
33119SOL     OW99382   6.050   5.467   4.047
33119SOL    HW199383   6.083   5.506   4.133
33119SOL    HW299384   6.126   5.460   3.982
33120SOL     OW99385   6.986   3.831   4.150
33120SOL    HW199386   6.962   3.794   4.060
33120SOL    HW299387   7.085   3.847   4.154
33121SOL     OW99388   5.835   5.509   4.965
33121SOL    HW199389   5.892   5.444   5.015
33121SOL    HW299390   5.819   5.476   4.872
33122SOL     OW99391   6.526   5.422   4.628
33122SOL    HW199392   6.606   5.365   4.649
33122SOL    HW299393   6.477   5.382   4.551
33123SOL     OW99394   5.968   4.424   4.204
33123SOL    HW199395   6.013   4.334   4.201
33123SOL    HW299396   5.874   4.413   4.237
33124SOL     OW99397   7.133   3.946   5.453
33124SOL    HW199398   7.128   3.983   5.545
33124SOL    HW299399   7.061   3.877   5.441
33125SOL     OW99400   6.200   3.846   3.841
33125SOL    HW199401   6.298   3.824   3.848
33125SOL    HW299402   6.169   3.829   3.748
33126SOL     OW99403   6.367   3.988   5.473
33126SOL    HW199404   6.434   3.927   5.516
33126SOL    HW299405   6.294   4.007   5.538
33127SOL     OW99406   6.474   5.238   4.919
33127SOL    HW199407   6.451   5.213   4.825
33127SOL    HW299408   6.535   5.169   4.958
33128SOL     OW99409   6.937   4.314   5.157
33128SOL    HW199410   6.965   4.271   5.242
33128SOL    HW299411   6.962   4.410   5.158
33129SOL     OW99412   6.389   5.126   4.648
33129SOL    HW199413   6.479   5.140   4.606
33129SOL    HW299414   6.318   5.128   4.577
33130SOL     OW99415   6.508   4.227   4.623
33130SOL    HW199416   6.483   4.218   4.527
33130SOL    HW299417   6.556   4.145   4.654
33131SOL     OW99418   6.125   3.788   4.236
33131SOL    HW199419   6.044   3.789   4.294
33131SOL    HW299420   6.128   3.871   4.181
33132SOL     OW99421   7.020   4.912   3.765
33132SOL    HW199422   7.052   4.836   3.822
33132SOL    HW299423   6.928   4.939   3.795
33133SOL     OW99424   5.883   3.759   3.895
33133SOL    HW199425   5.932   3.843   3.874
33133SOL    HW299426   5.945   3.694   3.940
33134SOL     OW99427   6.521   3.960   4.204
33134SOL    HW199428   6.473   4.001   4.126
33134SOL    HW299429   6.620   3.958   4.185
33135SOL     OW99430   6.662   4.407   5.188
33135SOL    HW199431   6.582   4.346   5.191
33135SOL    HW299432   6.743   4.354   5.164
33136SOL     OW99433   6.813   5.294   4.517
33136SOL    HW199434   6.834   5.368   4.452
33136SOL    HW299435   6.881   5.294   4.590
33137SOL     OW99436   6.045   4.876   4.465
33137SOL    HW199437   5.974   4.849   4.530
33137SOL    HW299438   6.019   4.848   4.372
33138SOL     OW99439   6.857   5.521   4.315
33138SOL    HW199440   6.901   5.585   4.251
33138SOL    HW299441   6.807   5.573   4.385
33139SOL     OW99442   6.618   4.273   3.740
33139SOL    HW199443   6.577   4.355   3.701
33139SOL    HW299444   6.682   4.299   3.813
33140SOL     OW99445   5.664   4.280   5.110
33140SOL    HW199446   5.756   4.279   5.069
33140SOL    HW299447   5.658   4.354   5.177
33141SOL     OW99448   6.147   3.946   4.871
33141SOL    HW199449   6.185   3.862   4.908
33141SOL    HW299450   6.059   3.965   4.915
33142SOL     OW99451   6.452   4.178   4.366
33142SOL    HW199452   6.420   4.250   4.304
33142SOL    HW299453   6.476   4.097   4.313
33143SOL     OW99454   6.603   3.763   4.477
33143SOL    HW199455   6.531   3.768   4.408
33143SOL    HW299456   6.579   3.694   4.546
33144SOL     OW99457   7.015   4.897   4.591
33144SOL    HW199458   6.960   4.813   4.584
33144SOL    HW299459   7.041   4.926   4.499
33145SOL     OW99460   7.052   4.314   4.716
33145SOL    HW199461   7.022   4.219   4.723
33145SOL    HW299462   7.125   4.330   4.782
33146SOL     OW99463   7.443   4.557   4.101
33146SOL    HW199464   7.485   4.493   4.165
33146SOL    HW299465   7.405   4.506   4.023
33147SOL     OW99466   6.074   5.109   3.898
33147SOL    HW199467   5.987   5.094   3.945
33147SOL    HW299468   6.057   5.135   3.803
33148SOL     OW99469   7.250   5.004   4.381
33148SOL    HW199470   7.349   5.012   4.395
33148SOL    HW299471   7.205   5.088   4.412
33149SOL     OW99472   6.976   4.299   3.802
33149SOL    HW199473   6.922   4.278   3.883
33149SOL    HW299474   7.067   4.258   3.811
33150SOL     OW99475   6.113   3.980   4.052
33150SOL    HW199476   6.140   3.921   3.977
33150SOL    HW299477   6.113   4.075   4.021
33151SOL     OW99478   7.340   4.947   5.312
33151SOL    HW199479   7.431   4.908   5.299
33151SOL    HW299480   7.348   5.043   5.336
33152SOL     OW99481   6.650   5.071   5.064
33152SOL    HW199482   6.570   5.048   5.119
33152SOL    HW299483   6.733   5.045   5.113
33153SOL     OW99484   7.178   5.353   5.349
33153SOL    HW199485   7.205   5.387   5.259
33153SOL    HW299486   7.257   5.315   5.395
33154SOL     OW99487   6.697   4.919   4.824
33154SOL    HW199488   6.657   4.963   4.905
33154SOL    HW299489   6.656   4.956   4.741
33155SOL     OW99490   7.224   4.823   4.803
33155SOL    HW199491   7.229   4.904   4.862
33155SOL    HW299492   7.138   4.825   4.752
33156SOL     OW99493   6.501   3.813   5.126
33156SOL    HW199494   6.526   3.793   5.031
33156SOL    HW299495   6.573   3.869   5.168
33157SOL     OW99496   6.566   4.840   5.443
33157SOL    HW199497   6.467   4.846   5.453
33157SOL    HW299498   6.589   4.760   5.387
33158SOL     OW99499   6.291   4.774   4.092
33158SOL    HW199500   6.277   4.781   4.191
33158SOL    HW299501   6.375   4.723   4.074
33159SOL     OW99502   5.996   4.537   4.975
33159SOL    HW199503   6.082   4.549   5.025
33159SOL    HW299504   5.954   4.450   5.002
33160SOL     OW99505   6.860   4.110   4.986
33160SOL    HW199506   6.881   4.184   5.050
33160SOL    HW299507   6.771   4.127   4.943
33161SOL     OW99508   5.650   5.288   5.055
33161SOL    HW199509   5.604   5.370   5.021
33161SOL    HW299510   5.748   5.307   5.064
33162SOL     OW99511   5.953   4.824   4.225
33162SOL    HW199512   5.946   4.907   4.169
33162SOL    HW299513   5.957   4.744   4.165
33163SOL     OW99514   6.152   4.261   4.589
33163SOL    HW199515   6.164   4.327   4.515
33163SOL    HW299516   6.198   4.295   4.672
33164SOL     OW99517   6.838   5.072   4.112
33164SOL    HW199518   6.888   5.149   4.152
33164SOL    HW299519   6.743   5.074   4.144
33165SOL     OW99520   6.858   5.169   4.866
33165SOL    HW199521   6.905   5.182   4.953
33165SOL    HW299522   6.792   5.095   4.875
33166SOL     OW99523   7.168   4.363   4.196
33166SOL    HW199524   7.137   4.424   4.269
33166SOL    HW299525   7.218   4.415   4.127
33167SOL     OW99526   5.940   5.234   5.053
33167SOL    HW199527   5.919   5.190   4.966
33167SOL    HW299528   6.037   5.260   5.056
33168SOL     OW99529   5.988   4.475   5.322
33168SOL    HW199530   6.056   4.530   5.275
33168SOL    HW299531   6.028   4.387   5.349
33169SOL     OW99532   7.173   4.503   5.394
33169SOL    HW199533   7.081   4.541   5.389
33169SOL    HW299534   7.233   4.550   5.329
33170SOL     OW99535   6.599   3.829   5.494
33170SOL    HW199536   6.605   3.914   5.442
33170SOL    HW299537   6.631   3.753   5.437
33171SOL     OW99538   6.090   3.774   5.464
33171SOL    HW199539   6.048   3.717   5.394
33171SOL    HW299540   6.024   3.843   5.496
33172SOL     OW99541   6.159   4.594   4.753
33172SOL    HW199542   6.203   4.683   4.744
33172SOL    HW299543   6.096   4.594   4.830
33173SOL     OW99544   6.946   4.586   4.769
33173SOL    HW199545   6.871   4.586   4.703
33173SOL    HW299546   6.983   4.494   4.778
33174SOL     OW99547   6.795   4.249   3.999
33174SOL    HW199548   6.808   4.165   4.053
33174SOL    HW299549   6.766   4.323   4.059
33175SOL     OW99550   5.893   3.937   4.955
33175SOL    HW199551   5.870   3.974   5.045
33175SOL    HW299552   5.863   3.842   4.949
33176SOL     OW99553   5.623   5.034   5.006
33176SOL    HW199554   5.676   4.985   5.074
33176SOL    HW299555   5.645   5.132   5.011
33177SOL     OW99556   6.318   4.358   4.788
33177SOL    HW199557   6.377   4.332   4.712
33177SOL    HW299558   6.290   4.454   4.777
33178SOL     OW99559   7.314   4.659   5.578
33178SOL    HW199560   7.268   4.652   5.489
33178SOL    HW299561   7.252   4.703   5.644
33179SOL     OW99562   5.893   3.787   4.342
33179SOL    HW199563   5.882   3.881   4.375
33179SOL    HW299564   5.888   3.724   4.419
33180SOL     OW99565   7.208   4.091   4.098
33180SOL    HW199566   7.210   4.015   4.162
33180SOL    HW299567   7.160   4.168   4.138
33181SOL     OW99568   6.609   4.490   4.690
33181SOL    HW199569   6.624   4.511   4.786
33181SOL    HW299570   6.579   4.395   4.681
33182SOL     OW99571   6.566   5.297   5.424
33182SOL    HW199572   6.546   5.341   5.336
33182SOL    HW299573   6.605   5.206   5.408
33183SOL     OW99574   7.445   5.242   5.329
33183SOL    HW199575   7.459   5.269   5.234
33183SOL    HW299576   7.528   5.264   5.382
33184SOL     OW99577   5.936   4.622   5.528
33184SOL    HW199578   6.012   4.666   5.576
33184SOL    HW299579   5.971   4.575   5.446
33185SOL     OW99580   7.126   3.998   3.849
33185SOL    HW199581   7.065   3.923   3.872
33185SOL    HW299582   7.148   4.050   3.932
33186SOL     OW99583   6.889   4.562   3.766
33186SOL    HW199584   6.923   4.469   3.781
33186SOL    HW299585   6.907   4.589   3.671
33187SOL     OW99586   6.654   5.057   4.573
33187SOL    HW199587   6.661   4.973   4.518
33187SOL    HW299588   6.716   5.126   4.537
33188SOL     OW99589   5.905   4.534   4.673
33188SOL    HW199590   5.998   4.570   4.678
33188SOL    HW299591   5.899   4.449   4.725
33189SOL     OW99592   5.925   4.233   4.730
33189SOL    HW199593   5.873   4.150   4.713
33189SOL    HW299594   6.002   4.238   4.666
33190SOL     OW99595   6.724   4.104   5.402
33190SOL    HW199596   6.679   4.167   5.466
33190SOL    HW299597   6.817   4.135   5.385
33191SOL     OW99598   6.746   3.931   5.201
33191SOL    HW199599   6.746   3.995   5.278
33191SOL    HW299600   6.774   3.979   5.118
33192SOL     OW99601   5.594   5.050   3.924
33192SOL    HW199602   5.501   5.071   3.893
33192SOL    HW299603   5.604   4.951   3.937
33193SOL     OW99604   5.674   5.525   4.651
33193SOL    HW199605   5.632   5.439   4.624
33193SOL    HW299606   5.768   5.528   4.617
33194SOL     OW99607   6.090   5.292   4.634
33194SOL    HW199608   6.156   5.366   4.643
33194SOL    HW299609   6.134   5.213   4.592
33195SOL     OW99610   6.588   4.520   4.962
33195SOL    HW199611   6.629   4.488   5.048
33195SOL    HW299612   6.492   4.493   4.959
33196SOL     OW99613   5.626   4.268   4.838
33196SOL    HW199614   5.711   4.235   4.797
33196SOL    HW299615   5.639   4.283   4.936
33197SOL     OW99616   5.775   4.244   5.446
33197SOL    HW199617   5.834   4.204   5.376
33197SOL    HW299618   5.717   4.315   5.405
33198SOL     OW99619   6.955   4.674   5.384
33198SOL    HW199620   6.994   4.763   5.404
33198SOL    HW299621   6.965   4.654   5.287
33199SOL     OW99622   6.401   4.296   4.049
33199SOL    HW199623   6.408   4.207   4.003
33199SOL    HW299624   6.307   4.330   4.041
33200SOL     OW99625   7.243   4.328   4.930
33200SOL    HW199626   7.205   4.259   4.992
33200SOL    HW299627   7.325   4.292   4.886
33201SOL     OW99628   5.838   5.288   5.468
33201SOL    HW199629   5.808   5.345   5.544
33201SOL    HW299630   5.831   5.191   5.494
33202SOL     OW99631   6.257   4.188   4.993
33202SOL    HW199632   6.223   4.099   4.963
33202SOL    HW299633   6.283   4.242   4.913
33203SOL     OW99634   6.516   5.402   5.189
33203SOL    HW199635   6.492   5.384   5.094
33203SOL    HW299636   6.546   5.496   5.199
33204SOL     OW99637   6.059   4.224   3.915
33204SOL    HW199638   6.120   4.304   3.919
33204SOL    HW299639   5.964   4.255   3.922
33205SOL     OW99640   5.745   4.861   5.190
33205SOL    HW199641   5.767   4.800   5.266
33205SOL    HW299642   5.755   4.812   5.104
33206SOL     OW99643   6.933   4.783   4.958
33206SOL    HW199644   6.957   4.720   4.884
33206SOL    HW299645   6.843   4.823   4.940
33207SOL     OW99646   6.888   4.579   4.033
33207SOL    HW199647   6.802   4.548   4.075
33207SOL    HW299648   6.884   4.565   3.934
33208SOL     OW99649   7.345   5.471   4.878
33208SOL    HW199650   7.406   5.501   4.805
33208SOL    HW299651   7.307   5.382   4.856
33209SOL     OW99652   6.838   5.455   4.852
33209SOL    HW199653   6.922   5.460   4.798
33209SOL    HW299654   6.815   5.359   4.870
33210SOL     OW99655   5.669   4.982   4.746
33210SOL    HW199656   5.664   4.981   4.846
33210SOL    HW299657   5.586   4.941   4.708
33211SOL     OW99658   6.274   5.386   5.440
33211SOL    HW199659   6.218   5.467   5.449
33211SOL    HW299660   6.326   5.390   5.354
33212SOL     OW99661   7.312   3.859   4.247
33212SOL    HW199662   7.385   3.842   4.180
33212SOL    HW299663   7.281   3.772   4.285
33213SOL     OW99664   6.974   5.297   4.201
33213SOL    HW199665   7.041   5.309   4.127
33213SOL    HW299666   6.934   5.386   4.224
33214SOL     OW99667   5.716   5.518   5.575
33214SOL    HW199668   5.675   5.444   5.628
33214SOL    HW299669   5.780   5.569   5.633
33215SOL     OW99670   6.866   4.651   4.396
33215SOL    HW199671   6.926   4.570   4.398
33215SOL    HW299672   6.906   4.720   4.336
33216SOL     OW99673   6.416   4.997   5.146
33216SOL    HW199674   6.411   5.030   5.241
33216SOL    HW299675   6.330   5.016   5.100
33217SOL     OW99676   6.258   5.340   3.878
33217SOL    HW199677   6.267   5.350   3.779
33217SOL    HW299678   6.218   5.251   3.899
33218SOL     OW99679   7.236   5.444   5.118
33218SOL    HW199680   7.289   5.454   5.034
33218SOL    HW299681   7.209   5.534   5.152
33219SOL     OW99682   7.427   3.899   4.687
33219SOL    HW199683   7.466   3.814   4.651
33219SOL    HW299684   7.329   3.901   4.668
33220SOL     OW99685   5.849   4.050   4.444
33220SOL    HW199686   5.770   4.101   4.410
33220SOL    HW299687   5.840   4.035   4.542
33221SOL     OW99688   6.780   5.336   3.755
33221SOL    HW199689   6.786   5.243   3.792
33221SOL    HW299690   6.721   5.336   3.675
33222SOL     OW99691   6.408   4.726   5.096
33222SOL    HW199692   6.448   4.725   5.004
33222SOL    HW299693   6.418   4.818   5.136
33223SOL     OW99694   6.502   4.634   4.015
33223SOL    HW199695   6.565   4.672   3.947
33223SOL    HW299696   6.542   4.551   4.054
33224SOL     OW99697   7.090   5.331   3.768
33224SOL    HW199698   6.998   5.368   3.775
33224SOL    HW299699   7.128   5.351   3.678
33225SOL     OW99700   5.958   5.012   5.214
33225SOL    HW199701   5.945   5.105   5.180
33225SOL    HW299702   5.874   4.960   5.201
33226SOL     OW99703   7.200   5.016   5.013
33226SOL    HW199704   7.260   5.019   5.093
33226SOL    HW299705   7.125   5.080   5.026
33227SOL     OW99706   6.625   4.822   4.420
33227SOL    HW199707   6.555   4.775   4.474
33227SOL    HW299708   6.684   4.754   4.377
33228SOL     OW99709   6.600   3.960   4.695
33228SOL    HW199710   6.592   3.924   4.602
33228SOL    HW299711   6.598   3.884   4.760
33229SOL     OW99712   6.176   5.211   4.215
33229SOL    HW199713   6.218   5.153   4.145
33229SOL    HW299714   6.132   5.290   4.171
33230SOL     OW99715   7.295   4.109   5.105
33230SOL    HW199716   7.368   4.178   5.109
33230SOL    HW299717   7.323   4.034   5.046
33231SOL     OW99718   5.841   5.072   4.014
33231SOL    HW199719   5.745   5.073   3.987
33231SOL    HW299720   5.853   5.125   4.098
33232SOL     OW99721   5.691   4.737   5.450
33232SOL    HW199722   5.614   4.704   5.504
33232SOL    HW299723   5.776   4.707   5.492
33233SOL     OW99724   6.258   3.927   5.213
33233SOL    HW199725   6.348   3.911   5.173
33233SOL    HW299726   6.266   3.932   5.312
33234SOL     OW99727   5.661   4.069   3.757
33234SOL    HW199728   5.569   4.041   3.728
33234SOL    HW299729   5.692   4.146   3.701
33235SOL     OW99730   7.026   4.580   5.122
33235SOL    HW199731   6.969   4.632   5.059
33235SOL    HW299732   7.122   4.592   5.098
33236SOL     OW99733   5.658   3.890   4.042
33236SOL    HW199734   5.641   3.973   3.988
33236SOL    HW299735   5.748   3.853   4.020
33237SOL     OW99736   6.769   5.059   3.843
33237SOL    HW199737   6.670   5.048   3.845
33237SOL    HW299738   6.803   5.074   3.936
33238SOL     OW99739   6.199   4.566   5.155
33238SOL    HW199740   6.255   4.647   5.138
33238SOL    HW299741   6.258   4.486   5.158
33239SOL     OW99742   7.079   5.491   4.683
33239SOL    HW199743   7.112   5.555   4.614
33239SOL    HW299744   7.145   5.485   4.758
33240SOL     OW99745   6.302   4.289   5.432
33240SOL    HW199746   6.321   4.354   5.506
33240SOL    HW299747   6.362   4.209   5.441
33241SOL     OW99748   7.036   4.944   5.357
33241SOL    HW199749   7.027   4.934   5.456
33241SOL    HW299750   7.132   4.937   5.331
33242SOL     OW99751   5.976   5.465   5.284
33242SOL    HW199752   5.885   5.506   5.282
33242SOL    HW299753   5.969   5.371   5.316
33243SOL     OW99754   7.260   4.607   4.978
33243SOL    HW199755   7.233   4.518   4.941
33243SOL    HW299756   7.261   4.675   4.905
33244SOL     OW99757   6.811   4.049   4.173
33244SOL    HW199758   6.876   3.975   4.162
33244SOL    HW299759   6.831   4.099   4.257
33245SOL     OW99760   6.180   4.469   4.376
33245SOL    HW199761   6.230   4.554   4.357
33245SOL    HW299762   6.092   4.471   4.328
33246SOL     OW99763   7.363   4.066   5.366
33246SOL    HW199764   7.346   4.097   5.272
33246SOL    HW299765   7.279   4.029   5.404
33247SOL     OW99766   7.316   4.658   5.241
33247SOL    HW199767   7.354   4.749   5.256
33247SOL    HW299768   7.308   4.641   5.142
33248SOL     OW99769   6.445   5.098   3.740
33248SOL    HW199770   6.399   5.113   3.828
33248SOL    HW299771   6.489   5.183   3.710
33249SOL     OW99772   6.247   5.514   4.677
33249SOL    HW199773   6.201   5.602   4.664
33249SOL    HW299774   6.346   5.526   4.670
33250SOL     OW99775   6.445   4.680   4.585
33250SOL    HW199776   6.499   4.611   4.633
33250SOL    HW299777   6.413   4.749   4.651
33251SOL     OW99778   6.669   4.708   3.811
33251SOL    HW199779   6.646   4.761   3.729
33251SOL    HW299780   6.750   4.652   3.792
33252SOL     OW99781   7.447   5.293   4.575
33252SOL    HW199782   7.376   5.281   4.505
33252SOL    HW299783   7.448   5.214   4.635
33253SOL     OW99784   5.807   5.038   5.568
33253SOL    HW199785   5.742   4.965   5.547
33253SOL    HW299786   5.811   5.052   5.666
33254SOL     OW99787   5.665   4.964   4.377
33254SOL    HW199788   5.664   4.917   4.465
33254SOL    HW299789   5.747   4.936   4.326
33255SOL     OW99790   6.258   5.115   5.348
33255SOL    HW199791   6.180   5.065   5.386
33255SOL    HW299792   6.255   5.210   5.379
33256SOL     OW99793   7.410   3.916   4.951
33256SOL    HW199794   7.406   3.826   4.995
33256SOL    HW299795   7.413   3.905   4.852
33257SOL     OW99796   6.014   4.148   4.244
33257SOL    HW199797   6.044   4.076   4.182
33257SOL    HW299798   5.975   4.108   4.327
33258SOL     OW99799   7.291   5.211   4.828
33258SOL    HW199800   7.198   5.186   4.801
33258SOL    HW299801   7.317   5.161   4.910
33259SOL     OW99802   5.903   4.271   5.004
33259SOL    HW199803   5.941   4.212   5.076
33259SOL    HW299804   5.943   4.245   4.916
33260SOL     OW99805   6.398   5.310   4.411
33260SOL    HW199806   6.430   5.320   4.317
33260SOL    HW299807   6.319   5.248   4.413
33261SOL     OW99808   7.010   3.938   4.836
33261SOL    HW199809   7.062   3.873   4.891
33261SOL    HW299810   6.961   4.001   4.897
33262SOL     OW99811   6.587   3.758   4.878
33262SOL    HW199812   6.524   3.686   4.847
33262SOL    HW299813   6.680   3.722   4.878
33263SOL     OW99814   6.356   5.054   4.025
33263SOL    HW199815   6.310   4.967   4.042
33263SOL    HW299816   6.447   5.051   4.066
33264SOL     OW99817   6.204   5.291   5.008
33264SOL    HW199818   6.199   5.373   5.065
33264SOL    HW299819   6.293   5.288   4.963
33265SOL     OW99820   6.938   3.776   3.892
33265SOL    HW199821   6.973   3.735   3.808
33265SOL    HW299822   6.848   3.738   3.912
33266SOL     OW99823   6.886   4.177   4.415
33266SOL    HW199824   6.827   4.257   4.419
33266SOL    HW299825   6.901   4.142   4.508
33267SOL     OW99826   7.179   3.945   4.606
33267SOL    HW199827   7.095   3.944   4.660
33267SOL    HW299828   7.181   4.028   4.550
33268SOL     OW99829   5.625   4.801   4.024
33268SOL    HW199830   5.724   4.790   4.015
33268SOL    HW299831   5.585   4.715   4.056
33269SOL     OW99832   6.461   5.370   4.061
33269SOL    HW199833   6.384   5.335   4.007
33269SOL    HW299834   6.429   5.441   4.123
33270SOL     OW99835   5.816   4.352   5.699
33270SOL    HW199836   5.723   4.350   5.736
33270SOL    HW299837   5.817   4.313   5.607
33271SOL     OW99838   5.811   3.999   6.582
33271SOL    HW199839   5.846   3.982   6.674
33271SOL    HW299840   5.723   3.954   6.570
33272SOL     OW99841   5.605   4.092   6.233
33272SOL    HW199842   5.523   4.135   6.272
33272SOL    HW299843   5.577   4.019   6.170
33273SOL     OW99844   6.155   4.999   6.751
33273SOL    HW199845   6.062   4.992   6.714
33273SOL    HW299846   6.166   5.088   6.795
33274SOL     OW99847   7.141   5.235   6.289
33274SOL    HW199848   7.084   5.219   6.370
33274SOL    HW299849   7.082   5.245   6.209
33275SOL     OW99850   6.721   4.427   6.303
33275SOL    HW199851   6.778   4.505   6.278
33275SOL    HW299852   6.661   4.453   6.379
33276SOL     OW99853   7.341   4.331   5.817
33276SOL    HW199854   7.329   4.318   5.718
33276SOL    HW299855   7.311   4.250   5.866
33277SOL     OW99856   6.354   4.868   6.609
33277SOL    HW199857   6.276   4.885   6.669
33277SOL    HW299858   6.388   4.955   6.573
33278SOL     OW99859   6.436   4.522   7.409
33278SOL    HW199860   6.432   4.598   7.474
33278SOL    HW299861   6.458   4.558   7.318
33279SOL     OW99862   6.271   4.736   6.251
33279SOL    HW199863   6.340   4.720   6.321
33279SOL    HW299864   6.198   4.793   6.289
33280SOL     OW99865   6.272   4.885   7.389
33280SOL    HW199866   6.332   4.964   7.403
33280SOL    HW299867   6.186   4.916   7.348
33281SOL     OW99868   5.921   5.159   6.647
33281SOL    HW199869   5.843   5.128   6.594
33281SOL    HW299870   5.979   5.217   6.590
33282SOL     OW99871   7.046   5.229   6.925
33282SOL    HW199872   7.070   5.323   6.951
33282SOL    HW299873   7.030   5.175   7.007
33283SOL     OW99874   6.024   4.116   7.085
33283SOL    HW199875   6.106   4.060   7.094
33283SOL    HW299876   5.943   4.058   7.089
33284SOL     OW99877   7.189   4.171   6.323
33284SOL    HW199878   7.115   4.217   6.273
33284SOL    HW299879   7.240   4.239   6.376
33285SOL     OW99880   5.817   5.437   6.069
33285SOL    HW199881   5.851   5.514   6.123
33285SOL    HW299882   5.861   5.437   5.979
33286SOL     OW99883   6.713   5.065   7.276
33286SOL    HW199884   6.760   5.065   7.364
33286SOL    HW299885   6.665   4.978   7.265
33287SOL     OW99886   5.816   5.158   6.124
33287SOL    HW199887   5.790   5.254   6.124
33287SOL    HW299888   5.745   5.104   6.169
33288SOL     OW99889   5.826   4.815   6.472
33288SOL    HW199890   5.840   4.731   6.524
33288SOL    HW299891   5.771   4.879   6.527
33289SOL     OW99892   6.206   5.510   7.025
33289SOL    HW199893   6.114   5.493   7.060
33289SOL    HW299894   6.234   5.602   7.051
33290SOL     OW99895   6.192   4.688   5.709
33290SOL    HW199896   6.199   4.772   5.655
33290SOL    HW299897   6.238   4.701   5.797
33291SOL     OW99898   7.180   3.838   7.066
33291SOL    HW199899   7.162   3.905   6.994
33291SOL    HW299900   7.177   3.884   7.155
33292SOL     OW99901   5.708   4.367   6.149
33292SOL    HW199902   5.663   4.279   6.166
33292SOL    HW299903   5.707   4.421   6.233
33293SOL     OW99904   7.428   5.491   5.945
33293SOL    HW199905   7.482   5.462   6.025
33293SOL    HW299906   7.458   5.581   5.916
33294SOL     OW99907   5.613   5.320   5.703
33294SOL    HW199908   5.594   5.224   5.724
33294SOL    HW299909   5.580   5.378   5.778
33295SOL     OW99910   7.275   4.646   6.198
33295SOL    HW199911   7.370   4.617   6.206
33295SOL    HW299912   7.267   4.711   6.123
33296SOL     OW99913   7.227   4.832   6.018
33296SOL    HW199914   7.313   4.834   5.966
33296SOL    HW299915   7.241   4.879   6.106
33297SOL     OW99916   5.699   4.461   7.183
33297SOL    HW199917   5.787   4.448   7.228
33297SOL    HW299918   5.686   4.558   7.161
33298SOL     OW99919   6.199   5.089   6.312
33298SOL    HW199920   6.150   5.002   6.321
33298SOL    HW299921   6.176   5.132   6.225
33299SOL     OW99922   6.879   4.952   7.009
33299SOL    HW199923   6.916   4.879   6.951
33299SOL    HW299924   6.931   4.957   7.094
33300SOL     OW99925   6.395   3.728   6.088
33300SOL    HW199926   6.435   3.819   6.079
33300SOL    HW299927   6.295   3.736   6.094
33301SOL     OW99928   5.783   4.700   6.850
33301SOL    HW199929   5.872   4.655   6.836
33301SOL    HW299930   5.710   4.635   6.831
33302SOL     OW99931   7.111   4.723   5.776
33302SOL    HW199932   7.048   4.647   5.789
33302SOL    HW299933   7.159   4.741   5.862
33303SOL     OW99934   6.773   5.516   7.202
33303SOL    HW199935   6.797   5.576   7.126
33303SOL    HW299936   6.780   5.421   7.172
33304SOL     OW99937   5.903   3.975   7.387
33304SOL    HW199938   5.974   4.046   7.393
33304SOL    HW299939   5.815   4.014   7.415
33305SOL     OW99940   7.052   5.141   6.539
33305SOL    HW199941   6.993   5.147   6.619
33305SOL    HW299942   7.037   5.053   6.493
33306SOL     OW99943   7.253   5.438   6.158
33306SOL    HW199944   7.212   5.415   6.070
33306SOL    HW299945   7.235   5.364   6.223
33307SOL     OW99946   6.184   4.453   5.856
33307SOL    HW199947   6.208   4.522   5.788
33307SOL    HW299948   6.106   4.486   5.910
33308SOL     OW99949   6.867   4.069   6.530
33308SOL    HW199950   6.781   4.019   6.517
33308SOL    HW299951   6.929   4.015   6.586
33309SOL     OW99952   7.162   5.386   5.893
33309SOL    HW199953   7.251   5.432   5.896
33309SOL    HW299954   7.141   5.362   5.798
33310SOL     OW99955   6.393   4.329   7.051
33310SOL    HW199956   6.346   4.326   7.140
33310SOL    HW299957   6.342   4.274   6.985
33311SOL     OW99958   6.980   4.193   7.260
33311SOL    HW199959   6.960   4.236   7.348
33311SOL    HW299960   7.058   4.131   7.269
33312SOL     OW99961   6.559   4.614   7.158
33312SOL    HW199962   6.605   4.530   7.129
33312SOL    HW299963   6.503   4.648   7.083
33313SOL     OW99964   6.577   4.134   6.828
33313SOL    HW199965   6.500   4.168   6.882
33313SOL    HW299966   6.543   4.083   6.749
33314SOL     OW99967   6.627   4.425   6.015
33314SOL    HW199968   6.653   4.421   6.111
33314SOL    HW299969   6.542   4.374   6.001
33315SOL     OW99970   5.662   4.535   6.375
33315SOL    HW199971   5.761   4.523   6.384
33315SOL    HW299972   5.638   4.630   6.396
33316SOL     OW99973   5.716   5.545   7.157
33316SOL    HW199974   5.706   5.530   7.256
33316SOL    HW299975   5.630   5.581   7.121
33317SOL     OW99976   6.451   4.072   5.781
33317SOL    HW199977   6.510   4.135   5.732
33317SOL    HW299978   6.470   3.978   5.752
33318SOL     OW99979   7.305   4.309   7.417
33318SOL    HW199980   7.279   4.398   7.381
33318SOL    HW299981   7.303   4.241   7.344
33319SOL     OW99982   6.948   4.868   6.131
33319SOL    HW199983   7.031   4.839   6.083
33319SOL    HW299984   6.899   4.935   6.075
33320SOL     OW99985   6.136   3.920   6.471
33320SOL    HW199986   6.131   3.915   6.571
33320SOL    HW299987   6.138   4.016   6.442
33321SOL     OW99988   6.594   5.180   6.063
33321SOL    HW199989   6.548   5.252   6.011
33321SOL    HW299990   6.590   5.200   6.161
33322SOL     OW99991   5.937   5.525   6.439
33322SOL    HW199992   5.987   5.439   6.445
33322SOL    HW299993   6.002   5.602   6.436
33323SOL     OW99994   7.381   4.790   6.459
33323SOL    HW199995   7.319   4.775   6.383
33323SOL    HW299996   7.329   4.801   6.544
33324SOL     OW99997   6.813   5.274   7.092
33324SOL    HW199998   6.819   5.197   7.156
33324SOL    HW299999   6.761   5.248   7.012
33325SOL     OW    0   5.907   4.667   5.828
33325SOL    HW1    1   5.989   4.706   5.786
33325SOL    HW2    2   5.880   4.585   5.779
33326SOL     OW    3   7.044   4.459   6.314
33326SOL    HW1    4   7.039   4.394   6.389
33326SOL    HW2    5   7.124   4.518   6.327
33327SOL     OW    6   6.047   4.990   7.313
33327SOL    HW1    7   5.997   4.991   7.227
33327SOL    HW2    8   5.984   4.972   7.389
33328SOL     OW    9   6.697   5.500   5.823
33328SOL    HW1   10   6.637   5.438   5.873
33328SOL    HW2   11   6.728   5.456   5.738
33329SOL     OW   12   5.788   4.009   7.084
33329SOL    HW1   13   5.708   4.069   7.071
33329SOL    HW2   14   5.778   3.960   7.170
33330SOL     OW   15   7.218   5.101   5.667
33330SOL    HW1   16   7.186   5.195   5.657
33330SOL    HW2   17   7.142   5.038   5.655
33331SOL     OW   18   6.050   5.467   5.909
33331SOL    HW1   19   6.083   5.506   5.995
33331SOL    HW2   20   6.126   5.460   5.844
33332SOL     OW   21   6.986   3.831   6.012
33332SOL    HW1   22   6.962   3.794   5.922
33332SOL    HW2   23   7.085   3.847   6.016
33333SOL     OW   24   5.835   5.509   6.827
33333SOL    HW1   25   5.892   5.444   6.877
33333SOL    HW2   26   5.819   5.476   6.734
33334SOL     OW   27   6.526   5.422   6.490
33334SOL    HW1   28   6.606   5.365   6.511
33334SOL    HW2   29   6.477   5.382   6.413
33335SOL     OW   30   5.968   4.424   6.066
33335SOL    HW1   31   6.013   4.334   6.063
33335SOL    HW2   32   5.874   4.413   6.099
33336SOL     OW   33   7.133   3.946   7.315
33336SOL    HW1   34   7.128   3.983   7.407
33336SOL    HW2   35   7.061   3.877   7.303
33337SOL     OW   36   6.200   3.846   5.703
33337SOL    HW1   37   6.298   3.824   5.710
33337SOL    HW2   38   6.169   3.829   5.610
33338SOL     OW   39   6.367   3.988   7.335
33338SOL    HW1   40   6.434   3.927   7.378
33338SOL    HW2   41   6.294   4.007   7.400
33339SOL     OW   42   6.474   5.238   6.781
33339SOL    HW1   43   6.451   5.213   6.687
33339SOL    HW2   44   6.535   5.169   6.820
33340SOL     OW   45   6.937   4.314   7.019
33340SOL    HW1   46   6.965   4.271   7.104
33340SOL    HW2   47   6.962   4.410   7.020
33341SOL     OW   48   6.389   5.126   6.510
33341SOL    HW1   49   6.479   5.140   6.468
33341SOL    HW2   50   6.318   5.128   6.439
33342SOL     OW   51   6.508   4.227   6.485
33342SOL    HW1   52   6.483   4.218   6.389
33342SOL    HW2   53   6.556   4.145   6.516
33343SOL     OW   54   6.125   3.788   6.098
33343SOL    HW1   55   6.044   3.789   6.156
33343SOL    HW2   56   6.128   3.871   6.043
33344SOL     OW   57   7.020   4.912   5.627
33344SOL    HW1   58   7.052   4.836   5.684
33344SOL    HW2   59   6.928   4.939   5.657
33345SOL     OW   60   5.883   3.759   5.757
33345SOL    HW1   61   5.932   3.843   5.736
33345SOL    HW2   62   5.945   3.694   5.802
33346SOL     OW   63   6.521   3.960   6.066
33346SOL    HW1   64   6.473   4.001   5.988
33346SOL    HW2   65   6.620   3.958   6.047
33347SOL     OW   66   6.662   4.407   7.050
33347SOL    HW1   67   6.582   4.346   7.053
33347SOL    HW2   68   6.743   4.354   7.026
33348SOL     OW   69   6.813   5.294   6.379
33348SOL    HW1   70   6.834   5.368   6.314
33348SOL    HW2   71   6.881   5.294   6.452
33349SOL     OW   72   6.045   4.876   6.327
33349SOL    HW1   73   5.974   4.849   6.392
33349SOL    HW2   74   6.019   4.848   6.234
33350SOL     OW   75   6.857   5.521   6.177
33350SOL    HW1   76   6.901   5.585   6.113
33350SOL    HW2   77   6.807   5.573   6.247
33351SOL     OW   78   6.618   4.273   5.602
33351SOL    HW1   79   6.577   4.355   5.563
33351SOL    HW2   80   6.682   4.299   5.675
33352SOL     OW   81   5.664   4.280   6.972
33352SOL    HW1   82   5.756   4.279   6.931
33352SOL    HW2   83   5.658   4.354   7.039
33353SOL     OW   84   6.147   3.946   6.733
33353SOL    HW1   85   6.185   3.862   6.770
33353SOL    HW2   86   6.059   3.965   6.777
33354SOL     OW   87   6.452   4.178   6.228
33354SOL    HW1   88   6.420   4.250   6.166
33354SOL    HW2   89   6.476   4.097   6.175
33355SOL     OW   90   6.603   3.763   6.339
33355SOL    HW1   91   6.531   3.768   6.270
33355SOL    HW2   92   6.579   3.694   6.408
33356SOL     OW   93   7.015   4.897   6.453
33356SOL    HW1   94   6.960   4.813   6.446
33356SOL    HW2   95   7.041   4.926   6.361
33357SOL     OW   96   7.052   4.314   6.578
33357SOL    HW1   97   7.022   4.219   6.585
33357SOL    HW2   98   7.125   4.330   6.644
33358SOL     OW   99   7.443   4.557   5.963
33358SOL    HW1  100   7.485   4.493   6.027
33358SOL    HW2  101   7.405   4.506   5.885
33359SOL     OW  102   6.074   5.109   5.760
33359SOL    HW1  103   5.987   5.094   5.807
33359SOL    HW2  104   6.057   5.135   5.665
33360SOL     OW  105   7.250   5.004   6.243
33360SOL    HW1  106   7.349   5.012   6.257
33360SOL    HW2  107   7.205   5.088   6.274
33361SOL     OW  108   6.976   4.299   5.664
33361SOL    HW1  109   6.922   4.278   5.745
33361SOL    HW2  110   7.067   4.258   5.673
33362SOL     OW  111   6.113   3.980   5.914
33362SOL    HW1  112   6.140   3.921   5.839
33362SOL    HW2  113   6.113   4.075   5.883
33363SOL     OW  114   7.340   4.947   7.174
33363SOL    HW1  115   7.431   4.908   7.161
33363SOL    HW2  116   7.348   5.043   7.198
33364SOL     OW  117   6.650   5.071   6.926
33364SOL    HW1  118   6.570   5.048   6.981
33364SOL    HW2  119   6.733   5.045   6.975
33365SOL     OW  120   7.178   5.353   7.211
33365SOL    HW1  121   7.205   5.387   7.121
33365SOL    HW2  122   7.257   5.315   7.257
33366SOL     OW  123   6.697   4.919   6.686
33366SOL    HW1  124   6.657   4.963   6.767
33366SOL    HW2  125   6.656   4.956   6.603
33367SOL     OW  126   7.224   4.823   6.665
33367SOL    HW1  127   7.229   4.904   6.724
33367SOL    HW2  128   7.138   4.825   6.614
33368SOL     OW  129   6.501   3.813   6.988
33368SOL    HW1  130   6.526   3.793   6.893
33368SOL    HW2  131   6.573   3.869   7.030
33369SOL     OW  132   6.566   4.840   7.305
33369SOL    HW1  133   6.467   4.846   7.315
33369SOL    HW2  134   6.589   4.760   7.249
33370SOL     OW  135   6.291   4.774   5.954
33370SOL    HW1  136   6.277   4.781   6.053
33370SOL    HW2  137   6.375   4.723   5.936
33371SOL     OW  138   5.996   4.537   6.837
33371SOL    HW1  139   6.082   4.549   6.887
33371SOL    HW2  140   5.954   4.450   6.864
33372SOL     OW  141   6.860   4.110   6.848
33372SOL    HW1  142   6.881   4.184   6.912
33372SOL    HW2  143   6.771   4.127   6.805
33373SOL     OW  144   5.650   5.288   6.917
33373SOL    HW1  145   5.604   5.370   6.883
33373SOL    HW2  146   5.748   5.307   6.926
33374SOL     OW  147   5.953   4.824   6.087
33374SOL    HW1  148   5.946   4.907   6.031
33374SOL    HW2  149   5.957   4.744   6.027
33375SOL     OW  150   6.152   4.261   6.451
33375SOL    HW1  151   6.164   4.327   6.377
33375SOL    HW2  152   6.198   4.295   6.534
33376SOL     OW  153   6.838   5.072   5.974
33376SOL    HW1  154   6.888   5.149   6.014
33376SOL    HW2  155   6.743   5.074   6.006
33377SOL     OW  156   6.858   5.169   6.728
33377SOL    HW1  157   6.905   5.182   6.815
33377SOL    HW2  158   6.792   5.095   6.737
33378SOL     OW  159   7.168   4.363   6.058
33378SOL    HW1  160   7.137   4.424   6.131
33378SOL    HW2  161   7.218   4.415   5.989
33379SOL     OW  162   5.940   5.234   6.915
33379SOL    HW1  163   5.919   5.190   6.828
33379SOL    HW2  164   6.037   5.260   6.918
33380SOL     OW  165   5.988   4.475   7.184
33380SOL    HW1  166   6.056   4.530   7.137
33380SOL    HW2  167   6.028   4.387   7.211
33381SOL     OW  168   7.173   4.503   7.256
33381SOL    HW1  169   7.081   4.541   7.251
33381SOL    HW2  170   7.233   4.550   7.191
33382SOL     OW  171   6.599   3.829   7.356
33382SOL    HW1  172   6.605   3.914   7.304
33382SOL    HW2  173   6.631   3.753   7.299
33383SOL     OW  174   6.090   3.774   7.326
33383SOL    HW1  175   6.048   3.717   7.256
33383SOL    HW2  176   6.024   3.843   7.358
33384SOL     OW  177   6.159   4.594   6.615
33384SOL    HW1  178   6.203   4.683   6.606
33384SOL    HW2  179   6.096   4.594   6.692
33385SOL     OW  180   6.946   4.586   6.631
33385SOL    HW1  181   6.871   4.586   6.565
33385SOL    HW2  182   6.983   4.494   6.640
33386SOL     OW  183   6.795   4.249   5.861
33386SOL    HW1  184   6.808   4.165   5.915
33386SOL    HW2  185   6.766   4.323   5.921
33387SOL     OW  186   5.893   3.937   6.817
33387SOL    HW1  187   5.870   3.974   6.907
33387SOL    HW2  188   5.863   3.842   6.811
33388SOL     OW  189   5.623   5.034   6.868
33388SOL    HW1  190   5.676   4.985   6.936
33388SOL    HW2  191   5.645   5.132   6.873
33389SOL     OW  192   6.318   4.358   6.650
33389SOL    HW1  193   6.377   4.332   6.574
33389SOL    HW2  194   6.290   4.454   6.639
33390SOL     OW  195   7.314   4.659   7.440
33390SOL    HW1  196   7.268   4.652   7.351
33390SOL    HW2  197   7.252   4.703   7.506
33391SOL     OW  198   5.893   3.787   6.204
33391SOL    HW1  199   5.882   3.881   6.237
33391SOL    HW2  200   5.888   3.724   6.281
33392SOL     OW  201   7.208   4.091   5.960
33392SOL    HW1  202   7.210   4.015   6.024
33392SOL    HW2  203   7.160   4.168   6.000
33393SOL     OW  204   6.609   4.490   6.552
33393SOL    HW1  205   6.624   4.511   6.648
33393SOL    HW2  206   6.579   4.395   6.543
33394SOL     OW  207   6.566   5.297   7.286
33394SOL    HW1  208   6.546   5.341   7.198
33394SOL    HW2  209   6.605   5.206   7.270
33395SOL     OW  210   7.445   5.242   7.191
33395SOL    HW1  211   7.459   5.269   7.096
33395SOL    HW2  212   7.528   5.264   7.244
33396SOL     OW  213   5.936   4.622   7.390
33396SOL    HW1  214   6.012   4.666   7.438
33396SOL    HW2  215   5.971   4.575   7.308
33397SOL     OW  216   7.126   3.998   5.711
33397SOL    HW1  217   7.065   3.923   5.734
33397SOL    HW2  218   7.148   4.050   5.794
33398SOL     OW  219   6.889   4.562   5.628
33398SOL    HW1  220   6.923   4.469   5.643
33398SOL    HW2  221   6.907   4.589   5.533
33399SOL     OW  222   6.654   5.057   6.435
33399SOL    HW1  223   6.661   4.973   6.380
33399SOL    HW2  224   6.716   5.126   6.399
33400SOL     OW  225   5.905   4.534   6.535
33400SOL    HW1  226   5.998   4.570   6.540
33400SOL    HW2  227   5.899   4.449   6.587
33401SOL     OW  228   5.925   4.233   6.592
33401SOL    HW1  229   5.873   4.150   6.575
33401SOL    HW2  230   6.002   4.238   6.528
33402SOL     OW  231   6.724   4.104   7.264
33402SOL    HW1  232   6.679   4.167   7.328
33402SOL    HW2  233   6.817   4.135   7.247
33403SOL     OW  234   6.746   3.931   7.063
33403SOL    HW1  235   6.746   3.995   7.140
33403SOL    HW2  236   6.774   3.979   6.980
33404SOL     OW  237   5.594   5.050   5.786
33404SOL    HW1  238   5.501   5.071   5.755
33404SOL    HW2  239   5.604   4.951   5.799
33405SOL     OW  240   5.674   5.525   6.513
33405SOL    HW1  241   5.632   5.439   6.486
33405SOL    HW2  242   5.768   5.528   6.479
33406SOL     OW  243   6.090   5.292   6.496
33406SOL    HW1  244   6.156   5.366   6.505
33406SOL    HW2  245   6.134   5.213   6.454
33407SOL     OW  246   6.588   4.520   6.824
33407SOL    HW1  247   6.629   4.488   6.910
33407SOL    HW2  248   6.492   4.493   6.821
33408SOL     OW  249   5.626   4.268   6.700
33408SOL    HW1  250   5.711   4.235   6.659
33408SOL    HW2  251   5.639   4.283   6.798
33409SOL     OW  252   5.775   4.244   7.308
33409SOL    HW1  253   5.834   4.204   7.238
33409SOL    HW2  254   5.717   4.315   7.267
33410SOL     OW  255   6.955   4.674   7.246
33410SOL    HW1  256   6.994   4.763   7.266
33410SOL    HW2  257   6.965   4.654   7.149
33411SOL     OW  258   6.401   4.296   5.911
33411SOL    HW1  259   6.408   4.207   5.865
33411SOL    HW2  260   6.307   4.330   5.903
33412SOL     OW  261   7.243   4.328   6.792
33412SOL    HW1  262   7.205   4.259   6.854
33412SOL    HW2  263   7.325   4.292   6.748
33413SOL     OW  264   5.838   5.288   7.330
33413SOL    HW1  265   5.808   5.345   7.406
33413SOL    HW2  266   5.831   5.191   7.356
33414SOL     OW  267   6.257   4.188   6.855
33414SOL    HW1  268   6.223   4.099   6.825
33414SOL    HW2  269   6.283   4.242   6.775
33415SOL     OW  270   6.516   5.402   7.051
33415SOL    HW1  271   6.492   5.384   6.956
33415SOL    HW2  272   6.546   5.496   7.061
33416SOL     OW  273   6.059   4.224   5.777
33416SOL    HW1  274   6.120   4.304   5.781
33416SOL    HW2  275   5.964   4.255   5.784
33417SOL     OW  276   5.745   4.861   7.052
33417SOL    HW1  277   5.767   4.800   7.128
33417SOL    HW2  278   5.755   4.812   6.966
33418SOL     OW  279   6.933   4.783   6.820
33418SOL    HW1  280   6.957   4.720   6.746
33418SOL    HW2  281   6.843   4.823   6.802
33419SOL     OW  282   6.888   4.579   5.895
33419SOL    HW1  283   6.802   4.548   5.937
33419SOL    HW2  284   6.884   4.565   5.796
33420SOL     OW  285   7.345   5.471   6.740
33420SOL    HW1  286   7.406   5.501   6.667
33420SOL    HW2  287   7.307   5.382   6.718
33421SOL     OW  288   6.838   5.455   6.714
33421SOL    HW1  289   6.922   5.460   6.660
33421SOL    HW2  290   6.815   5.359   6.732
33422SOL     OW  291   5.669   4.982   6.608
33422SOL    HW1  292   5.664   4.981   6.708
33422SOL    HW2  293   5.586   4.941   6.570
33423SOL     OW  294   6.274   5.386   7.302
33423SOL    HW1  295   6.218   5.467   7.311
33423SOL    HW2  296   6.326   5.390   7.216
33424SOL     OW  297   7.312   3.859   6.109
33424SOL    HW1  298   7.385   3.842   6.042
33424SOL    HW2  299   7.281   3.772   6.147
33425SOL     OW  300   6.974   5.297   6.063
33425SOL    HW1  301   7.041   5.309   5.989
33425SOL    HW2  302   6.934   5.386   6.086
33426SOL     OW  303   5.716   5.518   7.437
33426SOL    HW1  304   5.675   5.444   7.490
33426SOL    HW2  305   5.780   5.569   7.495
33427SOL     OW  306   6.866   4.651   6.258
33427SOL    HW1  307   6.926   4.570   6.260
33427SOL    HW2  308   6.906   4.720   6.198
33428SOL     OW  309   6.416   4.997   7.008
33428SOL    HW1  310   6.411   5.030   7.103
33428SOL    HW2  311   6.330   5.016   6.962
33429SOL     OW  312   6.258   5.340   5.740
33429SOL    HW1  313   6.267   5.350   5.641
33429SOL    HW2  314   6.218   5.251   5.761
33430SOL     OW  315   7.236   5.444   6.980
33430SOL    HW1  316   7.289   5.454   6.896
33430SOL    HW2  317   7.209   5.534   7.014
33431SOL     OW  318   7.427   3.899   6.549
33431SOL    HW1  319   7.466   3.814   6.513
33431SOL    HW2  320   7.329   3.901   6.530
33432SOL     OW  321   5.849   4.050   6.306
33432SOL    HW1  322   5.770   4.101   6.272
33432SOL    HW2  323   5.840   4.035   6.404
33433SOL     OW  324   6.780   5.336   5.617
33433SOL    HW1  325   6.786   5.243   5.654
33433SOL    HW2  326   6.721   5.336   5.537
33434SOL     OW  327   6.408   4.726   6.958
33434SOL    HW1  328   6.448   4.725   6.866
33434SOL    HW2  329   6.418   4.818   6.998
33435SOL     OW  330   6.502   4.634   5.877
33435SOL    HW1  331   6.565   4.672   5.809
33435SOL    HW2  332   6.542   4.551   5.916
33436SOL     OW  333   7.090   5.331   5.630
33436SOL    HW1  334   6.998   5.368   5.637
33436SOL    HW2  335   7.128   5.351   5.540
33437SOL     OW  336   5.958   5.012   7.076
33437SOL    HW1  337   5.945   5.105   7.042
33437SOL    HW2  338   5.874   4.960   7.063
33438SOL     OW  339   7.200   5.016   6.875
33438SOL    HW1  340   7.260   5.019   6.955
33438SOL    HW2  341   7.125   5.080   6.888
33439SOL     OW  342   6.625   4.822   6.282
33439SOL    HW1  343   6.555   4.775   6.336
33439SOL    HW2  344   6.684   4.754   6.239
33440SOL     OW  345   6.600   3.960   6.557
33440SOL    HW1  346   6.592   3.924   6.464
33440SOL    HW2  347   6.598   3.884   6.622
33441SOL     OW  348   6.176   5.211   6.077
33441SOL    HW1  349   6.218   5.153   6.007
33441SOL    HW2  350   6.132   5.290   6.033
33442SOL     OW  351   7.295   4.109   6.967
33442SOL    HW1  352   7.368   4.178   6.971
33442SOL    HW2  353   7.323   4.034   6.908
33443SOL     OW  354   5.841   5.072   5.876
33443SOL    HW1  355   5.745   5.073   5.849
33443SOL    HW2  356   5.853   5.125   5.960
33444SOL     OW  357   5.691   4.737   7.312
33444SOL    HW1  358   5.614   4.704   7.366
33444SOL    HW2  359   5.776   4.707   7.354
33445SOL     OW  360   6.258   3.927   7.075
33445SOL    HW1  361   6.348   3.911   7.035
33445SOL    HW2  362   6.266   3.932   7.174
33446SOL     OW  363   5.661   4.069   5.619
33446SOL    HW1  364   5.569   4.041   5.590
33446SOL    HW2  365   5.692   4.146   5.563
33447SOL     OW  366   7.026   4.580   6.984
33447SOL    HW1  367   6.969   4.632   6.921
33447SOL    HW2  368   7.122   4.592   6.960
33448SOL     OW  369   5.658   3.890   5.904
33448SOL    HW1  370   5.641   3.973   5.850
33448SOL    HW2  371   5.748   3.853   5.882
33449SOL     OW  372   6.769   5.059   5.705
33449SOL    HW1  373   6.670   5.048   5.707
33449SOL    HW2  374   6.803   5.074   5.798
33450SOL     OW  375   6.199   4.566   7.017
33450SOL    HW1  376   6.255   4.647   7.000
33450SOL    HW2  377   6.258   4.486   7.020
33451SOL     OW  378   7.079   5.491   6.545
33451SOL    HW1  379   7.112   5.555   6.476
33451SOL    HW2  380   7.145   5.485   6.620
33452SOL     OW  381   6.302   4.289   7.294
33452SOL    HW1  382   6.321   4.354   7.368
33452SOL    HW2  383   6.362   4.209   7.303
33453SOL     OW  384   7.036   4.944   7.219
33453SOL    HW1  385   7.027   4.934   7.318
33453SOL    HW2  386   7.132   4.937   7.193
33454SOL     OW  387   5.976   5.465   7.146
33454SOL    HW1  388   5.885   5.506   7.144
33454SOL    HW2  389   5.969   5.371   7.178
33455SOL     OW  390   7.260   4.607   6.840
33455SOL    HW1  391   7.233   4.518   6.803
33455SOL    HW2  392   7.261   4.675   6.767
33456SOL     OW  393   6.811   4.049   6.035
33456SOL    HW1  394   6.876   3.975   6.024
33456SOL    HW2  395   6.831   4.099   6.119
33457SOL     OW  396   6.180   4.469   6.238
33457SOL    HW1  397   6.230   4.554   6.219
33457SOL    HW2  398   6.092   4.471   6.190
33458SOL     OW  399   7.363   4.066   7.228
33458SOL    HW1  400   7.346   4.097   7.134
33458SOL    HW2  401   7.279   4.029   7.266
33459SOL     OW  402   7.316   4.658   7.103
33459SOL    HW1  403   7.354   4.749   7.118
33459SOL    HW2  404   7.308   4.641   7.004
33460SOL     OW  405   6.445   5.098   5.602
33460SOL    HW1  406   6.399   5.113   5.690
33460SOL    HW2  407   6.489   5.183   5.572
33461SOL     OW  408   6.247   5.514   6.539
33461SOL    HW1  409   6.201   5.602   6.526
33461SOL    HW2  410   6.346   5.526   6.532
33462SOL     OW  411   6.445   4.680   6.447
33462SOL    HW1  412   6.499   4.611   6.495
33462SOL    HW2  413   6.413   4.749   6.513
33463SOL     OW  414   6.669   4.708   5.673
33463SOL    HW1  415   6.646   4.761   5.591
33463SOL    HW2  416   6.750   4.652   5.654
33464SOL     OW  417   7.447   5.293   6.437
33464SOL    HW1  418   7.376   5.281   6.367
33464SOL    HW2  419   7.448   5.214   6.497
33465SOL     OW  420   5.807   5.038   7.430
33465SOL    HW1  421   5.742   4.965   7.409
33465SOL    HW2  422   5.811   5.052   7.528
33466SOL     OW  423   5.665   4.964   6.239
33466SOL    HW1  424   5.664   4.917   6.327
33466SOL    HW2  425   5.747   4.936   6.188
33467SOL     OW  426   6.258   5.115   7.210
33467SOL    HW1  427   6.180   5.065   7.248
33467SOL    HW2  428   6.255   5.210   7.241
33468SOL     OW  429   7.410   3.916   6.813
33468SOL    HW1  430   7.406   3.826   6.857
33468SOL    HW2  431   7.413   3.905   6.714
33469SOL     OW  432   6.014   4.148   6.106
33469SOL    HW1  433   6.044   4.076   6.044
33469SOL    HW2  434   5.975   4.108   6.189
33470SOL     OW  435   7.291   5.211   6.690
33470SOL    HW1  436   7.198   5.186   6.663
33470SOL    HW2  437   7.317   5.161   6.772
33471SOL     OW  438   5.903   4.271   6.866
33471SOL    HW1  439   5.941   4.212   6.938
33471SOL    HW2  440   5.943   4.245   6.778
33472SOL     OW  441   6.398   5.310   6.273
33472SOL    HW1  442   6.430   5.320   6.179
33472SOL    HW2  443   6.319   5.248   6.275
33473SOL     OW  444   7.010   3.938   6.698
33473SOL    HW1  445   7.062   3.873   6.753
33473SOL    HW2  446   6.961   4.001   6.759
33474SOL     OW  447   6.587   3.758   6.740
33474SOL    HW1  448   6.524   3.686   6.709
33474SOL    HW2  449   6.680   3.722   6.740
33475SOL     OW  450   6.356   5.054   5.887
33475SOL    HW1  451   6.310   4.967   5.904
33475SOL    HW2  452   6.447   5.051   5.928
33476SOL     OW  453   6.204   5.291   6.870
33476SOL    HW1  454   6.199   5.373   6.927
33476SOL    HW2  455   6.293   5.288   6.825
33477SOL     OW  456   6.938   3.776   5.754
33477SOL    HW1  457   6.973   3.735   5.670
33477SOL    HW2  458   6.848   3.738   5.774
33478SOL     OW  459   6.886   4.177   6.277
33478SOL    HW1  460   6.827   4.257   6.281
33478SOL    HW2  461   6.901   4.142   6.370
33479SOL     OW  462   7.179   3.945   6.468
33479SOL    HW1  463   7.095   3.944   6.522
33479SOL    HW2  464   7.181   4.028   6.412
33480SOL     OW  465   5.625   4.801   5.886
33480SOL    HW1  466   5.724   4.790   5.877
33480SOL    HW2  467   5.585   4.715   5.918
33481SOL     OW  468   6.461   5.370   5.923
33481SOL    HW1  469   6.384   5.335   5.869
33481SOL    HW2  470   6.429   5.441   5.985
33482SOL     OW  471   5.816   4.352   7.561
33482SOL    HW1  472   5.723   4.350   7.598
33482SOL    HW2  473   5.817   4.313   7.469
33483SOL     OW  474   5.811   3.999   8.444
33483SOL    HW1  475   5.846   3.982   8.536
33483SOL    HW2  476   5.723   3.954   8.432
33484SOL     OW  477   5.605   4.092   8.095
33484SOL    HW1  478   5.523   4.135   8.134
33484SOL    HW2  479   5.577   4.019   8.032
33485SOL     OW  480   6.155   4.999   8.613
33485SOL    HW1  481   6.062   4.992   8.576
33485SOL    HW2  482   6.166   5.088   8.657
33486SOL     OW  483   7.141   5.235   8.151
33486SOL    HW1  484   7.084   5.219   8.232
33486SOL    HW2  485   7.082   5.245   8.071
33487SOL     OW  486   6.721   4.427   8.165
33487SOL    HW1  487   6.778   4.505   8.140
33487SOL    HW2  488   6.661   4.453   8.241
33488SOL     OW  489   7.341   4.331   7.679
33488SOL    HW1  490   7.329   4.318   7.580
33488SOL    HW2  491   7.311   4.250   7.728
33489SOL     OW  492   6.354   4.868   8.471
33489SOL    HW1  493   6.276   4.885   8.531
33489SOL    HW2  494   6.388   4.955   8.435
33490SOL     OW  495   6.436   4.522   9.271
33490SOL    HW1  496   6.432   4.598   9.336
33490SOL    HW2  497   6.458   4.558   9.180
33491SOL     OW  498   6.271   4.736   8.113
33491SOL    HW1  499   6.340   4.720   8.183
33491SOL    HW2  500   6.198   4.793   8.151
33492SOL     OW  501   6.272   4.885   9.251
33492SOL    HW1  502   6.332   4.964   9.265
33492SOL    HW2  503   6.186   4.916   9.210
33493SOL     OW  504   5.921   5.159   8.509
33493SOL    HW1  505   5.843   5.128   8.456
33493SOL    HW2  506   5.979   5.217   8.452
33494SOL     OW  507   7.046   5.229   8.787
33494SOL    HW1  508   7.070   5.323   8.813
33494SOL    HW2  509   7.030   5.175   8.869
33495SOL     OW  510   6.024   4.116   8.947
33495SOL    HW1  511   6.106   4.060   8.956
33495SOL    HW2  512   5.943   4.058   8.951
33496SOL     OW  513   7.189   4.171   8.185
33496SOL    HW1  514   7.115   4.217   8.135
33496SOL    HW2  515   7.240   4.239   8.238
33497SOL     OW  516   5.817   5.437   7.931
33497SOL    HW1  517   5.851   5.514   7.985
33497SOL    HW2  518   5.861   5.437   7.841
33498SOL     OW  519   6.713   5.065   9.138
33498SOL    HW1  520   6.760   5.065   9.226
33498SOL    HW2  521   6.665   4.978   9.127
33499SOL     OW  522   5.816   5.158   7.986
33499SOL    HW1  523   5.790   5.254   7.986
33499SOL    HW2  524   5.745   5.104   8.031
33500SOL     OW  525   5.826   4.815   8.334
33500SOL    HW1  526   5.840   4.731   8.386
33500SOL    HW2  527   5.771   4.879   8.389
33501SOL     OW  528   6.206   5.510   8.887
33501SOL    HW1  529   6.114   5.493   8.922
33501SOL    HW2  530   6.234   5.602   8.913
33502SOL     OW  531   6.192   4.688   7.571
33502SOL    HW1  532   6.199   4.772   7.517
33502SOL    HW2  533   6.238   4.701   7.659
33503SOL     OW  534   7.180   3.838   8.928
33503SOL    HW1  535   7.162   3.905   8.856
33503SOL    HW2  536   7.177   3.884   9.017
33504SOL     OW  537   5.708   4.367   8.011
33504SOL    HW1  538   5.663   4.279   8.028
33504SOL    HW2  539   5.707   4.421   8.095
33505SOL     OW  540   7.428   5.491   7.807
33505SOL    HW1  541   7.482   5.462   7.887
33505SOL    HW2  542   7.458   5.581   7.778
33506SOL     OW  543   5.613   5.320   7.565
33506SOL    HW1  544   5.594   5.224   7.586
33506SOL    HW2  545   5.580   5.378   7.640
33507SOL     OW  546   7.275   4.646   8.060
33507SOL    HW1  547   7.370   4.617   8.068
33507SOL    HW2  548   7.267   4.711   7.985
33508SOL     OW  549   7.227   4.832   7.880
33508SOL    HW1  550   7.313   4.834   7.828
33508SOL    HW2  551   7.241   4.879   7.968
33509SOL     OW  552   5.699   4.461   9.045
33509SOL    HW1  553   5.787   4.448   9.090
33509SOL    HW2  554   5.686   4.558   9.023
33510SOL     OW  555   6.199   5.089   8.174
33510SOL    HW1  556   6.150   5.002   8.183
33510SOL    HW2  557   6.176   5.132   8.087
33511SOL     OW  558   6.879   4.952   8.871
33511SOL    HW1  559   6.916   4.879   8.813
33511SOL    HW2  560   6.931   4.957   8.956
33512SOL     OW  561   6.395   3.728   7.950
33512SOL    HW1  562   6.435   3.819   7.941
33512SOL    HW2  563   6.295   3.736   7.956
33513SOL     OW  564   5.783   4.700   8.712
33513SOL    HW1  565   5.872   4.655   8.698
33513SOL    HW2  566   5.710   4.635   8.693
33514SOL     OW  567   7.111   4.723   7.638
33514SOL    HW1  568   7.048   4.647   7.651
33514SOL    HW2  569   7.159   4.741   7.724
33515SOL     OW  570   6.773   5.516   9.064
33515SOL    HW1  571   6.797   5.576   8.988
33515SOL    HW2  572   6.780   5.421   9.034
33516SOL     OW  573   5.903   3.975   9.249
33516SOL    HW1  574   5.974   4.046   9.255
33516SOL    HW2  575   5.815   4.014   9.277
33517SOL     OW  576   7.052   5.141   8.401
33517SOL    HW1  577   6.993   5.147   8.481
33517SOL    HW2  578   7.037   5.053   8.355
33518SOL     OW  579   7.253   5.438   8.020
33518SOL    HW1  580   7.212   5.415   7.932
33518SOL    HW2  581   7.235   5.364   8.085
33519SOL     OW  582   6.184   4.453   7.718
33519SOL    HW1  583   6.208   4.522   7.650
33519SOL    HW2  584   6.106   4.486   7.772
33520SOL     OW  585   6.867   4.069   8.392
33520SOL    HW1  586   6.781   4.019   8.379
33520SOL    HW2  587   6.929   4.015   8.448
33521SOL     OW  588   7.162   5.386   7.755
33521SOL    HW1  589   7.251   5.432   7.758
33521SOL    HW2  590   7.141   5.362   7.660
33522SOL     OW  591   6.393   4.329   8.913
33522SOL    HW1  592   6.346   4.326   9.002
33522SOL    HW2  593   6.342   4.274   8.847
33523SOL     OW  594   6.980   4.193   9.122
33523SOL    HW1  595   6.960   4.236   9.210
33523SOL    HW2  596   7.058   4.131   9.131
33524SOL     OW  597   6.559   4.614   9.020
33524SOL    HW1  598   6.605   4.530   8.991
33524SOL    HW2  599   6.503   4.648   8.945
33525SOL     OW  600   6.577   4.134   8.690
33525SOL    HW1  601   6.500   4.168   8.744
33525SOL    HW2  602   6.543   4.083   8.611
33526SOL     OW  603   6.627   4.425   7.877
33526SOL    HW1  604   6.653   4.421   7.973
33526SOL    HW2  605   6.542   4.374   7.863
33527SOL     OW  606   5.662   4.535   8.237
33527SOL    HW1  607   5.761   4.523   8.246
33527SOL    HW2  608   5.638   4.630   8.258
33528SOL     OW  609   5.716   5.545   9.019
33528SOL    HW1  610   5.706   5.530   9.118
33528SOL    HW2  611   5.630   5.581   8.983
33529SOL     OW  612   6.451   4.072   7.643
33529SOL    HW1  613   6.510   4.135   7.594
33529SOL    HW2  614   6.470   3.978   7.614
33530SOL     OW  615   7.305   4.309   9.279
33530SOL    HW1  616   7.279   4.398   9.243
33530SOL    HW2  617   7.303   4.241   9.206
33531SOL     OW  618   6.948   4.868   7.993
33531SOL    HW1  619   7.031   4.839   7.945
33531SOL    HW2  620   6.899   4.935   7.937
33532SOL     OW  621   6.136   3.920   8.333
33532SOL    HW1  622   6.131   3.915   8.433
33532SOL    HW2  623   6.138   4.016   8.304
33533SOL     OW  624   6.594   5.180   7.925
33533SOL    HW1  625   6.548   5.252   7.873
33533SOL    HW2  626   6.590   5.200   8.023
33534SOL     OW  627   5.937   5.525   8.301
33534SOL    HW1  628   5.987   5.439   8.307
33534SOL    HW2  629   6.002   5.602   8.298
33535SOL     OW  630   7.381   4.790   8.321
33535SOL    HW1  631   7.319   4.775   8.245
33535SOL    HW2  632   7.329   4.801   8.406
33536SOL     OW  633   6.813   5.274   8.954
33536SOL    HW1  634   6.819   5.197   9.018
33536SOL    HW2  635   6.761   5.248   8.874
33537SOL     OW  636   5.907   4.667   7.690
33537SOL    HW1  637   5.989   4.706   7.648
33537SOL    HW2  638   5.880   4.585   7.641
33538SOL     OW  639   7.044   4.459   8.176
33538SOL    HW1  640   7.039   4.394   8.251
33538SOL    HW2  641   7.124   4.518   8.189
33539SOL     OW  642   6.047   4.990   9.175
33539SOL    HW1  643   5.997   4.991   9.089
33539SOL    HW2  644   5.984   4.972   9.251
33540SOL     OW  645   6.697   5.500   7.685
33540SOL    HW1  646   6.637   5.438   7.735
33540SOL    HW2  647   6.728   5.456   7.600
33541SOL     OW  648   5.788   4.009   8.946
33541SOL    HW1  649   5.708   4.069   8.933
33541SOL    HW2  650   5.778   3.960   9.032
33542SOL     OW  651   7.218   5.101   7.529
33542SOL    HW1  652   7.186   5.195   7.519
33542SOL    HW2  653   7.142   5.038   7.517
33543SOL     OW  654   6.050   5.467   7.771
33543SOL    HW1  655   6.083   5.506   7.857
33543SOL    HW2  656   6.126   5.460   7.706
33544SOL     OW  657   6.986   3.831   7.874
33544SOL    HW1  658   6.962   3.794   7.784
33544SOL    HW2  659   7.085   3.847   7.878
33545SOL     OW  660   5.835   5.509   8.689
33545SOL    HW1  661   5.892   5.444   8.739
33545SOL    HW2  662   5.819   5.476   8.596
33546SOL     OW  663   6.526   5.422   8.352
33546SOL    HW1  664   6.606   5.365   8.373
33546SOL    HW2  665   6.477   5.382   8.275
33547SOL     OW  666   5.968   4.424   7.928
33547SOL    HW1  667   6.013   4.334   7.925
33547SOL    HW2  668   5.874   4.413   7.961
33548SOL     OW  669   7.133   3.946   9.177
33548SOL    HW1  670   7.128   3.983   9.269
33548SOL    HW2  671   7.061   3.877   9.165
33549SOL     OW  672   6.200   3.846   7.565
33549SOL    HW1  673   6.298   3.824   7.572
33549SOL    HW2  674   6.169   3.829   7.472
33550SOL     OW  675   6.367   3.988   9.197
33550SOL    HW1  676   6.434   3.927   9.240
33550SOL    HW2  677   6.294   4.007   9.262
33551SOL     OW  678   6.474   5.238   8.643
33551SOL    HW1  679   6.451   5.213   8.549
33551SOL    HW2  680   6.535   5.169   8.682
33552SOL     OW  681   6.937   4.314   8.881
33552SOL    HW1  682   6.965   4.271   8.966
33552SOL    HW2  683   6.962   4.410   8.882
33553SOL     OW  684   6.389   5.126   8.372
33553SOL    HW1  685   6.479   5.140   8.330
33553SOL    HW2  686   6.318   5.128   8.301
33554SOL     OW  687   6.508   4.227   8.347
33554SOL    HW1  688   6.483   4.218   8.251
33554SOL    HW2  689   6.556   4.145   8.378
33555SOL     OW  690   6.125   3.788   7.960
33555SOL    HW1  691   6.044   3.789   8.018
33555SOL    HW2  692   6.128   3.871   7.905
33556SOL     OW  693   7.020   4.912   7.489
33556SOL    HW1  694   7.052   4.836   7.546
33556SOL    HW2  695   6.928   4.939   7.519
33557SOL     OW  696   5.883   3.759   7.619
33557SOL    HW1  697   5.932   3.843   7.598
33557SOL    HW2  698   5.945   3.694   7.664
33558SOL     OW  699   6.521   3.960   7.928
33558SOL    HW1  700   6.473   4.001   7.850
33558SOL    HW2  701   6.620   3.958   7.909
33559SOL     OW  702   6.662   4.407   8.912
33559SOL    HW1  703   6.582   4.346   8.915
33559SOL    HW2  704   6.743   4.354   8.888
33560SOL     OW  705   6.813   5.294   8.241
33560SOL    HW1  706   6.834   5.368   8.176
33560SOL    HW2  707   6.881   5.294   8.314
33561SOL     OW  708   6.045   4.876   8.189
33561SOL    HW1  709   5.974   4.849   8.254
33561SOL    HW2  710   6.019   4.848   8.096
33562SOL     OW  711   6.857   5.521   8.039
33562SOL    HW1  712   6.901   5.585   7.975
33562SOL    HW2  713   6.807   5.573   8.109
33563SOL     OW  714   6.618   4.273   7.464
33563SOL    HW1  715   6.577   4.355   7.425
33563SOL    HW2  716   6.682   4.299   7.537
33564SOL     OW  717   5.664   4.280   8.834
33564SOL    HW1  718   5.756   4.279   8.793
33564SOL    HW2  719   5.658   4.354   8.901
33565SOL     OW  720   6.147   3.946   8.595
33565SOL    HW1  721   6.185   3.862   8.632
33565SOL    HW2  722   6.059   3.965   8.639
33566SOL     OW  723   6.452   4.178   8.090
33566SOL    HW1  724   6.420   4.250   8.028
33566SOL    HW2  725   6.476   4.097   8.037
33567SOL     OW  726   6.603   3.763   8.201
33567SOL    HW1  727   6.531   3.768   8.132
33567SOL    HW2  728   6.579   3.694   8.270
33568SOL     OW  729   7.015   4.897   8.315
33568SOL    HW1  730   6.960   4.813   8.308
33568SOL    HW2  731   7.041   4.926   8.223
33569SOL     OW  732   7.052   4.314   8.440
33569SOL    HW1  733   7.022   4.219   8.447
33569SOL    HW2  734   7.125   4.330   8.506
33570SOL     OW  735   7.443   4.557   7.825
33570SOL    HW1  736   7.485   4.493   7.889
33570SOL    HW2  737   7.405   4.506   7.747
33571SOL     OW  738   6.074   5.109   7.622
33571SOL    HW1  739   5.987   5.094   7.669
33571SOL    HW2  740   6.057   5.135   7.527
33572SOL     OW  741   7.250   5.004   8.105
33572SOL    HW1  742   7.349   5.012   8.119
33572SOL    HW2  743   7.205   5.088   8.136
33573SOL     OW  744   6.976   4.299   7.526
33573SOL    HW1  745   6.922   4.278   7.607
33573SOL    HW2  746   7.067   4.258   7.535
33574SOL     OW  747   6.113   3.980   7.776
33574SOL    HW1  748   6.140   3.921   7.701
33574SOL    HW2  749   6.113   4.075   7.745
33575SOL     OW  750   7.340   4.947   9.036
33575SOL    HW1  751   7.431   4.908   9.023
33575SOL    HW2  752   7.348   5.043   9.060
33576SOL     OW  753   6.650   5.071   8.788
33576SOL    HW1  754   6.570   5.048   8.843
33576SOL    HW2  755   6.733   5.045   8.837
33577SOL     OW  756   7.178   5.353   9.073
33577SOL    HW1  757   7.205   5.387   8.983
33577SOL    HW2  758   7.257   5.315   9.119
33578SOL     OW  759   6.697   4.919   8.548
33578SOL    HW1  760   6.657   4.963   8.629
33578SOL    HW2  761   6.656   4.956   8.465
33579SOL     OW  762   7.224   4.823   8.527
33579SOL    HW1  763   7.229   4.904   8.586
33579SOL    HW2  764   7.138   4.825   8.476
33580SOL     OW  765   6.501   3.813   8.850
33580SOL    HW1  766   6.526   3.793   8.755
33580SOL    HW2  767   6.573   3.869   8.892
33581SOL     OW  768   6.566   4.840   9.167
33581SOL    HW1  769   6.467   4.846   9.177
33581SOL    HW2  770   6.589   4.760   9.111
33582SOL     OW  771   6.291   4.774   7.816
33582SOL    HW1  772   6.277   4.781   7.915
33582SOL    HW2  773   6.375   4.723   7.798
33583SOL     OW  774   5.996   4.537   8.699
33583SOL    HW1  775   6.082   4.549   8.749
33583SOL    HW2  776   5.954   4.450   8.726
33584SOL     OW  777   6.860   4.110   8.710
33584SOL    HW1  778   6.881   4.184   8.774
33584SOL    HW2  779   6.771   4.127   8.667
33585SOL     OW  780   5.650   5.288   8.779
33585SOL    HW1  781   5.604   5.370   8.745
33585SOL    HW2  782   5.748   5.307   8.788
33586SOL     OW  783   5.953   4.824   7.949
33586SOL    HW1  784   5.946   4.907   7.893
33586SOL    HW2  785   5.957   4.744   7.889
33587SOL     OW  786   6.152   4.261   8.313
33587SOL    HW1  787   6.164   4.327   8.239
33587SOL    HW2  788   6.198   4.295   8.396
33588SOL     OW  789   6.838   5.072   7.836
33588SOL    HW1  790   6.888   5.149   7.876
33588SOL    HW2  791   6.743   5.074   7.868
33589SOL     OW  792   6.858   5.169   8.590
33589SOL    HW1  793   6.905   5.182   8.677
33589SOL    HW2  794   6.792   5.095   8.599
33590SOL     OW  795   7.168   4.363   7.920
33590SOL    HW1  796   7.137   4.424   7.993
33590SOL    HW2  797   7.218   4.415   7.851
33591SOL     OW  798   5.940   5.234   8.777
33591SOL    HW1  799   5.919   5.190   8.690
33591SOL    HW2  800   6.037   5.260   8.780
33592SOL     OW  801   5.988   4.475   9.046
33592SOL    HW1  802   6.056   4.530   8.999
33592SOL    HW2  803   6.028   4.387   9.073
33593SOL     OW  804   7.173   4.503   9.118
33593SOL    HW1  805   7.081   4.541   9.113
33593SOL    HW2  806   7.233   4.550   9.053
33594SOL     OW  807   6.599   3.829   9.218
33594SOL    HW1  808   6.605   3.914   9.166
33594SOL    HW2  809   6.631   3.753   9.161
33595SOL     OW  810   6.090   3.774   9.188
33595SOL    HW1  811   6.048   3.717   9.118
33595SOL    HW2  812   6.024   3.843   9.220
33596SOL     OW  813   6.159   4.594   8.477
33596SOL    HW1  814   6.203   4.683   8.468
33596SOL    HW2  815   6.096   4.594   8.554
33597SOL     OW  816   6.946   4.586   8.493
33597SOL    HW1  817   6.871   4.586   8.427
33597SOL    HW2  818   6.983   4.494   8.502
33598SOL     OW  819   6.795   4.249   7.723
33598SOL    HW1  820   6.808   4.165   7.777
33598SOL    HW2  821   6.766   4.323   7.783
33599SOL     OW  822   5.893   3.937   8.679
33599SOL    HW1  823   5.870   3.974   8.769
33599SOL    HW2  824   5.863   3.842   8.673
33600SOL     OW  825   5.623   5.034   8.730
33600SOL    HW1  826   5.676   4.985   8.798
33600SOL    HW2  827   5.645   5.132   8.735
33601SOL     OW  828   6.318   4.358   8.512
33601SOL    HW1  829   6.377   4.332   8.436
33601SOL    HW2  830   6.290   4.454   8.501
33602SOL     OW  831   7.314   4.659   9.302
33602SOL    HW1  832   7.268   4.652   9.213
33602SOL    HW2  833   7.252   4.703   9.368
33603SOL     OW  834   5.893   3.787   8.066
33603SOL    HW1  835   5.882   3.881   8.099
33603SOL    HW2  836   5.888   3.724   8.143
33604SOL     OW  837   7.208   4.091   7.822
33604SOL    HW1  838   7.210   4.015   7.886
33604SOL    HW2  839   7.160   4.168   7.862
33605SOL     OW  840   6.609   4.490   8.414
33605SOL    HW1  841   6.624   4.511   8.510
33605SOL    HW2  842   6.579   4.395   8.405
33606SOL     OW  843   6.566   5.297   9.148
33606SOL    HW1  844   6.546   5.341   9.060
33606SOL    HW2  845   6.605   5.206   9.132
33607SOL     OW  846   7.445   5.242   9.053
33607SOL    HW1  847   7.459   5.269   8.958
33607SOL    HW2  848   7.528   5.264   9.106
33608SOL     OW  849   5.936   4.622   9.252
33608SOL    HW1  850   6.012   4.666   9.300
33608SOL    HW2  851   5.971   4.575   9.170
33609SOL     OW  852   7.126   3.998   7.573
33609SOL    HW1  853   7.065   3.923   7.596
33609SOL    HW2  854   7.148   4.050   7.656
33610SOL     OW  855   6.889   4.562   7.490
33610SOL    HW1  856   6.923   4.469   7.505
33610SOL    HW2  857   6.907   4.589   7.395
33611SOL     OW  858   6.654   5.057   8.297
33611SOL    HW1  859   6.661   4.973   8.242
33611SOL    HW2  860   6.716   5.126   8.261
33612SOL     OW  861   5.905   4.534   8.397
33612SOL    HW1  862   5.998   4.570   8.402
33612SOL    HW2  863   5.899   4.449   8.449
33613SOL     OW  864   5.925   4.233   8.454
33613SOL    HW1  865   5.873   4.150   8.437
33613SOL    HW2  866   6.002   4.238   8.390
33614SOL     OW  867   6.724   4.104   9.126
33614SOL    HW1  868   6.679   4.167   9.190
33614SOL    HW2  869   6.817   4.135   9.109
33615SOL     OW  870   6.746   3.931   8.925
33615SOL    HW1  871   6.746   3.995   9.002
33615SOL    HW2  872   6.774   3.979   8.842
33616SOL     OW  873   5.594   5.050   7.648
33616SOL    HW1  874   5.501   5.071   7.617
33616SOL    HW2  875   5.604   4.951   7.661
33617SOL     OW  876   5.674   5.525   8.375
33617SOL    HW1  877   5.632   5.439   8.348
33617SOL    HW2  878   5.768   5.528   8.341
33618SOL     OW  879   6.090   5.292   8.358
33618SOL    HW1  880   6.156   5.366   8.367
33618SOL    HW2  881   6.134   5.213   8.316
33619SOL     OW  882   6.588   4.520   8.686
33619SOL    HW1  883   6.629   4.488   8.772
33619SOL    HW2  884   6.492   4.493   8.683
33620SOL     OW  885   5.626   4.268   8.562
33620SOL    HW1  886   5.711   4.235   8.521
33620SOL    HW2  887   5.639   4.283   8.660
33621SOL     OW  888   5.775   4.244   9.170
33621SOL    HW1  889   5.834   4.204   9.100
33621SOL    HW2  890   5.717   4.315   9.129
33622SOL     OW  891   6.955   4.674   9.108
33622SOL    HW1  892   6.994   4.763   9.128
33622SOL    HW2  893   6.965   4.654   9.011
33623SOL     OW  894   6.401   4.296   7.773
33623SOL    HW1  895   6.408   4.207   7.727
33623SOL    HW2  896   6.307   4.330   7.765
33624SOL     OW  897   7.243   4.328   8.654
33624SOL    HW1  898   7.205   4.259   8.716
33624SOL    HW2  899   7.325   4.292   8.610
33625SOL     OW  900   5.838   5.288   9.192
33625SOL    HW1  901   5.808   5.345   9.268
33625SOL    HW2  902   5.831   5.191   9.218
33626SOL     OW  903   6.257   4.188   8.717
33626SOL    HW1  904   6.223   4.099   8.687
33626SOL    HW2  905   6.283   4.242   8.637
33627SOL     OW  906   6.516   5.402   8.913
33627SOL    HW1  907   6.492   5.384   8.818
33627SOL    HW2  908   6.546   5.496   8.923
33628SOL     OW  909   6.059   4.224   7.639
33628SOL    HW1  910   6.120   4.304   7.643
33628SOL    HW2  911   5.964   4.255   7.646
33629SOL     OW  912   5.745   4.861   8.914
33629SOL    HW1  913   5.767   4.800   8.990
33629SOL    HW2  914   5.755   4.812   8.828
33630SOL     OW  915   6.933   4.783   8.682
33630SOL    HW1  916   6.957   4.720   8.608
33630SOL    HW2  917   6.843   4.823   8.664
33631SOL     OW  918   6.888   4.579   7.757
33631SOL    HW1  919   6.802   4.548   7.799
33631SOL    HW2  920   6.884   4.565   7.658
33632SOL     OW  921   7.345   5.471   8.602
33632SOL    HW1  922   7.406   5.501   8.529
33632SOL    HW2  923   7.307   5.382   8.580
33633SOL     OW  924   6.838   5.455   8.576
33633SOL    HW1  925   6.922   5.460   8.522
33633SOL    HW2  926   6.815   5.359   8.594
33634SOL     OW  927   5.669   4.982   8.470
33634SOL    HW1  928   5.664   4.981   8.570
33634SOL    HW2  929   5.586   4.941   8.432
33635SOL     OW  930   6.274   5.386   9.164
33635SOL    HW1  931   6.218   5.467   9.173
33635SOL    HW2  932   6.326   5.390   9.078
33636SOL     OW  933   7.312   3.859   7.971
33636SOL    HW1  934   7.385   3.842   7.904
33636SOL    HW2  935   7.281   3.772   8.009
33637SOL     OW  936   6.974   5.297   7.925
33637SOL    HW1  937   7.041   5.309   7.851
33637SOL    HW2  938   6.934   5.386   7.948
33638SOL     OW  939   5.716   5.518   9.299
33638SOL    HW1  940   5.675   5.444   9.352
33638SOL    HW2  941   5.780   5.569   9.357
33639SOL     OW  942   6.866   4.651   8.120
33639SOL    HW1  943   6.926   4.570   8.122
33639SOL    HW2  944   6.906   4.720   8.060
33640SOL     OW  945   6.416   4.997   8.870
33640SOL    HW1  946   6.411   5.030   8.965
33640SOL    HW2  947   6.330   5.016   8.824
33641SOL     OW  948   6.258   5.340   7.602
33641SOL    HW1  949   6.267   5.350   7.503
33641SOL    HW2  950   6.218   5.251   7.623
33642SOL     OW  951   7.236   5.444   8.842
33642SOL    HW1  952   7.289   5.454   8.758
33642SOL    HW2  953   7.209   5.534   8.876
33643SOL     OW  954   7.427   3.899   8.411
33643SOL    HW1  955   7.466   3.814   8.375
33643SOL    HW2  956   7.329   3.901   8.392
33644SOL     OW  957   5.849   4.050   8.168
33644SOL    HW1  958   5.770   4.101   8.134
33644SOL    HW2  959   5.840   4.035   8.266
33645SOL     OW  960   6.780   5.336   7.479
33645SOL    HW1  961   6.786   5.243   7.516
33645SOL    HW2  962   6.721   5.336   7.399
33646SOL     OW  963   6.408   4.726   8.820
33646SOL    HW1  964   6.448   4.725   8.728
33646SOL    HW2  965   6.418   4.818   8.860
33647SOL     OW  966   6.502   4.634   7.739
33647SOL    HW1  967   6.565   4.672   7.671
33647SOL    HW2  968   6.542   4.551   7.778
33648SOL     OW  969   7.090   5.331   7.492
33648SOL    HW1  970   6.998   5.368   7.499
33648SOL    HW2  971   7.128   5.351   7.402
33649SOL     OW  972   5.958   5.012   8.938
33649SOL    HW1  973   5.945   5.105   8.904
33649SOL    HW2  974   5.874   4.960   8.925
33650SOL     OW  975   7.200   5.016   8.737
33650SOL    HW1  976   7.260   5.019   8.817
33650SOL    HW2  977   7.125   5.080   8.750
33651SOL     OW  978   6.625   4.822   8.144
33651SOL    HW1  979   6.555   4.775   8.198
33651SOL    HW2  980   6.684   4.754   8.101
33652SOL     OW  981   6.600   3.960   8.419
33652SOL    HW1  982   6.592   3.924   8.326
33652SOL    HW2  983   6.598   3.884   8.484
33653SOL     OW  984   6.176   5.211   7.939
33653SOL    HW1  985   6.218   5.153   7.869
33653SOL    HW2  986   6.132   5.290   7.895
33654SOL     OW  987   7.295   4.109   8.829
33654SOL    HW1  988   7.368   4.178   8.833
33654SOL    HW2  989   7.323   4.034   8.770
33655SOL     OW  990   5.841   5.072   7.738
33655SOL    HW1  991   5.745   5.073   7.711
33655SOL    HW2  992   5.853   5.125   7.822
33656SOL     OW  993   5.691   4.737   9.174
33656SOL    HW1  994   5.614   4.704   9.228
33656SOL    HW2  995   5.776   4.707   9.216
33657SOL     OW  996   6.258   3.927   8.937
33657SOL    HW1  997   6.348   3.911   8.897
33657SOL    HW2  998   6.266   3.932   9.036
33658SOL     OW  999   5.661   4.069   7.481
33658SOL    HW1 1000   5.569   4.041   7.452
33658SOL    HW2 1001   5.692   4.146   7.425
33659SOL     OW 1002   7.026   4.580   8.846
33659SOL    HW1 1003   6.969   4.632   8.783
33659SOL    HW2 1004   7.122   4.592   8.822
33660SOL     OW 1005   5.658   3.890   7.766
33660SOL    HW1 1006   5.641   3.973   7.712
33660SOL    HW2 1007   5.748   3.853   7.744
33661SOL     OW 1008   6.769   5.059   7.567
33661SOL    HW1 1009   6.670   5.048   7.569
33661SOL    HW2 1010   6.803   5.074   7.660
33662SOL     OW 1011   6.199   4.566   8.879
33662SOL    HW1 1012   6.255   4.647   8.862
33662SOL    HW2 1013   6.258   4.486   8.882
33663SOL     OW 1014   7.079   5.491   8.407
33663SOL    HW1 1015   7.112   5.555   8.338
33663SOL    HW2 1016   7.145   5.485   8.482
33664SOL     OW 1017   6.302   4.289   9.156
33664SOL    HW1 1018   6.321   4.354   9.230
33664SOL    HW2 1019   6.362   4.209   9.165
33665SOL     OW 1020   7.036   4.944   9.081
33665SOL    HW1 1021   7.027   4.934   9.180
33665SOL    HW2 1022   7.132   4.937   9.055
33666SOL     OW 1023   5.976   5.465   9.008
33666SOL    HW1 1024   5.885   5.506   9.006
33666SOL    HW2 1025   5.969   5.371   9.040
33667SOL     OW 1026   7.260   4.607   8.702
33667SOL    HW1 1027   7.233   4.518   8.665
33667SOL    HW2 1028   7.261   4.675   8.629
33668SOL     OW 1029   6.811   4.049   7.897
33668SOL    HW1 1030   6.876   3.975   7.886
33668SOL    HW2 1031   6.831   4.099   7.981
33669SOL     OW 1032   6.180   4.469   8.100
33669SOL    HW1 1033   6.230   4.554   8.081
33669SOL    HW2 1034   6.092   4.471   8.052
33670SOL     OW 1035   7.363   4.066   9.090
33670SOL    HW1 1036   7.346   4.097   8.996
33670SOL    HW2 1037   7.279   4.029   9.128
33671SOL     OW 1038   7.316   4.658   8.965
33671SOL    HW1 1039   7.354   4.749   8.980
33671SOL    HW2 1040   7.308   4.641   8.866
33672SOL     OW 1041   6.445   5.098   7.464
33672SOL    HW1 1042   6.399   5.113   7.552
33672SOL    HW2 1043   6.489   5.183   7.434
33673SOL     OW 1044   6.247   5.514   8.401
33673SOL    HW1 1045   6.201   5.602   8.388
33673SOL    HW2 1046   6.346   5.526   8.394
33674SOL     OW 1047   6.445   4.680   8.309
33674SOL    HW1 1048   6.499   4.611   8.357
33674SOL    HW2 1049   6.413   4.749   8.375
33675SOL     OW 1050   6.669   4.708   7.535
33675SOL    HW1 1051   6.646   4.761   7.453
33675SOL    HW2 1052   6.750   4.652   7.516
33676SOL     OW 1053   7.447   5.293   8.299
33676SOL    HW1 1054   7.376   5.281   8.229
33676SOL    HW2 1055   7.448   5.214   8.359
33677SOL     OW 1056   5.807   5.038   9.292
33677SOL    HW1 1057   5.742   4.965   9.271
33677SOL    HW2 1058   5.811   5.052   9.390
33678SOL     OW 1059   5.665   4.964   8.101
33678SOL    HW1 1060   5.664   4.917   8.189
33678SOL    HW2 1061   5.747   4.936   8.050
33679SOL     OW 1062   6.258   5.115   9.072
33679SOL    HW1 1063   6.180   5.065   9.110
33679SOL    HW2 1064   6.255   5.210   9.103
33680SOL     OW 1065   7.410   3.916   8.675
33680SOL    HW1 1066   7.406   3.826   8.719
33680SOL    HW2 1067   7.413   3.905   8.576
33681SOL     OW 1068   6.014   4.148   7.968
33681SOL    HW1 1069   6.044   4.076   7.906
33681SOL    HW2 1070   5.975   4.108   8.051
33682SOL     OW 1071   7.291   5.211   8.552
33682SOL    HW1 1072   7.198   5.186   8.525
33682SOL    HW2 1073   7.317   5.161   8.634
33683SOL     OW 1074   5.903   4.271   8.728
33683SOL    HW1 1075   5.941   4.212   8.800
33683SOL    HW2 1076   5.943   4.245   8.640
33684SOL     OW 1077   6.398   5.310   8.135
33684SOL    HW1 1078   6.430   5.320   8.041
33684SOL    HW2 1079   6.319   5.248   8.137
33685SOL     OW 1080   7.010   3.938   8.560
33685SOL    HW1 1081   7.062   3.873   8.615
33685SOL    HW2 1082   6.961   4.001   8.621
33686SOL     OW 1083   6.587   3.758   8.602
33686SOL    HW1 1084   6.524   3.686   8.571
33686SOL    HW2 1085   6.680   3.722   8.602
33687SOL     OW 1086   6.356   5.054   7.749
33687SOL    HW1 1087   6.310   4.967   7.766
33687SOL    HW2 1088   6.447   5.051   7.790
33688SOL     OW 1089   6.204   5.291   8.732
33688SOL    HW1 1090   6.199   5.373   8.789
33688SOL    HW2 1091   6.293   5.288   8.687
33689SOL     OW 1092   6.938   3.776   7.616
33689SOL    HW1 1093   6.973   3.735   7.532
33689SOL    HW2 1094   6.848   3.738   7.636
33690SOL     OW 1095   6.886   4.177   8.139
33690SOL    HW1 1096   6.827   4.257   8.143
33690SOL    HW2 1097   6.901   4.142   8.232
33691SOL     OW 1098   7.179   3.945   8.330
33691SOL    HW1 1099   7.095   3.944   8.384
33691SOL    HW2 1100   7.181   4.028   8.274
33692SOL     OW 1101   5.625   4.801   7.748
33692SOL    HW1 1102   5.724   4.790   7.739
33692SOL    HW2 1103   5.585   4.715   7.780
33693SOL     OW 1104   6.461   5.370   7.785
33693SOL    HW1 1105   6.384   5.335   7.731
33693SOL    HW2 1106   6.429   5.441   7.847
33694SOL     OW 1107   5.816   4.352   9.423
33694SOL    HW1 1108   5.723   4.350   9.460
33694SOL    HW2 1109   5.817   4.313   9.331
33695SOL     OW 1110   5.811   3.999  10.306
33695SOL    HW1 1111   5.846   3.982  10.398
33695SOL    HW2 1112   5.723   3.954  10.294
33696SOL     OW 1113   5.605   4.092   9.957
33696SOL    HW1 1114   5.523   4.135   9.996
33696SOL    HW2 1115   5.577   4.019   9.894
33697SOL     OW 1116   6.155   4.999  10.475
33697SOL    HW1 1117   6.062   4.992  10.438
33697SOL    HW2 1118   6.166   5.088  10.519
33698SOL     OW 1119   7.141   5.235  10.013
33698SOL    HW1 1120   7.084   5.219  10.094
33698SOL    HW2 1121   7.082   5.245   9.933
33699SOL     OW 1122   6.721   4.427  10.027
33699SOL    HW1 1123   6.778   4.505  10.002
33699SOL    HW2 1124   6.661   4.453  10.103
33700SOL     OW 1125   7.341   4.331   9.541
33700SOL    HW1 1126   7.329   4.318   9.442
33700SOL    HW2 1127   7.311   4.250   9.590
33701SOL     OW 1128   6.354   4.868  10.333
33701SOL    HW1 1129   6.276   4.885  10.393
33701SOL    HW2 1130   6.388   4.955  10.297
33702SOL     OW 1131   6.436   4.522  11.133
33702SOL    HW1 1132   6.432   4.598  11.198
33702SOL    HW2 1133   6.458   4.558  11.042
33703SOL     OW 1134   6.271   4.736   9.975
33703SOL    HW1 1135   6.340   4.720  10.045
33703SOL    HW2 1136   6.198   4.793  10.013
33704SOL     OW 1137   6.272   4.885  11.113
33704SOL    HW1 1138   6.332   4.964  11.127
33704SOL    HW2 1139   6.186   4.916  11.072
33705SOL     OW 1140   5.921   5.159  10.371
33705SOL    HW1 1141   5.843   5.128  10.318
33705SOL    HW2 1142   5.979   5.217  10.314
33706SOL     OW 1143   7.046   5.229  10.649
33706SOL    HW1 1144   7.070   5.323  10.675
33706SOL    HW2 1145   7.030   5.175  10.731
33707SOL     OW 1146   6.024   4.116  10.809
33707SOL    HW1 1147   6.106   4.060  10.818
33707SOL    HW2 1148   5.943   4.058  10.813
33708SOL     OW 1149   7.189   4.171  10.047
33708SOL    HW1 1150   7.115   4.217   9.997
33708SOL    HW2 1151   7.240   4.239  10.100
33709SOL     OW 1152   5.817   5.437   9.793
33709SOL    HW1 1153   5.851   5.514   9.847
33709SOL    HW2 1154   5.861   5.437   9.703
33710SOL     OW 1155   6.713   5.065  11.000
33710SOL    HW1 1156   6.760   5.065  11.088
33710SOL    HW2 1157   6.665   4.978  10.989
33711SOL     OW 1158   5.816   5.158   9.848
33711SOL    HW1 1159   5.790   5.254   9.848
33711SOL    HW2 1160   5.745   5.104   9.893
33712SOL     OW 1161   5.826   4.815  10.196
33712SOL    HW1 1162   5.840   4.731  10.248
33712SOL    HW2 1163   5.771   4.879  10.251
33713SOL     OW 1164   6.206   5.510  10.749
33713SOL    HW1 1165   6.114   5.493  10.784
33713SOL    HW2 1166   6.234   5.602  10.775
33714SOL     OW 1167   6.192   4.688   9.433
33714SOL    HW1 1168   6.199   4.772   9.379
33714SOL    HW2 1169   6.238   4.701   9.521
33715SOL     OW 1170   7.180   3.838  10.790
33715SOL    HW1 1171   7.162   3.905  10.718
33715SOL    HW2 1172   7.177   3.884  10.879
33716SOL     OW 1173   5.708   4.367   9.873
33716SOL    HW1 1174   5.663   4.279   9.890
33716SOL    HW2 1175   5.707   4.421   9.957
33717SOL     OW 1176   7.428   5.491   9.669
33717SOL    HW1 1177   7.482   5.462   9.749
33717SOL    HW2 1178   7.458   5.581   9.640
33718SOL     OW 1179   5.613   5.320   9.427
33718SOL    HW1 1180   5.594   5.224   9.448
33718SOL    HW2 1181   5.580   5.378   9.502
33719SOL     OW 1182   7.275   4.646   9.922
33719SOL    HW1 1183   7.370   4.617   9.930
33719SOL    HW2 1184   7.267   4.711   9.847
33720SOL     OW 1185   7.227   4.832   9.742
33720SOL    HW1 1186   7.313   4.834   9.690
33720SOL    HW2 1187   7.241   4.879   9.830
33721SOL     OW 1188   5.699   4.461  10.907
33721SOL    HW1 1189   5.787   4.448  10.952
33721SOL    HW2 1190   5.686   4.558  10.885
33722SOL     OW 1191   6.199   5.089  10.036
33722SOL    HW1 1192   6.150   5.002  10.045
33722SOL    HW2 1193   6.176   5.132   9.949
33723SOL     OW 1194   6.879   4.952  10.733
33723SOL    HW1 1195   6.916   4.879  10.675
33723SOL    HW2 1196   6.931   4.957  10.818
33724SOL     OW 1197   6.395   3.728   9.812
33724SOL    HW1 1198   6.435   3.819   9.803
33724SOL    HW2 1199   6.295   3.736   9.818
33725SOL     OW 1200   5.783   4.700  10.574
33725SOL    HW1 1201   5.872   4.655  10.560
33725SOL    HW2 1202   5.710   4.635  10.555
33726SOL     OW 1203   7.111   4.723   9.500
33726SOL    HW1 1204   7.048   4.647   9.513
33726SOL    HW2 1205   7.159   4.741   9.586
33727SOL     OW 1206   6.773   5.516  10.926
33727SOL    HW1 1207   6.797   5.576  10.850
33727SOL    HW2 1208   6.780   5.421  10.896
33728SOL     OW 1209   5.903   3.975  11.111
33728SOL    HW1 1210   5.974   4.046  11.117
33728SOL    HW2 1211   5.815   4.014  11.139
33729SOL     OW 1212   7.052   5.141  10.263
33729SOL    HW1 1213   6.993   5.147  10.343
33729SOL    HW2 1214   7.037   5.053  10.217
33730SOL     OW 1215   7.253   5.438   9.882
33730SOL    HW1 1216   7.212   5.415   9.794
33730SOL    HW2 1217   7.235   5.364   9.947
33731SOL     OW 1218   6.184   4.453   9.580
33731SOL    HW1 1219   6.208   4.522   9.512
33731SOL    HW2 1220   6.106   4.486   9.634
33732SOL     OW 1221   6.867   4.069  10.254
33732SOL    HW1 1222   6.781   4.019  10.241
33732SOL    HW2 1223   6.929   4.015  10.310
33733SOL     OW 1224   7.162   5.386   9.617
33733SOL    HW1 1225   7.251   5.432   9.620
33733SOL    HW2 1226   7.141   5.362   9.522
33734SOL     OW 1227   6.393   4.329  10.775
33734SOL    HW1 1228   6.346   4.326  10.864
33734SOL    HW2 1229   6.342   4.274  10.709
33735SOL     OW 1230   6.980   4.193  10.984
33735SOL    HW1 1231   6.960   4.236  11.072
33735SOL    HW2 1232   7.058   4.131  10.993
33736SOL     OW 1233   6.559   4.614  10.882
33736SOL    HW1 1234   6.605   4.530  10.853
33736SOL    HW2 1235   6.503   4.648  10.807
33737SOL     OW 1236   6.577   4.134  10.552
33737SOL    HW1 1237   6.500   4.168  10.606
33737SOL    HW2 1238   6.543   4.083  10.473
33738SOL     OW 1239   6.627   4.425   9.739
33738SOL    HW1 1240   6.653   4.421   9.835
33738SOL    HW2 1241   6.542   4.374   9.725
33739SOL     OW 1242   5.662   4.535  10.099
33739SOL    HW1 1243   5.761   4.523  10.108
33739SOL    HW2 1244   5.638   4.630  10.120
33740SOL     OW 1245   5.716   5.545  10.881
33740SOL    HW1 1246   5.706   5.530  10.980
33740SOL    HW2 1247   5.630   5.581  10.845
33741SOL     OW 1248   6.451   4.072   9.505
33741SOL    HW1 1249   6.510   4.135   9.456
33741SOL    HW2 1250   6.470   3.978   9.476
33742SOL     OW 1251   7.305   4.309  11.141
33742SOL    HW1 1252   7.279   4.398  11.105
33742SOL    HW2 1253   7.303   4.241  11.068
33743SOL     OW 1254   6.948   4.868   9.855
33743SOL    HW1 1255   7.031   4.839   9.807
33743SOL    HW2 1256   6.899   4.935   9.799
33744SOL     OW 1257   6.136   3.920  10.195
33744SOL    HW1 1258   6.131   3.915  10.295
33744SOL    HW2 1259   6.138   4.016  10.166
33745SOL     OW 1260   6.594   5.180   9.787
33745SOL    HW1 1261   6.548   5.252   9.735
33745SOL    HW2 1262   6.590   5.200   9.885
33746SOL     OW 1263   5.937   5.525  10.163
33746SOL    HW1 1264   5.987   5.439  10.169
33746SOL    HW2 1265   6.002   5.602  10.160
33747SOL     OW 1266   7.381   4.790  10.183
33747SOL    HW1 1267   7.319   4.775  10.107
33747SOL    HW2 1268   7.329   4.801  10.268
33748SOL     OW 1269   6.813   5.274  10.816
33748SOL    HW1 1270   6.819   5.197  10.880
33748SOL    HW2 1271   6.761   5.248  10.736
33749SOL     OW 1272   5.907   4.667   9.552
33749SOL    HW1 1273   5.989   4.706   9.510
33749SOL    HW2 1274   5.880   4.585   9.503
33750SOL     OW 1275   7.044   4.459  10.038
33750SOL    HW1 1276   7.039   4.394  10.113
33750SOL    HW2 1277   7.124   4.518  10.051
33751SOL     OW 1278   6.047   4.990  11.037
33751SOL    HW1 1279   5.997   4.991  10.951
33751SOL    HW2 1280   5.984   4.972  11.113
33752SOL     OW 1281   6.697   5.500   9.547
33752SOL    HW1 1282   6.637   5.438   9.597
33752SOL    HW2 1283   6.728   5.456   9.462
33753SOL     OW 1284   5.788   4.009  10.808
33753SOL    HW1 1285   5.708   4.069  10.795
33753SOL    HW2 1286   5.778   3.960  10.894
33754SOL     OW 1287   7.218   5.101   9.391
33754SOL    HW1 1288   7.186   5.195   9.381
33754SOL    HW2 1289   7.142   5.038   9.379
33755SOL     OW 1290   6.050   5.467   9.633
33755SOL    HW1 1291   6.083   5.506   9.719
33755SOL    HW2 1292   6.126   5.460   9.568
33756SOL     OW 1293   6.986   3.831   9.736
33756SOL    HW1 1294   6.962   3.794   9.646
33756SOL    HW2 1295   7.085   3.847   9.740
33757SOL     OW 1296   5.835   5.509  10.551
33757SOL    HW1 1297   5.892   5.444  10.601
33757SOL    HW2 1298   5.819   5.476  10.458
33758SOL     OW 1299   6.526   5.422  10.214
33758SOL    HW1 1300   6.606   5.365  10.235
33758SOL    HW2 1301   6.477   5.382  10.137
33759SOL     OW 1302   5.968   4.424   9.790
33759SOL    HW1 1303   6.013   4.334   9.787
33759SOL    HW2 1304   5.874   4.413   9.823
33760SOL     OW 1305   7.133   3.946  11.039
33760SOL    HW1 1306   7.128   3.983  11.131
33760SOL    HW2 1307   7.061   3.877  11.027
33761SOL     OW 1308   6.200   3.846   9.427
33761SOL    HW1 1309   6.298   3.824   9.434
33761SOL    HW2 1310   6.169   3.829   9.334
33762SOL     OW 1311   6.367   3.988  11.059
33762SOL    HW1 1312   6.434   3.927  11.102
33762SOL    HW2 1313   6.294   4.007  11.124
33763SOL     OW 1314   6.474   5.238  10.505
33763SOL    HW1 1315   6.451   5.213  10.411
33763SOL    HW2 1316   6.535   5.169  10.544
33764SOL     OW 1317   6.937   4.314  10.743
33764SOL    HW1 1318   6.965   4.271  10.828
33764SOL    HW2 1319   6.962   4.410  10.744
33765SOL     OW 1320   6.389   5.126  10.234
33765SOL    HW1 1321   6.479   5.140  10.192
33765SOL    HW2 1322   6.318   5.128  10.163
33766SOL     OW 1323   6.508   4.227  10.209
33766SOL    HW1 1324   6.483   4.218  10.113
33766SOL    HW2 1325   6.556   4.145  10.240
33767SOL     OW 1326   6.125   3.788   9.822
33767SOL    HW1 1327   6.044   3.789   9.880
33767SOL    HW2 1328   6.128   3.871   9.767
33768SOL     OW 1329   7.020   4.912   9.351
33768SOL    HW1 1330   7.052   4.836   9.408
33768SOL    HW2 1331   6.928   4.939   9.381
33769SOL     OW 1332   5.883   3.759   9.481
33769SOL    HW1 1333   5.932   3.843   9.460
33769SOL    HW2 1334   5.945   3.694   9.526
33770SOL     OW 1335   6.521   3.960   9.790
33770SOL    HW1 1336   6.473   4.001   9.712
33770SOL    HW2 1337   6.620   3.958   9.771
33771SOL     OW 1338   6.662   4.407  10.774
33771SOL    HW1 1339   6.582   4.346  10.777
33771SOL    HW2 1340   6.743   4.354  10.750
33772SOL     OW 1341   6.813   5.294  10.103
33772SOL    HW1 1342   6.834   5.368  10.038
33772SOL    HW2 1343   6.881   5.294  10.176
33773SOL     OW 1344   6.045   4.876  10.051
33773SOL    HW1 1345   5.974   4.849  10.116
33773SOL    HW2 1346   6.019   4.848   9.958
33774SOL     OW 1347   6.857   5.521   9.901
33774SOL    HW1 1348   6.901   5.585   9.837
33774SOL    HW2 1349   6.807   5.573   9.971
33775SOL     OW 1350   6.618   4.273   9.326
33775SOL    HW1 1351   6.577   4.355   9.287
33775SOL    HW2 1352   6.682   4.299   9.399
33776SOL     OW 1353   5.664   4.280  10.696
33776SOL    HW1 1354   5.756   4.279  10.655
33776SOL    HW2 1355   5.658   4.354  10.763
33777SOL     OW 1356   6.147   3.946  10.457
33777SOL    HW1 1357   6.185   3.862  10.494
33777SOL    HW2 1358   6.059   3.965  10.501
33778SOL     OW 1359   6.452   4.178   9.952
33778SOL    HW1 1360   6.420   4.250   9.890
33778SOL    HW2 1361   6.476   4.097   9.899
33779SOL     OW 1362   6.603   3.763  10.063
33779SOL    HW1 1363   6.531   3.768   9.994
33779SOL    HW2 1364   6.579   3.694  10.132
33780SOL     OW 1365   7.015   4.897  10.177
33780SOL    HW1 1366   6.960   4.813  10.170
33780SOL    HW2 1367   7.041   4.926  10.085
33781SOL     OW 1368   7.052   4.314  10.302
33781SOL    HW1 1369   7.022   4.219  10.309
33781SOL    HW2 1370   7.125   4.330  10.368
33782SOL     OW 1371   7.443   4.557   9.687
33782SOL    HW1 1372   7.485   4.493   9.751
33782SOL    HW2 1373   7.405   4.506   9.609
33783SOL     OW 1374   6.074   5.109   9.484
33783SOL    HW1 1375   5.987   5.094   9.531
33783SOL    HW2 1376   6.057   5.135   9.389
33784SOL     OW 1377   7.250   5.004   9.967
33784SOL    HW1 1378   7.349   5.012   9.981
33784SOL    HW2 1379   7.205   5.088   9.998
33785SOL     OW 1380   6.976   4.299   9.388
33785SOL    HW1 1381   6.922   4.278   9.469
33785SOL    HW2 1382   7.067   4.258   9.397
33786SOL     OW 1383   6.113   3.980   9.638
33786SOL    HW1 1384   6.140   3.921   9.563
33786SOL    HW2 1385   6.113   4.075   9.607
33787SOL     OW 1386   7.340   4.947  10.898
33787SOL    HW1 1387   7.431   4.908  10.885
33787SOL    HW2 1388   7.348   5.043  10.922
33788SOL     OW 1389   6.650   5.071  10.650
33788SOL    HW1 1390   6.570   5.048  10.705
33788SOL    HW2 1391   6.733   5.045  10.699
33789SOL     OW 1392   7.178   5.353  10.935
33789SOL    HW1 1393   7.205   5.387  10.845
33789SOL    HW2 1394   7.257   5.315  10.981
33790SOL     OW 1395   6.697   4.919  10.410
33790SOL    HW1 1396   6.657   4.963  10.491
33790SOL    HW2 1397   6.656   4.956  10.327
33791SOL     OW 1398   7.224   4.823  10.389
33791SOL    HW1 1399   7.229   4.904  10.448
33791SOL    HW2 1400   7.138   4.825  10.338
33792SOL     OW 1401   6.501   3.813  10.712
33792SOL    HW1 1402   6.526   3.793  10.617
33792SOL    HW2 1403   6.573   3.869  10.754
33793SOL     OW 1404   6.566   4.840  11.029
33793SOL    HW1 1405   6.467   4.846  11.039
33793SOL    HW2 1406   6.589   4.760  10.973
33794SOL     OW 1407   6.291   4.774   9.678
33794SOL    HW1 1408   6.277   4.781   9.777
33794SOL    HW2 1409   6.375   4.723   9.660
33795SOL     OW 1410   5.996   4.537  10.561
33795SOL    HW1 1411   6.082   4.549  10.611
33795SOL    HW2 1412   5.954   4.450  10.588
33796SOL     OW 1413   6.860   4.110  10.572
33796SOL    HW1 1414   6.881   4.184  10.636
33796SOL    HW2 1415   6.771   4.127  10.529
33797SOL     OW 1416   5.650   5.288  10.641
33797SOL    HW1 1417   5.604   5.370  10.607
33797SOL    HW2 1418   5.748   5.307  10.650
33798SOL     OW 1419   5.953   4.824   9.811
33798SOL    HW1 1420   5.946   4.907   9.755
33798SOL    HW2 1421   5.957   4.744   9.751
33799SOL     OW 1422   6.152   4.261  10.175
33799SOL    HW1 1423   6.164   4.327  10.101
33799SOL    HW2 1424   6.198   4.295  10.258
33800SOL     OW 1425   6.838   5.072   9.698
33800SOL    HW1 1426   6.888   5.149   9.738
33800SOL    HW2 1427   6.743   5.074   9.730
33801SOL     OW 1428   6.858   5.169  10.452
33801SOL    HW1 1429   6.905   5.182  10.539
33801SOL    HW2 1430   6.792   5.095  10.461
33802SOL     OW 1431   7.168   4.363   9.782
33802SOL    HW1 1432   7.137   4.424   9.855
33802SOL    HW2 1433   7.218   4.415   9.713
33803SOL     OW 1434   5.940   5.234  10.639
33803SOL    HW1 1435   5.919   5.190  10.552
33803SOL    HW2 1436   6.037   5.260  10.642
33804SOL     OW 1437   5.988   4.475  10.908
33804SOL    HW1 1438   6.056   4.530  10.861
33804SOL    HW2 1439   6.028   4.387  10.935
33805SOL     OW 1440   7.173   4.503  10.980
33805SOL    HW1 1441   7.081   4.541  10.975
33805SOL    HW2 1442   7.233   4.550  10.915
33806SOL     OW 1443   6.599   3.829  11.080
33806SOL    HW1 1444   6.605   3.914  11.028
33806SOL    HW2 1445   6.631   3.753  11.023
33807SOL     OW 1446   6.090   3.774  11.050
33807SOL    HW1 1447   6.048   3.717  10.980
33807SOL    HW2 1448   6.024   3.843  11.082
33808SOL     OW 1449   6.159   4.594  10.339
33808SOL    HW1 1450   6.203   4.683  10.330
33808SOL    HW2 1451   6.096   4.594  10.416
33809SOL     OW 1452   6.946   4.586  10.355
33809SOL    HW1 1453   6.871   4.586  10.289
33809SOL    HW2 1454   6.983   4.494  10.364
33810SOL     OW 1455   6.795   4.249   9.585
33810SOL    HW1 1456   6.808   4.165   9.639
33810SOL    HW2 1457   6.766   4.323   9.645
33811SOL     OW 1458   5.893   3.937  10.541
33811SOL    HW1 1459   5.870   3.974  10.631
33811SOL    HW2 1460   5.863   3.842  10.535
33812SOL     OW 1461   5.623   5.034  10.592
33812SOL    HW1 1462   5.676   4.985  10.660
33812SOL    HW2 1463   5.645   5.132  10.597
33813SOL     OW 1464   6.318   4.358  10.374
33813SOL    HW1 1465   6.377   4.332  10.298
33813SOL    HW2 1466   6.290   4.454  10.363
33814SOL     OW 1467   7.314   4.659  11.164
33814SOL    HW1 1468   7.268   4.652  11.075
33814SOL    HW2 1469   7.252   4.703  11.230
33815SOL     OW 1470   5.893   3.787   9.928
33815SOL    HW1 1471   5.882   3.881   9.961
33815SOL    HW2 1472   5.888   3.724  10.005
33816SOL     OW 1473   7.208   4.091   9.684
33816SOL    HW1 1474   7.210   4.015   9.748
33816SOL    HW2 1475   7.160   4.168   9.724
33817SOL     OW 1476   6.609   4.490  10.276
33817SOL    HW1 1477   6.624   4.511  10.372
33817SOL    HW2 1478   6.579   4.395  10.267
33818SOL     OW 1479   6.566   5.297  11.010
33818SOL    HW1 1480   6.546   5.341  10.922
33818SOL    HW2 1481   6.605   5.206  10.994
33819SOL     OW 1482   7.445   5.242  10.915
33819SOL    HW1 1483   7.459   5.269  10.820
33819SOL    HW2 1484   7.528   5.264  10.968
33820SOL     OW 1485   5.936   4.622  11.114
33820SOL    HW1 1486   6.012   4.666  11.162
33820SOL    HW2 1487   5.971   4.575  11.032
33821SOL     OW 1488   7.126   3.998   9.435
33821SOL    HW1 1489   7.065   3.923   9.458
33821SOL    HW2 1490   7.148   4.050   9.518
33822SOL     OW 1491   6.889   4.562   9.352
33822SOL    HW1 1492   6.923   4.469   9.367
33822SOL    HW2 1493   6.907   4.589   9.257
33823SOL     OW 1494   6.654   5.057  10.159
33823SOL    HW1 1495   6.661   4.973  10.104
33823SOL    HW2 1496   6.716   5.126  10.123
33824SOL     OW 1497   5.905   4.534  10.259
33824SOL    HW1 1498   5.998   4.570  10.264
33824SOL    HW2 1499   5.899   4.449  10.311
33825SOL     OW 1500   5.925   4.233  10.316
33825SOL    HW1 1501   5.873   4.150  10.299
33825SOL    HW2 1502   6.002   4.238  10.252
33826SOL     OW 1503   6.724   4.104  10.988
33826SOL    HW1 1504   6.679   4.167  11.052
33826SOL    HW2 1505   6.817   4.135  10.971
33827SOL     OW 1506   6.746   3.931  10.787
33827SOL    HW1 1507   6.746   3.995  10.864
33827SOL    HW2 1508   6.774   3.979  10.704
33828SOL     OW 1509   5.594   5.050   9.510
33828SOL    HW1 1510   5.501   5.071   9.479
33828SOL    HW2 1511   5.604   4.951   9.523
33829SOL     OW 1512   5.674   5.525  10.237
33829SOL    HW1 1513   5.632   5.439  10.210
33829SOL    HW2 1514   5.768   5.528  10.203
33830SOL     OW 1515   6.090   5.292  10.220
33830SOL    HW1 1516   6.156   5.366  10.229
33830SOL    HW2 1517   6.134   5.213  10.178
33831SOL     OW 1518   6.588   4.520  10.548
33831SOL    HW1 1519   6.629   4.488  10.634
33831SOL    HW2 1520   6.492   4.493  10.545
33832SOL     OW 1521   5.626   4.268  10.424
33832SOL    HW1 1522   5.711   4.235  10.383
33832SOL    HW2 1523   5.639   4.283  10.522
33833SOL     OW 1524   5.775   4.244  11.032
33833SOL    HW1 1525   5.834   4.204  10.962
33833SOL    HW2 1526   5.717   4.315  10.991
33834SOL     OW 1527   6.955   4.674  10.970
33834SOL    HW1 1528   6.994   4.763  10.990
33834SOL    HW2 1529   6.965   4.654  10.873
33835SOL     OW 1530   6.401   4.296   9.635
33835SOL    HW1 1531   6.408   4.207   9.589
33835SOL    HW2 1532   6.307   4.330   9.627
33836SOL     OW 1533   7.243   4.328  10.516
33836SOL    HW1 1534   7.205   4.259  10.578
33836SOL    HW2 1535   7.325   4.292  10.472
33837SOL     OW 1536   5.838   5.288  11.054
33837SOL    HW1 1537   5.808   5.345  11.130
33837SOL    HW2 1538   5.831   5.191  11.080
33838SOL     OW 1539   6.257   4.188  10.579
33838SOL    HW1 1540   6.223   4.099  10.549
33838SOL    HW2 1541   6.283   4.242  10.499
33839SOL     OW 1542   6.516   5.402  10.775
33839SOL    HW1 1543   6.492   5.384  10.680
33839SOL    HW2 1544   6.546   5.496  10.785
33840SOL     OW 1545   6.059   4.224   9.501
33840SOL    HW1 1546   6.120   4.304   9.505
33840SOL    HW2 1547   5.964   4.255   9.508
33841SOL     OW 1548   5.745   4.861  10.776
33841SOL    HW1 1549   5.767   4.800  10.852
33841SOL    HW2 1550   5.755   4.812  10.690
33842SOL     OW 1551   6.933   4.783  10.544
33842SOL    HW1 1552   6.957   4.720  10.470
33842SOL    HW2 1553   6.843   4.823  10.526
33843SOL     OW 1554   6.888   4.579   9.619
33843SOL    HW1 1555   6.802   4.548   9.661
33843SOL    HW2 1556   6.884   4.565   9.520
33844SOL     OW 1557   7.345   5.471  10.464
33844SOL    HW1 1558   7.406   5.501  10.391
33844SOL    HW2 1559   7.307   5.382  10.442
33845SOL     OW 1560   6.838   5.455  10.438
33845SOL    HW1 1561   6.922   5.460  10.384
33845SOL    HW2 1562   6.815   5.359  10.456
33846SOL     OW 1563   5.669   4.982  10.332
33846SOL    HW1 1564   5.664   4.981  10.432
33846SOL    HW2 1565   5.586   4.941  10.294
33847SOL     OW 1566   6.274   5.386  11.026
33847SOL    HW1 1567   6.218   5.467  11.035
33847SOL    HW2 1568   6.326   5.390  10.940
33848SOL     OW 1569   7.312   3.859   9.833
33848SOL    HW1 1570   7.385   3.842   9.766
33848SOL    HW2 1571   7.281   3.772   9.871
33849SOL     OW 1572   6.974   5.297   9.787
33849SOL    HW1 1573   7.041   5.309   9.713
33849SOL    HW2 1574   6.934   5.386   9.810
33850SOL     OW 1575   5.716   5.518  11.161
33850SOL    HW1 1576   5.675   5.444  11.214
33850SOL    HW2 1577   5.780   5.569  11.219
33851SOL     OW 1578   6.866   4.651   9.982
33851SOL    HW1 1579   6.926   4.570   9.984
33851SOL    HW2 1580   6.906   4.720   9.922
33852SOL     OW 1581   6.416   4.997  10.732
33852SOL    HW1 1582   6.411   5.030  10.827
33852SOL    HW2 1583   6.330   5.016  10.686
33853SOL     OW 1584   6.258   5.340   9.464
33853SOL    HW1 1585   6.267   5.350   9.365
33853SOL    HW2 1586   6.218   5.251   9.485
33854SOL     OW 1587   7.236   5.444  10.704
33854SOL    HW1 1588   7.289   5.454  10.620
33854SOL    HW2 1589   7.209   5.534  10.738
33855SOL     OW 1590   7.427   3.899  10.273
33855SOL    HW1 1591   7.466   3.814  10.237
33855SOL    HW2 1592   7.329   3.901  10.254
33856SOL     OW 1593   5.849   4.050  10.030
33856SOL    HW1 1594   5.770   4.101   9.996
33856SOL    HW2 1595   5.840   4.035  10.128
33857SOL     OW 1596   6.780   5.336   9.341
33857SOL    HW1 1597   6.786   5.243   9.378
33857SOL    HW2 1598   6.721   5.336   9.261
33858SOL     OW 1599   6.408   4.726  10.682
33858SOL    HW1 1600   6.448   4.725  10.590
33858SOL    HW2 1601   6.418   4.818  10.722
33859SOL     OW 1602   6.502   4.634   9.601
33859SOL    HW1 1603   6.565   4.672   9.533
33859SOL    HW2 1604   6.542   4.551   9.640
33860SOL     OW 1605   7.090   5.331   9.354
33860SOL    HW1 1606   6.998   5.368   9.361
33860SOL    HW2 1607   7.128   5.351   9.264
33861SOL     OW 1608   5.958   5.012  10.800
33861SOL    HW1 1609   5.945   5.105  10.766
33861SOL    HW2 1610   5.874   4.960  10.787
33862SOL     OW 1611   7.200   5.016  10.599
33862SOL    HW1 1612   7.260   5.019  10.679
33862SOL    HW2 1613   7.125   5.080  10.612
33863SOL     OW 1614   6.625   4.822  10.006
33863SOL    HW1 1615   6.555   4.775  10.060
33863SOL    HW2 1616   6.684   4.754   9.963
33864SOL     OW 1617   6.600   3.960  10.281
33864SOL    HW1 1618   6.592   3.924  10.188
33864SOL    HW2 1619   6.598   3.884  10.346
33865SOL     OW 1620   6.176   5.211   9.801
33865SOL    HW1 1621   6.218   5.153   9.731
33865SOL    HW2 1622   6.132   5.290   9.757
33866SOL     OW 1623   7.295   4.109  10.691
33866SOL    HW1 1624   7.368   4.178  10.695
33866SOL    HW2 1625   7.323   4.034  10.632
33867SOL     OW 1626   5.841   5.072   9.600
33867SOL    HW1 1627   5.745   5.073   9.573
33867SOL    HW2 1628   5.853   5.125   9.684
33868SOL     OW 1629   5.691   4.737  11.036
33868SOL    HW1 1630   5.614   4.704  11.090
33868SOL    HW2 1631   5.776   4.707  11.078
33869SOL     OW 1632   6.258   3.927  10.799
33869SOL    HW1 1633   6.348   3.911  10.759
33869SOL    HW2 1634   6.266   3.932  10.898
33870SOL     OW 1635   5.661   4.069   9.343
33870SOL    HW1 1636   5.569   4.041   9.314
33870SOL    HW2 1637   5.692   4.146   9.287
33871SOL     OW 1638   7.026   4.580  10.708
33871SOL    HW1 1639   6.969   4.632  10.645
33871SOL    HW2 1640   7.122   4.592  10.684
33872SOL     OW 1641   5.658   3.890   9.628
33872SOL    HW1 1642   5.641   3.973   9.574
33872SOL    HW2 1643   5.748   3.853   9.606
33873SOL     OW 1644   6.769   5.059   9.429
33873SOL    HW1 1645   6.670   5.048   9.431
33873SOL    HW2 1646   6.803   5.074   9.522
33874SOL     OW 1647   6.199   4.566  10.741
33874SOL    HW1 1648   6.255   4.647  10.724
33874SOL    HW2 1649   6.258   4.486  10.744
33875SOL     OW 1650   7.079   5.491  10.269
33875SOL    HW1 1651   7.112   5.555  10.200
33875SOL    HW2 1652   7.145   5.485  10.344
33876SOL     OW 1653   6.302   4.289  11.018
33876SOL    HW1 1654   6.321   4.354  11.092
33876SOL    HW2 1655   6.362   4.209  11.027
33877SOL     OW 1656   7.036   4.944  10.943
33877SOL    HW1 1657   7.027   4.934  11.042
33877SOL    HW2 1658   7.132   4.937  10.917
33878SOL     OW 1659   5.976   5.465  10.870
33878SOL    HW1 1660   5.885   5.506  10.868
33878SOL    HW2 1661   5.969   5.371  10.902
33879SOL     OW 1662   7.260   4.607  10.564
33879SOL    HW1 1663   7.233   4.518  10.527
33879SOL    HW2 1664   7.261   4.675  10.491
33880SOL     OW 1665   6.811   4.049   9.759
33880SOL    HW1 1666   6.876   3.975   9.748
33880SOL    HW2 1667   6.831   4.099   9.843
33881SOL     OW 1668   6.180   4.469   9.962
33881SOL    HW1 1669   6.230   4.554   9.943
33881SOL    HW2 1670   6.092   4.471   9.914
33882SOL     OW 1671   7.363   4.066  10.952
33882SOL    HW1 1672   7.346   4.097  10.858
33882SOL    HW2 1673   7.279   4.029  10.990
33883SOL     OW 1674   7.316   4.658  10.827
33883SOL    HW1 1675   7.354   4.749  10.842
33883SOL    HW2 1676   7.308   4.641  10.728
33884SOL     OW 1677   6.445   5.098   9.326
33884SOL    HW1 1678   6.399   5.113   9.414
33884SOL    HW2 1679   6.489   5.183   9.296
33885SOL     OW 1680   6.247   5.514  10.263
33885SOL    HW1 1681   6.201   5.602  10.250
33885SOL    HW2 1682   6.346   5.526  10.256
33886SOL     OW 1683   6.445   4.680  10.171
33886SOL    HW1 1684   6.499   4.611  10.219
33886SOL    HW2 1685   6.413   4.749  10.237
33887SOL     OW 1686   6.669   4.708   9.397
33887SOL    HW1 1687   6.646   4.761   9.315
33887SOL    HW2 1688   6.750   4.652   9.378
33888SOL     OW 1689   7.447   5.293  10.161
33888SOL    HW1 1690   7.376   5.281  10.091
33888SOL    HW2 1691   7.448   5.214  10.221
33889SOL     OW 1692   5.807   5.038  11.154
33889SOL    HW1 1693   5.742   4.965  11.133
33889SOL    HW2 1694   5.811   5.052  11.252
33890SOL     OW 1695   5.665   4.964   9.963
33890SOL    HW1 1696   5.664   4.917  10.051
33890SOL    HW2 1697   5.747   4.936   9.912
33891SOL     OW 1698   6.258   5.115  10.934
33891SOL    HW1 1699   6.180   5.065  10.972
33891SOL    HW2 1700   6.255   5.210  10.965
33892SOL     OW 1701   7.410   3.916  10.537
33892SOL    HW1 1702   7.406   3.826  10.581
33892SOL    HW2 1703   7.413   3.905  10.438
33893SOL     OW 1704   6.014   4.148   9.830
33893SOL    HW1 1705   6.044   4.076   9.768
33893SOL    HW2 1706   5.975   4.108   9.913
33894SOL     OW 1707   7.291   5.211  10.414
33894SOL    HW1 1708   7.198   5.186  10.387
33894SOL    HW2 1709   7.317   5.161  10.496
33895SOL     OW 1710   5.903   4.271  10.590
33895SOL    HW1 1711   5.941   4.212  10.662
33895SOL    HW2 1712   5.943   4.245  10.502
33896SOL     OW 1713   6.398   5.310   9.997
33896SOL    HW1 1714   6.430   5.320   9.903
33896SOL    HW2 1715   6.319   5.248   9.999
33897SOL     OW 1716   7.010   3.938  10.422
33897SOL    HW1 1717   7.062   3.873  10.477
33897SOL    HW2 1718   6.961   4.001  10.483
33898SOL     OW 1719   6.587   3.758  10.464
33898SOL    HW1 1720   6.524   3.686  10.433
33898SOL    HW2 1721   6.680   3.722  10.464
33899SOL     OW 1722   6.356   5.054   9.611
33899SOL    HW1 1723   6.310   4.967   9.628
33899SOL    HW2 1724   6.447   5.051   9.652
33900SOL     OW 1725   6.204   5.291  10.594
33900SOL    HW1 1726   6.199   5.373  10.651
33900SOL    HW2 1727   6.293   5.288  10.549
33901SOL     OW 1728   6.938   3.776   9.478
33901SOL    HW1 1729   6.973   3.735   9.394
33901SOL    HW2 1730   6.848   3.738   9.498
33902SOL     OW 1731   6.886   4.177  10.001
33902SOL    HW1 1732   6.827   4.257  10.005
33902SOL    HW2 1733   6.901   4.142  10.094
33903SOL     OW 1734   7.179   3.945  10.192
33903SOL    HW1 1735   7.095   3.944  10.246
33903SOL    HW2 1736   7.181   4.028  10.136
33904SOL     OW 1737   5.625   4.801   9.610
33904SOL    HW1 1738   5.724   4.790   9.601
33904SOL    HW2 1739   5.585   4.715   9.642
33905SOL     OW 1740   6.461   5.370   9.647
33905SOL    HW1 1741   6.384   5.335   9.593
33905SOL    HW2 1742   6.429   5.441   9.709
33906SOL     OW 1743   5.816   4.352  11.285
33906SOL    HW1 1744   5.723   4.350  11.322
33906SOL    HW2 1745   5.817   4.313  11.193
33907SOL     OW 1746   5.811   3.999  12.168
33907SOL    HW1 1747   5.846   3.982  12.260
33907SOL    HW2 1748   5.723   3.954  12.156
33908SOL     OW 1749   5.605   4.092  11.819
33908SOL    HW1 1750   5.523   4.135  11.858
33908SOL    HW2 1751   5.577   4.019  11.756
33909SOL     OW 1752   6.155   4.999  12.337
33909SOL    HW1 1753   6.062   4.992  12.300
33909SOL    HW2 1754   6.166   5.088  12.381
33910SOL     OW 1755   7.141   5.235  11.875
33910SOL    HW1 1756   7.084   5.219  11.956
33910SOL    HW2 1757   7.082   5.245  11.795
33911SOL     OW 1758   6.721   4.427  11.889
33911SOL    HW1 1759   6.778   4.505  11.864
33911SOL    HW2 1760   6.661   4.453  11.965
33912SOL     OW 1761   7.341   4.331  11.403
33912SOL    HW1 1762   7.329   4.318  11.304
33912SOL    HW2 1763   7.311   4.250  11.452
33913SOL     OW 1764   6.354   4.868  12.195
33913SOL    HW1 1765   6.276   4.885  12.255
33913SOL    HW2 1766   6.388   4.955  12.159
33914SOL     OW 1767   6.271   4.736  11.837
33914SOL    HW1 1768   6.340   4.720  11.907
33914SOL    HW2 1769   6.198   4.793  11.875
33915SOL     OW 1770   5.921   5.159  12.233
33915SOL    HW1 1771   5.843   5.128  12.180
33915SOL    HW2 1772   5.979   5.217  12.176
33916SOL     OW 1773   7.046   5.229  12.511
33916SOL    HW1 1774   7.070   5.323  12.537
33916SOL    HW2 1775   7.030   5.175  12.593
33917SOL     OW 1776   6.024   4.116  12.671
33917SOL    HW1 1777   6.106   4.060  12.680
33917SOL    HW2 1778   5.943   4.058  12.675
33918SOL     OW 1779   7.189   4.171  11.909
33918SOL    HW1 1780   7.115   4.217  11.859
33918SOL    HW2 1781   7.240   4.239  11.962
33919SOL     OW 1782   5.817   5.437  11.655
33919SOL    HW1 1783   5.851   5.514  11.709
33919SOL    HW2 1784   5.861   5.437  11.565
33920SOL     OW 1785   5.816   5.158  11.710
33920SOL    HW1 1786   5.790   5.254  11.710
33920SOL    HW2 1787   5.745   5.104  11.755
33921SOL     OW 1788   5.826   4.815  12.058
33921SOL    HW1 1789   5.840   4.731  12.110
33921SOL    HW2 1790   5.771   4.879  12.113
33922SOL     OW 1791   6.206   5.510  12.611
33922SOL    HW1 1792   6.114   5.493  12.646
33922SOL    HW2 1793   6.234   5.602  12.637
33923SOL     OW 1794   6.192   4.688  11.295
33923SOL    HW1 1795   6.199   4.772  11.241
33923SOL    HW2 1796   6.238   4.701  11.383
33924SOL     OW 1797   7.180   3.838  12.652
33924SOL    HW1 1798   7.162   3.905  12.580
33924SOL    HW2 1799   7.177   3.884  12.741
33925SOL     OW 1800   5.708   4.367  11.735
33925SOL    HW1 1801   5.663   4.279  11.752
33925SOL    HW2 1802   5.707   4.421  11.819
33926SOL     OW 1803   7.428   5.491  11.531
33926SOL    HW1 1804   7.482   5.462  11.611
33926SOL    HW2 1805   7.458   5.581  11.502
33927SOL     OW 1806   5.613   5.320  11.289
33927SOL    HW1 1807   5.594   5.224  11.310
33927SOL    HW2 1808   5.580   5.378  11.364
33928SOL     OW 1809   7.275   4.646  11.784
33928SOL    HW1 1810   7.370   4.617  11.792
33928SOL    HW2 1811   7.267   4.711  11.709
33929SOL     OW 1812   7.227   4.832  11.604
33929SOL    HW1 1813   7.313   4.834  11.552
33929SOL    HW2 1814   7.241   4.879  11.692
33930SOL     OW 1815   6.199   5.089  11.898
33930SOL    HW1 1816   6.150   5.002  11.907
33930SOL    HW2 1817   6.176   5.132  11.811
33931SOL     OW 1818   6.395   3.728  11.674
33931SOL    HW1 1819   6.435   3.819  11.665
33931SOL    HW2 1820   6.295   3.736  11.680
33932SOL     OW 1821   5.783   4.700  12.436
33932SOL    HW1 1822   5.872   4.655  12.422
33932SOL    HW2 1823   5.710   4.635  12.417
33933SOL     OW 1824   7.111   4.723  11.362
33933SOL    HW1 1825   7.048   4.647  11.375
33933SOL    HW2 1826   7.159   4.741  11.448
33934SOL     OW 1827   5.903   3.975  12.973
33934SOL    HW1 1828   5.974   4.046  12.979
33934SOL    HW2 1829   5.815   4.014  13.001
33935SOL     OW 1830   7.052   5.141  12.125
33935SOL    HW1 1831   6.993   5.147  12.205
33935SOL    HW2 1832   7.037   5.053  12.079
33936SOL     OW 1833   7.253   5.438  11.744
33936SOL    HW1 1834   7.212   5.415  11.656
33936SOL    HW2 1835   7.235   5.364  11.809
33937SOL     OW 1836   6.184   4.453  11.442
33937SOL    HW1 1837   6.208   4.522  11.374
33937SOL    HW2 1838   6.106   4.486  11.496
33938SOL     OW 1839   6.867   4.069  12.116
33938SOL    HW1 1840   6.781   4.019  12.103
33938SOL    HW2 1841   6.929   4.015  12.172
33939SOL     OW 1842   7.162   5.386  11.479
33939SOL    HW1 1843   7.251   5.432  11.482
33939SOL    HW2 1844   7.141   5.362  11.384
33940SOL     OW 1845   6.393   4.329  12.637
33940SOL    HW1 1846   6.346   4.326  12.726
33940SOL    HW2 1847   6.342   4.274  12.571
33941SOL     OW 1848   6.577   4.134  12.414
33941SOL    HW1 1849   6.500   4.168  12.468
33941SOL    HW2 1850   6.543   4.083  12.335
33942SOL     OW 1851   6.627   4.425  11.601
33942SOL    HW1 1852   6.653   4.421  11.697
33942SOL    HW2 1853   6.542   4.374  11.587
33943SOL     OW 1854   5.662   4.535  11.961
33943SOL    HW1 1855   5.761   4.523  11.970
33943SOL    HW2 1856   5.638   4.630  11.982
33944SOL     OW 1857   5.716   5.545  12.743
33944SOL    HW1 1858   5.706   5.530  12.842
33944SOL    HW2 1859   5.630   5.581  12.707
33945SOL     OW 1860   6.451   4.072  11.367
33945SOL    HW1 1861   6.510   4.135  11.318
33945SOL    HW2 1862   6.470   3.978  11.338
33946SOL     OW 1863   6.948   4.868  11.717
33946SOL    HW1 1864   7.031   4.839  11.669
33946SOL    HW2 1865   6.899   4.935  11.661
33947SOL     OW 1866   6.136   3.920  12.057
33947SOL    HW1 1867   6.131   3.915  12.157
33947SOL    HW2 1868   6.138   4.016  12.028
33948SOL     OW 1869   6.594   5.180  11.649
33948SOL    HW1 1870   6.548   5.252  11.597
33948SOL    HW2 1871   6.590   5.200  11.747
33949SOL     OW 1872   5.937   5.525  12.025
33949SOL    HW1 1873   5.987   5.439  12.031
33949SOL    HW2 1874   6.002   5.602  12.022
33950SOL     OW 1875   7.381   4.790  12.045
33950SOL    HW1 1876   7.319   4.775  11.969
33950SOL    HW2 1877   7.329   4.801  12.130
33951SOL     OW 1878   5.907   4.667  11.414
33951SOL    HW1 1879   5.989   4.706  11.372
33951SOL    HW2 1880   5.880   4.585  11.365
33952SOL     OW 1881   7.044   4.459  11.900
33952SOL    HW1 1882   7.039   4.394  11.975
33952SOL    HW2 1883   7.124   4.518  11.913
33953SOL     OW 1884   6.697   5.500  11.409
33953SOL    HW1 1885   6.637   5.438  11.459
33953SOL    HW2 1886   6.728   5.456  11.324
33954SOL     OW 1887   5.788   4.009  12.670
33954SOL    HW1 1888   5.708   4.069  12.657
33954SOL    HW2 1889   5.778   3.960  12.756
33955SOL     OW 1890   7.218   5.101  11.253
33955SOL    HW1 1891   7.186   5.195  11.243
33955SOL    HW2 1892   7.142   5.038  11.241
33956SOL     OW 1893   6.050   5.467  11.495
33956SOL    HW1 1894   6.083   5.506  11.581
33956SOL    HW2 1895   6.126   5.460  11.430
33957SOL     OW 1896   6.986   3.831  11.598
33957SOL    HW1 1897   6.962   3.794  11.508
33957SOL    HW2 1898   7.085   3.847  11.602
33958SOL     OW 1899   5.835   5.509  12.413
33958SOL    HW1 1900   5.892   5.444  12.463
33958SOL    HW2 1901   5.819   5.476  12.320
33959SOL     OW 1902   6.526   5.422  12.076
33959SOL    HW1 1903   6.606   5.365  12.097
33959SOL    HW2 1904   6.477   5.382  11.999
33960SOL     OW 1905   5.968   4.424  11.652
33960SOL    HW1 1906   6.013   4.334  11.649
33960SOL    HW2 1907   5.874   4.413  11.685
33961SOL     OW 1908   6.200   3.846  11.289
33961SOL    HW1 1909   6.298   3.824  11.296
33961SOL    HW2 1910   6.169   3.829  11.196
33962SOL     OW 1911   6.474   5.238  12.367
33962SOL    HW1 1912   6.451   5.213  12.273
33962SOL    HW2 1913   6.535   5.169  12.406
33963SOL     OW 1914   6.389   5.126  12.096
33963SOL    HW1 1915   6.479   5.140  12.054
33963SOL    HW2 1916   6.318   5.128  12.025
33964SOL     OW 1917   6.508   4.227  12.071
33964SOL    HW1 1918   6.483   4.218  11.975
33964SOL    HW2 1919   6.556   4.145  12.102
33965SOL     OW 1920   6.125   3.788  11.684
33965SOL    HW1 1921   6.044   3.789  11.742
33965SOL    HW2 1922   6.128   3.871  11.629
33966SOL     OW 1923   7.020   4.912  11.213
33966SOL    HW1 1924   7.052   4.836  11.270
33966SOL    HW2 1925   6.928   4.939  11.243
33967SOL     OW 1926   5.883   3.759  11.343
33967SOL    HW1 1927   5.932   3.843  11.322
33967SOL    HW2 1928   5.945   3.694  11.388
33968SOL     OW 1929   6.521   3.960  11.652
33968SOL    HW1 1930   6.473   4.001  11.574
33968SOL    HW2 1931   6.620   3.958  11.633
33969SOL     OW 1932   6.813   5.294  11.965
33969SOL    HW1 1933   6.834   5.368  11.900
33969SOL    HW2 1934   6.881   5.294  12.038
33970SOL     OW 1935   6.045   4.876  11.913
33970SOL    HW1 1936   5.974   4.849  11.978
33970SOL    HW2 1937   6.019   4.848  11.820
33971SOL     OW 1938   6.857   5.521  11.763
33971SOL    HW1 1939   6.901   5.585  11.699
33971SOL    HW2 1940   6.807   5.573  11.833
33972SOL     OW 1941   6.618   4.273  11.188
33972SOL    HW1 1942   6.577   4.355  11.149
33972SOL    HW2 1943   6.682   4.299  11.261
33973SOL     OW 1944   5.664   4.280  12.558
33973SOL    HW1 1945   5.756   4.279  12.517
33973SOL    HW2 1946   5.658   4.354  12.625
33974SOL     OW 1947   6.147   3.946  12.319
33974SOL    HW1 1948   6.185   3.862  12.356
33974SOL    HW2 1949   6.059   3.965  12.363
33975SOL     OW 1950   6.452   4.178  11.814
33975SOL    HW1 1951   6.420   4.250  11.752
33975SOL    HW2 1952   6.476   4.097  11.761
33976SOL     OW 1953   6.603   3.763  11.925
33976SOL    HW1 1954   6.531   3.768  11.856
33976SOL    HW2 1955   6.579   3.694  11.994
33977SOL     OW 1956   7.015   4.897  12.039
33977SOL    HW1 1957   6.960   4.813  12.032
33977SOL    HW2 1958   7.041   4.926  11.947
33978SOL     OW 1959   7.052   4.314  12.164
33978SOL    HW1 1960   7.022   4.219  12.171
33978SOL    HW2 1961   7.125   4.330  12.230
33979SOL     OW 1962   7.443   4.557  11.549
33979SOL    HW1 1963   7.485   4.493  11.613
33979SOL    HW2 1964   7.405   4.506  11.471
33980SOL     OW 1965   6.074   5.109  11.346
33980SOL    HW1 1966   5.987   5.094  11.393
33980SOL    HW2 1967   6.057   5.135  11.251
33981SOL     OW 1968   7.250   5.004  11.829
33981SOL    HW1 1969   7.349   5.012  11.843
33981SOL    HW2 1970   7.205   5.088  11.860
33982SOL     OW 1971   6.976   4.299  11.250
33982SOL    HW1 1972   6.922   4.278  11.331
33982SOL    HW2 1973   7.067   4.258  11.259
33983SOL     OW 1974   6.113   3.980  11.500
33983SOL    HW1 1975   6.140   3.921  11.425
33983SOL    HW2 1976   6.113   4.075  11.469
33984SOL     OW 1977   6.650   5.071  12.512
33984SOL    HW1 1978   6.570   5.048  12.567
33984SOL    HW2 1979   6.733   5.045  12.561
33985SOL     OW 1980   6.697   4.919  12.272
33985SOL    HW1 1981   6.657   4.963  12.353
33985SOL    HW2 1982   6.656   4.956  12.189
33986SOL     OW 1983   7.224   4.823  12.251
33986SOL    HW1 1984   7.229   4.904  12.310
33986SOL    HW2 1985   7.138   4.825  12.200
33987SOL     OW 1986   6.501   3.813  12.574
33987SOL    HW1 1987   6.526   3.793  12.479
33987SOL    HW2 1988   6.573   3.869  12.616
33988SOL     OW 1989   6.291   4.774  11.540
33988SOL    HW1 1990   6.277   4.781  11.639
33988SOL    HW2 1991   6.375   4.723  11.522
33989SOL     OW 1992   5.996   4.537  12.423
33989SOL    HW1 1993   6.082   4.549  12.473
33989SOL    HW2 1994   5.954   4.450  12.450
33990SOL     OW 1995   6.860   4.110  12.434
33990SOL    HW1 1996   6.881   4.184  12.498
33990SOL    HW2 1997   6.771   4.127  12.391
33991SOL     OW 1998   5.650   5.288  12.503
33991SOL    HW1 1999   5.604   5.370  12.469
33991SOL    HW2 2000   5.748   5.307  12.512
33992SOL     OW 2001   5.953   4.824  11.673
33992SOL    HW1 2002   5.946   4.907  11.617
33992SOL    HW2 2003   5.957   4.744  11.613
33993SOL     OW 2004   6.152   4.261  12.037
33993SOL    HW1 2005   6.164   4.327  11.963
33993SOL    HW2 2006   6.198   4.295  12.120
33994SOL     OW 2007   6.838   5.072  11.560
33994SOL    HW1 2008   6.888   5.149  11.600
33994SOL    HW2 2009   6.743   5.074  11.592
33995SOL     OW 2010   6.858   5.169  12.314
33995SOL    HW1 2011   6.905   5.182  12.401
33995SOL    HW2 2012   6.792   5.095  12.323
33996SOL     OW 2013   7.168   4.363  11.644
33996SOL    HW1 2014   7.137   4.424  11.717
33996SOL    HW2 2015   7.218   4.415  11.575
33997SOL     OW 2016   5.940   5.234  12.501
33997SOL    HW1 2017   5.919   5.190  12.414
33997SOL    HW2 2018   6.037   5.260  12.504
33998SOL     OW 2019   5.988   4.475  12.770
33998SOL    HW1 2020   6.056   4.530  12.723
33998SOL    HW2 2021   6.028   4.387  12.797
33999SOL     OW 2022   7.173   4.503  12.842
33999SOL    HW1 2023   7.081   4.541  12.837
33999SOL    HW2 2024   7.233   4.550  12.777
34000SOL     OW 2025   6.159   4.594  12.201
34000SOL    HW1 2026   6.203   4.683  12.192
34000SOL    HW2 2027   6.096   4.594  12.278
34001SOL     OW 2028   6.946   4.586  12.217
34001SOL    HW1 2029   6.871   4.586  12.151
34001SOL    HW2 2030   6.983   4.494  12.226
34002SOL     OW 2031   6.795   4.249  11.447
34002SOL    HW1 2032   6.808   4.165  11.501
34002SOL    HW2 2033   6.766   4.323  11.507
34003SOL     OW 2034   5.893   3.937  12.403
34003SOL    HW1 2035   5.870   3.974  12.493
34003SOL    HW2 2036   5.863   3.842  12.397
34004SOL     OW 2037   5.623   5.034  12.454
34004SOL    HW1 2038   5.676   4.985  12.522
34004SOL    HW2 2039   5.645   5.132  12.459
34005SOL     OW 2040   6.318   4.358  12.236
34005SOL    HW1 2041   6.377   4.332  12.160
34005SOL    HW2 2042   6.290   4.454  12.225
34006SOL     OW 2043   5.893   3.787  11.790
34006SOL    HW1 2044   5.882   3.881  11.823
34006SOL    HW2 2045   5.888   3.724  11.867
34007SOL     OW 2046   7.208   4.091  11.546
34007SOL    HW1 2047   7.210   4.015  11.610
34007SOL    HW2 2048   7.160   4.168  11.586
34008SOL     OW 2049   6.609   4.490  12.138
34008SOL    HW1 2050   6.624   4.511  12.234
34008SOL    HW2 2051   6.579   4.395  12.129
34009SOL     OW 2052   6.566   5.297  12.872
34009SOL    HW1 2053   6.546   5.341  12.784
34009SOL    HW2 2054   6.605   5.206  12.856
34010SOL     OW 2055   7.126   3.998  11.297
34010SOL    HW1 2056   7.065   3.923  11.320
34010SOL    HW2 2057   7.148   4.050  11.380
34011SOL     OW 2058   6.889   4.562  11.214
34011SOL    HW1 2059   6.923   4.469  11.229
34011SOL    HW2 2060   6.907   4.589  11.119
34012SOL     OW 2061   6.654   5.057  12.021
34012SOL    HW1 2062   6.661   4.973  11.966
34012SOL    HW2 2063   6.716   5.126  11.985
34013SOL     OW 2064   5.905   4.534  12.121
34013SOL    HW1 2065   5.998   4.570  12.126
34013SOL    HW2 2066   5.899   4.449  12.173
34014SOL     OW 2067   5.925   4.233  12.178
34014SOL    HW1 2068   5.873   4.150  12.161
34014SOL    HW2 2069   6.002   4.238  12.114
34015SOL     OW 2070   6.724   4.104  12.850
34015SOL    HW1 2071   6.679   4.167  12.914
34015SOL    HW2 2072   6.817   4.135  12.833
34016SOL     OW 2073   6.746   3.931  12.649
34016SOL    HW1 2074   6.746   3.995  12.726
34016SOL    HW2 2075   6.774   3.979  12.566
34017SOL     OW 2076   5.594   5.050  11.372
34017SOL    HW1 2077   5.501   5.071  11.341
34017SOL    HW2 2078   5.604   4.951  11.385
34018SOL     OW 2079   5.674   5.525  12.099
34018SOL    HW1 2080   5.632   5.439  12.072
34018SOL    HW2 2081   5.768   5.528  12.065
34019SOL     OW 2082   6.090   5.292  12.082
34019SOL    HW1 2083   6.156   5.366  12.091
34019SOL    HW2 2084   6.134   5.213  12.040
34020SOL     OW 2085   6.588   4.520  12.410
34020SOL    HW1 2086   6.629   4.488  12.496
34020SOL    HW2 2087   6.492   4.493  12.407
34021SOL     OW 2088   5.626   4.268  12.286
34021SOL    HW1 2089   5.711   4.235  12.245
34021SOL    HW2 2090   5.639   4.283  12.384
34022SOL     OW 2091   6.401   4.296  11.497
34022SOL    HW1 2092   6.408   4.207  11.451
34022SOL    HW2 2093   6.307   4.330  11.489
34023SOL     OW 2094   7.243   4.328  12.378
34023SOL    HW1 2095   7.205   4.259  12.440
34023SOL    HW2 2096   7.325   4.292  12.334
34024SOL     OW 2097   6.257   4.188  12.441
34024SOL    HW1 2098   6.223   4.099  12.411
34024SOL    HW2 2099   6.283   4.242  12.361
34025SOL     OW 2100   6.516   5.402  12.637
34025SOL    HW1 2101   6.492   5.384  12.542
34025SOL    HW2 2102   6.546   5.496  12.647
34026SOL     OW 2103   6.059   4.224  11.363
34026SOL    HW1 2104   6.120   4.304  11.367
34026SOL    HW2 2105   5.964   4.255  11.370
34027SOL     OW 2106   5.745   4.861  12.638
34027SOL    HW1 2107   5.767   4.800  12.714
34027SOL    HW2 2108   5.755   4.812  12.552
34028SOL     OW 2109   6.933   4.783  12.406
34028SOL    HW1 2110   6.957   4.720  12.332
34028SOL    HW2 2111   6.843   4.823  12.388
34029SOL     OW 2112   6.888   4.579  11.481
34029SOL    HW1 2113   6.802   4.548  11.523
34029SOL    HW2 2114   6.884   4.565  11.382
34030SOL     OW 2115   7.345   5.471  12.326
34030SOL    HW1 2116   7.406   5.501  12.253
34030SOL    HW2 2117   7.307   5.382  12.304
34031SOL     OW 2118   6.838   5.455  12.300
34031SOL    HW1 2119   6.922   5.460  12.246
34031SOL    HW2 2120   6.815   5.359  12.318
34032SOL     OW 2121   5.669   4.982  12.194
34032SOL    HW1 2122   5.664   4.981  12.294
34032SOL    HW2 2123   5.586   4.941  12.156
34033SOL     OW 2124   7.312   3.859  11.695
34033SOL    HW1 2125   7.385   3.842  11.628
34033SOL    HW2 2126   7.281   3.772  11.733
34034SOL     OW 2127   6.974   5.297  11.649
34034SOL    HW1 2128   7.041   5.309  11.575
34034SOL    HW2 2129   6.934   5.386  11.672
34035SOL     OW 2130   6.866   4.651  11.844
34035SOL    HW1 2131   6.926   4.570  11.846
34035SOL    HW2 2132   6.906   4.720  11.784
34036SOL     OW 2133   6.258   5.340  11.326
34036SOL    HW1 2134   6.267   5.350  11.227
34036SOL    HW2 2135   6.218   5.251  11.347
34037SOL     OW 2136   7.236   5.444  12.566
34037SOL    HW1 2137   7.289   5.454  12.482
34037SOL    HW2 2138   7.209   5.534  12.600
34038SOL     OW 2139   7.427   3.899  12.135
34038SOL    HW1 2140   7.466   3.814  12.099
34038SOL    HW2 2141   7.329   3.901  12.116
34039SOL     OW 2142   5.849   4.050  11.892
34039SOL    HW1 2143   5.770   4.101  11.858
34039SOL    HW2 2144   5.840   4.035  11.990
34040SOL     OW 2145   6.780   5.336  11.203
34040SOL    HW1 2146   6.786   5.243  11.240
34040SOL    HW2 2147   6.721   5.336  11.123
34041SOL     OW 2148   6.408   4.726  12.544
34041SOL    HW1 2149   6.448   4.725  12.452
34041SOL    HW2 2150   6.418   4.818  12.584
34042SOL     OW 2151   6.502   4.634  11.463
34042SOL    HW1 2152   6.565   4.672  11.395
34042SOL    HW2 2153   6.542   4.551  11.502
34043SOL     OW 2154   7.090   5.331  11.216
34043SOL    HW1 2155   6.998   5.368  11.223
34043SOL    HW2 2156   7.128   5.351  11.126
34044SOL     OW 2157   5.958   5.012  12.662
34044SOL    HW1 2158   5.945   5.105  12.628
34044SOL    HW2 2159   5.874   4.960  12.649
34045SOL     OW 2160   7.200   5.016  12.461
34045SOL    HW1 2161   7.260   5.019  12.541
34045SOL    HW2 2162   7.125   5.080  12.474
34046SOL     OW 2163   6.625   4.822  11.868
34046SOL    HW1 2164   6.555   4.775  11.922
34046SOL    HW2 2165   6.684   4.754  11.825
34047SOL     OW 2166   6.600   3.960  12.143
34047SOL    HW1 2167   6.592   3.924  12.050
34047SOL    HW2 2168   6.598   3.884  12.208
34048SOL     OW 2169   6.176   5.211  11.663
34048SOL    HW1 2170   6.218   5.153  11.593
34048SOL    HW2 2171   6.132   5.290  11.619
34049SOL     OW 2172   7.295   4.109  12.553
34049SOL    HW1 2173   7.368   4.178  12.557
34049SOL    HW2 2174   7.323   4.034  12.494
34050SOL     OW 2175   5.841   5.072  11.462
34050SOL    HW1 2176   5.745   5.073  11.435
34050SOL    HW2 2177   5.853   5.125  11.546
34051SOL     OW 2178   5.661   4.069  11.205
34051SOL    HW1 2179   5.569   4.041  11.176
34051SOL    HW2 2180   5.692   4.146  11.149
34052SOL     OW 2181   7.026   4.580  12.570
34052SOL    HW1 2182   6.969   4.632  12.507
34052SOL    HW2 2183   7.122   4.592  12.546
34053SOL     OW 2184   5.658   3.890  11.490
34053SOL    HW1 2185   5.641   3.973  11.436
34053SOL    HW2 2186   5.748   3.853  11.468
34054SOL     OW 2187   6.769   5.059  11.291
34054SOL    HW1 2188   6.670   5.048  11.293
34054SOL    HW2 2189   6.803   5.074  11.384
34055SOL     OW 2190   6.199   4.566  12.603
34055SOL    HW1 2191   6.255   4.647  12.586
34055SOL    HW2 2192   6.258   4.486  12.606
34056SOL     OW 2193   7.079   5.491  12.131
34056SOL    HW1 2194   7.112   5.555  12.062
34056SOL    HW2 2195   7.145   5.485  12.206
34057SOL     OW 2196   5.976   5.465  12.732
34057SOL    HW1 2197   5.885   5.506  12.730
34057SOL    HW2 2198   5.969   5.371  12.764
34058SOL     OW 2199   7.260   4.607  12.426
34058SOL    HW1 2200   7.233   4.518  12.389
34058SOL    HW2 2201   7.261   4.675  12.353
34059SOL     OW 2202   6.811   4.049  11.621
34059SOL    HW1 2203   6.876   3.975  11.610
34059SOL    HW2 2204   6.831   4.099  11.705
34060SOL     OW 2205   6.180   4.469  11.824
34060SOL    HW1 2206   6.230   4.554  11.805
34060SOL    HW2 2207   6.092   4.471  11.776
34061SOL     OW 2208   7.363   4.066  12.814
34061SOL    HW1 2209   7.346   4.097  12.720
34061SOL    HW2 2210   7.279   4.029  12.852
34062SOL     OW 2211   7.316   4.658  12.689
34062SOL    HW1 2212   7.354   4.749  12.704
34062SOL    HW2 2213   7.308   4.641  12.590
34063SOL     OW 2214   6.445   5.098  11.188
34063SOL    HW1 2215   6.399   5.113  11.276
34063SOL    HW2 2216   6.489   5.183  11.158
34064SOL     OW 2217   6.247   5.514  12.125
34064SOL    HW1 2218   6.201   5.602  12.112
34064SOL    HW2 2219   6.346   5.526  12.118
34065SOL     OW 2220   6.445   4.680  12.033
34065SOL    HW1 2221   6.499   4.611  12.081
34065SOL    HW2 2222   6.413   4.749  12.099
34066SOL     OW 2223   6.669   4.708  11.259
34066SOL    HW1 2224   6.646   4.761  11.177
34066SOL    HW2 2225   6.750   4.652  11.240
34067SOL     OW 2226   7.447   5.293  12.023
34067SOL    HW1 2227   7.376   5.281  11.953
34067SOL    HW2 2228   7.448   5.214  12.083
34068SOL     OW 2229   5.665   4.964  11.825
34068SOL    HW1 2230   5.664   4.917  11.913
34068SOL    HW2 2231   5.747   4.936  11.774
34069SOL     OW 2232   7.410   3.916  12.399
34069SOL    HW1 2233   7.406   3.826  12.443
34069SOL    HW2 2234   7.413   3.905  12.300
34070SOL     OW 2235   6.014   4.148  11.692
34070SOL    HW1 2236   6.044   4.076  11.630
34070SOL    HW2 2237   5.975   4.108  11.775
34071SOL     OW 2238   7.291   5.211  12.276
34071SOL    HW1 2239   7.198   5.186  12.249
34071SOL    HW2 2240   7.317   5.161  12.358
34072SOL     OW 2241   5.903   4.271  12.452
34072SOL    HW1 2242   5.941   4.212  12.524
34072SOL    HW2 2243   5.943   4.245  12.364
34073SOL     OW 2244   6.398   5.310  11.859
34073SOL    HW1 2245   6.430   5.320  11.765
34073SOL    HW2 2246   6.319   5.248  11.861
34074SOL     OW 2247   7.010   3.938  12.284
34074SOL    HW1 2248   7.062   3.873  12.339
34074SOL    HW2 2249   6.961   4.001  12.345
34075SOL     OW 2250   6.587   3.758  12.326
34075SOL    HW1 2251   6.524   3.686  12.295
34075SOL    HW2 2252   6.680   3.722  12.326
34076SOL     OW 2253   6.356   5.054  11.473
34076SOL    HW1 2254   6.310   4.967  11.490
34076SOL    HW2 2255   6.447   5.051  11.514
34077SOL     OW 2256   6.204   5.291  12.456
34077SOL    HW1 2257   6.199   5.373  12.513
34077SOL    HW2 2258   6.293   5.288  12.411
34078SOL     OW 2259   6.938   3.776  11.340
34078SOL    HW1 2260   6.973   3.735  11.256
34078SOL    HW2 2261   6.848   3.738  11.360
34079SOL     OW 2262   6.886   4.177  11.863
34079SOL    HW1 2263   6.827   4.257  11.867
34079SOL    HW2 2264   6.901   4.142  11.956
34080SOL     OW 2265   7.179   3.945  12.054
34080SOL    HW1 2266   7.095   3.944  12.108
34080SOL    HW2 2267   7.181   4.028  11.998
34081SOL     OW 2268   5.625   4.801  11.472
34081SOL    HW1 2269   5.724   4.790  11.463
34081SOL    HW2 2270   5.585   4.715  11.504
34082SOL     OW 2271   6.461   5.370  11.509
34082SOL    HW1 2272   6.384   5.335  11.455
34082SOL    HW2 2273   6.429   5.441  11.571
34083SOL     OW 2274   5.816   6.214   0.113
34083SOL    HW1 2275   5.723   6.212   0.150
34083SOL    HW2 2276   5.817   6.175   0.021
34084SOL     OW 2277   5.811   5.861   0.996
34084SOL    HW1 2278   5.846   5.844   1.088
34084SOL    HW2 2279   5.723   5.816   0.984
34085SOL     OW 2280   5.605   5.954   0.647
34085SOL    HW1 2281   5.523   5.997   0.686
34085SOL    HW2 2282   5.577   5.881   0.584
34086SOL     OW 2283   6.155   6.861   1.165
34086SOL    HW1 2284   6.062   6.854   1.128
34086SOL    HW2 2285   6.166   6.950   1.209
34087SOL     OW 2286   7.141   7.097   0.703
34087SOL    HW1 2287   7.084   7.081   0.784
34087SOL    HW2 2288   7.082   7.107   0.623
34088SOL     OW 2289   6.721   6.289   0.717
34088SOL    HW1 2290   6.778   6.367   0.692
34088SOL    HW2 2291   6.661   6.315   0.793
34089SOL     OW 2292   7.341   6.193   0.231
34089SOL    HW1 2293   7.329   6.180   0.132
34089SOL    HW2 2294   7.311   6.112   0.280
34090SOL     OW 2295   6.354   6.730   1.023
34090SOL    HW1 2296   6.276   6.747   1.083
34090SOL    HW2 2297   6.388   6.817   0.987
34091SOL     OW 2298   6.436   6.384   1.823
34091SOL    HW1 2299   6.432   6.460   1.888
34091SOL    HW2 2300   6.458   6.420   1.732
34092SOL     OW 2301   6.271   6.598   0.665
34092SOL    HW1 2302   6.340   6.582   0.735
34092SOL    HW2 2303   6.198   6.655   0.703
34093SOL     OW 2304   6.272   6.747   1.803
34093SOL    HW1 2305   6.332   6.826   1.817
34093SOL    HW2 2306   6.186   6.778   1.762
34094SOL     OW 2307   5.921   7.021   1.061
34094SOL    HW1 2308   5.843   6.990   1.008
34094SOL    HW2 2309   5.979   7.079   1.004
34095SOL     OW 2310   7.046   7.091   1.339
34095SOL    HW1 2311   7.070   7.185   1.365
34095SOL    HW2 2312   7.030   7.037   1.421
34096SOL     OW 2313   6.024   5.978   1.499
34096SOL    HW1 2314   6.106   5.922   1.508
34096SOL    HW2 2315   5.943   5.920   1.503
34097SOL     OW 2316   7.189   6.033   0.737
34097SOL    HW1 2317   7.115   6.079   0.687
34097SOL    HW2 2318   7.240   6.101   0.790
34098SOL     OW 2319   5.817   7.299   0.483
34098SOL    HW1 2320   5.851   7.376   0.537
34098SOL    HW2 2321   5.861   7.299   0.393
34099SOL     OW 2322   6.713   6.927   1.690
34099SOL    HW1 2323   6.760   6.927   1.778
34099SOL    HW2 2324   6.665   6.840   1.679
34100SOL     OW 2325   5.816   7.020   0.538
34100SOL    HW1 2326   5.790   7.116   0.538
34100SOL    HW2 2327   5.745   6.966   0.583
34101SOL     OW 2328   5.826   6.677   0.886
34101SOL    HW1 2329   5.840   6.593   0.938
34101SOL    HW2 2330   5.771   6.741   0.941
34102SOL     OW 2331   6.206   7.372   1.439
34102SOL    HW1 2332   6.114   7.355   1.474
34102SOL    HW2 2333   6.234   7.464   1.465
34103SOL     OW 2334   6.192   6.550   0.123
34103SOL    HW1 2335   6.199   6.634   0.069
34103SOL    HW2 2336   6.238   6.563   0.211
34104SOL     OW 2337   7.180   5.700   1.480
34104SOL    HW1 2338   7.162   5.767   1.408
34104SOL    HW2 2339   7.177   5.746   1.569
34105SOL     OW 2340   5.708   6.229   0.563
34105SOL    HW1 2341   5.663   6.141   0.580
34105SOL    HW2 2342   5.707   6.283   0.647
34106SOL     OW 2343   7.428   7.353   0.359
34106SOL    HW1 2344   7.482   7.324   0.439
34106SOL    HW2 2345   7.458   7.443   0.330
34107SOL     OW 2346   5.613   7.182   0.117
34107SOL    HW1 2347   5.594   7.086   0.138
34107SOL    HW2 2348   5.580   7.240   0.192
34108SOL     OW 2349   7.275   6.508   0.612
34108SOL    HW1 2350   7.370   6.479   0.620
34108SOL    HW2 2351   7.267   6.573   0.537
34109SOL     OW 2352   7.227   6.694   0.432
34109SOL    HW1 2353   7.313   6.696   0.380
34109SOL    HW2 2354   7.241   6.741   0.520
34110SOL     OW 2355   5.699   6.323   1.597
34110SOL    HW1 2356   5.787   6.310   1.642
34110SOL    HW2 2357   5.686   6.420   1.575
34111SOL     OW 2358   6.199   6.951   0.726
34111SOL    HW1 2359   6.150   6.864   0.735
34111SOL    HW2 2360   6.176   6.994   0.639
34112SOL     OW 2361   6.879   6.814   1.423
34112SOL    HW1 2362   6.916   6.741   1.365
34112SOL    HW2 2363   6.931   6.819   1.508
34113SOL     OW 2364   6.395   5.590   0.502
34113SOL    HW1 2365   6.435   5.681   0.493
34113SOL    HW2 2366   6.295   5.598   0.508
34114SOL     OW 2367   5.783   6.562   1.264
34114SOL    HW1 2368   5.872   6.517   1.250
34114SOL    HW2 2369   5.710   6.497   1.245
34115SOL     OW 2370   7.111   6.585   0.190
34115SOL    HW1 2371   7.048   6.509   0.203
34115SOL    HW2 2372   7.159   6.603   0.276
34116SOL     OW 2373   6.773   7.378   1.616
34116SOL    HW1 2374   6.797   7.438   1.540
34116SOL    HW2 2375   6.780   7.283   1.586
34117SOL     OW 2376   5.903   5.837   1.801
34117SOL    HW1 2377   5.974   5.908   1.807
34117SOL    HW2 2378   5.815   5.876   1.829
34118SOL     OW 2379   7.052   7.003   0.953
34118SOL    HW1 2380   6.993   7.009   1.033
34118SOL    HW2 2381   7.037   6.915   0.907
34119SOL     OW 2382   7.253   7.300   0.572
34119SOL    HW1 2383   7.212   7.277   0.484
34119SOL    HW2 2384   7.235   7.226   0.637
34120SOL     OW 2385   6.184   6.315   0.270
34120SOL    HW1 2386   6.208   6.384   0.202
34120SOL    HW2 2387   6.106   6.348   0.324
34121SOL     OW 2388   6.867   5.931   0.944
34121SOL    HW1 2389   6.781   5.881   0.931
34121SOL    HW2 2390   6.929   5.877   1.000
34122SOL     OW 2391   7.162   7.248   0.307
34122SOL    HW1 2392   7.251   7.294   0.310
34122SOL    HW2 2393   7.141   7.224   0.212
34123SOL     OW 2394   6.393   6.191   1.465
34123SOL    HW1 2395   6.346   6.188   1.554
34123SOL    HW2 2396   6.342   6.136   1.399
34124SOL     OW 2397   6.980   6.055   1.674
34124SOL    HW1 2398   6.960   6.098   1.762
34124SOL    HW2 2399   7.058   5.993   1.683
34125SOL     OW 2400   6.559   6.476   1.572
34125SOL    HW1 2401   6.605   6.392   1.543
34125SOL    HW2 2402   6.503   6.510   1.497
34126SOL     OW 2403   6.577   5.996   1.242
34126SOL    HW1 2404   6.500   6.030   1.296
34126SOL    HW2 2405   6.543   5.945   1.163
34127SOL     OW 2406   6.627   6.287   0.429
34127SOL    HW1 2407   6.653   6.283   0.525
34127SOL    HW2 2408   6.542   6.236   0.415
34128SOL     OW 2409   5.662   6.397   0.789
34128SOL    HW1 2410   5.761   6.385   0.798
34128SOL    HW2 2411   5.638   6.492   0.810
34129SOL     OW 2412   5.716   7.407   1.571
34129SOL    HW1 2413   5.706   7.392   1.670
34129SOL    HW2 2414   5.630   7.443   1.535
34130SOL     OW 2415   6.451   5.934   0.195
34130SOL    HW1 2416   6.510   5.997   0.146
34130SOL    HW2 2417   6.470   5.840   0.166
34131SOL     OW 2418   7.305   6.171   1.831
34131SOL    HW1 2419   7.279   6.260   1.795
34131SOL    HW2 2420   7.303   6.103   1.758
34132SOL     OW 2421   6.948   6.730   0.545
34132SOL    HW1 2422   7.031   6.701   0.497
34132SOL    HW2 2423   6.899   6.797   0.489
34133SOL     OW 2424   6.136   5.782   0.885
34133SOL    HW1 2425   6.131   5.777   0.985
34133SOL    HW2 2426   6.138   5.878   0.856
34134SOL     OW 2427   6.594   7.042   0.477
34134SOL    HW1 2428   6.548   7.114   0.425
34134SOL    HW2 2429   6.590   7.062   0.575
34135SOL     OW 2430   5.937   7.387   0.853
34135SOL    HW1 2431   5.987   7.301   0.859
34135SOL    HW2 2432   6.002   7.464   0.850
34136SOL     OW 2433   7.381   6.652   0.873
34136SOL    HW1 2434   7.319   6.637   0.797
34136SOL    HW2 2435   7.329   6.663   0.958
34137SOL     OW 2436   6.813   7.136   1.506
34137SOL    HW1 2437   6.819   7.059   1.570
34137SOL    HW2 2438   6.761   7.110   1.426
34138SOL     OW 2439   5.907   6.529   0.242
34138SOL    HW1 2440   5.989   6.568   0.200
34138SOL    HW2 2441   5.880   6.447   0.193
34139SOL     OW 2442   7.044   6.321   0.728
34139SOL    HW1 2443   7.039   6.256   0.803
34139SOL    HW2 2444   7.124   6.380   0.741
34140SOL     OW 2445   6.047   6.852   1.727
34140SOL    HW1 2446   5.997   6.853   1.641
34140SOL    HW2 2447   5.984   6.834   1.803
34141SOL     OW 2448   6.697   7.362   0.237
34141SOL    HW1 2449   6.637   7.300   0.287
34141SOL    HW2 2450   6.728   7.318   0.152
34142SOL     OW 2451   5.788   5.871   1.498
34142SOL    HW1 2452   5.708   5.931   1.485
34142SOL    HW2 2453   5.778   5.822   1.584
34143SOL     OW 2454   7.218   6.963   0.081
34143SOL    HW1 2455   7.186   7.057   0.071
34143SOL    HW2 2456   7.142   6.900   0.069
34144SOL     OW 2457   6.050   7.329   0.323
34144SOL    HW1 2458   6.083   7.368   0.409
34144SOL    HW2 2459   6.126   7.322   0.258
34145SOL     OW 2460   6.986   5.693   0.426
34145SOL    HW1 2461   6.962   5.656   0.336
34145SOL    HW2 2462   7.085   5.709   0.430
34146SOL     OW 2463   5.835   7.371   1.241
34146SOL    HW1 2464   5.892   7.306   1.291
34146SOL    HW2 2465   5.819   7.338   1.148
34147SOL     OW 2466   6.526   7.284   0.904
34147SOL    HW1 2467   6.606   7.227   0.925
34147SOL    HW2 2468   6.477   7.244   0.827
34148SOL     OW 2469   5.968   6.286   0.480
34148SOL    HW1 2470   6.013   6.196   0.477
34148SOL    HW2 2471   5.874   6.275   0.513
34149SOL     OW 2472   7.133   5.808   1.729
34149SOL    HW1 2473   7.128   5.845   1.821
34149SOL    HW2 2474   7.061   5.739   1.717
34150SOL     OW 2475   6.200   5.708   0.117
34150SOL    HW1 2476   6.298   5.686   0.124
34150SOL    HW2 2477   6.169   5.691   0.024
34151SOL     OW 2478   6.367   5.850   1.749
34151SOL    HW1 2479   6.434   5.789   1.792
34151SOL    HW2 2480   6.294   5.869   1.814
34152SOL     OW 2481   6.474   7.100   1.195
34152SOL    HW1 2482   6.451   7.075   1.101
34152SOL    HW2 2483   6.535   7.031   1.234
34153SOL     OW 2484   6.937   6.176   1.433
34153SOL    HW1 2485   6.965   6.133   1.518
34153SOL    HW2 2486   6.962   6.272   1.434
34154SOL     OW 2487   6.389   6.988   0.924
34154SOL    HW1 2488   6.479   7.002   0.882
34154SOL    HW2 2489   6.318   6.990   0.853
34155SOL     OW 2490   6.508   6.089   0.899
34155SOL    HW1 2491   6.483   6.080   0.803
34155SOL    HW2 2492   6.556   6.007   0.930
34156SOL     OW 2493   6.125   5.650   0.512
34156SOL    HW1 2494   6.044   5.651   0.570
34156SOL    HW2 2495   6.128   5.733   0.457
34157SOL     OW 2496   7.020   6.774   0.041
34157SOL    HW1 2497   7.052   6.698   0.098
34157SOL    HW2 2498   6.928   6.801   0.071
34158SOL     OW 2499   5.883   5.621   0.171
34158SOL    HW1 2500   5.932   5.705   0.150
34158SOL    HW2 2501   5.945   5.556   0.216
34159SOL     OW 2502   6.521   5.822   0.480
34159SOL    HW1 2503   6.473   5.863   0.402
34159SOL    HW2 2504   6.620   5.820   0.461
34160SOL     OW 2505   6.662   6.269   1.464
34160SOL    HW1 2506   6.582   6.208   1.467
34160SOL    HW2 2507   6.743   6.216   1.440
34161SOL     OW 2508   6.813   7.156   0.793
34161SOL    HW1 2509   6.834   7.230   0.728
34161SOL    HW2 2510   6.881   7.156   0.866
34162SOL     OW 2511   6.045   6.738   0.741
34162SOL    HW1 2512   5.974   6.711   0.806
34162SOL    HW2 2513   6.019   6.710   0.648
34163SOL     OW 2514   6.857   7.383   0.591
34163SOL    HW1 2515   6.901   7.447   0.527
34163SOL    HW2 2516   6.807   7.435   0.661
34164SOL     OW 2517   6.618   6.135   0.016
34164SOL    HW1 2518   6.577   6.217  -0.023
34164SOL    HW2 2519   6.682   6.161   0.089
34165SOL     OW 2520   5.664   6.142   1.386
34165SOL    HW1 2521   5.756   6.141   1.345
34165SOL    HW2 2522   5.658   6.216   1.453
34166SOL     OW 2523   6.147   5.808   1.147
34166SOL    HW1 2524   6.185   5.724   1.184
34166SOL    HW2 2525   6.059   5.827   1.191
34167SOL     OW 2526   6.452   6.040   0.642
34167SOL    HW1 2527   6.420   6.112   0.580
34167SOL    HW2 2528   6.476   5.959   0.589
34168SOL     OW 2529   6.603   5.625   0.753
34168SOL    HW1 2530   6.531   5.630   0.684
34168SOL    HW2 2531   6.579   5.556   0.822
34169SOL     OW 2532   7.015   6.759   0.867
34169SOL    HW1 2533   6.960   6.675   0.860
34169SOL    HW2 2534   7.041   6.788   0.775
34170SOL     OW 2535   7.052   6.176   0.992
34170SOL    HW1 2536   7.022   6.081   0.999
34170SOL    HW2 2537   7.125   6.192   1.058
34171SOL     OW 2538   7.443   6.419   0.377
34171SOL    HW1 2539   7.485   6.355   0.441
34171SOL    HW2 2540   7.405   6.368   0.299
34172SOL     OW 2541   6.074   6.971   0.174
34172SOL    HW1 2542   5.987   6.956   0.221
34172SOL    HW2 2543   6.057   6.997   0.079
34173SOL     OW 2544   7.250   6.866   0.657
34173SOL    HW1 2545   7.349   6.874   0.671
34173SOL    HW2 2546   7.205   6.950   0.688
34174SOL     OW 2547   6.976   6.161   0.078
34174SOL    HW1 2548   6.922   6.140   0.159
34174SOL    HW2 2549   7.067   6.120   0.087
34175SOL     OW 2550   6.113   5.842   0.328
34175SOL    HW1 2551   6.140   5.783   0.253
34175SOL    HW2 2552   6.113   5.937   0.297
34176SOL     OW 2553   7.340   6.809   1.588
34176SOL    HW1 2554   7.431   6.770   1.575
34176SOL    HW2 2555   7.348   6.905   1.612
34177SOL     OW 2556   6.650   6.933   1.340
34177SOL    HW1 2557   6.570   6.910   1.395
34177SOL    HW2 2558   6.733   6.907   1.389
34178SOL     OW 2559   7.178   7.215   1.625
34178SOL    HW1 2560   7.205   7.249   1.535
34178SOL    HW2 2561   7.257   7.177   1.671
34179SOL     OW 2562   6.697   6.781   1.100
34179SOL    HW1 2563   6.657   6.825   1.181
34179SOL    HW2 2564   6.656   6.818   1.017
34180SOL     OW 2565   7.224   6.685   1.079
34180SOL    HW1 2566   7.229   6.766   1.138
34180SOL    HW2 2567   7.138   6.687   1.028
34181SOL     OW 2568   6.501   5.675   1.402
34181SOL    HW1 2569   6.526   5.655   1.307
34181SOL    HW2 2570   6.573   5.731   1.444
34182SOL     OW 2571   6.566   6.702   1.719
34182SOL    HW1 2572   6.467   6.708   1.729
34182SOL    HW2 2573   6.589   6.622   1.663
34183SOL     OW 2574   6.291   6.636   0.368
34183SOL    HW1 2575   6.277   6.643   0.467
34183SOL    HW2 2576   6.375   6.585   0.350
34184SOL     OW 2577   5.996   6.399   1.251
34184SOL    HW1 2578   6.082   6.411   1.301
34184SOL    HW2 2579   5.954   6.312   1.278
34185SOL     OW 2580   6.860   5.972   1.262
34185SOL    HW1 2581   6.881   6.046   1.326
34185SOL    HW2 2582   6.771   5.989   1.219
34186SOL     OW 2583   5.650   7.150   1.331
34186SOL    HW1 2584   5.604   7.232   1.297
34186SOL    HW2 2585   5.748   7.169   1.340
34187SOL     OW 2586   5.953   6.686   0.501
34187SOL    HW1 2587   5.946   6.769   0.445
34187SOL    HW2 2588   5.957   6.606   0.441
34188SOL     OW 2589   6.152   6.123   0.865
34188SOL    HW1 2590   6.164   6.189   0.791
34188SOL    HW2 2591   6.198   6.157   0.948
34189SOL     OW 2592   6.838   6.934   0.388
34189SOL    HW1 2593   6.888   7.011   0.428
34189SOL    HW2 2594   6.743   6.936   0.420
34190SOL     OW 2595   6.858   7.031   1.142
34190SOL    HW1 2596   6.905   7.044   1.229
34190SOL    HW2 2597   6.792   6.957   1.151
34191SOL     OW 2598   7.168   6.225   0.472
34191SOL    HW1 2599   7.137   6.286   0.545
34191SOL    HW2 2600   7.218   6.277   0.403
34192SOL     OW 2601   5.940   7.096   1.329
34192SOL    HW1 2602   5.919   7.052   1.242
34192SOL    HW2 2603   6.037   7.122   1.332
34193SOL     OW 2604   5.988   6.337   1.598
34193SOL    HW1 2605   6.056   6.392   1.551
34193SOL    HW2 2606   6.028   6.249   1.625
34194SOL     OW 2607   7.173   6.365   1.670
34194SOL    HW1 2608   7.081   6.403   1.665
34194SOL    HW2 2609   7.233   6.412   1.605
34195SOL     OW 2610   6.599   5.691   1.770
34195SOL    HW1 2611   6.605   5.776   1.718
34195SOL    HW2 2612   6.631   5.615   1.713
34196SOL     OW 2613   6.090   5.636   1.740
34196SOL    HW1 2614   6.048   5.579   1.670
34196SOL    HW2 2615   6.024   5.705   1.772
34197SOL     OW 2616   6.159   6.456   1.029
34197SOL    HW1 2617   6.203   6.545   1.020
34197SOL    HW2 2618   6.096   6.456   1.106
34198SOL     OW 2619   6.946   6.448   1.045
34198SOL    HW1 2620   6.871   6.448   0.979
34198SOL    HW2 2621   6.983   6.356   1.054
34199SOL     OW 2622   6.795   6.111   0.275
34199SOL    HW1 2623   6.808   6.027   0.329
34199SOL    HW2 2624   6.766   6.185   0.335
34200SOL     OW 2625   5.893   5.799   1.231
34200SOL    HW1 2626   5.870   5.836   1.321
34200SOL    HW2 2627   5.863   5.704   1.225
34201SOL     OW 2628   5.623   6.896   1.282
34201SOL    HW1 2629   5.676   6.847   1.350
34201SOL    HW2 2630   5.645   6.994   1.287
34202SOL     OW 2631   6.318   6.220   1.064
34202SOL    HW1 2632   6.377   6.194   0.988
34202SOL    HW2 2633   6.290   6.316   1.053
34203SOL     OW 2634   7.314   6.521   1.854
34203SOL    HW1 2635   7.268   6.514   1.765
34203SOL    HW2 2636   7.252   6.565   1.920
34204SOL     OW 2637   5.893   5.649   0.618
34204SOL    HW1 2638   5.882   5.743   0.651
34204SOL    HW2 2639   5.888   5.586   0.695
34205SOL     OW 2640   7.208   5.953   0.374
34205SOL    HW1 2641   7.210   5.877   0.438
34205SOL    HW2 2642   7.160   6.030   0.414
34206SOL     OW 2643   6.609   6.352   0.966
34206SOL    HW1 2644   6.624   6.373   1.062
34206SOL    HW2 2645   6.579   6.257   0.957
34207SOL     OW 2646   6.566   7.159   1.700
34207SOL    HW1 2647   6.546   7.203   1.612
34207SOL    HW2 2648   6.605   7.068   1.684
34208SOL     OW 2649   7.445   7.104   1.605
34208SOL    HW1 2650   7.459   7.131   1.510
34208SOL    HW2 2651   7.528   7.126   1.658
34209SOL     OW 2652   5.936   6.484   1.804
34209SOL    HW1 2653   6.012   6.528   1.852
34209SOL    HW2 2654   5.971   6.437   1.722
34210SOL     OW 2655   7.126   5.860   0.125
34210SOL    HW1 2656   7.065   5.785   0.148
34210SOL    HW2 2657   7.148   5.912   0.208
34211SOL     OW 2658   6.889   6.424   0.042
34211SOL    HW1 2659   6.923   6.331   0.057
34211SOL    HW2 2660   6.907   6.451  -0.053
34212SOL     OW 2661   6.654   6.919   0.849
34212SOL    HW1 2662   6.661   6.835   0.794
34212SOL    HW2 2663   6.716   6.988   0.813
34213SOL     OW 2664   5.905   6.396   0.949
34213SOL    HW1 2665   5.998   6.432   0.954
34213SOL    HW2 2666   5.899   6.311   1.001
34214SOL     OW 2667   5.925   6.095   1.006
34214SOL    HW1 2668   5.873   6.012   0.989
34214SOL    HW2 2669   6.002   6.100   0.942
34215SOL     OW 2670   6.724   5.966   1.678
34215SOL    HW1 2671   6.679   6.029   1.742
34215SOL    HW2 2672   6.817   5.997   1.661
34216SOL     OW 2673   6.746   5.793   1.477
34216SOL    HW1 2674   6.746   5.857   1.554
34216SOL    HW2 2675   6.774   5.841   1.394
34217SOL     OW 2676   5.594   6.912   0.200
34217SOL    HW1 2677   5.501   6.933   0.169
34217SOL    HW2 2678   5.604   6.813   0.213
34218SOL     OW 2679   5.674   7.387   0.927
34218SOL    HW1 2680   5.632   7.301   0.900
34218SOL    HW2 2681   5.768   7.390   0.893
34219SOL     OW 2682   6.090   7.154   0.910
34219SOL    HW1 2683   6.156   7.228   0.919
34219SOL    HW2 2684   6.134   7.075   0.868
34220SOL     OW 2685   6.588   6.382   1.238
34220SOL    HW1 2686   6.629   6.350   1.324
34220SOL    HW2 2687   6.492   6.355   1.235
34221SOL     OW 2688   5.626   6.130   1.114
34221SOL    HW1 2689   5.711   6.097   1.073
34221SOL    HW2 2690   5.639   6.145   1.212
34222SOL     OW 2691   5.775   6.106   1.722
34222SOL    HW1 2692   5.834   6.066   1.652
34222SOL    HW2 2693   5.717   6.177   1.681
34223SOL     OW 2694   6.955   6.536   1.660
34223SOL    HW1 2695   6.994   6.625   1.680
34223SOL    HW2 2696   6.965   6.516   1.563
34224SOL     OW 2697   6.401   6.158   0.325
34224SOL    HW1 2698   6.408   6.069   0.279
34224SOL    HW2 2699   6.307   6.192   0.317
34225SOL     OW 2700   7.243   6.190   1.206
34225SOL    HW1 2701   7.205   6.121   1.268
34225SOL    HW2 2702   7.325   6.154   1.162
34226SOL     OW 2703   5.838   7.150   1.744
34226SOL    HW1 2704   5.808   7.207   1.820
34226SOL    HW2 2705   5.831   7.053   1.770
34227SOL     OW 2706   6.257   6.050   1.269
34227SOL    HW1 2707   6.223   5.961   1.239
34227SOL    HW2 2708   6.283   6.104   1.189
34228SOL     OW 2709   6.516   7.264   1.465
34228SOL    HW1 2710   6.492   7.246   1.370
34228SOL    HW2 2711   6.546   7.358   1.475
34229SOL     OW 2712   6.059   6.086   0.191
34229SOL    HW1 2713   6.120   6.166   0.195
34229SOL    HW2 2714   5.964   6.117   0.198
34230SOL     OW 2715   5.745   6.723   1.466
34230SOL    HW1 2716   5.767   6.662   1.542
34230SOL    HW2 2717   5.755   6.674   1.380
34231SOL     OW 2718   6.933   6.645   1.234
34231SOL    HW1 2719   6.957   6.582   1.160
34231SOL    HW2 2720   6.843   6.685   1.216
34232SOL     OW 2721   6.888   6.441   0.309
34232SOL    HW1 2722   6.802   6.410   0.351
34232SOL    HW2 2723   6.884   6.427   0.210
34233SOL     OW 2724   7.345   7.333   1.154
34233SOL    HW1 2725   7.406   7.363   1.081
34233SOL    HW2 2726   7.307   7.244   1.132
34234SOL     OW 2727   6.838   7.317   1.128
34234SOL    HW1 2728   6.922   7.322   1.074
34234SOL    HW2 2729   6.815   7.221   1.146
34235SOL     OW 2730   5.669   6.844   1.022
34235SOL    HW1 2731   5.664   6.843   1.122
34235SOL    HW2 2732   5.586   6.803   0.984
34236SOL     OW 2733   6.274   7.248   1.716
34236SOL    HW1 2734   6.218   7.329   1.725
34236SOL    HW2 2735   6.326   7.252   1.630
34237SOL     OW 2736   6.489   5.672   0.133
34237SOL    HW1 2737   6.540   5.673   0.047
34237SOL    HW2 2738   6.545   5.630   0.204
34238SOL     OW 2739   7.312   5.721   0.523
34238SOL    HW1 2740   7.385   5.704   0.456
34238SOL    HW2 2741   7.281   5.634   0.561
34239SOL     OW 2742   6.974   7.159   0.477
34239SOL    HW1 2743   7.041   7.171   0.403
34239SOL    HW2 2744   6.934   7.248   0.500
34240SOL     OW 2745   5.716   7.380   1.851
34240SOL    HW1 2746   5.675   7.306   1.904
34240SOL    HW2 2747   5.780   7.431   1.909
34241SOL     OW 2748   6.866   6.513   0.672
34241SOL    HW1 2749   6.926   6.432   0.674
34241SOL    HW2 2750   6.906   6.582   0.612
34242SOL     OW 2751   6.416   6.859   1.422
34242SOL    HW1 2752   6.411   6.892   1.517
34242SOL    HW2 2753   6.330   6.878   1.376
34243SOL     OW 2754   6.258   7.202   0.154
34243SOL    HW1 2755   6.267   7.212   0.055
34243SOL    HW2 2756   6.218   7.113   0.175
34244SOL     OW 2757   7.236   7.306   1.394
34244SOL    HW1 2758   7.289   7.316   1.310
34244SOL    HW2 2759   7.209   7.396   1.428
34245SOL     OW 2760   7.427   5.761   0.963
34245SOL    HW1 2761   7.466   5.676   0.927
34245SOL    HW2 2762   7.329   5.763   0.944
34246SOL     OW 2763   5.849   5.912   0.720
34246SOL    HW1 2764   5.770   5.963   0.686
34246SOL    HW2 2765   5.840   5.897   0.818
34247SOL     OW 2766   6.780   7.198   0.031
34247SOL    HW1 2767   6.786   7.105   0.068
34247SOL    HW2 2768   6.721   7.198  -0.049
34248SOL     OW 2769   6.408   6.588   1.372
34248SOL    HW1 2770   6.448   6.587   1.280
34248SOL    HW2 2771   6.418   6.680   1.412
34249SOL     OW 2772   6.502   6.496   0.291
34249SOL    HW1 2773   6.565   6.534   0.223
34249SOL    HW2 2774   6.542   6.413   0.330
34250SOL     OW 2775   7.090   7.193   0.044
34250SOL    HW1 2776   6.998   7.230   0.051
34250SOL    HW2 2777   7.128   7.213  -0.046
34251SOL     OW 2778   5.958   6.874   1.490
34251SOL    HW1 2779   5.945   6.967   1.456
34251SOL    HW2 2780   5.874   6.822   1.477
34252SOL     OW 2781   7.200   6.878   1.289
34252SOL    HW1 2782   7.260   6.881   1.369
34252SOL    HW2 2783   7.125   6.942   1.302
34253SOL     OW 2784   6.625   6.684   0.696
34253SOL    HW1 2785   6.555   6.637   0.750
34253SOL    HW2 2786   6.684   6.616   0.653
34254SOL     OW 2787   6.600   5.822   0.971
34254SOL    HW1 2788   6.592   5.786   0.878
34254SOL    HW2 2789   6.598   5.746   1.036
34255SOL     OW 2790   6.176   7.073   0.491
34255SOL    HW1 2791   6.218   7.015   0.421
34255SOL    HW2 2792   6.132   7.152   0.447
34256SOL     OW 2793   7.295   5.971   1.381
34256SOL    HW1 2794   7.368   6.040   1.385
34256SOL    HW2 2795   7.323   5.896   1.322
34257SOL     OW 2796   5.841   6.934   0.290
34257SOL    HW1 2797   5.745   6.935   0.263
34257SOL    HW2 2798   5.853   6.987   0.374
34258SOL     OW 2799   5.691   6.599   1.726
34258SOL    HW1 2800   5.614   6.566   1.780
34258SOL    HW2 2801   5.776   6.569   1.768
34259SOL     OW 2802   6.258   5.789   1.489
34259SOL    HW1 2803   6.348   5.773   1.449
34259SOL    HW2 2804   6.266   5.794   1.588
34260SOL     OW 2805   5.661   5.931   0.033
34260SOL    HW1 2806   5.569   5.903   0.004
34260SOL    HW2 2807   5.692   6.008  -0.023
34261SOL     OW 2808   7.026   6.442   1.398
34261SOL    HW1 2809   6.969   6.494   1.335
34261SOL    HW2 2810   7.122   6.454   1.374
34262SOL     OW 2811   5.658   5.752   0.318
34262SOL    HW1 2812   5.641   5.835   0.264
34262SOL    HW2 2813   5.748   5.715   0.296
34263SOL     OW 2814   6.769   6.921   0.119
34263SOL    HW1 2815   6.670   6.910   0.121
34263SOL    HW2 2816   6.803   6.936   0.212
34264SOL     OW 2817   6.199   6.428   1.431
34264SOL    HW1 2818   6.255   6.509   1.414
34264SOL    HW2 2819   6.258   6.348   1.434
34265SOL     OW 2820   7.079   7.353   0.959
34265SOL    HW1 2821   7.112   7.417   0.890
34265SOL    HW2 2822   7.145   7.347   1.034
34266SOL     OW 2823   6.302   6.151   1.708
34266SOL    HW1 2824   6.321   6.216   1.782
34266SOL    HW2 2825   6.362   6.071   1.717
34267SOL     OW 2826   7.036   6.806   1.633
34267SOL    HW1 2827   7.027   6.796   1.732
34267SOL    HW2 2828   7.132   6.799   1.607
34268SOL     OW 2829   5.976   7.327   1.560
34268SOL    HW1 2830   5.885   7.368   1.558
34268SOL    HW2 2831   5.969   7.233   1.592
34269SOL     OW 2832   7.260   6.469   1.254
34269SOL    HW1 2833   7.233   6.380   1.217
34269SOL    HW2 2834   7.261   6.537   1.181
34270SOL     OW 2835   6.811   5.911   0.449
34270SOL    HW1 2836   6.876   5.837   0.438
34270SOL    HW2 2837   6.831   5.961   0.533
34271SOL     OW 2838   6.180   6.331   0.652
34271SOL    HW1 2839   6.230   6.416   0.633
34271SOL    HW2 2840   6.092   6.333   0.604
34272SOL     OW 2841   7.363   5.928   1.642
34272SOL    HW1 2842   7.346   5.959   1.548
34272SOL    HW2 2843   7.279   5.891   1.680
34273SOL     OW 2844   7.316   6.520   1.517
34273SOL    HW1 2845   7.354   6.611   1.532
34273SOL    HW2 2846   7.308   6.503   1.418
34274SOL     OW 2847   6.445   6.960   0.016
34274SOL    HW1 2848   6.399   6.975   0.104
34274SOL    HW2 2849   6.489   7.045  -0.014
34275SOL     OW 2850   6.247   7.376   0.953
34275SOL    HW1 2851   6.201   7.464   0.940
34275SOL    HW2 2852   6.346   7.388   0.946
34276SOL     OW 2853   6.445   6.542   0.861
34276SOL    HW1 2854   6.499   6.473   0.909
34276SOL    HW2 2855   6.413   6.611   0.927
34277SOL     OW 2856   6.669   6.570   0.087
34277SOL    HW1 2857   6.646   6.623   0.005
34277SOL    HW2 2858   6.750   6.514   0.068
34278SOL     OW 2859   7.447   7.155   0.851
34278SOL    HW1 2860   7.376   7.143   0.781
34278SOL    HW2 2861   7.448   7.076   0.911
34279SOL     OW 2862   5.807   6.900   1.844
34279SOL    HW1 2863   5.742   6.827   1.823
34279SOL    HW2 2864   5.811   6.914   1.942
34280SOL     OW 2865   5.665   6.826   0.653
34280SOL    HW1 2866   5.664   6.779   0.741
34280SOL    HW2 2867   5.747   6.798   0.602
34281SOL     OW 2868   6.258   6.977   1.624
34281SOL    HW1 2869   6.180   6.927   1.662
34281SOL    HW2 2870   6.255   7.072   1.655
34282SOL     OW 2871   7.410   5.778   1.227
34282SOL    HW1 2872   7.406   5.688   1.271
34282SOL    HW2 2873   7.413   5.767   1.128
34283SOL     OW 2874   6.014   6.010   0.520
34283SOL    HW1 2875   6.044   5.938   0.458
34283SOL    HW2 2876   5.975   5.970   0.603
34284SOL     OW 2877   7.291   7.073   1.104
34284SOL    HW1 2878   7.198   7.048   1.077
34284SOL    HW2 2879   7.317   7.023   1.186
34285SOL     OW 2880   5.903   6.133   1.280
34285SOL    HW1 2881   5.941   6.074   1.352
34285SOL    HW2 2882   5.943   6.107   1.192
34286SOL     OW 2883   6.398   7.172   0.687
34286SOL    HW1 2884   6.430   7.182   0.593
34286SOL    HW2 2885   6.319   7.110   0.689
34287SOL     OW 2886   7.010   5.800   1.112
34287SOL    HW1 2887   7.062   5.735   1.167
34287SOL    HW2 2888   6.961   5.863   1.173
34288SOL     OW 2889   6.587   5.620   1.154
34288SOL    HW1 2890   6.524   5.548   1.123
34288SOL    HW2 2891   6.680   5.584   1.154
34289SOL     OW 2892   6.356   6.916   0.301
34289SOL    HW1 2893   6.310   6.829   0.318
34289SOL    HW2 2894   6.447   6.913   0.342
34290SOL     OW 2895   6.204   7.153   1.284
34290SOL    HW1 2896   6.199   7.235   1.341
34290SOL    HW2 2897   6.293   7.150   1.239
34291SOL     OW 2898   6.938   5.638   0.168
34291SOL    HW1 2899   6.973   5.597   0.084
34291SOL    HW2 2900   6.848   5.600   0.188
34292SOL     OW 2901   6.886   6.039   0.691
34292SOL    HW1 2902   6.827   6.119   0.695
34292SOL    HW2 2903   6.901   6.004   0.784
34293SOL     OW 2904   7.179   5.807   0.882
34293SOL    HW1 2905   7.095   5.806   0.936
34293SOL    HW2 2906   7.181   5.890   0.826
34294SOL     OW 2907   5.625   6.663   0.300
34294SOL    HW1 2908   5.724   6.652   0.291
34294SOL    HW2 2909   5.585   6.577   0.332
34295SOL     OW 2910   6.461   7.232   0.337
34295SOL    HW1 2911   6.384   7.197   0.283
34295SOL    HW2 2912   6.429   7.303   0.399
34296SOL     OW 2913   5.816   6.214   1.975
34296SOL    HW1 2914   5.723   6.212   2.012
34296SOL    HW2 2915   5.817   6.175   1.883
34297SOL     OW 2916   5.811   5.861   2.858
34297SOL    HW1 2917   5.846   5.844   2.950
34297SOL    HW2 2918   5.723   5.816   2.846
34298SOL     OW 2919   5.605   5.954   2.509
34298SOL    HW1 2920   5.523   5.997   2.548
34298SOL    HW2 2921   5.577   5.881   2.446
34299SOL     OW 2922   6.155   6.861   3.027
34299SOL    HW1 2923   6.062   6.854   2.990
34299SOL    HW2 2924   6.166   6.950   3.071
34300SOL     OW 2925   7.141   7.097   2.565
34300SOL    HW1 2926   7.084   7.081   2.646
34300SOL    HW2 2927   7.082   7.107   2.485
34301SOL     OW 2928   6.721   6.289   2.579
34301SOL    HW1 2929   6.778   6.367   2.554
34301SOL    HW2 2930   6.661   6.315   2.655
34302SOL     OW 2931   7.341   6.193   2.093
34302SOL    HW1 2932   7.329   6.180   1.994
34302SOL    HW2 2933   7.311   6.112   2.142
34303SOL     OW 2934   6.354   6.730   2.885
34303SOL    HW1 2935   6.276   6.747   2.945
34303SOL    HW2 2936   6.388   6.817   2.849
34304SOL     OW 2937   6.436   6.384   3.685
34304SOL    HW1 2938   6.432   6.460   3.750
34304SOL    HW2 2939   6.458   6.420   3.594
34305SOL     OW 2940   6.271   6.598   2.527
34305SOL    HW1 2941   6.340   6.582   2.597
34305SOL    HW2 2942   6.198   6.655   2.565
34306SOL     OW 2943   6.272   6.747   3.665
34306SOL    HW1 2944   6.332   6.826   3.679
34306SOL    HW2 2945   6.186   6.778   3.624
34307SOL     OW 2946   5.921   7.021   2.923
34307SOL    HW1 2947   5.843   6.990   2.870
34307SOL    HW2 2948   5.979   7.079   2.866
34308SOL     OW 2949   7.046   7.091   3.201
34308SOL    HW1 2950   7.070   7.185   3.227
34308SOL    HW2 2951   7.030   7.037   3.283
34309SOL     OW 2952   6.024   5.978   3.361
34309SOL    HW1 2953   6.106   5.922   3.370
34309SOL    HW2 2954   5.943   5.920   3.365
34310SOL     OW 2955   7.189   6.033   2.599
34310SOL    HW1 2956   7.115   6.079   2.549
34310SOL    HW2 2957   7.240   6.101   2.652
34311SOL     OW 2958   5.817   7.299   2.345
34311SOL    HW1 2959   5.851   7.376   2.399
34311SOL    HW2 2960   5.861   7.299   2.255
34312SOL     OW 2961   6.713   6.927   3.552
34312SOL    HW1 2962   6.760   6.927   3.640
34312SOL    HW2 2963   6.665   6.840   3.541
34313SOL     OW 2964   5.816   7.020   2.400
34313SOL    HW1 2965   5.790   7.116   2.400
34313SOL    HW2 2966   5.745   6.966   2.445
34314SOL     OW 2967   5.826   6.677   2.748
34314SOL    HW1 2968   5.840   6.593   2.800
34314SOL    HW2 2969   5.771   6.741   2.803
34315SOL     OW 2970   6.206   7.372   3.301
34315SOL    HW1 2971   6.114   7.355   3.336
34315SOL    HW2 2972   6.234   7.464   3.327
34316SOL     OW 2973   6.192   6.550   1.985
34316SOL    HW1 2974   6.199   6.634   1.931
34316SOL    HW2 2975   6.238   6.563   2.073
34317SOL     OW 2976   7.180   5.700   3.342
34317SOL    HW1 2977   7.162   5.767   3.270
34317SOL    HW2 2978   7.177   5.746   3.431
34318SOL     OW 2979   5.708   6.229   2.425
34318SOL    HW1 2980   5.663   6.141   2.442
34318SOL    HW2 2981   5.707   6.283   2.509
34319SOL     OW 2982   7.428   7.353   2.221
34319SOL    HW1 2983   7.482   7.324   2.301
34319SOL    HW2 2984   7.458   7.443   2.192
34320SOL     OW 2985   5.613   7.182   1.979
34320SOL    HW1 2986   5.594   7.086   2.000
34320SOL    HW2 2987   5.580   7.240   2.054
34321SOL     OW 2988   7.275   6.508   2.474
34321SOL    HW1 2989   7.370   6.479   2.482
34321SOL    HW2 2990   7.267   6.573   2.399
34322SOL     OW 2991   7.227   6.694   2.294
34322SOL    HW1 2992   7.313   6.696   2.242
34322SOL    HW2 2993   7.241   6.741   2.382
34323SOL     OW 2994   5.699   6.323   3.459
34323SOL    HW1 2995   5.787   6.310   3.504
34323SOL    HW2 2996   5.686   6.420   3.437
34324SOL     OW 2997   6.199   6.951   2.588
34324SOL    HW1 2998   6.150   6.864   2.597
34324SOL    HW2 2999   6.176   6.994   2.501
34325SOL     OW 3000   6.879   6.814   3.285
34325SOL    HW1 3001   6.916   6.741   3.227
34325SOL    HW2 3002   6.931   6.819   3.370
34326SOL     OW 3003   6.395   5.590   2.364
34326SOL    HW1 3004   6.435   5.681   2.355
34326SOL    HW2 3005   6.295   5.598   2.370
34327SOL     OW 3006   5.783   6.562   3.126
34327SOL    HW1 3007   5.872   6.517   3.112
34327SOL    HW2 3008   5.710   6.497   3.107
34328SOL     OW 3009   7.111   6.585   2.052
34328SOL    HW1 3010   7.048   6.509   2.065
34328SOL    HW2 3011   7.159   6.603   2.138
34329SOL     OW 3012   6.773   7.378   3.478
34329SOL    HW1 3013   6.797   7.438   3.402
34329SOL    HW2 3014   6.780   7.283   3.448
34330SOL     OW 3015   5.903   5.837   3.663
34330SOL    HW1 3016   5.974   5.908   3.669
34330SOL    HW2 3017   5.815   5.876   3.691
34331SOL     OW 3018   7.052   7.003   2.815
34331SOL    HW1 3019   6.993   7.009   2.895
34331SOL    HW2 3020   7.037   6.915   2.769
34332SOL     OW 3021   7.253   7.300   2.434
34332SOL    HW1 3022   7.212   7.277   2.346
34332SOL    HW2 3023   7.235   7.226   2.499
34333SOL     OW 3024   6.184   6.315   2.132
34333SOL    HW1 3025   6.208   6.384   2.064
34333SOL    HW2 3026   6.106   6.348   2.186
34334SOL     OW 3027   6.867   5.931   2.806
34334SOL    HW1 3028   6.781   5.881   2.793
34334SOL    HW2 3029   6.929   5.877   2.862
34335SOL     OW 3030   7.162   7.248   2.169
34335SOL    HW1 3031   7.251   7.294   2.172
34335SOL    HW2 3032   7.141   7.224   2.074
34336SOL     OW 3033   6.393   6.191   3.327
34336SOL    HW1 3034   6.346   6.188   3.416
34336SOL    HW2 3035   6.342   6.136   3.261
34337SOL     OW 3036   6.980   6.055   3.536
34337SOL    HW1 3037   6.960   6.098   3.624
34337SOL    HW2 3038   7.058   5.993   3.545
34338SOL     OW 3039   6.559   6.476   3.434
34338SOL    HW1 3040   6.605   6.392   3.405
34338SOL    HW2 3041   6.503   6.510   3.359
34339SOL     OW 3042   6.577   5.996   3.104
34339SOL    HW1 3043   6.500   6.030   3.158
34339SOL    HW2 3044   6.543   5.945   3.025
34340SOL     OW 3045   6.627   6.287   2.291
34340SOL    HW1 3046   6.653   6.283   2.387
34340SOL    HW2 3047   6.542   6.236   2.277
34341SOL     OW 3048   5.662   6.397   2.651
34341SOL    HW1 3049   5.761   6.385   2.660
34341SOL    HW2 3050   5.638   6.492   2.672
34342SOL     OW 3051   5.716   7.407   3.433
34342SOL    HW1 3052   5.706   7.392   3.532
34342SOL    HW2 3053   5.630   7.443   3.397
34343SOL     OW 3054   6.451   5.934   2.057
34343SOL    HW1 3055   6.510   5.997   2.008
34343SOL    HW2 3056   6.470   5.840   2.028
34344SOL     OW 3057   7.305   6.171   3.693
34344SOL    HW1 3058   7.279   6.260   3.657
34344SOL    HW2 3059   7.303   6.103   3.620
34345SOL     OW 3060   6.948   6.730   2.407
34345SOL    HW1 3061   7.031   6.701   2.359
34345SOL    HW2 3062   6.899   6.797   2.351
34346SOL     OW 3063   6.136   5.782   2.747
34346SOL    HW1 3064   6.131   5.777   2.847
34346SOL    HW2 3065   6.138   5.878   2.718
34347SOL     OW 3066   6.594   7.042   2.339
34347SOL    HW1 3067   6.548   7.114   2.287
34347SOL    HW2 3068   6.590   7.062   2.437
34348SOL     OW 3069   5.937   7.387   2.715
34348SOL    HW1 3070   5.987   7.301   2.721
34348SOL    HW2 3071   6.002   7.464   2.712
34349SOL     OW 3072   7.381   6.652   2.735
34349SOL    HW1 3073   7.319   6.637   2.659
34349SOL    HW2 3074   7.329   6.663   2.820
34350SOL     OW 3075   6.813   7.136   3.368
34350SOL    HW1 3076   6.819   7.059   3.432
34350SOL    HW2 3077   6.761   7.110   3.288
34351SOL     OW 3078   5.907   6.529   2.104
34351SOL    HW1 3079   5.989   6.568   2.062
34351SOL    HW2 3080   5.880   6.447   2.055
34352SOL     OW 3081   7.044   6.321   2.590
34352SOL    HW1 3082   7.039   6.256   2.665
34352SOL    HW2 3083   7.124   6.380   2.603
34353SOL     OW 3084   6.047   6.852   3.589
34353SOL    HW1 3085   5.997   6.853   3.503
34353SOL    HW2 3086   5.984   6.834   3.665
34354SOL     OW 3087   6.697   7.362   2.099
34354SOL    HW1 3088   6.637   7.300   2.149
34354SOL    HW2 3089   6.728   7.318   2.014
34355SOL     OW 3090   5.788   5.871   3.360
34355SOL    HW1 3091   5.708   5.931   3.347
34355SOL    HW2 3092   5.778   5.822   3.446
34356SOL     OW 3093   7.218   6.963   1.943
34356SOL    HW1 3094   7.186   7.057   1.933
34356SOL    HW2 3095   7.142   6.900   1.931
34357SOL     OW 3096   6.050   7.329   2.185
34357SOL    HW1 3097   6.083   7.368   2.271
34357SOL    HW2 3098   6.126   7.322   2.120
34358SOL     OW 3099   6.986   5.693   2.288
34358SOL    HW1 3100   6.962   5.656   2.198
34358SOL    HW2 3101   7.085   5.709   2.292
34359SOL     OW 3102   5.835   7.371   3.103
34359SOL    HW1 3103   5.892   7.306   3.153
34359SOL    HW2 3104   5.819   7.338   3.010
34360SOL     OW 3105   6.526   7.284   2.766
34360SOL    HW1 3106   6.606   7.227   2.787
34360SOL    HW2 3107   6.477   7.244   2.689
34361SOL     OW 3108   5.968   6.286   2.342
34361SOL    HW1 3109   6.013   6.196   2.339
34361SOL    HW2 3110   5.874   6.275   2.375
34362SOL     OW 3111   7.133   5.808   3.591
34362SOL    HW1 3112   7.128   5.845   3.683
34362SOL    HW2 3113   7.061   5.739   3.579
34363SOL     OW 3114   6.200   5.708   1.979
34363SOL    HW1 3115   6.298   5.686   1.986
34363SOL    HW2 3116   6.169   5.691   1.886
34364SOL     OW 3117   6.367   5.850   3.611
34364SOL    HW1 3118   6.434   5.789   3.654
34364SOL    HW2 3119   6.294   5.869   3.676
34365SOL     OW 3120   6.474   7.100   3.057
34365SOL    HW1 3121   6.451   7.075   2.963
34365SOL    HW2 3122   6.535   7.031   3.096
34366SOL     OW 3123   6.937   6.176   3.295
34366SOL    HW1 3124   6.965   6.133   3.380
34366SOL    HW2 3125   6.962   6.272   3.296
34367SOL     OW 3126   6.389   6.988   2.786
34367SOL    HW1 3127   6.479   7.002   2.744
34367SOL    HW2 3128   6.318   6.990   2.715
34368SOL     OW 3129   6.508   6.089   2.761
34368SOL    HW1 3130   6.483   6.080   2.665
34368SOL    HW2 3131   6.556   6.007   2.792
34369SOL     OW 3132   6.125   5.650   2.374
34369SOL    HW1 3133   6.044   5.651   2.432
34369SOL    HW2 3134   6.128   5.733   2.319
34370SOL     OW 3135   7.020   6.774   1.903
34370SOL    HW1 3136   7.052   6.698   1.960
34370SOL    HW2 3137   6.928   6.801   1.933
34371SOL     OW 3138   5.883   5.621   2.033
34371SOL    HW1 3139   5.932   5.705   2.012
34371SOL    HW2 3140   5.945   5.556   2.078
34372SOL     OW 3141   6.521   5.822   2.342
34372SOL    HW1 3142   6.473   5.863   2.264
34372SOL    HW2 3143   6.620   5.820   2.323
34373SOL     OW 3144   6.662   6.269   3.326
34373SOL    HW1 3145   6.582   6.208   3.329
34373SOL    HW2 3146   6.743   6.216   3.302
34374SOL     OW 3147   6.813   7.156   2.655
34374SOL    HW1 3148   6.834   7.230   2.590
34374SOL    HW2 3149   6.881   7.156   2.728
34375SOL     OW 3150   6.045   6.738   2.603
34375SOL    HW1 3151   5.974   6.711   2.668
34375SOL    HW2 3152   6.019   6.710   2.510
34376SOL     OW 3153   6.857   7.383   2.453
34376SOL    HW1 3154   6.901   7.447   2.389
34376SOL    HW2 3155   6.807   7.435   2.523
34377SOL     OW 3156   6.618   6.135   1.878
34377SOL    HW1 3157   6.577   6.217   1.839
34377SOL    HW2 3158   6.682   6.161   1.951
34378SOL     OW 3159   5.664   6.142   3.248
34378SOL    HW1 3160   5.756   6.141   3.207
34378SOL    HW2 3161   5.658   6.216   3.315
34379SOL     OW 3162   6.147   5.808   3.009
34379SOL    HW1 3163   6.185   5.724   3.046
34379SOL    HW2 3164   6.059   5.827   3.053
34380SOL     OW 3165   6.452   6.040   2.504
34380SOL    HW1 3166   6.420   6.112   2.442
34380SOL    HW2 3167   6.476   5.959   2.451
34381SOL     OW 3168   6.603   5.625   2.615
34381SOL    HW1 3169   6.531   5.630   2.546
34381SOL    HW2 3170   6.579   5.556   2.684
34382SOL     OW 3171   7.015   6.759   2.729
34382SOL    HW1 3172   6.960   6.675   2.722
34382SOL    HW2 3173   7.041   6.788   2.637
34383SOL     OW 3174   7.052   6.176   2.854
34383SOL    HW1 3175   7.022   6.081   2.861
34383SOL    HW2 3176   7.125   6.192   2.920
34384SOL     OW 3177   7.443   6.419   2.239
34384SOL    HW1 3178   7.485   6.355   2.303
34384SOL    HW2 3179   7.405   6.368   2.161
34385SOL     OW 3180   6.074   6.971   2.036
34385SOL    HW1 3181   5.987   6.956   2.083
34385SOL    HW2 3182   6.057   6.997   1.941
34386SOL     OW 3183   7.250   6.866   2.519
34386SOL    HW1 3184   7.349   6.874   2.533
34386SOL    HW2 3185   7.205   6.950   2.550
34387SOL     OW 3186   6.976   6.161   1.940
34387SOL    HW1 3187   6.922   6.140   2.021
34387SOL    HW2 3188   7.067   6.120   1.949
34388SOL     OW 3189   6.113   5.842   2.190
34388SOL    HW1 3190   6.140   5.783   2.115
34388SOL    HW2 3191   6.113   5.937   2.159
34389SOL     OW 3192   7.340   6.809   3.450
34389SOL    HW1 3193   7.431   6.770   3.437
34389SOL    HW2 3194   7.348   6.905   3.474
34390SOL     OW 3195   6.650   6.933   3.202
34390SOL    HW1 3196   6.570   6.910   3.257
34390SOL    HW2 3197   6.733   6.907   3.251
34391SOL     OW 3198   7.178   7.215   3.487
34391SOL    HW1 3199   7.205   7.249   3.397
34391SOL    HW2 3200   7.257   7.177   3.533
34392SOL     OW 3201   6.697   6.781   2.962
34392SOL    HW1 3202   6.657   6.825   3.043
34392SOL    HW2 3203   6.656   6.818   2.879
34393SOL     OW 3204   7.224   6.685   2.941
34393SOL    HW1 3205   7.229   6.766   3.000
34393SOL    HW2 3206   7.138   6.687   2.890
34394SOL     OW 3207   6.501   5.675   3.264
34394SOL    HW1 3208   6.526   5.655   3.169
34394SOL    HW2 3209   6.573   5.731   3.306
34395SOL     OW 3210   6.566   6.702   3.581
34395SOL    HW1 3211   6.467   6.708   3.591
34395SOL    HW2 3212   6.589   6.622   3.525
34396SOL     OW 3213   6.291   6.636   2.230
34396SOL    HW1 3214   6.277   6.643   2.329
34396SOL    HW2 3215   6.375   6.585   2.212
34397SOL     OW 3216   5.996   6.399   3.113
34397SOL    HW1 3217   6.082   6.411   3.163
34397SOL    HW2 3218   5.954   6.312   3.140
34398SOL     OW 3219   6.860   5.972   3.124
34398SOL    HW1 3220   6.881   6.046   3.188
34398SOL    HW2 3221   6.771   5.989   3.081
34399SOL     OW 3222   5.650   7.150   3.193
34399SOL    HW1 3223   5.604   7.232   3.159
34399SOL    HW2 3224   5.748   7.169   3.202
34400SOL     OW 3225   5.953   6.686   2.363
34400SOL    HW1 3226   5.946   6.769   2.307
34400SOL    HW2 3227   5.957   6.606   2.303
34401SOL     OW 3228   6.152   6.123   2.727
34401SOL    HW1 3229   6.164   6.189   2.653
34401SOL    HW2 3230   6.198   6.157   2.810
34402SOL     OW 3231   6.838   6.934   2.250
34402SOL    HW1 3232   6.888   7.011   2.290
34402SOL    HW2 3233   6.743   6.936   2.282
34403SOL     OW 3234   6.858   7.031   3.004
34403SOL    HW1 3235   6.905   7.044   3.091
34403SOL    HW2 3236   6.792   6.957   3.013
34404SOL     OW 3237   7.168   6.225   2.334
34404SOL    HW1 3238   7.137   6.286   2.407
34404SOL    HW2 3239   7.218   6.277   2.265
34405SOL     OW 3240   5.940   7.096   3.191
34405SOL    HW1 3241   5.919   7.052   3.104
34405SOL    HW2 3242   6.037   7.122   3.194
34406SOL     OW 3243   5.988   6.337   3.460
34406SOL    HW1 3244   6.056   6.392   3.413
34406SOL    HW2 3245   6.028   6.249   3.487
34407SOL     OW 3246   7.173   6.365   3.532
34407SOL    HW1 3247   7.081   6.403   3.527
34407SOL    HW2 3248   7.233   6.412   3.467
34408SOL     OW 3249   6.599   5.691   3.632
34408SOL    HW1 3250   6.605   5.776   3.580
34408SOL    HW2 3251   6.631   5.615   3.575
34409SOL     OW 3252   6.090   5.636   3.602
34409SOL    HW1 3253   6.048   5.579   3.532
34409SOL    HW2 3254   6.024   5.705   3.634
34410SOL     OW 3255   6.159   6.456   2.891
34410SOL    HW1 3256   6.203   6.545   2.882
34410SOL    HW2 3257   6.096   6.456   2.968
34411SOL     OW 3258   6.946   6.448   2.907
34411SOL    HW1 3259   6.871   6.448   2.841
34411SOL    HW2 3260   6.983   6.356   2.916
34412SOL     OW 3261   6.795   6.111   2.137
34412SOL    HW1 3262   6.808   6.027   2.191
34412SOL    HW2 3263   6.766   6.185   2.197
34413SOL     OW 3264   5.893   5.799   3.093
34413SOL    HW1 3265   5.870   5.836   3.183
34413SOL    HW2 3266   5.863   5.704   3.087
34414SOL     OW 3267   5.623   6.896   3.144
34414SOL    HW1 3268   5.676   6.847   3.212
34414SOL    HW2 3269   5.645   6.994   3.149
34415SOL     OW 3270   6.318   6.220   2.926
34415SOL    HW1 3271   6.377   6.194   2.850
34415SOL    HW2 3272   6.290   6.316   2.915
34416SOL     OW 3273   7.314   6.521   3.716
34416SOL    HW1 3274   7.268   6.514   3.627
34416SOL    HW2 3275   7.252   6.565   3.782
34417SOL     OW 3276   5.893   5.649   2.480
34417SOL    HW1 3277   5.882   5.743   2.513
34417SOL    HW2 3278   5.888   5.586   2.557
34418SOL     OW 3279   7.208   5.953   2.236
34418SOL    HW1 3280   7.210   5.877   2.300
34418SOL    HW2 3281   7.160   6.030   2.276
34419SOL     OW 3282   6.609   6.352   2.828
34419SOL    HW1 3283   6.624   6.373   2.924
34419SOL    HW2 3284   6.579   6.257   2.819
34420SOL     OW 3285   6.566   7.159   3.562
34420SOL    HW1 3286   6.546   7.203   3.474
34420SOL    HW2 3287   6.605   7.068   3.546
34421SOL     OW 3288   7.445   7.104   3.467
34421SOL    HW1 3289   7.459   7.131   3.372
34421SOL    HW2 3290   7.528   7.126   3.520
34422SOL     OW 3291   5.936   6.484   3.666
34422SOL    HW1 3292   6.012   6.528   3.714
34422SOL    HW2 3293   5.971   6.437   3.584
34423SOL     OW 3294   7.126   5.860   1.987
34423SOL    HW1 3295   7.065   5.785   2.010
34423SOL    HW2 3296   7.148   5.912   2.070
34424SOL     OW 3297   6.889   6.424   1.904
34424SOL    HW1 3298   6.923   6.331   1.919
34424SOL    HW2 3299   6.907   6.451   1.809
34425SOL     OW 3300   6.654   6.919   2.711
34425SOL    HW1 3301   6.661   6.835   2.656
34425SOL    HW2 3302   6.716   6.988   2.675
34426SOL     OW 3303   5.905   6.396   2.811
34426SOL    HW1 3304   5.998   6.432   2.816
34426SOL    HW2 3305   5.899   6.311   2.863
34427SOL     OW 3306   5.925   6.095   2.868
34427SOL    HW1 3307   5.873   6.012   2.851
34427SOL    HW2 3308   6.002   6.100   2.804
34428SOL     OW 3309   6.724   5.966   3.540
34428SOL    HW1 3310   6.679   6.029   3.604
34428SOL    HW2 3311   6.817   5.997   3.523
34429SOL     OW 3312   6.746   5.793   3.339
34429SOL    HW1 3313   6.746   5.857   3.416
34429SOL    HW2 3314   6.774   5.841   3.256
34430SOL     OW 3315   5.594   6.912   2.062
34430SOL    HW1 3316   5.501   6.933   2.031
34430SOL    HW2 3317   5.604   6.813   2.075
34431SOL     OW 3318   5.674   7.387   2.789
34431SOL    HW1 3319   5.632   7.301   2.762
34431SOL    HW2 3320   5.768   7.390   2.755
34432SOL     OW 3321   6.090   7.154   2.772
34432SOL    HW1 3322   6.156   7.228   2.781
34432SOL    HW2 3323   6.134   7.075   2.730
34433SOL     OW 3324   6.588   6.382   3.100
34433SOL    HW1 3325   6.629   6.350   3.186
34433SOL    HW2 3326   6.492   6.355   3.097
34434SOL     OW 3327   5.626   6.130   2.976
34434SOL    HW1 3328   5.711   6.097   2.935
34434SOL    HW2 3329   5.639   6.145   3.074
34435SOL     OW 3330   5.775   6.106   3.584
34435SOL    HW1 3331   5.834   6.066   3.514
34435SOL    HW2 3332   5.717   6.177   3.543
34436SOL     OW 3333   6.955   6.536   3.522
34436SOL    HW1 3334   6.994   6.625   3.542
34436SOL    HW2 3335   6.965   6.516   3.425
34437SOL     OW 3336   6.401   6.158   2.187
34437SOL    HW1 3337   6.408   6.069   2.141
34437SOL    HW2 3338   6.307   6.192   2.179
34438SOL     OW 3339   7.243   6.190   3.068
34438SOL    HW1 3340   7.205   6.121   3.130
34438SOL    HW2 3341   7.325   6.154   3.024
34439SOL     OW 3342   5.838   7.150   3.606
34439SOL    HW1 3343   5.808   7.207   3.682
34439SOL    HW2 3344   5.831   7.053   3.632
34440SOL     OW 3345   6.257   6.050   3.131
34440SOL    HW1 3346   6.223   5.961   3.101
34440SOL    HW2 3347   6.283   6.104   3.051
34441SOL     OW 3348   6.516   7.264   3.327
34441SOL    HW1 3349   6.492   7.246   3.232
34441SOL    HW2 3350   6.546   7.358   3.337
34442SOL     OW 3351   6.059   6.086   2.053
34442SOL    HW1 3352   6.120   6.166   2.057
34442SOL    HW2 3353   5.964   6.117   2.060
34443SOL     OW 3354   5.745   6.723   3.328
34443SOL    HW1 3355   5.767   6.662   3.404
34443SOL    HW2 3356   5.755   6.674   3.242
34444SOL     OW 3357   6.933   6.645   3.096
34444SOL    HW1 3358   6.957   6.582   3.022
34444SOL    HW2 3359   6.843   6.685   3.078
34445SOL     OW 3360   6.888   6.441   2.171
34445SOL    HW1 3361   6.802   6.410   2.213
34445SOL    HW2 3362   6.884   6.427   2.072
34446SOL     OW 3363   7.345   7.333   3.016
34446SOL    HW1 3364   7.406   7.363   2.943
34446SOL    HW2 3365   7.307   7.244   2.994
34447SOL     OW 3366   6.838   7.317   2.990
34447SOL    HW1 3367   6.922   7.322   2.936
34447SOL    HW2 3368   6.815   7.221   3.008
34448SOL     OW 3369   5.669   6.844   2.884
34448SOL    HW1 3370   5.664   6.843   2.984
34448SOL    HW2 3371   5.586   6.803   2.846
34449SOL     OW 3372   6.274   7.248   3.578
34449SOL    HW1 3373   6.218   7.329   3.587
34449SOL    HW2 3374   6.326   7.252   3.492
34450SOL     OW 3375   7.312   5.721   2.385
34450SOL    HW1 3376   7.385   5.704   2.318
34450SOL    HW2 3377   7.281   5.634   2.423
34451SOL     OW 3378   6.974   7.159   2.339
34451SOL    HW1 3379   7.041   7.171   2.265
34451SOL    HW2 3380   6.934   7.248   2.362
34452SOL     OW 3381   5.716   7.380   3.713
34452SOL    HW1 3382   5.675   7.306   3.766
34452SOL    HW2 3383   5.780   7.431   3.771
34453SOL     OW 3384   6.866   6.513   2.534
34453SOL    HW1 3385   6.926   6.432   2.536
34453SOL    HW2 3386   6.906   6.582   2.474
34454SOL     OW 3387   6.416   6.859   3.284
34454SOL    HW1 3388   6.411   6.892   3.379
34454SOL    HW2 3389   6.330   6.878   3.238
34455SOL     OW 3390   6.258   7.202   2.016
34455SOL    HW1 3391   6.267   7.212   1.917
34455SOL    HW2 3392   6.218   7.113   2.037
34456SOL     OW 3393   7.236   7.306   3.256
34456SOL    HW1 3394   7.289   7.316   3.172
34456SOL    HW2 3395   7.209   7.396   3.290
34457SOL     OW 3396   7.427   5.761   2.825
34457SOL    HW1 3397   7.466   5.676   2.789
34457SOL    HW2 3398   7.329   5.763   2.806
34458SOL     OW 3399   5.849   5.912   2.582
34458SOL    HW1 3400   5.770   5.963   2.548
34458SOL    HW2 3401   5.840   5.897   2.680
34459SOL     OW 3402   6.780   7.198   1.893
34459SOL    HW1 3403   6.786   7.105   1.930
34459SOL    HW2 3404   6.721   7.198   1.813
34460SOL     OW 3405   6.408   6.588   3.234
34460SOL    HW1 3406   6.448   6.587   3.142
34460SOL    HW2 3407   6.418   6.680   3.274
34461SOL     OW 3408   6.502   6.496   2.153
34461SOL    HW1 3409   6.565   6.534   2.085
34461SOL    HW2 3410   6.542   6.413   2.192
34462SOL     OW 3411   7.090   7.193   1.906
34462SOL    HW1 3412   6.998   7.230   1.913
34462SOL    HW2 3413   7.128   7.213   1.816
34463SOL     OW 3414   5.958   6.874   3.352
34463SOL    HW1 3415   5.945   6.967   3.318
34463SOL    HW2 3416   5.874   6.822   3.339
34464SOL     OW 3417   7.200   6.878   3.151
34464SOL    HW1 3418   7.260   6.881   3.231
34464SOL    HW2 3419   7.125   6.942   3.164
34465SOL     OW 3420   6.625   6.684   2.558
34465SOL    HW1 3421   6.555   6.637   2.612
34465SOL    HW2 3422   6.684   6.616   2.515
34466SOL     OW 3423   6.600   5.822   2.833
34466SOL    HW1 3424   6.592   5.786   2.740
34466SOL    HW2 3425   6.598   5.746   2.898
34467SOL     OW 3426   6.176   7.073   2.353
34467SOL    HW1 3427   6.218   7.015   2.283
34467SOL    HW2 3428   6.132   7.152   2.309
34468SOL     OW 3429   7.295   5.971   3.243
34468SOL    HW1 3430   7.368   6.040   3.247
34468SOL    HW2 3431   7.323   5.896   3.184
34469SOL     OW 3432   5.841   6.934   2.152
34469SOL    HW1 3433   5.745   6.935   2.125
34469SOL    HW2 3434   5.853   6.987   2.236
34470SOL     OW 3435   5.691   6.599   3.588
34470SOL    HW1 3436   5.614   6.566   3.642
34470SOL    HW2 3437   5.776   6.569   3.630
34471SOL     OW 3438   6.258   5.789   3.351
34471SOL    HW1 3439   6.348   5.773   3.311
34471SOL    HW2 3440   6.266   5.794   3.450
34472SOL     OW 3441   5.661   5.931   1.895
34472SOL    HW1 3442   5.569   5.903   1.866
34472SOL    HW2 3443   5.692   6.008   1.839
34473SOL     OW 3444   7.026   6.442   3.260
34473SOL    HW1 3445   6.969   6.494   3.197
34473SOL    HW2 3446   7.122   6.454   3.236
34474SOL     OW 3447   5.658   5.752   2.180
34474SOL    HW1 3448   5.641   5.835   2.126
34474SOL    HW2 3449   5.748   5.715   2.158
34475SOL     OW 3450   6.769   6.921   1.981
34475SOL    HW1 3451   6.670   6.910   1.983
34475SOL    HW2 3452   6.803   6.936   2.074
34476SOL     OW 3453   6.199   6.428   3.293
34476SOL    HW1 3454   6.255   6.509   3.276
34476SOL    HW2 3455   6.258   6.348   3.296
34477SOL     OW 3456   7.079   7.353   2.821
34477SOL    HW1 3457   7.112   7.417   2.752
34477SOL    HW2 3458   7.145   7.347   2.896
34478SOL     OW 3459   6.302   6.151   3.570
34478SOL    HW1 3460   6.321   6.216   3.644
34478SOL    HW2 3461   6.362   6.071   3.579
34479SOL     OW 3462   7.036   6.806   3.495
34479SOL    HW1 3463   7.027   6.796   3.594
34479SOL    HW2 3464   7.132   6.799   3.469
34480SOL     OW 3465   5.976   7.327   3.422
34480SOL    HW1 3466   5.885   7.368   3.420
34480SOL    HW2 3467   5.969   7.233   3.454
34481SOL     OW 3468   7.260   6.469   3.116
34481SOL    HW1 3469   7.233   6.380   3.079
34481SOL    HW2 3470   7.261   6.537   3.043
34482SOL     OW 3471   6.811   5.911   2.311
34482SOL    HW1 3472   6.876   5.837   2.300
34482SOL    HW2 3473   6.831   5.961   2.395
34483SOL     OW 3474   6.180   6.331   2.514
34483SOL    HW1 3475   6.230   6.416   2.495
34483SOL    HW2 3476   6.092   6.333   2.466
34484SOL     OW 3477   7.363   5.928   3.504
34484SOL    HW1 3478   7.346   5.959   3.410
34484SOL    HW2 3479   7.279   5.891   3.542
34485SOL     OW 3480   7.316   6.520   3.379
34485SOL    HW1 3481   7.354   6.611   3.394
34485SOL    HW2 3482   7.308   6.503   3.280
34486SOL     OW 3483   6.445   6.960   1.878
34486SOL    HW1 3484   6.399   6.975   1.966
34486SOL    HW2 3485   6.489   7.045   1.848
34487SOL     OW 3486   6.247   7.376   2.815
34487SOL    HW1 3487   6.201   7.464   2.802
34487SOL    HW2 3488   6.346   7.388   2.808
34488SOL     OW 3489   6.445   6.542   2.723
34488SOL    HW1 3490   6.499   6.473   2.771
34488SOL    HW2 3491   6.413   6.611   2.789
34489SOL     OW 3492   6.669   6.570   1.949
34489SOL    HW1 3493   6.646   6.623   1.867
34489SOL    HW2 3494   6.750   6.514   1.930
34490SOL     OW 3495   7.447   7.155   2.713
34490SOL    HW1 3496   7.376   7.143   2.643
34490SOL    HW2 3497   7.448   7.076   2.773
34491SOL     OW 3498   5.807   6.900   3.706
34491SOL    HW1 3499   5.742   6.827   3.685
34491SOL    HW2 3500   5.811   6.914   3.804
34492SOL     OW 3501   5.665   6.826   2.515
34492SOL    HW1 3502   5.664   6.779   2.603
34492SOL    HW2 3503   5.747   6.798   2.464
34493SOL     OW 3504   6.258   6.977   3.486
34493SOL    HW1 3505   6.180   6.927   3.524
34493SOL    HW2 3506   6.255   7.072   3.517
34494SOL     OW 3507   7.410   5.778   3.089
34494SOL    HW1 3508   7.406   5.688   3.133
34494SOL    HW2 3509   7.413   5.767   2.990
34495SOL     OW 3510   6.014   6.010   2.382
34495SOL    HW1 3511   6.044   5.938   2.320
34495SOL    HW2 3512   5.975   5.970   2.465
34496SOL     OW 3513   7.291   7.073   2.966
34496SOL    HW1 3514   7.198   7.048   2.939
34496SOL    HW2 3515   7.317   7.023   3.048
34497SOL     OW 3516   5.903   6.133   3.142
34497SOL    HW1 3517   5.941   6.074   3.214
34497SOL    HW2 3518   5.943   6.107   3.054
34498SOL     OW 3519   6.398   7.172   2.549
34498SOL    HW1 3520   6.430   7.182   2.455
34498SOL    HW2 3521   6.319   7.110   2.551
34499SOL     OW 3522   7.010   5.800   2.974
34499SOL    HW1 3523   7.062   5.735   3.029
34499SOL    HW2 3524   6.961   5.863   3.035
34500SOL     OW 3525   6.587   5.620   3.016
34500SOL    HW1 3526   6.524   5.548   2.985
34500SOL    HW2 3527   6.680   5.584   3.016
34501SOL     OW 3528   6.356   6.916   2.163
34501SOL    HW1 3529   6.310   6.829   2.180
34501SOL    HW2 3530   6.447   6.913   2.204
34502SOL     OW 3531   6.204   7.153   3.146
34502SOL    HW1 3532   6.199   7.235   3.203
34502SOL    HW2 3533   6.293   7.150   3.101
34503SOL     OW 3534   6.938   5.638   2.030
34503SOL    HW1 3535   6.973   5.597   1.946
34503SOL    HW2 3536   6.848   5.600   2.050
34504SOL     OW 3537   6.886   6.039   2.553
34504SOL    HW1 3538   6.827   6.119   2.557
34504SOL    HW2 3539   6.901   6.004   2.646
34505SOL     OW 3540   7.179   5.807   2.744
34505SOL    HW1 3541   7.095   5.806   2.798
34505SOL    HW2 3542   7.181   5.890   2.688
34506SOL     OW 3543   5.625   6.663   2.162
34506SOL    HW1 3544   5.724   6.652   2.153
34506SOL    HW2 3545   5.585   6.577   2.194
34507SOL     OW 3546   6.461   7.232   2.199
34507SOL    HW1 3547   6.384   7.197   2.145
34507SOL    HW2 3548   6.429   7.303   2.261
34508SOL     OW 3549   5.816   6.214   3.837
34508SOL    HW1 3550   5.723   6.212   3.874
34508SOL    HW2 3551   5.817   6.175   3.745
34509SOL     OW 3552   5.811   5.861   4.720
34509SOL    HW1 3553   5.846   5.844   4.812
34509SOL    HW2 3554   5.723   5.816   4.708
34510SOL     OW 3555   5.605   5.954   4.371
34510SOL    HW1 3556   5.523   5.997   4.410
34510SOL    HW2 3557   5.577   5.881   4.308
34511SOL     OW 3558   6.155   6.861   4.889
34511SOL    HW1 3559   6.062   6.854   4.852
34511SOL    HW2 3560   6.166   6.950   4.933
34512SOL     OW 3561   7.141   7.097   4.427
34512SOL    HW1 3562   7.084   7.081   4.508
34512SOL    HW2 3563   7.082   7.107   4.347
34513SOL     OW 3564   6.721   6.289   4.441
34513SOL    HW1 3565   6.778   6.367   4.416
34513SOL    HW2 3566   6.661   6.315   4.517
34514SOL     OW 3567   7.341   6.193   3.955
34514SOL    HW1 3568   7.329   6.180   3.856
34514SOL    HW2 3569   7.311   6.112   4.004
34515SOL     OW 3570   6.354   6.730   4.747
34515SOL    HW1 3571   6.276   6.747   4.807
34515SOL    HW2 3572   6.388   6.817   4.711
34516SOL     OW 3573   6.436   6.384   5.547
34516SOL    HW1 3574   6.432   6.460   5.612
34516SOL    HW2 3575   6.458   6.420   5.456
34517SOL     OW 3576   6.271   6.598   4.389
34517SOL    HW1 3577   6.340   6.582   4.459
34517SOL    HW2 3578   6.198   6.655   4.427
34518SOL     OW 3579   6.272   6.747   5.527
34518SOL    HW1 3580   6.332   6.826   5.541
34518SOL    HW2 3581   6.186   6.778   5.486
34519SOL     OW 3582   5.921   7.021   4.785
34519SOL    HW1 3583   5.843   6.990   4.732
34519SOL    HW2 3584   5.979   7.079   4.728
34520SOL     OW 3585   7.046   7.091   5.063
34520SOL    HW1 3586   7.070   7.185   5.089
34520SOL    HW2 3587   7.030   7.037   5.145
34521SOL     OW 3588   6.024   5.978   5.223
34521SOL    HW1 3589   6.106   5.922   5.232
34521SOL    HW2 3590   5.943   5.920   5.227
34522SOL     OW 3591   7.189   6.033   4.461
34522SOL    HW1 3592   7.115   6.079   4.411
34522SOL    HW2 3593   7.240   6.101   4.514
34523SOL     OW 3594   5.817   7.299   4.207
34523SOL    HW1 3595   5.851   7.376   4.261
34523SOL    HW2 3596   5.861   7.299   4.117
34524SOL     OW 3597   6.713   6.927   5.414
34524SOL    HW1 3598   6.760   6.927   5.502
34524SOL    HW2 3599   6.665   6.840   5.403
34525SOL     OW 3600   5.816   7.020   4.262
34525SOL    HW1 3601   5.790   7.116   4.262
34525SOL    HW2 3602   5.745   6.966   4.307
34526SOL     OW 3603   5.826   6.677   4.610
34526SOL    HW1 3604   5.840   6.593   4.662
34526SOL    HW2 3605   5.771   6.741   4.665
34527SOL     OW 3606   6.206   7.372   5.163
34527SOL    HW1 3607   6.114   7.355   5.198
34527SOL    HW2 3608   6.234   7.464   5.189
34528SOL     OW 3609   6.192   6.550   3.847
34528SOL    HW1 3610   6.199   6.634   3.793
34528SOL    HW2 3611   6.238   6.563   3.935
34529SOL     OW 3612   7.180   5.700   5.204
34529SOL    HW1 3613   7.162   5.767   5.132
34529SOL    HW2 3614   7.177   5.746   5.293
34530SOL     OW 3615   5.708   6.229   4.287
34530SOL    HW1 3616   5.663   6.141   4.304
34530SOL    HW2 3617   5.707   6.283   4.371
34531SOL     OW 3618   7.428   7.353   4.083
34531SOL    HW1 3619   7.482   7.324   4.163
34531SOL    HW2 3620   7.458   7.443   4.054
34532SOL     OW 3621   5.613   7.182   3.841
34532SOL    HW1 3622   5.594   7.086   3.862
34532SOL    HW2 3623   5.580   7.240   3.916
34533SOL     OW 3624   7.275   6.508   4.336
34533SOL    HW1 3625   7.370   6.479   4.344
34533SOL    HW2 3626   7.267   6.573   4.261
34534SOL     OW 3627   7.227   6.694   4.156
34534SOL    HW1 3628   7.313   6.696   4.104
34534SOL    HW2 3629   7.241   6.741   4.244
34535SOL     OW 3630   5.699   6.323   5.321
34535SOL    HW1 3631   5.787   6.310   5.366
34535SOL    HW2 3632   5.686   6.420   5.299
34536SOL     OW 3633   6.199   6.951   4.450
34536SOL    HW1 3634   6.150   6.864   4.459
34536SOL    HW2 3635   6.176   6.994   4.363
34537SOL     OW 3636   6.879   6.814   5.147
34537SOL    HW1 3637   6.916   6.741   5.089
34537SOL    HW2 3638   6.931   6.819   5.232
34538SOL     OW 3639   6.395   5.590   4.226
34538SOL    HW1 3640   6.435   5.681   4.217
34538SOL    HW2 3641   6.295   5.598   4.232
34539SOL     OW 3642   5.783   6.562   4.988
34539SOL    HW1 3643   5.872   6.517   4.974
34539SOL    HW2 3644   5.710   6.497   4.969
34540SOL     OW 3645   7.111   6.585   3.914
34540SOL    HW1 3646   7.048   6.509   3.927
34540SOL    HW2 3647   7.159   6.603   4.000
34541SOL     OW 3648   6.773   7.378   5.340
34541SOL    HW1 3649   6.797   7.438   5.264
34541SOL    HW2 3650   6.780   7.283   5.310
34542SOL     OW 3651   5.903   5.837   5.525
34542SOL    HW1 3652   5.974   5.908   5.531
34542SOL    HW2 3653   5.815   5.876   5.553
34543SOL     OW 3654   7.052   7.003   4.677
34543SOL    HW1 3655   6.993   7.009   4.757
34543SOL    HW2 3656   7.037   6.915   4.631
34544SOL     OW 3657   7.253   7.300   4.296
34544SOL    HW1 3658   7.212   7.277   4.208
34544SOL    HW2 3659   7.235   7.226   4.361
34545SOL     OW 3660   6.184   6.315   3.994
34545SOL    HW1 3661   6.208   6.384   3.926
34545SOL    HW2 3662   6.106   6.348   4.048
34546SOL     OW 3663   6.867   5.931   4.668
34546SOL    HW1 3664   6.781   5.881   4.655
34546SOL    HW2 3665   6.929   5.877   4.724
34547SOL     OW 3666   7.162   7.248   4.031
34547SOL    HW1 3667   7.251   7.294   4.034
34547SOL    HW2 3668   7.141   7.224   3.936
34548SOL     OW 3669   6.393   6.191   5.189
34548SOL    HW1 3670   6.346   6.188   5.278
34548SOL    HW2 3671   6.342   6.136   5.123
34549SOL     OW 3672   6.980   6.055   5.398
34549SOL    HW1 3673   6.960   6.098   5.486
34549SOL    HW2 3674   7.058   5.993   5.407
34550SOL     OW 3675   6.559   6.476   5.296
34550SOL    HW1 3676   6.605   6.392   5.267
34550SOL    HW2 3677   6.503   6.510   5.221
34551SOL     OW 3678   6.577   5.996   4.966
34551SOL    HW1 3679   6.500   6.030   5.020
34551SOL    HW2 3680   6.543   5.945   4.887
34552SOL     OW 3681   6.627   6.287   4.153
34552SOL    HW1 3682   6.653   6.283   4.249
34552SOL    HW2 3683   6.542   6.236   4.139
34553SOL     OW 3684   5.662   6.397   4.513
34553SOL    HW1 3685   5.761   6.385   4.522
34553SOL    HW2 3686   5.638   6.492   4.534
34554SOL     OW 3687   5.716   7.407   5.295
34554SOL    HW1 3688   5.706   7.392   5.394
34554SOL    HW2 3689   5.630   7.443   5.259
34555SOL     OW 3690   6.451   5.934   3.919
34555SOL    HW1 3691   6.510   5.997   3.870
34555SOL    HW2 3692   6.470   5.840   3.890
34556SOL     OW 3693   7.305   6.171   5.555
34556SOL    HW1 3694   7.279   6.260   5.519
34556SOL    HW2 3695   7.303   6.103   5.482
34557SOL     OW 3696   6.948   6.730   4.269
34557SOL    HW1 3697   7.031   6.701   4.221
34557SOL    HW2 3698   6.899   6.797   4.213
34558SOL     OW 3699   6.136   5.782   4.609
34558SOL    HW1 3700   6.131   5.777   4.709
34558SOL    HW2 3701   6.138   5.878   4.580
34559SOL     OW 3702   6.594   7.042   4.201
34559SOL    HW1 3703   6.548   7.114   4.149
34559SOL    HW2 3704   6.590   7.062   4.299
34560SOL     OW 3705   5.937   7.387   4.577
34560SOL    HW1 3706   5.987   7.301   4.583
34560SOL    HW2 3707   6.002   7.464   4.574
34561SOL     OW 3708   7.381   6.652   4.597
34561SOL    HW1 3709   7.319   6.637   4.521
34561SOL    HW2 3710   7.329   6.663   4.682
34562SOL     OW 3711   6.813   7.136   5.230
34562SOL    HW1 3712   6.819   7.059   5.294
34562SOL    HW2 3713   6.761   7.110   5.150
34563SOL     OW 3714   5.907   6.529   3.966
34563SOL    HW1 3715   5.989   6.568   3.924
34563SOL    HW2 3716   5.880   6.447   3.917
34564SOL     OW 3717   7.044   6.321   4.452
34564SOL    HW1 3718   7.039   6.256   4.527
34564SOL    HW2 3719   7.124   6.380   4.465
34565SOL     OW 3720   6.047   6.852   5.451
34565SOL    HW1 3721   5.997   6.853   5.365
34565SOL    HW2 3722   5.984   6.834   5.527
34566SOL     OW 3723   6.697   7.362   3.961
34566SOL    HW1 3724   6.637   7.300   4.011
34566SOL    HW2 3725   6.728   7.318   3.876
34567SOL     OW 3726   5.788   5.871   5.222
34567SOL    HW1 3727   5.708   5.931   5.209
34567SOL    HW2 3728   5.778   5.822   5.308
34568SOL     OW 3729   7.218   6.963   3.805
34568SOL    HW1 3730   7.186   7.057   3.795
34568SOL    HW2 3731   7.142   6.900   3.793
34569SOL     OW 3732   6.050   7.329   4.047
34569SOL    HW1 3733   6.083   7.368   4.133
34569SOL    HW2 3734   6.126   7.322   3.982
34570SOL     OW 3735   6.986   5.693   4.150
34570SOL    HW1 3736   6.962   5.656   4.060
34570SOL    HW2 3737   7.085   5.709   4.154
34571SOL     OW 3738   5.835   7.371   4.965
34571SOL    HW1 3739   5.892   7.306   5.015
34571SOL    HW2 3740   5.819   7.338   4.872
34572SOL     OW 3741   6.526   7.284   4.628
34572SOL    HW1 3742   6.606   7.227   4.649
34572SOL    HW2 3743   6.477   7.244   4.551
34573SOL     OW 3744   5.968   6.286   4.204
34573SOL    HW1 3745   6.013   6.196   4.201
34573SOL    HW2 3746   5.874   6.275   4.237
34574SOL     OW 3747   7.133   5.808   5.453
34574SOL    HW1 3748   7.128   5.845   5.545
34574SOL    HW2 3749   7.061   5.739   5.441
34575SOL     OW 3750   6.200   5.708   3.841
34575SOL    HW1 3751   6.298   5.686   3.848
34575SOL    HW2 3752   6.169   5.691   3.748
34576SOL     OW 3753   6.367   5.850   5.473
34576SOL    HW1 3754   6.434   5.789   5.516
34576SOL    HW2 3755   6.294   5.869   5.538
34577SOL     OW 3756   6.474   7.100   4.919
34577SOL    HW1 3757   6.451   7.075   4.825
34577SOL    HW2 3758   6.535   7.031   4.958
34578SOL     OW 3759   6.937   6.176   5.157
34578SOL    HW1 3760   6.965   6.133   5.242
34578SOL    HW2 3761   6.962   6.272   5.158
34579SOL     OW 3762   6.389   6.988   4.648
34579SOL    HW1 3763   6.479   7.002   4.606
34579SOL    HW2 3764   6.318   6.990   4.577
34580SOL     OW 3765   6.508   6.089   4.623
34580SOL    HW1 3766   6.483   6.080   4.527
34580SOL    HW2 3767   6.556   6.007   4.654
34581SOL     OW 3768   6.125   5.650   4.236
34581SOL    HW1 3769   6.044   5.651   4.294
34581SOL    HW2 3770   6.128   5.733   4.181
34582SOL     OW 3771   7.020   6.774   3.765
34582SOL    HW1 3772   7.052   6.698   3.822
34582SOL    HW2 3773   6.928   6.801   3.795
34583SOL     OW 3774   5.883   5.621   3.895
34583SOL    HW1 3775   5.932   5.705   3.874
34583SOL    HW2 3776   5.945   5.556   3.940
34584SOL     OW 3777   6.521   5.822   4.204
34584SOL    HW1 3778   6.473   5.863   4.126
34584SOL    HW2 3779   6.620   5.820   4.185
34585SOL     OW 3780   6.662   6.269   5.188
34585SOL    HW1 3781   6.582   6.208   5.191
34585SOL    HW2 3782   6.743   6.216   5.164
34586SOL     OW 3783   6.813   7.156   4.517
34586SOL    HW1 3784   6.834   7.230   4.452
34586SOL    HW2 3785   6.881   7.156   4.590
34587SOL     OW 3786   6.045   6.738   4.465
34587SOL    HW1 3787   5.974   6.711   4.530
34587SOL    HW2 3788   6.019   6.710   4.372
34588SOL     OW 3789   6.857   7.383   4.315
34588SOL    HW1 3790   6.901   7.447   4.251
34588SOL    HW2 3791   6.807   7.435   4.385
34589SOL     OW 3792   6.618   6.135   3.740
34589SOL    HW1 3793   6.577   6.217   3.701
34589SOL    HW2 3794   6.682   6.161   3.813
34590SOL     OW 3795   5.664   6.142   5.110
34590SOL    HW1 3796   5.756   6.141   5.069
34590SOL    HW2 3797   5.658   6.216   5.177
34591SOL     OW 3798   6.147   5.808   4.871
34591SOL    HW1 3799   6.185   5.724   4.908
34591SOL    HW2 3800   6.059   5.827   4.915
34592SOL     OW 3801   6.452   6.040   4.366
34592SOL    HW1 3802   6.420   6.112   4.304
34592SOL    HW2 3803   6.476   5.959   4.313
34593SOL     OW 3804   6.603   5.625   4.477
34593SOL    HW1 3805   6.531   5.630   4.408
34593SOL    HW2 3806   6.579   5.556   4.546
34594SOL     OW 3807   7.015   6.759   4.591
34594SOL    HW1 3808   6.960   6.675   4.584
34594SOL    HW2 3809   7.041   6.788   4.499
34595SOL     OW 3810   7.052   6.176   4.716
34595SOL    HW1 3811   7.022   6.081   4.723
34595SOL    HW2 3812   7.125   6.192   4.782
34596SOL     OW 3813   7.443   6.419   4.101
34596SOL    HW1 3814   7.485   6.355   4.165
34596SOL    HW2 3815   7.405   6.368   4.023
34597SOL     OW 3816   6.074   6.971   3.898
34597SOL    HW1 3817   5.987   6.956   3.945
34597SOL    HW2 3818   6.057   6.997   3.803
34598SOL     OW 3819   7.250   6.866   4.381
34598SOL    HW1 3820   7.349   6.874   4.395
34598SOL    HW2 3821   7.205   6.950   4.412
34599SOL     OW 3822   6.976   6.161   3.802
34599SOL    HW1 3823   6.922   6.140   3.883
34599SOL    HW2 3824   7.067   6.120   3.811
34600SOL     OW 3825   6.113   5.842   4.052
34600SOL    HW1 3826   6.140   5.783   3.977
34600SOL    HW2 3827   6.113   5.937   4.021
34601SOL     OW 3828   7.340   6.809   5.312
34601SOL    HW1 3829   7.431   6.770   5.299
34601SOL    HW2 3830   7.348   6.905   5.336
34602SOL     OW 3831   6.650   6.933   5.064
34602SOL    HW1 3832   6.570   6.910   5.119
34602SOL    HW2 3833   6.733   6.907   5.113
34603SOL     OW 3834   7.178   7.215   5.349
34603SOL    HW1 3835   7.205   7.249   5.259
34603SOL    HW2 3836   7.257   7.177   5.395
34604SOL     OW 3837   6.697   6.781   4.824
34604SOL    HW1 3838   6.657   6.825   4.905
34604SOL    HW2 3839   6.656   6.818   4.741
34605SOL     OW 3840   7.224   6.685   4.803
34605SOL    HW1 3841   7.229   6.766   4.862
34605SOL    HW2 3842   7.138   6.687   4.752
34606SOL     OW 3843   6.501   5.675   5.126
34606SOL    HW1 3844   6.526   5.655   5.031
34606SOL    HW2 3845   6.573   5.731   5.168
34607SOL     OW 3846   6.566   6.702   5.443
34607SOL    HW1 3847   6.467   6.708   5.453
34607SOL    HW2 3848   6.589   6.622   5.387
34608SOL     OW 3849   6.291   6.636   4.092
34608SOL    HW1 3850   6.277   6.643   4.191
34608SOL    HW2 3851   6.375   6.585   4.074
34609SOL     OW 3852   5.996   6.399   4.975
34609SOL    HW1 3853   6.082   6.411   5.025
34609SOL    HW2 3854   5.954   6.312   5.002
34610SOL     OW 3855   6.860   5.972   4.986
34610SOL    HW1 3856   6.881   6.046   5.050
34610SOL    HW2 3857   6.771   5.989   4.943
34611SOL     OW 3858   5.650   7.150   5.055
34611SOL    HW1 3859   5.604   7.232   5.021
34611SOL    HW2 3860   5.748   7.169   5.064
34612SOL     OW 3861   5.953   6.686   4.225
34612SOL    HW1 3862   5.946   6.769   4.169
34612SOL    HW2 3863   5.957   6.606   4.165
34613SOL     OW 3864   6.152   6.123   4.589
34613SOL    HW1 3865   6.164   6.189   4.515
34613SOL    HW2 3866   6.198   6.157   4.672
34614SOL     OW 3867   6.838   6.934   4.112
34614SOL    HW1 3868   6.888   7.011   4.152
34614SOL    HW2 3869   6.743   6.936   4.144
34615SOL     OW 3870   6.858   7.031   4.866
34615SOL    HW1 3871   6.905   7.044   4.953
34615SOL    HW2 3872   6.792   6.957   4.875
34616SOL     OW 3873   7.168   6.225   4.196
34616SOL    HW1 3874   7.137   6.286   4.269
34616SOL    HW2 3875   7.218   6.277   4.127
34617SOL     OW 3876   5.940   7.096   5.053
34617SOL    HW1 3877   5.919   7.052   4.966
34617SOL    HW2 3878   6.037   7.122   5.056
34618SOL     OW 3879   5.988   6.337   5.322
34618SOL    HW1 3880   6.056   6.392   5.275
34618SOL    HW2 3881   6.028   6.249   5.349
34619SOL     OW 3882   7.173   6.365   5.394
34619SOL    HW1 3883   7.081   6.403   5.389
34619SOL    HW2 3884   7.233   6.412   5.329
34620SOL     OW 3885   6.599   5.691   5.494
34620SOL    HW1 3886   6.605   5.776   5.442
34620SOL    HW2 3887   6.631   5.615   5.437
34621SOL     OW 3888   6.090   5.636   5.464
34621SOL    HW1 3889   6.048   5.579   5.394
34621SOL    HW2 3890   6.024   5.705   5.496
34622SOL     OW 3891   6.159   6.456   4.753
34622SOL    HW1 3892   6.203   6.545   4.744
34622SOL    HW2 3893   6.096   6.456   4.830
34623SOL     OW 3894   6.946   6.448   4.769
34623SOL    HW1 3895   6.871   6.448   4.703
34623SOL    HW2 3896   6.983   6.356   4.778
34624SOL     OW 3897   6.795   6.111   3.999
34624SOL    HW1 3898   6.808   6.027   4.053
34624SOL    HW2 3899   6.766   6.185   4.059
34625SOL     OW 3900   5.893   5.799   4.955
34625SOL    HW1 3901   5.870   5.836   5.045
34625SOL    HW2 3902   5.863   5.704   4.949
34626SOL     OW 3903   5.623   6.896   5.006
34626SOL    HW1 3904   5.676   6.847   5.074
34626SOL    HW2 3905   5.645   6.994   5.011
34627SOL     OW 3906   6.318   6.220   4.788
34627SOL    HW1 3907   6.377   6.194   4.712
34627SOL    HW2 3908   6.290   6.316   4.777
34628SOL     OW 3909   7.314   6.521   5.578
34628SOL    HW1 3910   7.268   6.514   5.489
34628SOL    HW2 3911   7.252   6.565   5.644
34629SOL     OW 3912   5.893   5.649   4.342
34629SOL    HW1 3913   5.882   5.743   4.375
34629SOL    HW2 3914   5.888   5.586   4.419
34630SOL     OW 3915   7.208   5.953   4.098
34630SOL    HW1 3916   7.210   5.877   4.162
34630SOL    HW2 3917   7.160   6.030   4.138
34631SOL     OW 3918   6.609   6.352   4.690
34631SOL    HW1 3919   6.624   6.373   4.786
34631SOL    HW2 3920   6.579   6.257   4.681
34632SOL     OW 3921   6.566   7.159   5.424
34632SOL    HW1 3922   6.546   7.203   5.336
34632SOL    HW2 3923   6.605   7.068   5.408
34633SOL     OW 3924   7.445   7.104   5.329
34633SOL    HW1 3925   7.459   7.131   5.234
34633SOL    HW2 3926   7.528   7.126   5.382
34634SOL     OW 3927   5.936   6.484   5.528
34634SOL    HW1 3928   6.012   6.528   5.576
34634SOL    HW2 3929   5.971   6.437   5.446
34635SOL     OW 3930   7.126   5.860   3.849
34635SOL    HW1 3931   7.065   5.785   3.872
34635SOL    HW2 3932   7.148   5.912   3.932
34636SOL     OW 3933   6.889   6.424   3.766
34636SOL    HW1 3934   6.923   6.331   3.781
34636SOL    HW2 3935   6.907   6.451   3.671
34637SOL     OW 3936   6.654   6.919   4.573
34637SOL    HW1 3937   6.661   6.835   4.518
34637SOL    HW2 3938   6.716   6.988   4.537
34638SOL     OW 3939   5.905   6.396   4.673
34638SOL    HW1 3940   5.998   6.432   4.678
34638SOL    HW2 3941   5.899   6.311   4.725
34639SOL     OW 3942   5.925   6.095   4.730
34639SOL    HW1 3943   5.873   6.012   4.713
34639SOL    HW2 3944   6.002   6.100   4.666
34640SOL     OW 3945   6.724   5.966   5.402
34640SOL    HW1 3946   6.679   6.029   5.466
34640SOL    HW2 3947   6.817   5.997   5.385
34641SOL     OW 3948   6.746   5.793   5.201
34641SOL    HW1 3949   6.746   5.857   5.278
34641SOL    HW2 3950   6.774   5.841   5.118
34642SOL     OW 3951   5.594   6.912   3.924
34642SOL    HW1 3952   5.501   6.933   3.893
34642SOL    HW2 3953   5.604   6.813   3.937
34643SOL     OW 3954   5.674   7.387   4.651
34643SOL    HW1 3955   5.632   7.301   4.624
34643SOL    HW2 3956   5.768   7.390   4.617
34644SOL     OW 3957   6.090   7.154   4.634
34644SOL    HW1 3958   6.156   7.228   4.643
34644SOL    HW2 3959   6.134   7.075   4.592
34645SOL     OW 3960   6.588   6.382   4.962
34645SOL    HW1 3961   6.629   6.350   5.048
34645SOL    HW2 3962   6.492   6.355   4.959
34646SOL     OW 3963   5.626   6.130   4.838
34646SOL    HW1 3964   5.711   6.097   4.797
34646SOL    HW2 3965   5.639   6.145   4.936
34647SOL     OW 3966   5.775   6.106   5.446
34647SOL    HW1 3967   5.834   6.066   5.376
34647SOL    HW2 3968   5.717   6.177   5.405
34648SOL     OW 3969   6.955   6.536   5.384
34648SOL    HW1 3970   6.994   6.625   5.404
34648SOL    HW2 3971   6.965   6.516   5.287
34649SOL     OW 3972   6.401   6.158   4.049
34649SOL    HW1 3973   6.408   6.069   4.003
34649SOL    HW2 3974   6.307   6.192   4.041
34650SOL     OW 3975   7.243   6.190   4.930
34650SOL    HW1 3976   7.205   6.121   4.992
34650SOL    HW2 3977   7.325   6.154   4.886
34651SOL     OW 3978   5.838   7.150   5.468
34651SOL    HW1 3979   5.808   7.207   5.544
34651SOL    HW2 3980   5.831   7.053   5.494
34652SOL     OW 3981   6.257   6.050   4.993
34652SOL    HW1 3982   6.223   5.961   4.963
34652SOL    HW2 3983   6.283   6.104   4.913
34653SOL     OW 3984   6.516   7.264   5.189
34653SOL    HW1 3985   6.492   7.246   5.094
34653SOL    HW2 3986   6.546   7.358   5.199
34654SOL     OW 3987   6.059   6.086   3.915
34654SOL    HW1 3988   6.120   6.166   3.919
34654SOL    HW2 3989   5.964   6.117   3.922
34655SOL     OW 3990   5.745   6.723   5.190
34655SOL    HW1 3991   5.767   6.662   5.266
34655SOL    HW2 3992   5.755   6.674   5.104
34656SOL     OW 3993   6.933   6.645   4.958
34656SOL    HW1 3994   6.957   6.582   4.884
34656SOL    HW2 3995   6.843   6.685   4.940
34657SOL     OW 3996   6.888   6.441   4.033
34657SOL    HW1 3997   6.802   6.410   4.075
34657SOL    HW2 3998   6.884   6.427   3.934
34658SOL     OW 3999   7.345   7.333   4.878
34658SOL    HW1 4000   7.406   7.363   4.805
34658SOL    HW2 4001   7.307   7.244   4.856
34659SOL     OW 4002   6.838   7.317   4.852
34659SOL    HW1 4003   6.922   7.322   4.798
34659SOL    HW2 4004   6.815   7.221   4.870
34660SOL     OW 4005   5.669   6.844   4.746
34660SOL    HW1 4006   5.664   6.843   4.846
34660SOL    HW2 4007   5.586   6.803   4.708
34661SOL     OW 4008   6.274   7.248   5.440
34661SOL    HW1 4009   6.218   7.329   5.449
34661SOL    HW2 4010   6.326   7.252   5.354
34662SOL     OW 4011   7.312   5.721   4.247
34662SOL    HW1 4012   7.385   5.704   4.180
34662SOL    HW2 4013   7.281   5.634   4.285
34663SOL     OW 4014   6.974   7.159   4.201
34663SOL    HW1 4015   7.041   7.171   4.127
34663SOL    HW2 4016   6.934   7.248   4.224
34664SOL     OW 4017   5.716   7.380   5.575
34664SOL    HW1 4018   5.675   7.306   5.628
34664SOL    HW2 4019   5.780   7.431   5.633
34665SOL     OW 4020   6.866   6.513   4.396
34665SOL    HW1 4021   6.926   6.432   4.398
34665SOL    HW2 4022   6.906   6.582   4.336
34666SOL     OW 4023   6.416   6.859   5.146
34666SOL    HW1 4024   6.411   6.892   5.241
34666SOL    HW2 4025   6.330   6.878   5.100
34667SOL     OW 4026   6.258   7.202   3.878
34667SOL    HW1 4027   6.267   7.212   3.779
34667SOL    HW2 4028   6.218   7.113   3.899
34668SOL     OW 4029   7.236   7.306   5.118
34668SOL    HW1 4030   7.289   7.316   5.034
34668SOL    HW2 4031   7.209   7.396   5.152
34669SOL     OW 4032   7.427   5.761   4.687
34669SOL    HW1 4033   7.466   5.676   4.651
34669SOL    HW2 4034   7.329   5.763   4.668
34670SOL     OW 4035   5.849   5.912   4.444
34670SOL    HW1 4036   5.770   5.963   4.410
34670SOL    HW2 4037   5.840   5.897   4.542
34671SOL     OW 4038   6.780   7.198   3.755
34671SOL    HW1 4039   6.786   7.105   3.792
34671SOL    HW2 4040   6.721   7.198   3.675
34672SOL     OW 4041   6.408   6.588   5.096
34672SOL    HW1 4042   6.448   6.587   5.004
34672SOL    HW2 4043   6.418   6.680   5.136
34673SOL     OW 4044   6.502   6.496   4.015
34673SOL    HW1 4045   6.565   6.534   3.947
34673SOL    HW2 4046   6.542   6.413   4.054
34674SOL     OW 4047   7.090   7.193   3.768
34674SOL    HW1 4048   6.998   7.230   3.775
34674SOL    HW2 4049   7.128   7.213   3.678
34675SOL     OW 4050   5.958   6.874   5.214
34675SOL    HW1 4051   5.945   6.967   5.180
34675SOL    HW2 4052   5.874   6.822   5.201
34676SOL     OW 4053   7.200   6.878   5.013
34676SOL    HW1 4054   7.260   6.881   5.093
34676SOL    HW2 4055   7.125   6.942   5.026
34677SOL     OW 4056   6.625   6.684   4.420
34677SOL    HW1 4057   6.555   6.637   4.474
34677SOL    HW2 4058   6.684   6.616   4.377
34678SOL     OW 4059   6.600   5.822   4.695
34678SOL    HW1 4060   6.592   5.786   4.602
34678SOL    HW2 4061   6.598   5.746   4.760
34679SOL     OW 4062   6.176   7.073   4.215
34679SOL    HW1 4063   6.218   7.015   4.145
34679SOL    HW2 4064   6.132   7.152   4.171
34680SOL     OW 4065   7.295   5.971   5.105
34680SOL    HW1 4066   7.368   6.040   5.109
34680SOL    HW2 4067   7.323   5.896   5.046
34681SOL     OW 4068   5.841   6.934   4.014
34681SOL    HW1 4069   5.745   6.935   3.987
34681SOL    HW2 4070   5.853   6.987   4.098
34682SOL     OW 4071   5.691   6.599   5.450
34682SOL    HW1 4072   5.614   6.566   5.504
34682SOL    HW2 4073   5.776   6.569   5.492
34683SOL     OW 4074   6.258   5.789   5.213
34683SOL    HW1 4075   6.348   5.773   5.173
34683SOL    HW2 4076   6.266   5.794   5.312
34684SOL     OW 4077   5.661   5.931   3.757
34684SOL    HW1 4078   5.569   5.903   3.728
34684SOL    HW2 4079   5.692   6.008   3.701
34685SOL     OW 4080   7.026   6.442   5.122
34685SOL    HW1 4081   6.969   6.494   5.059
34685SOL    HW2 4082   7.122   6.454   5.098
34686SOL     OW 4083   5.658   5.752   4.042
34686SOL    HW1 4084   5.641   5.835   3.988
34686SOL    HW2 4085   5.748   5.715   4.020
34687SOL     OW 4086   6.769   6.921   3.843
34687SOL    HW1 4087   6.670   6.910   3.845
34687SOL    HW2 4088   6.803   6.936   3.936
34688SOL     OW 4089   6.199   6.428   5.155
34688SOL    HW1 4090   6.255   6.509   5.138
34688SOL    HW2 4091   6.258   6.348   5.158
34689SOL     OW 4092   7.079   7.353   4.683
34689SOL    HW1 4093   7.112   7.417   4.614
34689SOL    HW2 4094   7.145   7.347   4.758
34690SOL     OW 4095   6.302   6.151   5.432
34690SOL    HW1 4096   6.321   6.216   5.506
34690SOL    HW2 4097   6.362   6.071   5.441
34691SOL     OW 4098   7.036   6.806   5.357
34691SOL    HW1 4099   7.027   6.796   5.456
34691SOL    HW2 4100   7.132   6.799   5.331
34692SOL     OW 4101   5.976   7.327   5.284
34692SOL    HW1 4102   5.885   7.368   5.282
34692SOL    HW2 4103   5.969   7.233   5.316
34693SOL     OW 4104   7.260   6.469   4.978
34693SOL    HW1 4105   7.233   6.380   4.941
34693SOL    HW2 4106   7.261   6.537   4.905
34694SOL     OW 4107   6.811   5.911   4.173
34694SOL    HW1 4108   6.876   5.837   4.162
34694SOL    HW2 4109   6.831   5.961   4.257
34695SOL     OW 4110   6.180   6.331   4.376
34695SOL    HW1 4111   6.230   6.416   4.357
34695SOL    HW2 4112   6.092   6.333   4.328
34696SOL     OW 4113   7.363   5.928   5.366
34696SOL    HW1 4114   7.346   5.959   5.272
34696SOL    HW2 4115   7.279   5.891   5.404
34697SOL     OW 4116   7.316   6.520   5.241
34697SOL    HW1 4117   7.354   6.611   5.256
34697SOL    HW2 4118   7.308   6.503   5.142
34698SOL     OW 4119   6.445   6.960   3.740
34698SOL    HW1 4120   6.399   6.975   3.828
34698SOL    HW2 4121   6.489   7.045   3.710
34699SOL     OW 4122   6.247   7.376   4.677
34699SOL    HW1 4123   6.201   7.464   4.664
34699SOL    HW2 4124   6.346   7.388   4.670
34700SOL     OW 4125   6.445   6.542   4.585
34700SOL    HW1 4126   6.499   6.473   4.633
34700SOL    HW2 4127   6.413   6.611   4.651
34701SOL     OW 4128   6.669   6.570   3.811
34701SOL    HW1 4129   6.646   6.623   3.729
34701SOL    HW2 4130   6.750   6.514   3.792
34702SOL     OW 4131   7.447   7.155   4.575
34702SOL    HW1 4132   7.376   7.143   4.505
34702SOL    HW2 4133   7.448   7.076   4.635
34703SOL     OW 4134   5.807   6.900   5.568
34703SOL    HW1 4135   5.742   6.827   5.547
34703SOL    HW2 4136   5.811   6.914   5.666
34704SOL     OW 4137   5.665   6.826   4.377
34704SOL    HW1 4138   5.664   6.779   4.465
34704SOL    HW2 4139   5.747   6.798   4.326
34705SOL     OW 4140   6.258   6.977   5.348
34705SOL    HW1 4141   6.180   6.927   5.386
34705SOL    HW2 4142   6.255   7.072   5.379
34706SOL     OW 4143   7.410   5.778   4.951
34706SOL    HW1 4144   7.406   5.688   4.995
34706SOL    HW2 4145   7.413   5.767   4.852
34707SOL     OW 4146   6.014   6.010   4.244
34707SOL    HW1 4147   6.044   5.938   4.182
34707SOL    HW2 4148   5.975   5.970   4.327
34708SOL     OW 4149   7.291   7.073   4.828
34708SOL    HW1 4150   7.198   7.048   4.801
34708SOL    HW2 4151   7.317   7.023   4.910
34709SOL     OW 4152   5.903   6.133   5.004
34709SOL    HW1 4153   5.941   6.074   5.076
34709SOL    HW2 4154   5.943   6.107   4.916
34710SOL     OW 4155   6.398   7.172   4.411
34710SOL    HW1 4156   6.430   7.182   4.317
34710SOL    HW2 4157   6.319   7.110   4.413
34711SOL     OW 4158   7.010   5.800   4.836
34711SOL    HW1 4159   7.062   5.735   4.891
34711SOL    HW2 4160   6.961   5.863   4.897
34712SOL     OW 4161   6.587   5.620   4.878
34712SOL    HW1 4162   6.524   5.548   4.847
34712SOL    HW2 4163   6.680   5.584   4.878
34713SOL     OW 4164   6.356   6.916   4.025
34713SOL    HW1 4165   6.310   6.829   4.042
34713SOL    HW2 4166   6.447   6.913   4.066
34714SOL     OW 4167   6.204   7.153   5.008
34714SOL    HW1 4168   6.199   7.235   5.065
34714SOL    HW2 4169   6.293   7.150   4.963
34715SOL     OW 4170   6.938   5.638   3.892
34715SOL    HW1 4171   6.973   5.597   3.808
34715SOL    HW2 4172   6.848   5.600   3.912
34716SOL     OW 4173   6.886   6.039   4.415
34716SOL    HW1 4174   6.827   6.119   4.419
34716SOL    HW2 4175   6.901   6.004   4.508
34717SOL     OW 4176   7.179   5.807   4.606
34717SOL    HW1 4177   7.095   5.806   4.660
34717SOL    HW2 4178   7.181   5.890   4.550
34718SOL     OW 4179   5.625   6.663   4.024
34718SOL    HW1 4180   5.724   6.652   4.015
34718SOL    HW2 4181   5.585   6.577   4.056
34719SOL     OW 4182   6.461   7.232   4.061
34719SOL    HW1 4183   6.384   7.197   4.007
34719SOL    HW2 4184   6.429   7.303   4.123
34720SOL     OW 4185   5.816   6.214   5.699
34720SOL    HW1 4186   5.723   6.212   5.736
34720SOL    HW2 4187   5.817   6.175   5.607
34721SOL     OW 4188   5.811   5.861   6.582
34721SOL    HW1 4189   5.846   5.844   6.674
34721SOL    HW2 4190   5.723   5.816   6.570
34722SOL     OW 4191   5.605   5.954   6.233
34722SOL    HW1 4192   5.523   5.997   6.272
34722SOL    HW2 4193   5.577   5.881   6.170
34723SOL     OW 4194   6.155   6.861   6.751
34723SOL    HW1 4195   6.062   6.854   6.714
34723SOL    HW2 4196   6.166   6.950   6.795
34724SOL     OW 4197   7.141   7.097   6.289
34724SOL    HW1 4198   7.084   7.081   6.370
34724SOL    HW2 4199   7.082   7.107   6.209
34725SOL     OW 4200   7.341   6.193   5.817
34725SOL    HW1 4201   7.329   6.180   5.718
34725SOL    HW2 4202   7.311   6.112   5.866
34726SOL     OW 4203   6.436   6.384   7.409
34726SOL    HW1 4204   6.432   6.460   7.474
34726SOL    HW2 4205   6.458   6.420   7.318
34727SOL     OW 4206   6.272   6.747   7.389
34727SOL    HW1 4207   6.332   6.826   7.403
34727SOL    HW2 4208   6.186   6.778   7.348
34728SOL     OW 4209   5.921   7.021   6.647
34728SOL    HW1 4210   5.843   6.990   6.594
34728SOL    HW2 4211   5.979   7.079   6.590
34729SOL     OW 4212   7.046   7.091   6.925
34729SOL    HW1 4213   7.070   7.185   6.951
34729SOL    HW2 4214   7.030   7.037   7.007
34730SOL     OW 4215   6.024   5.978   7.085
34730SOL    HW1 4216   6.106   5.922   7.094
34730SOL    HW2 4217   5.943   5.920   7.089
34731SOL     OW 4218   7.189   6.033   6.323
34731SOL    HW1 4219   7.115   6.079   6.273
34731SOL    HW2 4220   7.240   6.101   6.376
34732SOL     OW 4221   5.817   7.299   6.069
34732SOL    HW1 4222   5.851   7.376   6.123
34732SOL    HW2 4223   5.861   7.299   5.979
34733SOL     OW 4224   6.713   6.927   7.276
34733SOL    HW1 4225   6.760   6.927   7.364
34733SOL    HW2 4226   6.665   6.840   7.265
34734SOL     OW 4227   5.816   7.020   6.124
34734SOL    HW1 4228   5.790   7.116   6.124
34734SOL    HW2 4229   5.745   6.966   6.169
34735SOL     OW 4230   5.826   6.677   6.472
34735SOL    HW1 4231   5.840   6.593   6.524
34735SOL    HW2 4232   5.771   6.741   6.527
34736SOL     OW 4233   6.206   7.372   7.025
34736SOL    HW1 4234   6.114   7.355   7.060
34736SOL    HW2 4235   6.234   7.464   7.051
34737SOL     OW 4236   6.192   6.550   5.709
34737SOL    HW1 4237   6.199   6.634   5.655
34737SOL    HW2 4238   6.238   6.563   5.797
34738SOL     OW 4239   7.180   5.700   7.066
34738SOL    HW1 4240   7.162   5.767   6.994
34738SOL    HW2 4241   7.177   5.746   7.155
34739SOL     OW 4242   5.708   6.229   6.149
34739SOL    HW1 4243   5.663   6.141   6.166
34739SOL    HW2 4244   5.707   6.283   6.233
34740SOL     OW 4245   7.428   7.353   5.945
34740SOL    HW1 4246   7.482   7.324   6.025
34740SOL    HW2 4247   7.458   7.443   5.916
34741SOL     OW 4248   5.613   7.182   5.703
34741SOL    HW1 4249   5.594   7.086   5.724
34741SOL    HW2 4250   5.580   7.240   5.778
34742SOL     OW 4251   7.275   6.508   6.198
34742SOL    HW1 4252   7.370   6.479   6.206
34742SOL    HW2 4253   7.267   6.573   6.123
34743SOL     OW 4254   7.227   6.694   6.018
34743SOL    HW1 4255   7.313   6.696   5.966
34743SOL    HW2 4256   7.241   6.741   6.106
34744SOL     OW 4257   5.699   6.323   7.183
34744SOL    HW1 4258   5.787   6.310   7.228
34744SOL    HW2 4259   5.686   6.420   7.161
34745SOL     OW 4260   6.199   6.951   6.312
34745SOL    HW1 4261   6.150   6.864   6.321
34745SOL    HW2 4262   6.176   6.994   6.225
34746SOL     OW 4263   6.879   6.814   7.009
34746SOL    HW1 4264   6.916   6.741   6.951
34746SOL    HW2 4265   6.931   6.819   7.094
34747SOL     OW 4266   6.395   5.590   6.088
34747SOL    HW1 4267   6.435   5.681   6.079
34747SOL    HW2 4268   6.295   5.598   6.094
34748SOL     OW 4269   5.783   6.562   6.850
34748SOL    HW1 4270   5.872   6.517   6.836
34748SOL    HW2 4271   5.710   6.497   6.831
34749SOL     OW 4272   7.111   6.585   5.776
34749SOL    HW1 4273   7.048   6.509   5.789
34749SOL    HW2 4274   7.159   6.603   5.862
34750SOL     OW 4275   6.773   7.378   7.202
34750SOL    HW1 4276   6.797   7.438   7.126
34750SOL    HW2 4277   6.780   7.283   7.172
34751SOL     OW 4278   5.903   5.837   7.387
34751SOL    HW1 4279   5.974   5.908   7.393
34751SOL    HW2 4280   5.815   5.876   7.415
34752SOL     OW 4281   7.052   7.003   6.539
34752SOL    HW1 4282   6.993   7.009   6.619
34752SOL    HW2 4283   7.037   6.915   6.493
34753SOL     OW 4284   7.253   7.300   6.158
34753SOL    HW1 4285   7.212   7.277   6.070
34753SOL    HW2 4286   7.235   7.226   6.223
34754SOL     OW 4287   6.184   6.315   5.856
34754SOL    HW1 4288   6.208   6.384   5.788
34754SOL    HW2 4289   6.106   6.348   5.910
34755SOL     OW 4290   6.867   5.931   6.530
34755SOL    HW1 4291   6.781   5.881   6.517
34755SOL    HW2 4292   6.929   5.877   6.586
34756SOL     OW 4293   7.162   7.248   5.893
34756SOL    HW1 4294   7.251   7.294   5.896
34756SOL    HW2 4295   7.141   7.224   5.798
34757SOL     OW 4296   6.393   6.191   7.051
34757SOL    HW1 4297   6.346   6.188   7.140
34757SOL    HW2 4298   6.342   6.136   6.985
34758SOL     OW 4299   6.980   6.055   7.260
34758SOL    HW1 4300   6.960   6.098   7.348
34758SOL    HW2 4301   7.058   5.993   7.269
34759SOL     OW 4302   6.559   6.476   7.158
34759SOL    HW1 4303   6.605   6.392   7.129
34759SOL    HW2 4304   6.503   6.510   7.083
34760SOL     OW 4305   6.577   5.996   6.828
34760SOL    HW1 4306   6.500   6.030   6.882
34760SOL    HW2 4307   6.543   5.945   6.749
34761SOL     OW 4308   5.662   6.397   6.375
34761SOL    HW1 4309   5.761   6.385   6.384
34761SOL    HW2 4310   5.638   6.492   6.396
34762SOL     OW 4311   5.716   7.407   7.157
34762SOL    HW1 4312   5.706   7.392   7.256
34762SOL    HW2 4313   5.630   7.443   7.121
34763SOL     OW 4314   6.451   5.934   5.781
34763SOL    HW1 4315   6.510   5.997   5.732
34763SOL    HW2 4316   6.470   5.840   5.752
34764SOL     OW 4317   7.305   6.171   7.417
34764SOL    HW1 4318   7.279   6.260   7.381
34764SOL    HW2 4319   7.303   6.103   7.344
34765SOL     OW 4320   6.948   6.730   6.131
34765SOL    HW1 4321   7.031   6.701   6.083
34765SOL    HW2 4322   6.899   6.797   6.075
34766SOL     OW 4323   6.136   5.782   6.471
34766SOL    HW1 4324   6.131   5.777   6.571
34766SOL    HW2 4325   6.138   5.878   6.442
34767SOL     OW 4326   6.594   7.042   6.063
34767SOL    HW1 4327   6.548   7.114   6.011
34767SOL    HW2 4328   6.590   7.062   6.161
34768SOL     OW 4329   5.937   7.387   6.439
34768SOL    HW1 4330   5.987   7.301   6.445
34768SOL    HW2 4331   6.002   7.464   6.436
34769SOL     OW 4332   7.381   6.652   6.459
34769SOL    HW1 4333   7.319   6.637   6.383
34769SOL    HW2 4334   7.329   6.663   6.544
34770SOL     OW 4335   6.813   7.136   7.092
34770SOL    HW1 4336   6.819   7.059   7.156
34770SOL    HW2 4337   6.761   7.110   7.012
34771SOL     OW 4338   5.907   6.529   5.828
34771SOL    HW1 4339   5.989   6.568   5.786
34771SOL    HW2 4340   5.880   6.447   5.779
34772SOL     OW 4341   7.044   6.321   6.314
34772SOL    HW1 4342   7.039   6.256   6.389
34772SOL    HW2 4343   7.124   6.380   6.327
34773SOL     OW 4344   6.047   6.852   7.313
34773SOL    HW1 4345   5.997   6.853   7.227
34773SOL    HW2 4346   5.984   6.834   7.389
34774SOL     OW 4347   6.697   7.362   5.823
34774SOL    HW1 4348   6.637   7.300   5.873
34774SOL    HW2 4349   6.728   7.318   5.738
34775SOL     OW 4350   5.788   5.871   7.084
34775SOL    HW1 4351   5.708   5.931   7.071
34775SOL    HW2 4352   5.778   5.822   7.170
34776SOL     OW 4353   7.218   6.963   5.667
34776SOL    HW1 4354   7.186   7.057   5.657
34776SOL    HW2 4355   7.142   6.900   5.655
34777SOL     OW 4356   6.050   7.329   5.909
34777SOL    HW1 4357   6.083   7.368   5.995
34777SOL    HW2 4358   6.126   7.322   5.844
34778SOL     OW 4359   6.986   5.693   6.012
34778SOL    HW1 4360   6.962   5.656   5.922
34778SOL    HW2 4361   7.085   5.709   6.016
34779SOL     OW 4362   5.835   7.371   6.827
34779SOL    HW1 4363   5.892   7.306   6.877
34779SOL    HW2 4364   5.819   7.338   6.734
34780SOL     OW 4365   6.526   7.284   6.490
34780SOL    HW1 4366   6.606   7.227   6.511
34780SOL    HW2 4367   6.477   7.244   6.413
34781SOL     OW 4368   5.968   6.286   6.066
34781SOL    HW1 4369   6.013   6.196   6.063
34781SOL    HW2 4370   5.874   6.275   6.099
34782SOL     OW 4371   7.133   5.808   7.315
34782SOL    HW1 4372   7.128   5.845   7.407
34782SOL    HW2 4373   7.061   5.739   7.303
34783SOL     OW 4374   6.200   5.708   5.703
34783SOL    HW1 4375   6.298   5.686   5.710
34783SOL    HW2 4376   6.169   5.691   5.610
34784SOL     OW 4377   6.367   5.850   7.335
34784SOL    HW1 4378   6.434   5.789   7.378
34784SOL    HW2 4379   6.294   5.869   7.400
34785SOL     OW 4380   6.474   7.100   6.781
34785SOL    HW1 4381   6.451   7.075   6.687
34785SOL    HW2 4382   6.535   7.031   6.820
34786SOL     OW 4383   6.937   6.176   7.019
34786SOL    HW1 4384   6.965   6.133   7.104
34786SOL    HW2 4385   6.962   6.272   7.020
34787SOL     OW 4386   6.389   6.988   6.510
34787SOL    HW1 4387   6.479   7.002   6.468
34787SOL    HW2 4388   6.318   6.990   6.439
34788SOL     OW 4389   6.125   5.650   6.098
34788SOL    HW1 4390   6.044   5.651   6.156
34788SOL    HW2 4391   6.128   5.733   6.043
34789SOL     OW 4392   7.020   6.774   5.627
34789SOL    HW1 4393   7.052   6.698   5.684
34789SOL    HW2 4394   6.928   6.801   5.657
34790SOL     OW 4395   5.883   5.621   5.757
34790SOL    HW1 4396   5.932   5.705   5.736
34790SOL    HW2 4397   5.945   5.556   5.802
34791SOL     OW 4398   6.521   5.822   6.066
34791SOL    HW1 4399   6.473   5.863   5.988
34791SOL    HW2 4400   6.620   5.820   6.047
34792SOL     OW 4401   6.662   6.269   7.050
34792SOL    HW1 4402   6.582   6.208   7.053
34792SOL    HW2 4403   6.743   6.216   7.026
34793SOL     OW 4404   6.813   7.156   6.379
34793SOL    HW1 4405   6.834   7.230   6.314
34793SOL    HW2 4406   6.881   7.156   6.452
34794SOL     OW 4407   6.857   7.383   6.177
34794SOL    HW1 4408   6.901   7.447   6.113
34794SOL    HW2 4409   6.807   7.435   6.247
34795SOL     OW 4410   6.618   6.135   5.602
34795SOL    HW1 4411   6.577   6.217   5.563
34795SOL    HW2 4412   6.682   6.161   5.675
34796SOL     OW 4413   5.664   6.142   6.972
34796SOL    HW1 4414   5.756   6.141   6.931
34796SOL    HW2 4415   5.658   6.216   7.039
34797SOL     OW 4416   6.147   5.808   6.733
34797SOL    HW1 4417   6.185   5.724   6.770
34797SOL    HW2 4418   6.059   5.827   6.777
34798SOL     OW 4419   6.603   5.625   6.339
34798SOL    HW1 4420   6.531   5.630   6.270
34798SOL    HW2 4421   6.579   5.556   6.408
34799SOL     OW 4422   7.015   6.759   6.453
34799SOL    HW1 4423   6.960   6.675   6.446
34799SOL    HW2 4424   7.041   6.788   6.361
34800SOL     OW 4425   7.052   6.176   6.578
34800SOL    HW1 4426   7.022   6.081   6.585
34800SOL    HW2 4427   7.125   6.192   6.644
34801SOL     OW 4428   7.443   6.419   5.963
34801SOL    HW1 4429   7.485   6.355   6.027
34801SOL    HW2 4430   7.405   6.368   5.885
34802SOL     OW 4431   6.074   6.971   5.760
34802SOL    HW1 4432   5.987   6.956   5.807
34802SOL    HW2 4433   6.057   6.997   5.665
34803SOL     OW 4434   7.250   6.866   6.243
34803SOL    HW1 4435   7.349   6.874   6.257
34803SOL    HW2 4436   7.205   6.950   6.274
34804SOL     OW 4437   6.976   6.161   5.664
34804SOL    HW1 4438   6.922   6.140   5.745
34804SOL    HW2 4439   7.067   6.120   5.673
34805SOL     OW 4440   6.113   5.842   5.914
34805SOL    HW1 4441   6.140   5.783   5.839
34805SOL    HW2 4442   6.113   5.937   5.883
34806SOL     OW 4443   7.340   6.809   7.174
34806SOL    HW1 4444   7.431   6.770   7.161
34806SOL    HW2 4445   7.348   6.905   7.198
34807SOL     OW 4446   6.650   6.933   6.926
34807SOL    HW1 4447   6.570   6.910   6.981
34807SOL    HW2 4448   6.733   6.907   6.975
34808SOL     OW 4449   7.178   7.215   7.211
34808SOL    HW1 4450   7.205   7.249   7.121
34808SOL    HW2 4451   7.257   7.177   7.257
34809SOL     OW 4452   6.697   6.781   6.686
34809SOL    HW1 4453   6.657   6.825   6.767
34809SOL    HW2 4454   6.656   6.818   6.603
34810SOL     OW 4455   7.224   6.685   6.665
34810SOL    HW1 4456   7.229   6.766   6.724
34810SOL    HW2 4457   7.138   6.687   6.614
34811SOL     OW 4458   6.501   5.675   6.988
34811SOL    HW1 4459   6.526   5.655   6.893
34811SOL    HW2 4460   6.573   5.731   7.030
34812SOL     OW 4461   6.566   6.702   7.305
34812SOL    HW1 4462   6.467   6.708   7.315
34812SOL    HW2 4463   6.589   6.622   7.249
34813SOL     OW 4464   5.996   6.399   6.837
34813SOL    HW1 4465   6.082   6.411   6.887
34813SOL    HW2 4466   5.954   6.312   6.864
34814SOL     OW 4467   6.860   5.972   6.848
34814SOL    HW1 4468   6.881   6.046   6.912
34814SOL    HW2 4469   6.771   5.989   6.805
34815SOL     OW 4470   5.650   7.150   6.917
34815SOL    HW1 4471   5.604   7.232   6.883
34815SOL    HW2 4472   5.748   7.169   6.926
34816SOL     OW 4473   6.152   6.123   6.451
34816SOL    HW1 4474   6.164   6.189   6.377
34816SOL    HW2 4475   6.198   6.157   6.534
34817SOL     OW 4476   6.838   6.934   5.974
34817SOL    HW1 4477   6.888   7.011   6.014
34817SOL    HW2 4478   6.743   6.936   6.006
34818SOL     OW 4479   6.858   7.031   6.728
34818SOL    HW1 4480   6.905   7.044   6.815
34818SOL    HW2 4481   6.792   6.957   6.737
34819SOL     OW 4482   7.168   6.225   6.058
34819SOL    HW1 4483   7.137   6.286   6.131
34819SOL    HW2 4484   7.218   6.277   5.989
34820SOL     OW 4485   5.940   7.096   6.915
34820SOL    HW1 4486   5.919   7.052   6.828
34820SOL    HW2 4487   6.037   7.122   6.918
34821SOL     OW 4488   5.988   6.337   7.184
34821SOL    HW1 4489   6.056   6.392   7.137
34821SOL    HW2 4490   6.028   6.249   7.211
34822SOL     OW 4491   7.173   6.365   7.256
34822SOL    HW1 4492   7.081   6.403   7.251
34822SOL    HW2 4493   7.233   6.412   7.191
34823SOL     OW 4494   6.599   5.691   7.356
34823SOL    HW1 4495   6.605   5.776   7.304
34823SOL    HW2 4496   6.631   5.615   7.299
34824SOL     OW 4497   6.090   5.636   7.326
34824SOL    HW1 4498   6.048   5.579   7.256
34824SOL    HW2 4499   6.024   5.705   7.358
34825SOL     OW 4500   6.946   6.448   6.631
34825SOL    HW1 4501   6.871   6.448   6.565
34825SOL    HW2 4502   6.983   6.356   6.640
34826SOL     OW 4503   6.795   6.111   5.861
34826SOL    HW1 4504   6.808   6.027   5.915
34826SOL    HW2 4505   6.766   6.185   5.921
34827SOL     OW 4506   5.893   5.799   6.817
34827SOL    HW1 4507   5.870   5.836   6.907
34827SOL    HW2 4508   5.863   5.704   6.811
34828SOL     OW 4509   5.623   6.896   6.868
34828SOL    HW1 4510   5.676   6.847   6.936
34828SOL    HW2 4511   5.645   6.994   6.873
34829SOL     OW 4512   7.314   6.521   7.440
34829SOL    HW1 4513   7.268   6.514   7.351
34829SOL    HW2 4514   7.252   6.565   7.506
34830SOL     OW 4515   5.893   5.649   6.204
34830SOL    HW1 4516   5.882   5.743   6.237
34830SOL    HW2 4517   5.888   5.586   6.281
34831SOL     OW 4518   7.208   5.953   5.960
34831SOL    HW1 4519   7.210   5.877   6.024
34831SOL    HW2 4520   7.160   6.030   6.000
34832SOL     OW 4521   6.566   7.159   7.286
34832SOL    HW1 4522   6.546   7.203   7.198
34832SOL    HW2 4523   6.605   7.068   7.270
34833SOL     OW 4524   7.445   7.104   7.191
34833SOL    HW1 4525   7.459   7.131   7.096
34833SOL    HW2 4526   7.528   7.126   7.244
34834SOL     OW 4527   5.936   6.484   7.390
34834SOL    HW1 4528   6.012   6.528   7.438
34834SOL    HW2 4529   5.971   6.437   7.308
34835SOL     OW 4530   7.126   5.860   5.711
34835SOL    HW1 4531   7.065   5.785   5.734
34835SOL    HW2 4532   7.148   5.912   5.794
34836SOL     OW 4533   6.889   6.424   5.628
34836SOL    HW1 4534   6.923   6.331   5.643
34836SOL    HW2 4535   6.907   6.451   5.533
34837SOL     OW 4536   6.654   6.919   6.435
34837SOL    HW1 4537   6.661   6.835   6.380
34837SOL    HW2 4538   6.716   6.988   6.399
34838SOL     OW 4539   5.925   6.095   6.592
34838SOL    HW1 4540   5.873   6.012   6.575
34838SOL    HW2 4541   6.002   6.100   6.528
34839SOL     OW 4542   6.724   5.966   7.264
34839SOL    HW1 4543   6.679   6.029   7.328
34839SOL    HW2 4544   6.817   5.997   7.247
34840SOL     OW 4545   6.746   5.793   7.063
34840SOL    HW1 4546   6.746   5.857   7.140
34840SOL    HW2 4547   6.774   5.841   6.980
34841SOL     OW 4548   5.594   6.912   5.786
34841SOL    HW1 4549   5.501   6.933   5.755
34841SOL    HW2 4550   5.604   6.813   5.799
34842SOL     OW 4551   5.674   7.387   6.513
34842SOL    HW1 4552   5.632   7.301   6.486
34842SOL    HW2 4553   5.768   7.390   6.479
34843SOL     OW 4554   6.090   7.154   6.496
34843SOL    HW1 4555   6.156   7.228   6.505
34843SOL    HW2 4556   6.134   7.075   6.454
34844SOL     OW 4557   6.588   6.382   6.824
34844SOL    HW1 4558   6.629   6.350   6.910
34844SOL    HW2 4559   6.492   6.355   6.821
34845SOL     OW 4560   5.626   6.130   6.700
34845SOL    HW1 4561   5.711   6.097   6.659
34845SOL    HW2 4562   5.639   6.145   6.798
34846SOL     OW 4563   5.775   6.106   7.308
34846SOL    HW1 4564   5.834   6.066   7.238
34846SOL    HW2 4565   5.717   6.177   7.267
34847SOL     OW 4566   6.955   6.536   7.246
34847SOL    HW1 4567   6.994   6.625   7.266
34847SOL    HW2 4568   6.965   6.516   7.149
34848SOL     OW 4569   7.243   6.190   6.792
34848SOL    HW1 4570   7.205   6.121   6.854
34848SOL    HW2 4571   7.325   6.154   6.748
34849SOL     OW 4572   5.838   7.150   7.330
34849SOL    HW1 4573   5.808   7.207   7.406
34849SOL    HW2 4574   5.831   7.053   7.356
34850SOL     OW 4575   6.257   6.050   6.855
34850SOL    HW1 4576   6.223   5.961   6.825
34850SOL    HW2 4577   6.283   6.104   6.775
34851SOL     OW 4578   6.516   7.264   7.051
34851SOL    HW1 4579   6.492   7.246   6.956
34851SOL    HW2 4580   6.546   7.358   7.061
34852SOL     OW 4581   6.059   6.086   5.777
34852SOL    HW1 4582   6.120   6.166   5.781
34852SOL    HW2 4583   5.964   6.117   5.784
34853SOL     OW 4584   5.745   6.723   7.052
34853SOL    HW1 4585   5.767   6.662   7.128
34853SOL    HW2 4586   5.755   6.674   6.966
34854SOL     OW 4587   6.933   6.645   6.820
34854SOL    HW1 4588   6.957   6.582   6.746
34854SOL    HW2 4589   6.843   6.685   6.802
34855SOL     OW 4590   6.888   6.441   5.895
34855SOL    HW1 4591   6.802   6.410   5.937
34855SOL    HW2 4592   6.884   6.427   5.796
34856SOL     OW 4593   7.345   7.333   6.740
34856SOL    HW1 4594   7.406   7.363   6.667
34856SOL    HW2 4595   7.307   7.244   6.718
34857SOL     OW 4596   6.838   7.317   6.714
34857SOL    HW1 4597   6.922   7.322   6.660
34857SOL    HW2 4598   6.815   7.221   6.732
34858SOL     OW 4599   5.669   6.844   6.608
34858SOL    HW1 4600   5.664   6.843   6.708
34858SOL    HW2 4601   5.586   6.803   6.570
34859SOL     OW 4602   6.274   7.248   7.302
34859SOL    HW1 4603   6.218   7.329   7.311
34859SOL    HW2 4604   6.326   7.252   7.216
34860SOL     OW 4605   7.312   5.721   6.109
34860SOL    HW1 4606   7.385   5.704   6.042
34860SOL    HW2 4607   7.281   5.634   6.147
34861SOL     OW 4608   6.974   7.159   6.063
34861SOL    HW1 4609   7.041   7.171   5.989
34861SOL    HW2 4610   6.934   7.248   6.086
34862SOL     OW 4611   5.716   7.380   7.437
34862SOL    HW1 4612   5.675   7.306   7.490
34862SOL    HW2 4613   5.780   7.431   7.495
34863SOL     OW 4614   6.866   6.513   6.258
34863SOL    HW1 4615   6.926   6.432   6.260
34863SOL    HW2 4616   6.906   6.582   6.198
34864SOL     OW 4617   6.416   6.859   7.008
34864SOL    HW1 4618   6.411   6.892   7.103
34864SOL    HW2 4619   6.330   6.878   6.962
34865SOL     OW 4620   6.258   7.202   5.740
34865SOL    HW1 4621   6.267   7.212   5.641
34865SOL    HW2 4622   6.218   7.113   5.761
34866SOL     OW 4623   7.236   7.306   6.980
34866SOL    HW1 4624   7.289   7.316   6.896
34866SOL    HW2 4625   7.209   7.396   7.014
34867SOL     OW 4626   7.427   5.761   6.549
34867SOL    HW1 4627   7.466   5.676   6.513
34867SOL    HW2 4628   7.329   5.763   6.530
34868SOL     OW 4629   5.849   5.912   6.306
34868SOL    HW1 4630   5.770   5.963   6.272
34868SOL    HW2 4631   5.840   5.897   6.404
34869SOL     OW 4632   6.780   7.198   5.617
34869SOL    HW1 4633   6.786   7.105   5.654
34869SOL    HW2 4634   6.721   7.198   5.537
34870SOL     OW 4635   6.408   6.588   6.958
34870SOL    HW1 4636   6.448   6.587   6.866
34870SOL    HW2 4637   6.418   6.680   6.998
34871SOL     OW 4638   6.502   6.496   5.877
34871SOL    HW1 4639   6.565   6.534   5.809
34871SOL    HW2 4640   6.542   6.413   5.916
34872SOL     OW 4641   7.090   7.193   5.630
34872SOL    HW1 4642   6.998   7.230   5.637
34872SOL    HW2 4643   7.128   7.213   5.540
34873SOL     OW 4644   5.958   6.874   7.076
34873SOL    HW1 4645   5.945   6.967   7.042
34873SOL    HW2 4646   5.874   6.822   7.063
34874SOL     OW 4647   7.200   6.878   6.875
34874SOL    HW1 4648   7.260   6.881   6.955
34874SOL    HW2 4649   7.125   6.942   6.888
34875SOL     OW 4650   6.625   6.684   6.282
34875SOL    HW1 4651   6.555   6.637   6.336
34875SOL    HW2 4652   6.684   6.616   6.239
34876SOL     OW 4653   6.600   5.822   6.557
34876SOL    HW1 4654   6.592   5.786   6.464
34876SOL    HW2 4655   6.598   5.746   6.622
34877SOL     OW 4656   6.176   7.073   6.077
34877SOL    HW1 4657   6.218   7.015   6.007
34877SOL    HW2 4658   6.132   7.152   6.033
34878SOL     OW 4659   7.295   5.971   6.967
34878SOL    HW1 4660   7.368   6.040   6.971
34878SOL    HW2 4661   7.323   5.896   6.908
34879SOL     OW 4662   5.841   6.934   5.876
34879SOL    HW1 4663   5.745   6.935   5.849
34879SOL    HW2 4664   5.853   6.987   5.960
34880SOL     OW 4665   5.691   6.599   7.312
34880SOL    HW1 4666   5.614   6.566   7.366
34880SOL    HW2 4667   5.776   6.569   7.354
34881SOL     OW 4668   6.258   5.789   7.075
34881SOL    HW1 4669   6.348   5.773   7.035
34881SOL    HW2 4670   6.266   5.794   7.174
34882SOL     OW 4671   5.661   5.931   5.619
34882SOL    HW1 4672   5.569   5.903   5.590
34882SOL    HW2 4673   5.692   6.008   5.563
34883SOL     OW 4674   7.026   6.442   6.984
34883SOL    HW1 4675   6.969   6.494   6.921
34883SOL    HW2 4676   7.122   6.454   6.960
34884SOL     OW 4677   5.658   5.752   5.904
34884SOL    HW1 4678   5.641   5.835   5.850
34884SOL    HW2 4679   5.748   5.715   5.882
34885SOL     OW 4680   6.769   6.921   5.705
34885SOL    HW1 4681   6.670   6.910   5.707
34885SOL    HW2 4682   6.803   6.936   5.798
34886SOL     OW 4683   6.199   6.428   7.017
34886SOL    HW1 4684   6.255   6.509   7.000
34886SOL    HW2 4685   6.258   6.348   7.020
34887SOL     OW 4686   7.079   7.353   6.545
34887SOL    HW1 4687   7.112   7.417   6.476
34887SOL    HW2 4688   7.145   7.347   6.620
34888SOL     OW 4689   6.302   6.151   7.294
34888SOL    HW1 4690   6.321   6.216   7.368
34888SOL    HW2 4691   6.362   6.071   7.303
34889SOL     OW 4692   7.036   6.806   7.219
34889SOL    HW1 4693   7.027   6.796   7.318
34889SOL    HW2 4694   7.132   6.799   7.193
34890SOL     OW 4695   5.976   7.327   7.146
34890SOL    HW1 4696   5.885   7.368   7.144
34890SOL    HW2 4697   5.969   7.233   7.178
34891SOL     OW 4698   7.260   6.469   6.840
34891SOL    HW1 4699   7.233   6.380   6.803
34891SOL    HW2 4700   7.261   6.537   6.767
34892SOL     OW 4701   6.811   5.911   6.035
34892SOL    HW1 4702   6.876   5.837   6.024
34892SOL    HW2 4703   6.831   5.961   6.119
34893SOL     OW 4704   7.363   5.928   7.228
34893SOL    HW1 4705   7.346   5.959   7.134
34893SOL    HW2 4706   7.279   5.891   7.266
34894SOL     OW 4707   7.316   6.520   7.103
34894SOL    HW1 4708   7.354   6.611   7.118
34894SOL    HW2 4709   7.308   6.503   7.004
34895SOL     OW 4710   6.445   6.960   5.602
34895SOL    HW1 4711   6.399   6.975   5.690
34895SOL    HW2 4712   6.489   7.045   5.572
34896SOL     OW 4713   6.247   7.376   6.539
34896SOL    HW1 4714   6.201   7.464   6.526
34896SOL    HW2 4715   6.346   7.388   6.532
34897SOL     OW 4716   6.669   6.570   5.673
34897SOL    HW1 4717   6.646   6.623   5.591
34897SOL    HW2 4718   6.750   6.514   5.654
34898SOL     OW 4719   7.447   7.155   6.437
34898SOL    HW1 4720   7.376   7.143   6.367
34898SOL    HW2 4721   7.448   7.076   6.497
34899SOL     OW 4722   5.807   6.900   7.430
34899SOL    HW1 4723   5.742   6.827   7.409
34899SOL    HW2 4724   5.811   6.914   7.528
34900SOL     OW 4725   5.665   6.826   6.239
34900SOL    HW1 4726   5.664   6.779   6.327
34900SOL    HW2 4727   5.747   6.798   6.188
34901SOL     OW 4728   6.258   6.977   7.210
34901SOL    HW1 4729   6.180   6.927   7.248
34901SOL    HW2 4730   6.255   7.072   7.241
34902SOL     OW 4731   7.410   5.778   6.813
34902SOL    HW1 4732   7.406   5.688   6.857
34902SOL    HW2 4733   7.413   5.767   6.714
34903SOL     OW 4734   6.014   6.010   6.106
34903SOL    HW1 4735   6.044   5.938   6.044
34903SOL    HW2 4736   5.975   5.970   6.189
34904SOL     OW 4737   7.291   7.073   6.690
34904SOL    HW1 4738   7.198   7.048   6.663
34904SOL    HW2 4739   7.317   7.023   6.772
34905SOL     OW 4740   5.903   6.133   6.866
34905SOL    HW1 4741   5.941   6.074   6.938
34905SOL    HW2 4742   5.943   6.107   6.778
34906SOL     OW 4743   6.398   7.172   6.273
34906SOL    HW1 4744   6.430   7.182   6.179
34906SOL    HW2 4745   6.319   7.110   6.275
34907SOL     OW 4746   7.010   5.800   6.698
34907SOL    HW1 4747   7.062   5.735   6.753
34907SOL    HW2 4748   6.961   5.863   6.759
34908SOL     OW 4749   6.587   5.620   6.740
34908SOL    HW1 4750   6.524   5.548   6.709
34908SOL    HW2 4751   6.680   5.584   6.740
34909SOL     OW 4752   6.356   6.916   5.887
34909SOL    HW1 4753   6.310   6.829   5.904
34909SOL    HW2 4754   6.447   6.913   5.928
34910SOL     OW 4755   6.204   7.153   6.870
34910SOL    HW1 4756   6.199   7.235   6.927
34910SOL    HW2 4757   6.293   7.150   6.825
34911SOL     OW 4758   6.938   5.638   5.754
34911SOL    HW1 4759   6.973   5.597   5.670
34911SOL    HW2 4760   6.848   5.600   5.774
34912SOL     OW 4761   6.886   6.039   6.277
34912SOL    HW1 4762   6.827   6.119   6.281
34912SOL    HW2 4763   6.901   6.004   6.370
34913SOL     OW 4764   7.179   5.807   6.468
34913SOL    HW1 4765   7.095   5.806   6.522
34913SOL    HW2 4766   7.181   5.890   6.412
34914SOL     OW 4767   5.625   6.663   5.886
34914SOL    HW1 4768   5.724   6.652   5.877
34914SOL    HW2 4769   5.585   6.577   5.918
34915SOL     OW 4770   6.461   7.232   5.923
34915SOL    HW1 4771   6.384   7.197   5.869
34915SOL    HW2 4772   6.429   7.303   5.985
34916SOL     OW 4773   5.816   6.214   7.561
34916SOL    HW1 4774   5.723   6.212   7.598
34916SOL    HW2 4775   5.817   6.175   7.469
34917SOL     OW 4776   5.811   5.861   8.444
34917SOL    HW1 4777   5.846   5.844   8.536
34917SOL    HW2 4778   5.723   5.816   8.432
34918SOL     OW 4779   5.605   5.954   8.095
34918SOL    HW1 4780   5.523   5.997   8.134
34918SOL    HW2 4781   5.577   5.881   8.032
34919SOL     OW 4782   6.155   6.861   8.613
34919SOL    HW1 4783   6.062   6.854   8.576
34919SOL    HW2 4784   6.166   6.950   8.657
34920SOL     OW 4785   7.141   7.097   8.151
34920SOL    HW1 4786   7.084   7.081   8.232
34920SOL    HW2 4787   7.082   7.107   8.071
34921SOL     OW 4788   6.721   6.289   8.165
34921SOL    HW1 4789   6.778   6.367   8.140
34921SOL    HW2 4790   6.661   6.315   8.241
34922SOL     OW 4791   7.341   6.193   7.679
34922SOL    HW1 4792   7.329   6.180   7.580
34922SOL    HW2 4793   7.311   6.112   7.728
34923SOL     OW 4794   6.354   6.730   8.471
34923SOL    HW1 4795   6.276   6.747   8.531
34923SOL    HW2 4796   6.388   6.817   8.435
34924SOL     OW 4797   6.436   6.384   9.271
34924SOL    HW1 4798   6.432   6.460   9.336
34924SOL    HW2 4799   6.458   6.420   9.180
34925SOL     OW 4800   6.271   6.598   8.113
34925SOL    HW1 4801   6.340   6.582   8.183
34925SOL    HW2 4802   6.198   6.655   8.151
34926SOL     OW 4803   6.272   6.747   9.251
34926SOL    HW1 4804   6.332   6.826   9.265
34926SOL    HW2 4805   6.186   6.778   9.210
34927SOL     OW 4806   5.921   7.021   8.509
34927SOL    HW1 4807   5.843   6.990   8.456
34927SOL    HW2 4808   5.979   7.079   8.452
34928SOL     OW 4809   7.046   7.091   8.787
34928SOL    HW1 4810   7.070   7.185   8.813
34928SOL    HW2 4811   7.030   7.037   8.869
34929SOL     OW 4812   6.024   5.978   8.947
34929SOL    HW1 4813   6.106   5.922   8.956
34929SOL    HW2 4814   5.943   5.920   8.951
34930SOL     OW 4815   7.189   6.033   8.185
34930SOL    HW1 4816   7.115   6.079   8.135
34930SOL    HW2 4817   7.240   6.101   8.238
34931SOL     OW 4818   5.817   7.299   7.931
34931SOL    HW1 4819   5.851   7.376   7.985
34931SOL    HW2 4820   5.861   7.299   7.841
34932SOL     OW 4821   6.713   6.927   9.138
34932SOL    HW1 4822   6.760   6.927   9.226
34932SOL    HW2 4823   6.665   6.840   9.127
34933SOL     OW 4824   5.816   7.020   7.986
34933SOL    HW1 4825   5.790   7.116   7.986
34933SOL    HW2 4826   5.745   6.966   8.031
34934SOL     OW 4827   5.826   6.677   8.334
34934SOL    HW1 4828   5.840   6.593   8.386
34934SOL    HW2 4829   5.771   6.741   8.389
34935SOL     OW 4830   6.206   7.372   8.887
34935SOL    HW1 4831   6.114   7.355   8.922
34935SOL    HW2 4832   6.234   7.464   8.913
34936SOL     OW 4833   6.192   6.550   7.571
34936SOL    HW1 4834   6.199   6.634   7.517
34936SOL    HW2 4835   6.238   6.563   7.659
34937SOL     OW 4836   7.180   5.700   8.928
34937SOL    HW1 4837   7.162   5.767   8.856
34937SOL    HW2 4838   7.177   5.746   9.017
34938SOL     OW 4839   5.708   6.229   8.011
34938SOL    HW1 4840   5.663   6.141   8.028
34938SOL    HW2 4841   5.707   6.283   8.095
34939SOL     OW 4842   7.428   7.353   7.807
34939SOL    HW1 4843   7.482   7.324   7.887
34939SOL    HW2 4844   7.458   7.443   7.778
34940SOL     OW 4845   5.613   7.182   7.565
34940SOL    HW1 4846   5.594   7.086   7.586
34940SOL    HW2 4847   5.580   7.240   7.640
34941SOL     OW 4848   7.275   6.508   8.060
34941SOL    HW1 4849   7.370   6.479   8.068
34941SOL    HW2 4850   7.267   6.573   7.985
34942SOL     OW 4851   7.227   6.694   7.880
34942SOL    HW1 4852   7.313   6.696   7.828
34942SOL    HW2 4853   7.241   6.741   7.968
34943SOL     OW 4854   5.699   6.323   9.045
34943SOL    HW1 4855   5.787   6.310   9.090
34943SOL    HW2 4856   5.686   6.420   9.023
34944SOL     OW 4857   6.199   6.951   8.174
34944SOL    HW1 4858   6.150   6.864   8.183
34944SOL    HW2 4859   6.176   6.994   8.087
34945SOL     OW 4860   6.879   6.814   8.871
34945SOL    HW1 4861   6.916   6.741   8.813
34945SOL    HW2 4862   6.931   6.819   8.956
34946SOL     OW 4863   6.395   5.590   7.950
34946SOL    HW1 4864   6.435   5.681   7.941
34946SOL    HW2 4865   6.295   5.598   7.956
34947SOL     OW 4866   5.783   6.562   8.712
34947SOL    HW1 4867   5.872   6.517   8.698
34947SOL    HW2 4868   5.710   6.497   8.693
34948SOL     OW 4869   7.111   6.585   7.638
34948SOL    HW1 4870   7.048   6.509   7.651
34948SOL    HW2 4871   7.159   6.603   7.724
34949SOL     OW 4872   6.773   7.378   9.064
34949SOL    HW1 4873   6.797   7.438   8.988
34949SOL    HW2 4874   6.780   7.283   9.034
34950SOL     OW 4875   5.903   5.837   9.249
34950SOL    HW1 4876   5.974   5.908   9.255
34950SOL    HW2 4877   5.815   5.876   9.277
34951SOL     OW 4878   7.052   7.003   8.401
34951SOL    HW1 4879   6.993   7.009   8.481
34951SOL    HW2 4880   7.037   6.915   8.355
34952SOL     OW 4881   7.253   7.300   8.020
34952SOL    HW1 4882   7.212   7.277   7.932
34952SOL    HW2 4883   7.235   7.226   8.085
34953SOL     OW 4884   6.184   6.315   7.718
34953SOL    HW1 4885   6.208   6.384   7.650
34953SOL    HW2 4886   6.106   6.348   7.772
34954SOL     OW 4887   6.867   5.931   8.392
34954SOL    HW1 4888   6.781   5.881   8.379
34954SOL    HW2 4889   6.929   5.877   8.448
34955SOL     OW 4890   7.162   7.248   7.755
34955SOL    HW1 4891   7.251   7.294   7.758
34955SOL    HW2 4892   7.141   7.224   7.660
34956SOL     OW 4893   6.393   6.191   8.913
34956SOL    HW1 4894   6.346   6.188   9.002
34956SOL    HW2 4895   6.342   6.136   8.847
34957SOL     OW 4896   6.980   6.055   9.122
34957SOL    HW1 4897   6.960   6.098   9.210
34957SOL    HW2 4898   7.058   5.993   9.131
34958SOL     OW 4899   6.559   6.476   9.020
34958SOL    HW1 4900   6.605   6.392   8.991
34958SOL    HW2 4901   6.503   6.510   8.945
34959SOL     OW 4902   6.577   5.996   8.690
34959SOL    HW1 4903   6.500   6.030   8.744
34959SOL    HW2 4904   6.543   5.945   8.611
34960SOL     OW 4905   6.627   6.287   7.877
34960SOL    HW1 4906   6.653   6.283   7.973
34960SOL    HW2 4907   6.542   6.236   7.863
34961SOL     OW 4908   5.662   6.397   8.237
34961SOL    HW1 4909   5.761   6.385   8.246
34961SOL    HW2 4910   5.638   6.492   8.258
34962SOL     OW 4911   5.716   7.407   9.019
34962SOL    HW1 4912   5.706   7.392   9.118
34962SOL    HW2 4913   5.630   7.443   8.983
34963SOL     OW 4914   6.451   5.934   7.643
34963SOL    HW1 4915   6.510   5.997   7.594
34963SOL    HW2 4916   6.470   5.840   7.614
34964SOL     OW 4917   7.305   6.171   9.279
34964SOL    HW1 4918   7.279   6.260   9.243
34964SOL    HW2 4919   7.303   6.103   9.206
34965SOL     OW 4920   6.948   6.730   7.993
34965SOL    HW1 4921   7.031   6.701   7.945
34965SOL    HW2 4922   6.899   6.797   7.937
34966SOL     OW 4923   6.136   5.782   8.333
34966SOL    HW1 4924   6.131   5.777   8.433
34966SOL    HW2 4925   6.138   5.878   8.304
34967SOL     OW 4926   6.594   7.042   7.925
34967SOL    HW1 4927   6.548   7.114   7.873
34967SOL    HW2 4928   6.590   7.062   8.023
34968SOL     OW 4929   5.937   7.387   8.301
34968SOL    HW1 4930   5.987   7.301   8.307
34968SOL    HW2 4931   6.002   7.464   8.298
34969SOL     OW 4932   7.381   6.652   8.321
34969SOL    HW1 4933   7.319   6.637   8.245
34969SOL    HW2 4934   7.329   6.663   8.406
34970SOL     OW 4935   6.813   7.136   8.954
34970SOL    HW1 4936   6.819   7.059   9.018
34970SOL    HW2 4937   6.761   7.110   8.874
34971SOL     OW 4938   5.907   6.529   7.690
34971SOL    HW1 4939   5.989   6.568   7.648
34971SOL    HW2 4940   5.880   6.447   7.641
34972SOL     OW 4941   7.044   6.321   8.176
34972SOL    HW1 4942   7.039   6.256   8.251
34972SOL    HW2 4943   7.124   6.380   8.189
34973SOL     OW 4944   6.047   6.852   9.175
34973SOL    HW1 4945   5.997   6.853   9.089
34973SOL    HW2 4946   5.984   6.834   9.251
34974SOL     OW 4947   6.697   7.362   7.685
34974SOL    HW1 4948   6.637   7.300   7.735
34974SOL    HW2 4949   6.728   7.318   7.600
34975SOL     OW 4950   5.788   5.871   8.946
34975SOL    HW1 4951   5.708   5.931   8.933
34975SOL    HW2 4952   5.778   5.822   9.032
34976SOL     OW 4953   7.218   6.963   7.529
34976SOL    HW1 4954   7.186   7.057   7.519
34976SOL    HW2 4955   7.142   6.900   7.517
34977SOL     OW 4956   6.050   7.329   7.771
34977SOL    HW1 4957   6.083   7.368   7.857
34977SOL    HW2 4958   6.126   7.322   7.706
34978SOL     OW 4959   6.986   5.693   7.874
34978SOL    HW1 4960   6.962   5.656   7.784
34978SOL    HW2 4961   7.085   5.709   7.878
34979SOL     OW 4962   5.835   7.371   8.689
34979SOL    HW1 4963   5.892   7.306   8.739
34979SOL    HW2 4964   5.819   7.338   8.596
34980SOL     OW 4965   6.526   7.284   8.352
34980SOL    HW1 4966   6.606   7.227   8.373
34980SOL    HW2 4967   6.477   7.244   8.275
34981SOL     OW 4968   5.968   6.286   7.928
34981SOL    HW1 4969   6.013   6.196   7.925
34981SOL    HW2 4970   5.874   6.275   7.961
34982SOL     OW 4971   7.133   5.808   9.177
34982SOL    HW1 4972   7.128   5.845   9.269
34982SOL    HW2 4973   7.061   5.739   9.165
34983SOL     OW 4974   6.200   5.708   7.565
34983SOL    HW1 4975   6.298   5.686   7.572
34983SOL    HW2 4976   6.169   5.691   7.472
34984SOL     OW 4977   6.367   5.850   9.197
34984SOL    HW1 4978   6.434   5.789   9.240
34984SOL    HW2 4979   6.294   5.869   9.262
34985SOL     OW 4980   6.474   7.100   8.643
34985SOL    HW1 4981   6.451   7.075   8.549
34985SOL    HW2 4982   6.535   7.031   8.682
34986SOL     OW 4983   6.937   6.176   8.881
34986SOL    HW1 4984   6.965   6.133   8.966
34986SOL    HW2 4985   6.962   6.272   8.882
34987SOL     OW 4986   6.389   6.988   8.372
34987SOL    HW1 4987   6.479   7.002   8.330
34987SOL    HW2 4988   6.318   6.990   8.301
34988SOL     OW 4989   6.508   6.089   8.347
34988SOL    HW1 4990   6.483   6.080   8.251
34988SOL    HW2 4991   6.556   6.007   8.378
34989SOL     OW 4992   6.125   5.650   7.960
34989SOL    HW1 4993   6.044   5.651   8.018
34989SOL    HW2 4994   6.128   5.733   7.905
34990SOL     OW 4995   7.020   6.774   7.489
34990SOL    HW1 4996   7.052   6.698   7.546
34990SOL    HW2 4997   6.928   6.801   7.519
34991SOL     OW 4998   5.883   5.621   7.619
34991SOL    HW1 4999   5.932   5.705   7.598
34991SOL    HW2 5000   5.945   5.556   7.664
34992SOL     OW 5001   6.521   5.822   7.928
34992SOL    HW1 5002   6.473   5.863   7.850
34992SOL    HW2 5003   6.620   5.820   7.909
34993SOL     OW 5004   6.662   6.269   8.912
34993SOL    HW1 5005   6.582   6.208   8.915
34993SOL    HW2 5006   6.743   6.216   8.888
34994SOL     OW 5007   6.813   7.156   8.241
34994SOL    HW1 5008   6.834   7.230   8.176
34994SOL    HW2 5009   6.881   7.156   8.314
34995SOL     OW 5010   6.045   6.738   8.189
34995SOL    HW1 5011   5.974   6.711   8.254
34995SOL    HW2 5012   6.019   6.710   8.096
34996SOL     OW 5013   6.857   7.383   8.039
34996SOL    HW1 5014   6.901   7.447   7.975
34996SOL    HW2 5015   6.807   7.435   8.109
34997SOL     OW 5016   6.618   6.135   7.464
34997SOL    HW1 5017   6.577   6.217   7.425
34997SOL    HW2 5018   6.682   6.161   7.537
34998SOL     OW 5019   5.664   6.142   8.834
34998SOL    HW1 5020   5.756   6.141   8.793
34998SOL    HW2 5021   5.658   6.216   8.901
34999SOL     OW 5022   6.147   5.808   8.595
34999SOL    HW1 5023   6.185   5.724   8.632
34999SOL    HW2 5024   6.059   5.827   8.639
35000SOL     OW 5025   6.452   6.040   8.090
35000SOL    HW1 5026   6.420   6.112   8.028
35000SOL    HW2 5027   6.476   5.959   8.037
35001SOL     OW 5028   6.603   5.625   8.201
35001SOL    HW1 5029   6.531   5.630   8.132
35001SOL    HW2 5030   6.579   5.556   8.270
35002SOL     OW 5031   7.015   6.759   8.315
35002SOL    HW1 5032   6.960   6.675   8.308
35002SOL    HW2 5033   7.041   6.788   8.223
35003SOL     OW 5034   7.052   6.176   8.440
35003SOL    HW1 5035   7.022   6.081   8.447
35003SOL    HW2 5036   7.125   6.192   8.506
35004SOL     OW 5037   7.443   6.419   7.825
35004SOL    HW1 5038   7.485   6.355   7.889
35004SOL    HW2 5039   7.405   6.368   7.747
35005SOL     OW 5040   6.074   6.971   7.622
35005SOL    HW1 5041   5.987   6.956   7.669
35005SOL    HW2 5042   6.057   6.997   7.527
35006SOL     OW 5043   7.250   6.866   8.105
35006SOL    HW1 5044   7.349   6.874   8.119
35006SOL    HW2 5045   7.205   6.950   8.136
35007SOL     OW 5046   6.976   6.161   7.526
35007SOL    HW1 5047   6.922   6.140   7.607
35007SOL    HW2 5048   7.067   6.120   7.535
35008SOL     OW 5049   6.113   5.842   7.776
35008SOL    HW1 5050   6.140   5.783   7.701
35008SOL    HW2 5051   6.113   5.937   7.745
35009SOL     OW 5052   7.340   6.809   9.036
35009SOL    HW1 5053   7.431   6.770   9.023
35009SOL    HW2 5054   7.348   6.905   9.060
35010SOL     OW 5055   6.650   6.933   8.788
35010SOL    HW1 5056   6.570   6.910   8.843
35010SOL    HW2 5057   6.733   6.907   8.837
35011SOL     OW 5058   7.178   7.215   9.073
35011SOL    HW1 5059   7.205   7.249   8.983
35011SOL    HW2 5060   7.257   7.177   9.119
35012SOL     OW 5061   6.697   6.781   8.548
35012SOL    HW1 5062   6.657   6.825   8.629
35012SOL    HW2 5063   6.656   6.818   8.465
35013SOL     OW 5064   7.224   6.685   8.527
35013SOL    HW1 5065   7.229   6.766   8.586
35013SOL    HW2 5066   7.138   6.687   8.476
35014SOL     OW 5067   6.501   5.675   8.850
35014SOL    HW1 5068   6.526   5.655   8.755
35014SOL    HW2 5069   6.573   5.731   8.892
35015SOL     OW 5070   6.566   6.702   9.167
35015SOL    HW1 5071   6.467   6.708   9.177
35015SOL    HW2 5072   6.589   6.622   9.111
35016SOL     OW 5073   6.291   6.636   7.816
35016SOL    HW1 5074   6.277   6.643   7.915
35016SOL    HW2 5075   6.375   6.585   7.798
35017SOL     OW 5076   5.996   6.399   8.699
35017SOL    HW1 5077   6.082   6.411   8.749
35017SOL    HW2 5078   5.954   6.312   8.726
35018SOL     OW 5079   6.860   5.972   8.710
35018SOL    HW1 5080   6.881   6.046   8.774
35018SOL    HW2 5081   6.771   5.989   8.667
35019SOL     OW 5082   5.650   7.150   8.779
35019SOL    HW1 5083   5.604   7.232   8.745
35019SOL    HW2 5084   5.748   7.169   8.788
35020SOL     OW 5085   5.953   6.686   7.949
35020SOL    HW1 5086   5.946   6.769   7.893
35020SOL    HW2 5087   5.957   6.606   7.889
35021SOL     OW 5088   6.152   6.123   8.313
35021SOL    HW1 5089   6.164   6.189   8.239
35021SOL    HW2 5090   6.198   6.157   8.396
35022SOL     OW 5091   6.838   6.934   7.836
35022SOL    HW1 5092   6.888   7.011   7.876
35022SOL    HW2 5093   6.743   6.936   7.868
35023SOL     OW 5094   6.858   7.031   8.590
35023SOL    HW1 5095   6.905   7.044   8.677
35023SOL    HW2 5096   6.792   6.957   8.599
35024SOL     OW 5097   7.168   6.225   7.920
35024SOL    HW1 5098   7.137   6.286   7.993
35024SOL    HW2 5099   7.218   6.277   7.851
35025SOL     OW 5100   5.940   7.096   8.777
35025SOL    HW1 5101   5.919   7.052   8.690
35025SOL    HW2 5102   6.037   7.122   8.780
35026SOL     OW 5103   5.988   6.337   9.046
35026SOL    HW1 5104   6.056   6.392   8.999
35026SOL    HW2 5105   6.028   6.249   9.073
35027SOL     OW 5106   7.173   6.365   9.118
35027SOL    HW1 5107   7.081   6.403   9.113
35027SOL    HW2 5108   7.233   6.412   9.053
35028SOL     OW 5109   6.599   5.691   9.218
35028SOL    HW1 5110   6.605   5.776   9.166
35028SOL    HW2 5111   6.631   5.615   9.161
35029SOL     OW 5112   6.090   5.636   9.188
35029SOL    HW1 5113   6.048   5.579   9.118
35029SOL    HW2 5114   6.024   5.705   9.220
35030SOL     OW 5115   6.159   6.456   8.477
35030SOL    HW1 5116   6.203   6.545   8.468
35030SOL    HW2 5117   6.096   6.456   8.554
35031SOL     OW 5118   6.946   6.448   8.493
35031SOL    HW1 5119   6.871   6.448   8.427
35031SOL    HW2 5120   6.983   6.356   8.502
35032SOL     OW 5121   6.795   6.111   7.723
35032SOL    HW1 5122   6.808   6.027   7.777
35032SOL    HW2 5123   6.766   6.185   7.783
35033SOL     OW 5124   5.893   5.799   8.679
35033SOL    HW1 5125   5.870   5.836   8.769
35033SOL    HW2 5126   5.863   5.704   8.673
35034SOL     OW 5127   5.623   6.896   8.730
35034SOL    HW1 5128   5.676   6.847   8.798
35034SOL    HW2 5129   5.645   6.994   8.735
35035SOL     OW 5130   6.318   6.220   8.512
35035SOL    HW1 5131   6.377   6.194   8.436
35035SOL    HW2 5132   6.290   6.316   8.501
35036SOL     OW 5133   7.314   6.521   9.302
35036SOL    HW1 5134   7.268   6.514   9.213
35036SOL    HW2 5135   7.252   6.565   9.368
35037SOL     OW 5136   5.893   5.649   8.066
35037SOL    HW1 5137   5.882   5.743   8.099
35037SOL    HW2 5138   5.888   5.586   8.143
35038SOL     OW 5139   7.208   5.953   7.822
35038SOL    HW1 5140   7.210   5.877   7.886
35038SOL    HW2 5141   7.160   6.030   7.862
35039SOL     OW 5142   6.609   6.352   8.414
35039SOL    HW1 5143   6.624   6.373   8.510
35039SOL    HW2 5144   6.579   6.257   8.405
35040SOL     OW 5145   6.566   7.159   9.148
35040SOL    HW1 5146   6.546   7.203   9.060
35040SOL    HW2 5147   6.605   7.068   9.132
35041SOL     OW 5148   7.445   7.104   9.053
35041SOL    HW1 5149   7.459   7.131   8.958
35041SOL    HW2 5150   7.528   7.126   9.106
35042SOL     OW 5151   5.936   6.484   9.252
35042SOL    HW1 5152   6.012   6.528   9.300
35042SOL    HW2 5153   5.971   6.437   9.170
35043SOL     OW 5154   7.126   5.860   7.573
35043SOL    HW1 5155   7.065   5.785   7.596
35043SOL    HW2 5156   7.148   5.912   7.656
35044SOL     OW 5157   6.889   6.424   7.490
35044SOL    HW1 5158   6.923   6.331   7.505
35044SOL    HW2 5159   6.907   6.451   7.395
35045SOL     OW 5160   6.654   6.919   8.297
35045SOL    HW1 5161   6.661   6.835   8.242
35045SOL    HW2 5162   6.716   6.988   8.261
35046SOL     OW 5163   5.905   6.396   8.397
35046SOL    HW1 5164   5.998   6.432   8.402
35046SOL    HW2 5165   5.899   6.311   8.449
35047SOL     OW 5166   5.925   6.095   8.454
35047SOL    HW1 5167   5.873   6.012   8.437
35047SOL    HW2 5168   6.002   6.100   8.390
35048SOL     OW 5169   6.724   5.966   9.126
35048SOL    HW1 5170   6.679   6.029   9.190
35048SOL    HW2 5171   6.817   5.997   9.109
35049SOL     OW 5172   6.746   5.793   8.925
35049SOL    HW1 5173   6.746   5.857   9.002
35049SOL    HW2 5174   6.774   5.841   8.842
35050SOL     OW 5175   5.594   6.912   7.648
35050SOL    HW1 5176   5.501   6.933   7.617
35050SOL    HW2 5177   5.604   6.813   7.661
35051SOL     OW 5178   5.674   7.387   8.375
35051SOL    HW1 5179   5.632   7.301   8.348
35051SOL    HW2 5180   5.768   7.390   8.341
35052SOL     OW 5181   6.090   7.154   8.358
35052SOL    HW1 5182   6.156   7.228   8.367
35052SOL    HW2 5183   6.134   7.075   8.316
35053SOL     OW 5184   6.588   6.382   8.686
35053SOL    HW1 5185   6.629   6.350   8.772
35053SOL    HW2 5186   6.492   6.355   8.683
35054SOL     OW 5187   5.626   6.130   8.562
35054SOL    HW1 5188   5.711   6.097   8.521
35054SOL    HW2 5189   5.639   6.145   8.660
35055SOL     OW 5190   5.775   6.106   9.170
35055SOL    HW1 5191   5.834   6.066   9.100
35055SOL    HW2 5192   5.717   6.177   9.129
35056SOL     OW 5193   6.955   6.536   9.108
35056SOL    HW1 5194   6.994   6.625   9.128
35056SOL    HW2 5195   6.965   6.516   9.011
35057SOL     OW 5196   6.401   6.158   7.773
35057SOL    HW1 5197   6.408   6.069   7.727
35057SOL    HW2 5198   6.307   6.192   7.765
35058SOL     OW 5199   7.243   6.190   8.654
35058SOL    HW1 5200   7.205   6.121   8.716
35058SOL    HW2 5201   7.325   6.154   8.610
35059SOL     OW 5202   5.838   7.150   9.192
35059SOL    HW1 5203   5.808   7.207   9.268
35059SOL    HW2 5204   5.831   7.053   9.218
35060SOL     OW 5205   6.257   6.050   8.717
35060SOL    HW1 5206   6.223   5.961   8.687
35060SOL    HW2 5207   6.283   6.104   8.637
35061SOL     OW 5208   6.516   7.264   8.913
35061SOL    HW1 5209   6.492   7.246   8.818
35061SOL    HW2 5210   6.546   7.358   8.923
35062SOL     OW 5211   6.059   6.086   7.639
35062SOL    HW1 5212   6.120   6.166   7.643
35062SOL    HW2 5213   5.964   6.117   7.646
35063SOL     OW 5214   5.745   6.723   8.914
35063SOL    HW1 5215   5.767   6.662   8.990
35063SOL    HW2 5216   5.755   6.674   8.828
35064SOL     OW 5217   6.933   6.645   8.682
35064SOL    HW1 5218   6.957   6.582   8.608
35064SOL    HW2 5219   6.843   6.685   8.664
35065SOL     OW 5220   6.888   6.441   7.757
35065SOL    HW1 5221   6.802   6.410   7.799
35065SOL    HW2 5222   6.884   6.427   7.658
35066SOL     OW 5223   7.345   7.333   8.602
35066SOL    HW1 5224   7.406   7.363   8.529
35066SOL    HW2 5225   7.307   7.244   8.580
35067SOL     OW 5226   6.838   7.317   8.576
35067SOL    HW1 5227   6.922   7.322   8.522
35067SOL    HW2 5228   6.815   7.221   8.594
35068SOL     OW 5229   5.669   6.844   8.470
35068SOL    HW1 5230   5.664   6.843   8.570
35068SOL    HW2 5231   5.586   6.803   8.432
35069SOL     OW 5232   6.274   7.248   9.164
35069SOL    HW1 5233   6.218   7.329   9.173
35069SOL    HW2 5234   6.326   7.252   9.078
35070SOL     OW 5235   7.312   5.721   7.971
35070SOL    HW1 5236   7.385   5.704   7.904
35070SOL    HW2 5237   7.281   5.634   8.009
35071SOL     OW 5238   6.974   7.159   7.925
35071SOL    HW1 5239   7.041   7.171   7.851
35071SOL    HW2 5240   6.934   7.248   7.948
35072SOL     OW 5241   5.716   7.380   9.299
35072SOL    HW1 5242   5.675   7.306   9.352
35072SOL    HW2 5243   5.780   7.431   9.357
35073SOL     OW 5244   6.866   6.513   8.120
35073SOL    HW1 5245   6.926   6.432   8.122
35073SOL    HW2 5246   6.906   6.582   8.060
35074SOL     OW 5247   6.416   6.859   8.870
35074SOL    HW1 5248   6.411   6.892   8.965
35074SOL    HW2 5249   6.330   6.878   8.824
35075SOL     OW 5250   6.258   7.202   7.602
35075SOL    HW1 5251   6.267   7.212   7.503
35075SOL    HW2 5252   6.218   7.113   7.623
35076SOL     OW 5253   7.236   7.306   8.842
35076SOL    HW1 5254   7.289   7.316   8.758
35076SOL    HW2 5255   7.209   7.396   8.876
35077SOL     OW 5256   7.427   5.761   8.411
35077SOL    HW1 5257   7.466   5.676   8.375
35077SOL    HW2 5258   7.329   5.763   8.392
35078SOL     OW 5259   5.849   5.912   8.168
35078SOL    HW1 5260   5.770   5.963   8.134
35078SOL    HW2 5261   5.840   5.897   8.266
35079SOL     OW 5262   6.780   7.198   7.479
35079SOL    HW1 5263   6.786   7.105   7.516
35079SOL    HW2 5264   6.721   7.198   7.399
35080SOL     OW 5265   6.408   6.588   8.820
35080SOL    HW1 5266   6.448   6.587   8.728
35080SOL    HW2 5267   6.418   6.680   8.860
35081SOL     OW 5268   6.502   6.496   7.739
35081SOL    HW1 5269   6.565   6.534   7.671
35081SOL    HW2 5270   6.542   6.413   7.778
35082SOL     OW 5271   7.090   7.193   7.492
35082SOL    HW1 5272   6.998   7.230   7.499
35082SOL    HW2 5273   7.128   7.213   7.402
35083SOL     OW 5274   5.958   6.874   8.938
35083SOL    HW1 5275   5.945   6.967   8.904
35083SOL    HW2 5276   5.874   6.822   8.925
35084SOL     OW 5277   7.200   6.878   8.737
35084SOL    HW1 5278   7.260   6.881   8.817
35084SOL    HW2 5279   7.125   6.942   8.750
35085SOL     OW 5280   6.625   6.684   8.144
35085SOL    HW1 5281   6.555   6.637   8.198
35085SOL    HW2 5282   6.684   6.616   8.101
35086SOL     OW 5283   6.600   5.822   8.419
35086SOL    HW1 5284   6.592   5.786   8.326
35086SOL    HW2 5285   6.598   5.746   8.484
35087SOL     OW 5286   6.176   7.073   7.939
35087SOL    HW1 5287   6.218   7.015   7.869
35087SOL    HW2 5288   6.132   7.152   7.895
35088SOL     OW 5289   7.295   5.971   8.829
35088SOL    HW1 5290   7.368   6.040   8.833
35088SOL    HW2 5291   7.323   5.896   8.770
35089SOL     OW 5292   5.841   6.934   7.738
35089SOL    HW1 5293   5.745   6.935   7.711
35089SOL    HW2 5294   5.853   6.987   7.822
35090SOL     OW 5295   5.691   6.599   9.174
35090SOL    HW1 5296   5.614   6.566   9.228
35090SOL    HW2 5297   5.776   6.569   9.216
35091SOL     OW 5298   6.258   5.789   8.937
35091SOL    HW1 5299   6.348   5.773   8.897
35091SOL    HW2 5300   6.266   5.794   9.036
35092SOL     OW 5301   5.661   5.931   7.481
35092SOL    HW1 5302   5.569   5.903   7.452
35092SOL    HW2 5303   5.692   6.008   7.425
35093SOL     OW 5304   7.026   6.442   8.846
35093SOL    HW1 5305   6.969   6.494   8.783
35093SOL    HW2 5306   7.122   6.454   8.822
35094SOL     OW 5307   5.658   5.752   7.766
35094SOL    HW1 5308   5.641   5.835   7.712
35094SOL    HW2 5309   5.748   5.715   7.744
35095SOL     OW 5310   6.769   6.921   7.567
35095SOL    HW1 5311   6.670   6.910   7.569
35095SOL    HW2 5312   6.803   6.936   7.660
35096SOL     OW 5313   6.199   6.428   8.879
35096SOL    HW1 5314   6.255   6.509   8.862
35096SOL    HW2 5315   6.258   6.348   8.882
35097SOL     OW 5316   7.079   7.353   8.407
35097SOL    HW1 5317   7.112   7.417   8.338
35097SOL    HW2 5318   7.145   7.347   8.482
35098SOL     OW 5319   6.302   6.151   9.156
35098SOL    HW1 5320   6.321   6.216   9.230
35098SOL    HW2 5321   6.362   6.071   9.165
35099SOL     OW 5322   7.036   6.806   9.081
35099SOL    HW1 5323   7.027   6.796   9.180
35099SOL    HW2 5324   7.132   6.799   9.055
35100SOL     OW 5325   5.976   7.327   9.008
35100SOL    HW1 5326   5.885   7.368   9.006
35100SOL    HW2 5327   5.969   7.233   9.040
35101SOL     OW 5328   7.260   6.469   8.702
35101SOL    HW1 5329   7.233   6.380   8.665
35101SOL    HW2 5330   7.261   6.537   8.629
35102SOL     OW 5331   6.811   5.911   7.897
35102SOL    HW1 5332   6.876   5.837   7.886
35102SOL    HW2 5333   6.831   5.961   7.981
35103SOL     OW 5334   6.180   6.331   8.100
35103SOL    HW1 5335   6.230   6.416   8.081
35103SOL    HW2 5336   6.092   6.333   8.052
35104SOL     OW 5337   7.363   5.928   9.090
35104SOL    HW1 5338   7.346   5.959   8.996
35104SOL    HW2 5339   7.279   5.891   9.128
35105SOL     OW 5340   7.316   6.520   8.965
35105SOL    HW1 5341   7.354   6.611   8.980
35105SOL    HW2 5342   7.308   6.503   8.866
35106SOL     OW 5343   6.445   6.960   7.464
35106SOL    HW1 5344   6.399   6.975   7.552
35106SOL    HW2 5345   6.489   7.045   7.434
35107SOL     OW 5346   6.247   7.376   8.401
35107SOL    HW1 5347   6.201   7.464   8.388
35107SOL    HW2 5348   6.346   7.388   8.394
35108SOL     OW 5349   6.445   6.542   8.309
35108SOL    HW1 5350   6.499   6.473   8.357
35108SOL    HW2 5351   6.413   6.611   8.375
35109SOL     OW 5352   6.669   6.570   7.535
35109SOL    HW1 5353   6.646   6.623   7.453
35109SOL    HW2 5354   6.750   6.514   7.516
35110SOL     OW 5355   7.447   7.155   8.299
35110SOL    HW1 5356   7.376   7.143   8.229
35110SOL    HW2 5357   7.448   7.076   8.359
35111SOL     OW 5358   5.807   6.900   9.292
35111SOL    HW1 5359   5.742   6.827   9.271
35111SOL    HW2 5360   5.811   6.914   9.390
35112SOL     OW 5361   5.665   6.826   8.101
35112SOL    HW1 5362   5.664   6.779   8.189
35112SOL    HW2 5363   5.747   6.798   8.050
35113SOL     OW 5364   6.258   6.977   9.072
35113SOL    HW1 5365   6.180   6.927   9.110
35113SOL    HW2 5366   6.255   7.072   9.103
35114SOL     OW 5367   7.410   5.778   8.675
35114SOL    HW1 5368   7.406   5.688   8.719
35114SOL    HW2 5369   7.413   5.767   8.576
35115SOL     OW 5370   6.014   6.010   7.968
35115SOL    HW1 5371   6.044   5.938   7.906
35115SOL    HW2 5372   5.975   5.970   8.051
35116SOL     OW 5373   7.291   7.073   8.552
35116SOL    HW1 5374   7.198   7.048   8.525
35116SOL    HW2 5375   7.317   7.023   8.634
35117SOL     OW 5376   5.903   6.133   8.728
35117SOL    HW1 5377   5.941   6.074   8.800
35117SOL    HW2 5378   5.943   6.107   8.640
35118SOL     OW 5379   6.398   7.172   8.135
35118SOL    HW1 5380   6.430   7.182   8.041
35118SOL    HW2 5381   6.319   7.110   8.137
35119SOL     OW 5382   7.010   5.800   8.560
35119SOL    HW1 5383   7.062   5.735   8.615
35119SOL    HW2 5384   6.961   5.863   8.621
35120SOL     OW 5385   6.587   5.620   8.602
35120SOL    HW1 5386   6.524   5.548   8.571
35120SOL    HW2 5387   6.680   5.584   8.602
35121SOL     OW 5388   6.356   6.916   7.749
35121SOL    HW1 5389   6.310   6.829   7.766
35121SOL    HW2 5390   6.447   6.913   7.790
35122SOL     OW 5391   6.204   7.153   8.732
35122SOL    HW1 5392   6.199   7.235   8.789
35122SOL    HW2 5393   6.293   7.150   8.687
35123SOL     OW 5394   6.938   5.638   7.616
35123SOL    HW1 5395   6.973   5.597   7.532
35123SOL    HW2 5396   6.848   5.600   7.636
35124SOL     OW 5397   6.886   6.039   8.139
35124SOL    HW1 5398   6.827   6.119   8.143
35124SOL    HW2 5399   6.901   6.004   8.232
35125SOL     OW 5400   7.179   5.807   8.330
35125SOL    HW1 5401   7.095   5.806   8.384
35125SOL    HW2 5402   7.181   5.890   8.274
35126SOL     OW 5403   5.625   6.663   7.748
35126SOL    HW1 5404   5.724   6.652   7.739
35126SOL    HW2 5405   5.585   6.577   7.780
35127SOL     OW 5406   6.461   7.232   7.785
35127SOL    HW1 5407   6.384   7.197   7.731
35127SOL    HW2 5408   6.429   7.303   7.847
35128SOL     OW 5409   5.816   6.214   9.423
35128SOL    HW1 5410   5.723   6.212   9.460
35128SOL    HW2 5411   5.817   6.175   9.331
35129SOL     OW 5412   5.811   5.861  10.306
35129SOL    HW1 5413   5.846   5.844  10.398
35129SOL    HW2 5414   5.723   5.816  10.294
35130SOL     OW 5415   5.605   5.954   9.957
35130SOL    HW1 5416   5.523   5.997   9.996
35130SOL    HW2 5417   5.577   5.881   9.894
35131SOL     OW 5418   6.155   6.861  10.475
35131SOL    HW1 5419   6.062   6.854  10.438
35131SOL    HW2 5420   6.166   6.950  10.519
35132SOL     OW 5421   7.141   7.097  10.013
35132SOL    HW1 5422   7.084   7.081  10.094
35132SOL    HW2 5423   7.082   7.107   9.933
35133SOL     OW 5424   6.721   6.289  10.027
35133SOL    HW1 5425   6.778   6.367  10.002
35133SOL    HW2 5426   6.661   6.315  10.103
35134SOL     OW 5427   7.341   6.193   9.541
35134SOL    HW1 5428   7.329   6.180   9.442
35134SOL    HW2 5429   7.311   6.112   9.590
35135SOL     OW 5430   6.354   6.730  10.333
35135SOL    HW1 5431   6.276   6.747  10.393
35135SOL    HW2 5432   6.388   6.817  10.297
35136SOL     OW 5433   6.436   6.384  11.133
35136SOL    HW1 5434   6.432   6.460  11.198
35136SOL    HW2 5435   6.458   6.420  11.042
35137SOL     OW 5436   6.271   6.598   9.975
35137SOL    HW1 5437   6.340   6.582  10.045
35137SOL    HW2 5438   6.198   6.655  10.013
35138SOL     OW 5439   6.272   6.747  11.113
35138SOL    HW1 5440   6.332   6.826  11.127
35138SOL    HW2 5441   6.186   6.778  11.072
35139SOL     OW 5442   5.921   7.021  10.371
35139SOL    HW1 5443   5.843   6.990  10.318
35139SOL    HW2 5444   5.979   7.079  10.314
35140SOL     OW 5445   7.046   7.091  10.649
35140SOL    HW1 5446   7.070   7.185  10.675
35140SOL    HW2 5447   7.030   7.037  10.731
35141SOL     OW 5448   6.024   5.978  10.809
35141SOL    HW1 5449   6.106   5.922  10.818
35141SOL    HW2 5450   5.943   5.920  10.813
35142SOL     OW 5451   7.189   6.033  10.047
35142SOL    HW1 5452   7.115   6.079   9.997
35142SOL    HW2 5453   7.240   6.101  10.100
35143SOL     OW 5454   5.817   7.299   9.793
35143SOL    HW1 5455   5.851   7.376   9.847
35143SOL    HW2 5456   5.861   7.299   9.703
35144SOL     OW 5457   6.713   6.927  11.000
35144SOL    HW1 5458   6.760   6.927  11.088
35144SOL    HW2 5459   6.665   6.840  10.989
35145SOL     OW 5460   5.816   7.020   9.848
35145SOL    HW1 5461   5.790   7.116   9.848
35145SOL    HW2 5462   5.745   6.966   9.893
35146SOL     OW 5463   5.826   6.677  10.196
35146SOL    HW1 5464   5.840   6.593  10.248
35146SOL    HW2 5465   5.771   6.741  10.251
35147SOL     OW 5466   6.206   7.372  10.749
35147SOL    HW1 5467   6.114   7.355  10.784
35147SOL    HW2 5468   6.234   7.464  10.775
35148SOL     OW 5469   6.192   6.550   9.433
35148SOL    HW1 5470   6.199   6.634   9.379
35148SOL    HW2 5471   6.238   6.563   9.521
35149SOL     OW 5472   7.180   5.700  10.790
35149SOL    HW1 5473   7.162   5.767  10.718
35149SOL    HW2 5474   7.177   5.746  10.879
35150SOL     OW 5475   5.708   6.229   9.873
35150SOL    HW1 5476   5.663   6.141   9.890
35150SOL    HW2 5477   5.707   6.283   9.957
35151SOL     OW 5478   7.428   7.353   9.669
35151SOL    HW1 5479   7.482   7.324   9.749
35151SOL    HW2 5480   7.458   7.443   9.640
35152SOL     OW 5481   5.613   7.182   9.427
35152SOL    HW1 5482   5.594   7.086   9.448
35152SOL    HW2 5483   5.580   7.240   9.502
35153SOL     OW 5484   7.275   6.508   9.922
35153SOL    HW1 5485   7.370   6.479   9.930
35153SOL    HW2 5486   7.267   6.573   9.847
35154SOL     OW 5487   7.227   6.694   9.742
35154SOL    HW1 5488   7.313   6.696   9.690
35154SOL    HW2 5489   7.241   6.741   9.830
35155SOL     OW 5490   5.699   6.323  10.907
35155SOL    HW1 5491   5.787   6.310  10.952
35155SOL    HW2 5492   5.686   6.420  10.885
35156SOL     OW 5493   6.199   6.951  10.036
35156SOL    HW1 5494   6.150   6.864  10.045
35156SOL    HW2 5495   6.176   6.994   9.949
35157SOL     OW 5496   6.879   6.814  10.733
35157SOL    HW1 5497   6.916   6.741  10.675
35157SOL    HW2 5498   6.931   6.819  10.818
35158SOL     OW 5499   6.395   5.590   9.812
35158SOL    HW1 5500   6.435   5.681   9.803
35158SOL    HW2 5501   6.295   5.598   9.818
35159SOL     OW 5502   5.783   6.562  10.574
35159SOL    HW1 5503   5.872   6.517  10.560
35159SOL    HW2 5504   5.710   6.497  10.555
35160SOL     OW 5505   7.111   6.585   9.500
35160SOL    HW1 5506   7.048   6.509   9.513
35160SOL    HW2 5507   7.159   6.603   9.586
35161SOL     OW 5508   6.773   7.378  10.926
35161SOL    HW1 5509   6.797   7.438  10.850
35161SOL    HW2 5510   6.780   7.283  10.896
35162SOL     OW 5511   5.903   5.837  11.111
35162SOL    HW1 5512   5.974   5.908  11.117
35162SOL    HW2 5513   5.815   5.876  11.139
35163SOL     OW 5514   7.052   7.003  10.263
35163SOL    HW1 5515   6.993   7.009  10.343
35163SOL    HW2 5516   7.037   6.915  10.217
35164SOL     OW 5517   7.253   7.300   9.882
35164SOL    HW1 5518   7.212   7.277   9.794
35164SOL    HW2 5519   7.235   7.226   9.947
35165SOL     OW 5520   6.184   6.315   9.580
35165SOL    HW1 5521   6.208   6.384   9.512
35165SOL    HW2 5522   6.106   6.348   9.634
35166SOL     OW 5523   6.867   5.931  10.254
35166SOL    HW1 5524   6.781   5.881  10.241
35166SOL    HW2 5525   6.929   5.877  10.310
35167SOL     OW 5526   7.162   7.248   9.617
35167SOL    HW1 5527   7.251   7.294   9.620
35167SOL    HW2 5528   7.141   7.224   9.522
35168SOL     OW 5529   6.393   6.191  10.775
35168SOL    HW1 5530   6.346   6.188  10.864
35168SOL    HW2 5531   6.342   6.136  10.709
35169SOL     OW 5532   6.980   6.055  10.984
35169SOL    HW1 5533   6.960   6.098  11.072
35169SOL    HW2 5534   7.058   5.993  10.993
35170SOL     OW 5535   6.559   6.476  10.882
35170SOL    HW1 5536   6.605   6.392  10.853
35170SOL    HW2 5537   6.503   6.510  10.807
35171SOL     OW 5538   6.577   5.996  10.552
35171SOL    HW1 5539   6.500   6.030  10.606
35171SOL    HW2 5540   6.543   5.945  10.473
35172SOL     OW 5541   6.627   6.287   9.739
35172SOL    HW1 5542   6.653   6.283   9.835
35172SOL    HW2 5543   6.542   6.236   9.725
35173SOL     OW 5544   5.662   6.397  10.099
35173SOL    HW1 5545   5.761   6.385  10.108
35173SOL    HW2 5546   5.638   6.492  10.120
35174SOL     OW 5547   5.716   7.407  10.881
35174SOL    HW1 5548   5.706   7.392  10.980
35174SOL    HW2 5549   5.630   7.443  10.845
35175SOL     OW 5550   6.451   5.934   9.505
35175SOL    HW1 5551   6.510   5.997   9.456
35175SOL    HW2 5552   6.470   5.840   9.476
35176SOL     OW 5553   7.305   6.171  11.141
35176SOL    HW1 5554   7.279   6.260  11.105
35176SOL    HW2 5555   7.303   6.103  11.068
35177SOL     OW 5556   6.948   6.730   9.855
35177SOL    HW1 5557   7.031   6.701   9.807
35177SOL    HW2 5558   6.899   6.797   9.799
35178SOL     OW 5559   6.136   5.782  10.195
35178SOL    HW1 5560   6.131   5.777  10.295
35178SOL    HW2 5561   6.138   5.878  10.166
35179SOL     OW 5562   6.594   7.042   9.787
35179SOL    HW1 5563   6.548   7.114   9.735
35179SOL    HW2 5564   6.590   7.062   9.885
35180SOL     OW 5565   5.937   7.387  10.163
35180SOL    HW1 5566   5.987   7.301  10.169
35180SOL    HW2 5567   6.002   7.464  10.160
35181SOL     OW 5568   7.381   6.652  10.183
35181SOL    HW1 5569   7.319   6.637  10.107
35181SOL    HW2 5570   7.329   6.663  10.268
35182SOL     OW 5571   6.813   7.136  10.816
35182SOL    HW1 5572   6.819   7.059  10.880
35182SOL    HW2 5573   6.761   7.110  10.736
35183SOL     OW 5574   5.907   6.529   9.552
35183SOL    HW1 5575   5.989   6.568   9.510
35183SOL    HW2 5576   5.880   6.447   9.503
35184SOL     OW 5577   7.044   6.321  10.038
35184SOL    HW1 5578   7.039   6.256  10.113
35184SOL    HW2 5579   7.124   6.380  10.051
35185SOL     OW 5580   6.047   6.852  11.037
35185SOL    HW1 5581   5.997   6.853  10.951
35185SOL    HW2 5582   5.984   6.834  11.113
35186SOL     OW 5583   6.697   7.362   9.547
35186SOL    HW1 5584   6.637   7.300   9.597
35186SOL    HW2 5585   6.728   7.318   9.462
35187SOL     OW 5586   5.788   5.871  10.808
35187SOL    HW1 5587   5.708   5.931  10.795
35187SOL    HW2 5588   5.778   5.822  10.894
35188SOL     OW 5589   7.218   6.963   9.391
35188SOL    HW1 5590   7.186   7.057   9.381
35188SOL    HW2 5591   7.142   6.900   9.379
35189SOL     OW 5592   6.050   7.329   9.633
35189SOL    HW1 5593   6.083   7.368   9.719
35189SOL    HW2 5594   6.126   7.322   9.568
35190SOL     OW 5595   6.986   5.693   9.736
35190SOL    HW1 5596   6.962   5.656   9.646
35190SOL    HW2 5597   7.085   5.709   9.740
35191SOL     OW 5598   5.835   7.371  10.551
35191SOL    HW1 5599   5.892   7.306  10.601
35191SOL    HW2 5600   5.819   7.338  10.458
35192SOL     OW 5601   6.526   7.284  10.214
35192SOL    HW1 5602   6.606   7.227  10.235
35192SOL    HW2 5603   6.477   7.244  10.137
35193SOL     OW 5604   5.968   6.286   9.790
35193SOL    HW1 5605   6.013   6.196   9.787
35193SOL    HW2 5606   5.874   6.275   9.823
35194SOL     OW 5607   7.133   5.808  11.039
35194SOL    HW1 5608   7.128   5.845  11.131
35194SOL    HW2 5609   7.061   5.739  11.027
35195SOL     OW 5610   6.200   5.708   9.427
35195SOL    HW1 5611   6.298   5.686   9.434
35195SOL    HW2 5612   6.169   5.691   9.334
35196SOL     OW 5613   6.367   5.850  11.059
35196SOL    HW1 5614   6.434   5.789  11.102
35196SOL    HW2 5615   6.294   5.869  11.124
35197SOL     OW 5616   6.474   7.100  10.505
35197SOL    HW1 5617   6.451   7.075  10.411
35197SOL    HW2 5618   6.535   7.031  10.544
35198SOL     OW 5619   6.937   6.176  10.743
35198SOL    HW1 5620   6.965   6.133  10.828
35198SOL    HW2 5621   6.962   6.272  10.744
35199SOL     OW 5622   6.389   6.988  10.234
35199SOL    HW1 5623   6.479   7.002  10.192
35199SOL    HW2 5624   6.318   6.990  10.163
35200SOL     OW 5625   6.508   6.089  10.209
35200SOL    HW1 5626   6.483   6.080  10.113
35200SOL    HW2 5627   6.556   6.007  10.240
35201SOL     OW 5628   6.125   5.650   9.822
35201SOL    HW1 5629   6.044   5.651   9.880
35201SOL    HW2 5630   6.128   5.733   9.767
35202SOL     OW 5631   7.020   6.774   9.351
35202SOL    HW1 5632   7.052   6.698   9.408
35202SOL    HW2 5633   6.928   6.801   9.381
35203SOL     OW 5634   5.883   5.621   9.481
35203SOL    HW1 5635   5.932   5.705   9.460
35203SOL    HW2 5636   5.945   5.556   9.526
35204SOL     OW 5637   6.521   5.822   9.790
35204SOL    HW1 5638   6.473   5.863   9.712
35204SOL    HW2 5639   6.620   5.820   9.771
35205SOL     OW 5640   6.662   6.269  10.774
35205SOL    HW1 5641   6.582   6.208  10.777
35205SOL    HW2 5642   6.743   6.216  10.750
35206SOL     OW 5643   6.813   7.156  10.103
35206SOL    HW1 5644   6.834   7.230  10.038
35206SOL    HW2 5645   6.881   7.156  10.176
35207SOL     OW 5646   6.045   6.738  10.051
35207SOL    HW1 5647   5.974   6.711  10.116
35207SOL    HW2 5648   6.019   6.710   9.958
35208SOL     OW 5649   6.857   7.383   9.901
35208SOL    HW1 5650   6.901   7.447   9.837
35208SOL    HW2 5651   6.807   7.435   9.971
35209SOL     OW 5652   6.618   6.135   9.326
35209SOL    HW1 5653   6.577   6.217   9.287
35209SOL    HW2 5654   6.682   6.161   9.399
35210SOL     OW 5655   5.664   6.142  10.696
35210SOL    HW1 5656   5.756   6.141  10.655
35210SOL    HW2 5657   5.658   6.216  10.763
35211SOL     OW 5658   6.147   5.808  10.457
35211SOL    HW1 5659   6.185   5.724  10.494
35211SOL    HW2 5660   6.059   5.827  10.501
35212SOL     OW 5661   6.452   6.040   9.952
35212SOL    HW1 5662   6.420   6.112   9.890
35212SOL    HW2 5663   6.476   5.959   9.899
35213SOL     OW 5664   6.603   5.625  10.063
35213SOL    HW1 5665   6.531   5.630   9.994
35213SOL    HW2 5666   6.579   5.556  10.132
35214SOL     OW 5667   7.015   6.759  10.177
35214SOL    HW1 5668   6.960   6.675  10.170
35214SOL    HW2 5669   7.041   6.788  10.085
35215SOL     OW 5670   7.052   6.176  10.302
35215SOL    HW1 5671   7.022   6.081  10.309
35215SOL    HW2 5672   7.125   6.192  10.368
35216SOL     OW 5673   7.443   6.419   9.687
35216SOL    HW1 5674   7.485   6.355   9.751
35216SOL    HW2 5675   7.405   6.368   9.609
35217SOL     OW 5676   6.074   6.971   9.484
35217SOL    HW1 5677   5.987   6.956   9.531
35217SOL    HW2 5678   6.057   6.997   9.389
35218SOL     OW 5679   7.250   6.866   9.967
35218SOL    HW1 5680   7.349   6.874   9.981
35218SOL    HW2 5681   7.205   6.950   9.998
35219SOL     OW 5682   6.976   6.161   9.388
35219SOL    HW1 5683   6.922   6.140   9.469
35219SOL    HW2 5684   7.067   6.120   9.397
35220SOL     OW 5685   6.113   5.842   9.638
35220SOL    HW1 5686   6.140   5.783   9.563
35220SOL    HW2 5687   6.113   5.937   9.607
35221SOL     OW 5688   7.340   6.809  10.898
35221SOL    HW1 5689   7.431   6.770  10.885
35221SOL    HW2 5690   7.348   6.905  10.922
35222SOL     OW 5691   6.650   6.933  10.650
35222SOL    HW1 5692   6.570   6.910  10.705
35222SOL    HW2 5693   6.733   6.907  10.699
35223SOL     OW 5694   7.178   7.215  10.935
35223SOL    HW1 5695   7.205   7.249  10.845
35223SOL    HW2 5696   7.257   7.177  10.981
35224SOL     OW 5697   6.697   6.781  10.410
35224SOL    HW1 5698   6.657   6.825  10.491
35224SOL    HW2 5699   6.656   6.818  10.327
35225SOL     OW 5700   7.224   6.685  10.389
35225SOL    HW1 5701   7.229   6.766  10.448
35225SOL    HW2 5702   7.138   6.687  10.338
35226SOL     OW 5703   6.501   5.675  10.712
35226SOL    HW1 5704   6.526   5.655  10.617
35226SOL    HW2 5705   6.573   5.731  10.754
35227SOL     OW 5706   6.566   6.702  11.029
35227SOL    HW1 5707   6.467   6.708  11.039
35227SOL    HW2 5708   6.589   6.622  10.973
35228SOL     OW 5709   6.291   6.636   9.678
35228SOL    HW1 5710   6.277   6.643   9.777
35228SOL    HW2 5711   6.375   6.585   9.660
35229SOL     OW 5712   5.996   6.399  10.561
35229SOL    HW1 5713   6.082   6.411  10.611
35229SOL    HW2 5714   5.954   6.312  10.588
35230SOL     OW 5715   6.860   5.972  10.572
35230SOL    HW1 5716   6.881   6.046  10.636
35230SOL    HW2 5717   6.771   5.989  10.529
35231SOL     OW 5718   5.650   7.150  10.641
35231SOL    HW1 5719   5.604   7.232  10.607
35231SOL    HW2 5720   5.748   7.169  10.650
35232SOL     OW 5721   5.953   6.686   9.811
35232SOL    HW1 5722   5.946   6.769   9.755
35232SOL    HW2 5723   5.957   6.606   9.751
35233SOL     OW 5724   6.152   6.123  10.175
35233SOL    HW1 5725   6.164   6.189  10.101
35233SOL    HW2 5726   6.198   6.157  10.258
35234SOL     OW 5727   6.838   6.934   9.698
35234SOL    HW1 5728   6.888   7.011   9.738
35234SOL    HW2 5729   6.743   6.936   9.730
35235SOL     OW 5730   6.858   7.031  10.452
35235SOL    HW1 5731   6.905   7.044  10.539
35235SOL    HW2 5732   6.792   6.957  10.461
35236SOL     OW 5733   7.168   6.225   9.782
35236SOL    HW1 5734   7.137   6.286   9.855
35236SOL    HW2 5735   7.218   6.277   9.713
35237SOL     OW 5736   5.940   7.096  10.639
35237SOL    HW1 5737   5.919   7.052  10.552
35237SOL    HW2 5738   6.037   7.122  10.642
35238SOL     OW 5739   5.988   6.337  10.908
35238SOL    HW1 5740   6.056   6.392  10.861
35238SOL    HW2 5741   6.028   6.249  10.935
35239SOL     OW 5742   7.173   6.365  10.980
35239SOL    HW1 5743   7.081   6.403  10.975
35239SOL    HW2 5744   7.233   6.412  10.915
35240SOL     OW 5745   6.599   5.691  11.080
35240SOL    HW1 5746   6.605   5.776  11.028
35240SOL    HW2 5747   6.631   5.615  11.023
35241SOL     OW 5748   6.090   5.636  11.050
35241SOL    HW1 5749   6.048   5.579  10.980
35241SOL    HW2 5750   6.024   5.705  11.082
35242SOL     OW 5751   6.159   6.456  10.339
35242SOL    HW1 5752   6.203   6.545  10.330
35242SOL    HW2 5753   6.096   6.456  10.416
35243SOL     OW 5754   6.946   6.448  10.355
35243SOL    HW1 5755   6.871   6.448  10.289
35243SOL    HW2 5756   6.983   6.356  10.364
35244SOL     OW 5757   6.795   6.111   9.585
35244SOL    HW1 5758   6.808   6.027   9.639
35244SOL    HW2 5759   6.766   6.185   9.645
35245SOL     OW 5760   5.893   5.799  10.541
35245SOL    HW1 5761   5.870   5.836  10.631
35245SOL    HW2 5762   5.863   5.704  10.535
35246SOL     OW 5763   5.623   6.896  10.592
35246SOL    HW1 5764   5.676   6.847  10.660
35246SOL    HW2 5765   5.645   6.994  10.597
35247SOL     OW 5766   6.318   6.220  10.374
35247SOL    HW1 5767   6.377   6.194  10.298
35247SOL    HW2 5768   6.290   6.316  10.363
35248SOL     OW 5769   7.314   6.521  11.164
35248SOL    HW1 5770   7.268   6.514  11.075
35248SOL    HW2 5771   7.252   6.565  11.230
35249SOL     OW 5772   5.893   5.649   9.928
35249SOL    HW1 5773   5.882   5.743   9.961
35249SOL    HW2 5774   5.888   5.586  10.005
35250SOL     OW 5775   7.208   5.953   9.684
35250SOL    HW1 5776   7.210   5.877   9.748
35250SOL    HW2 5777   7.160   6.030   9.724
35251SOL     OW 5778   6.609   6.352  10.276
35251SOL    HW1 5779   6.624   6.373  10.372
35251SOL    HW2 5780   6.579   6.257  10.267
35252SOL     OW 5781   6.566   7.159  11.010
35252SOL    HW1 5782   6.546   7.203  10.922
35252SOL    HW2 5783   6.605   7.068  10.994
35253SOL     OW 5784   7.445   7.104  10.915
35253SOL    HW1 5785   7.459   7.131  10.820
35253SOL    HW2 5786   7.528   7.126  10.968
35254SOL     OW 5787   5.936   6.484  11.114
35254SOL    HW1 5788   6.012   6.528  11.162
35254SOL    HW2 5789   5.971   6.437  11.032
35255SOL     OW 5790   7.126   5.860   9.435
35255SOL    HW1 5791   7.065   5.785   9.458
35255SOL    HW2 5792   7.148   5.912   9.518
35256SOL     OW 5793   6.889   6.424   9.352
35256SOL    HW1 5794   6.923   6.331   9.367
35256SOL    HW2 5795   6.907   6.451   9.257
35257SOL     OW 5796   6.654   6.919  10.159
35257SOL    HW1 5797   6.661   6.835  10.104
35257SOL    HW2 5798   6.716   6.988  10.123
35258SOL     OW 5799   5.905   6.396  10.259
35258SOL    HW1 5800   5.998   6.432  10.264
35258SOL    HW2 5801   5.899   6.311  10.311
35259SOL     OW 5802   5.925   6.095  10.316
35259SOL    HW1 5803   5.873   6.012  10.299
35259SOL    HW2 5804   6.002   6.100  10.252
35260SOL     OW 5805   6.724   5.966  10.988
35260SOL    HW1 5806   6.679   6.029  11.052
35260SOL    HW2 5807   6.817   5.997  10.971
35261SOL     OW 5808   6.746   5.793  10.787
35261SOL    HW1 5809   6.746   5.857  10.864
35261SOL    HW2 5810   6.774   5.841  10.704
35262SOL     OW 5811   5.594   6.912   9.510
35262SOL    HW1 5812   5.501   6.933   9.479
35262SOL    HW2 5813   5.604   6.813   9.523
35263SOL     OW 5814   5.674   7.387  10.237
35263SOL    HW1 5815   5.632   7.301  10.210
35263SOL    HW2 5816   5.768   7.390  10.203
35264SOL     OW 5817   6.090   7.154  10.220
35264SOL    HW1 5818   6.156   7.228  10.229
35264SOL    HW2 5819   6.134   7.075  10.178
35265SOL     OW 5820   6.588   6.382  10.548
35265SOL    HW1 5821   6.629   6.350  10.634
35265SOL    HW2 5822   6.492   6.355  10.545
35266SOL     OW 5823   5.626   6.130  10.424
35266SOL    HW1 5824   5.711   6.097  10.383
35266SOL    HW2 5825   5.639   6.145  10.522
35267SOL     OW 5826   5.775   6.106  11.032
35267SOL    HW1 5827   5.834   6.066  10.962
35267SOL    HW2 5828   5.717   6.177  10.991
35268SOL     OW 5829   6.955   6.536  10.970
35268SOL    HW1 5830   6.994   6.625  10.990
35268SOL    HW2 5831   6.965   6.516  10.873
35269SOL     OW 5832   6.401   6.158   9.635
35269SOL    HW1 5833   6.408   6.069   9.589
35269SOL    HW2 5834   6.307   6.192   9.627
35270SOL     OW 5835   7.243   6.190  10.516
35270SOL    HW1 5836   7.205   6.121  10.578
35270SOL    HW2 5837   7.325   6.154  10.472
35271SOL     OW 5838   5.838   7.150  11.054
35271SOL    HW1 5839   5.808   7.207  11.130
35271SOL    HW2 5840   5.831   7.053  11.080
35272SOL     OW 5841   6.257   6.050  10.579
35272SOL    HW1 5842   6.223   5.961  10.549
35272SOL    HW2 5843   6.283   6.104  10.499
35273SOL     OW 5844   6.516   7.264  10.775
35273SOL    HW1 5845   6.492   7.246  10.680
35273SOL    HW2 5846   6.546   7.358  10.785
35274SOL     OW 5847   6.059   6.086   9.501
35274SOL    HW1 5848   6.120   6.166   9.505
35274SOL    HW2 5849   5.964   6.117   9.508
35275SOL     OW 5850   5.745   6.723  10.776
35275SOL    HW1 5851   5.767   6.662  10.852
35275SOL    HW2 5852   5.755   6.674  10.690
35276SOL     OW 5853   6.933   6.645  10.544
35276SOL    HW1 5854   6.957   6.582  10.470
35276SOL    HW2 5855   6.843   6.685  10.526
35277SOL     OW 5856   6.888   6.441   9.619
35277SOL    HW1 5857   6.802   6.410   9.661
35277SOL    HW2 5858   6.884   6.427   9.520
35278SOL     OW 5859   7.345   7.333  10.464
35278SOL    HW1 5860   7.406   7.363  10.391
35278SOL    HW2 5861   7.307   7.244  10.442
35279SOL     OW 5862   6.838   7.317  10.438
35279SOL    HW1 5863   6.922   7.322  10.384
35279SOL    HW2 5864   6.815   7.221  10.456
35280SOL     OW 5865   5.669   6.844  10.332
35280SOL    HW1 5866   5.664   6.843  10.432
35280SOL    HW2 5867   5.586   6.803  10.294
35281SOL     OW 5868   6.274   7.248  11.026
35281SOL    HW1 5869   6.218   7.329  11.035
35281SOL    HW2 5870   6.326   7.252  10.940
35282SOL     OW 5871   7.312   5.721   9.833
35282SOL    HW1 5872   7.385   5.704   9.766
35282SOL    HW2 5873   7.281   5.634   9.871
35283SOL     OW 5874   6.974   7.159   9.787
35283SOL    HW1 5875   7.041   7.171   9.713
35283SOL    HW2 5876   6.934   7.248   9.810
35284SOL     OW 5877   5.716   7.380  11.161
35284SOL    HW1 5878   5.675   7.306  11.214
35284SOL    HW2 5879   5.780   7.431  11.219
35285SOL     OW 5880   6.866   6.513   9.982
35285SOL    HW1 5881   6.926   6.432   9.984
35285SOL    HW2 5882   6.906   6.582   9.922
35286SOL     OW 5883   6.416   6.859  10.732
35286SOL    HW1 5884   6.411   6.892  10.827
35286SOL    HW2 5885   6.330   6.878  10.686
35287SOL     OW 5886   6.258   7.202   9.464
35287SOL    HW1 5887   6.267   7.212   9.365
35287SOL    HW2 5888   6.218   7.113   9.485
35288SOL     OW 5889   7.236   7.306  10.704
35288SOL    HW1 5890   7.289   7.316  10.620
35288SOL    HW2 5891   7.209   7.396  10.738
35289SOL     OW 5892   7.427   5.761  10.273
35289SOL    HW1 5893   7.466   5.676  10.237
35289SOL    HW2 5894   7.329   5.763  10.254
35290SOL     OW 5895   5.849   5.912  10.030
35290SOL    HW1 5896   5.770   5.963   9.996
35290SOL    HW2 5897   5.840   5.897  10.128
35291SOL     OW 5898   6.780   7.198   9.341
35291SOL    HW1 5899   6.786   7.105   9.378
35291SOL    HW2 5900   6.721   7.198   9.261
35292SOL     OW 5901   6.408   6.588  10.682
35292SOL    HW1 5902   6.448   6.587  10.590
35292SOL    HW2 5903   6.418   6.680  10.722
35293SOL     OW 5904   6.502   6.496   9.601
35293SOL    HW1 5905   6.565   6.534   9.533
35293SOL    HW2 5906   6.542   6.413   9.640
35294SOL     OW 5907   7.090   7.193   9.354
35294SOL    HW1 5908   6.998   7.230   9.361
35294SOL    HW2 5909   7.128   7.213   9.264
35295SOL     OW 5910   5.958   6.874  10.800
35295SOL    HW1 5911   5.945   6.967  10.766
35295SOL    HW2 5912   5.874   6.822  10.787
35296SOL     OW 5913   7.200   6.878  10.599
35296SOL    HW1 5914   7.260   6.881  10.679
35296SOL    HW2 5915   7.125   6.942  10.612
35297SOL     OW 5916   6.625   6.684  10.006
35297SOL    HW1 5917   6.555   6.637  10.060
35297SOL    HW2 5918   6.684   6.616   9.963
35298SOL     OW 5919   6.600   5.822  10.281
35298SOL    HW1 5920   6.592   5.786  10.188
35298SOL    HW2 5921   6.598   5.746  10.346
35299SOL     OW 5922   6.176   7.073   9.801
35299SOL    HW1 5923   6.218   7.015   9.731
35299SOL    HW2 5924   6.132   7.152   9.757
35300SOL     OW 5925   7.295   5.971  10.691
35300SOL    HW1 5926   7.368   6.040  10.695
35300SOL    HW2 5927   7.323   5.896  10.632
35301SOL     OW 5928   5.841   6.934   9.600
35301SOL    HW1 5929   5.745   6.935   9.573
35301SOL    HW2 5930   5.853   6.987   9.684
35302SOL     OW 5931   5.691   6.599  11.036
35302SOL    HW1 5932   5.614   6.566  11.090
35302SOL    HW2 5933   5.776   6.569  11.078
35303SOL     OW 5934   6.258   5.789  10.799
35303SOL    HW1 5935   6.348   5.773  10.759
35303SOL    HW2 5936   6.266   5.794  10.898
35304SOL     OW 5937   5.661   5.931   9.343
35304SOL    HW1 5938   5.569   5.903   9.314
35304SOL    HW2 5939   5.692   6.008   9.287
35305SOL     OW 5940   7.026   6.442  10.708
35305SOL    HW1 5941   6.969   6.494  10.645
35305SOL    HW2 5942   7.122   6.454  10.684
35306SOL     OW 5943   5.658   5.752   9.628
35306SOL    HW1 5944   5.641   5.835   9.574
35306SOL    HW2 5945   5.748   5.715   9.606
35307SOL     OW 5946   6.769   6.921   9.429
35307SOL    HW1 5947   6.670   6.910   9.431
35307SOL    HW2 5948   6.803   6.936   9.522
35308SOL     OW 5949   6.199   6.428  10.741
35308SOL    HW1 5950   6.255   6.509  10.724
35308SOL    HW2 5951   6.258   6.348  10.744
35309SOL     OW 5952   7.079   7.353  10.269
35309SOL    HW1 5953   7.112   7.417  10.200
35309SOL    HW2 5954   7.145   7.347  10.344
35310SOL     OW 5955   6.302   6.151  11.018
35310SOL    HW1 5956   6.321   6.216  11.092
35310SOL    HW2 5957   6.362   6.071  11.027
35311SOL     OW 5958   7.036   6.806  10.943
35311SOL    HW1 5959   7.027   6.796  11.042
35311SOL    HW2 5960   7.132   6.799  10.917
35312SOL     OW 5961   5.976   7.327  10.870
35312SOL    HW1 5962   5.885   7.368  10.868
35312SOL    HW2 5963   5.969   7.233  10.902
35313SOL     OW 5964   7.260   6.469  10.564
35313SOL    HW1 5965   7.233   6.380  10.527
35313SOL    HW2 5966   7.261   6.537  10.491
35314SOL     OW 5967   6.811   5.911   9.759
35314SOL    HW1 5968   6.876   5.837   9.748
35314SOL    HW2 5969   6.831   5.961   9.843
35315SOL     OW 5970   6.180   6.331   9.962
35315SOL    HW1 5971   6.230   6.416   9.943
35315SOL    HW2 5972   6.092   6.333   9.914
35316SOL     OW 5973   7.363   5.928  10.952
35316SOL    HW1 5974   7.346   5.959  10.858
35316SOL    HW2 5975   7.279   5.891  10.990
35317SOL     OW 5976   7.316   6.520  10.827
35317SOL    HW1 5977   7.354   6.611  10.842
35317SOL    HW2 5978   7.308   6.503  10.728
35318SOL     OW 5979   6.445   6.960   9.326
35318SOL    HW1 5980   6.399   6.975   9.414
35318SOL    HW2 5981   6.489   7.045   9.296
35319SOL     OW 5982   6.247   7.376  10.263
35319SOL    HW1 5983   6.201   7.464  10.250
35319SOL    HW2 5984   6.346   7.388  10.256
35320SOL     OW 5985   6.445   6.542  10.171
35320SOL    HW1 5986   6.499   6.473  10.219
35320SOL    HW2 5987   6.413   6.611  10.237
35321SOL     OW 5988   6.669   6.570   9.397
35321SOL    HW1 5989   6.646   6.623   9.315
35321SOL    HW2 5990   6.750   6.514   9.378
35322SOL     OW 5991   7.447   7.155  10.161
35322SOL    HW1 5992   7.376   7.143  10.091
35322SOL    HW2 5993   7.448   7.076  10.221
35323SOL     OW 5994   5.807   6.900  11.154
35323SOL    HW1 5995   5.742   6.827  11.133
35323SOL    HW2 5996   5.811   6.914  11.252
35324SOL     OW 5997   5.665   6.826   9.963
35324SOL    HW1 5998   5.664   6.779  10.051
35324SOL    HW2 5999   5.747   6.798   9.912
35325SOL     OW 6000   6.258   6.977  10.934
35325SOL    HW1 6001   6.180   6.927  10.972
35325SOL    HW2 6002   6.255   7.072  10.965
35326SOL     OW 6003   7.410   5.778  10.537
35326SOL    HW1 6004   7.406   5.688  10.581
35326SOL    HW2 6005   7.413   5.767  10.438
35327SOL     OW 6006   6.014   6.010   9.830
35327SOL    HW1 6007   6.044   5.938   9.768
35327SOL    HW2 6008   5.975   5.970   9.913
35328SOL     OW 6009   7.291   7.073  10.414
35328SOL    HW1 6010   7.198   7.048  10.387
35328SOL    HW2 6011   7.317   7.023  10.496
35329SOL     OW 6012   5.903   6.133  10.590
35329SOL    HW1 6013   5.941   6.074  10.662
35329SOL    HW2 6014   5.943   6.107  10.502
35330SOL     OW 6015   6.398   7.172   9.997
35330SOL    HW1 6016   6.430   7.182   9.903
35330SOL    HW2 6017   6.319   7.110   9.999
35331SOL     OW 6018   7.010   5.800  10.422
35331SOL    HW1 6019   7.062   5.735  10.477
35331SOL    HW2 6020   6.961   5.863  10.483
35332SOL     OW 6021   6.587   5.620  10.464
35332SOL    HW1 6022   6.524   5.548  10.433
35332SOL    HW2 6023   6.680   5.584  10.464
35333SOL     OW 6024   6.356   6.916   9.611
35333SOL    HW1 6025   6.310   6.829   9.628
35333SOL    HW2 6026   6.447   6.913   9.652
35334SOL     OW 6027   6.204   7.153  10.594
35334SOL    HW1 6028   6.199   7.235  10.651
35334SOL    HW2 6029   6.293   7.150  10.549
35335SOL     OW 6030   6.938   5.638   9.478
35335SOL    HW1 6031   6.973   5.597   9.394
35335SOL    HW2 6032   6.848   5.600   9.498
35336SOL     OW 6033   6.886   6.039  10.001
35336SOL    HW1 6034   6.827   6.119  10.005
35336SOL    HW2 6035   6.901   6.004  10.094
35337SOL     OW 6036   7.179   5.807  10.192
35337SOL    HW1 6037   7.095   5.806  10.246
35337SOL    HW2 6038   7.181   5.890  10.136
35338SOL     OW 6039   5.625   6.663   9.610
35338SOL    HW1 6040   5.724   6.652   9.601
35338SOL    HW2 6041   5.585   6.577   9.642
35339SOL     OW 6042   6.461   7.232   9.647
35339SOL    HW1 6043   6.384   7.197   9.593
35339SOL    HW2 6044   6.429   7.303   9.709
35340SOL     OW 6045   5.816   6.214  11.285
35340SOL    HW1 6046   5.723   6.212  11.322
35340SOL    HW2 6047   5.817   6.175  11.193
35341SOL     OW 6048   5.811   5.861  12.168
35341SOL    HW1 6049   5.846   5.844  12.260
35341SOL    HW2 6050   5.723   5.816  12.156
35342SOL     OW 6051   5.605   5.954  11.819
35342SOL    HW1 6052   5.523   5.997  11.858
35342SOL    HW2 6053   5.577   5.881  11.756
35343SOL     OW 6054   6.155   6.861  12.337
35343SOL    HW1 6055   6.062   6.854  12.300
35343SOL    HW2 6056   6.166   6.950  12.381
35344SOL     OW 6057   7.141   7.097  11.875
35344SOL    HW1 6058   7.084   7.081  11.956
35344SOL    HW2 6059   7.082   7.107  11.795
35345SOL     OW 6060   6.721   6.289  11.889
35345SOL    HW1 6061   6.778   6.367  11.864
35345SOL    HW2 6062   6.661   6.315  11.965
35346SOL     OW 6063   7.341   6.193  11.403
35346SOL    HW1 6064   7.329   6.180  11.304
35346SOL    HW2 6065   7.311   6.112  11.452
35347SOL     OW 6066   6.354   6.730  12.195
35347SOL    HW1 6067   6.276   6.747  12.255
35347SOL    HW2 6068   6.388   6.817  12.159
35348SOL     OW 6069   6.271   6.598  11.837
35348SOL    HW1 6070   6.340   6.582  11.907
35348SOL    HW2 6071   6.198   6.655  11.875
35349SOL     OW 6072   5.921   7.021  12.233
35349SOL    HW1 6073   5.843   6.990  12.180
35349SOL    HW2 6074   5.979   7.079  12.176
35350SOL     OW 6075   7.046   7.091  12.511
35350SOL    HW1 6076   7.070   7.185  12.537
35350SOL    HW2 6077   7.030   7.037  12.593
35351SOL     OW 6078   6.024   5.978  12.671
35351SOL    HW1 6079   6.106   5.922  12.680
35351SOL    HW2 6080   5.943   5.920  12.675
35352SOL     OW 6081   7.189   6.033  11.909
35352SOL    HW1 6082   7.115   6.079  11.859
35352SOL    HW2 6083   7.240   6.101  11.962
35353SOL     OW 6084   5.817   7.299  11.655
35353SOL    HW1 6085   5.851   7.376  11.709
35353SOL    HW2 6086   5.861   7.299  11.565
35354SOL     OW 6087   5.816   7.020  11.710
35354SOL    HW1 6088   5.790   7.116  11.710
35354SOL    HW2 6089   5.745   6.966  11.755
35355SOL     OW 6090   5.826   6.677  12.058
35355SOL    HW1 6091   5.840   6.593  12.110
35355SOL    HW2 6092   5.771   6.741  12.113
35356SOL     OW 6093   6.206   7.372  12.611
35356SOL    HW1 6094   6.114   7.355  12.646
35356SOL    HW2 6095   6.234   7.464  12.637
35357SOL     OW 6096   6.192   6.550  11.295
35357SOL    HW1 6097   6.199   6.634  11.241
35357SOL    HW2 6098   6.238   6.563  11.383
35358SOL     OW 6099   7.180   5.700  12.652
35358SOL    HW1 6100   7.162   5.767  12.580
35358SOL    HW2 6101   7.177   5.746  12.741
35359SOL     OW 6102   5.708   6.229  11.735
35359SOL    HW1 6103   5.663   6.141  11.752
35359SOL    HW2 6104   5.707   6.283  11.819
35360SOL     OW 6105   7.428   7.353  11.531
35360SOL    HW1 6106   7.482   7.324  11.611
35360SOL    HW2 6107   7.458   7.443  11.502
35361SOL     OW 6108   5.613   7.182  11.289
35361SOL    HW1 6109   5.594   7.086  11.310
35361SOL    HW2 6110   5.580   7.240  11.364
35362SOL     OW 6111   7.275   6.508  11.784
35362SOL    HW1 6112   7.370   6.479  11.792
35362SOL    HW2 6113   7.267   6.573  11.709
35363SOL     OW 6114   7.227   6.694  11.604
35363SOL    HW1 6115   7.313   6.696  11.552
35363SOL    HW2 6116   7.241   6.741  11.692
35364SOL     OW 6117   6.199   6.951  11.898
35364SOL    HW1 6118   6.150   6.864  11.907
35364SOL    HW2 6119   6.176   6.994  11.811
35365SOL     OW 6120   6.395   5.590  11.674
35365SOL    HW1 6121   6.435   5.681  11.665
35365SOL    HW2 6122   6.295   5.598  11.680
35366SOL     OW 6123   5.783   6.562  12.436
35366SOL    HW1 6124   5.872   6.517  12.422
35366SOL    HW2 6125   5.710   6.497  12.417
35367SOL     OW 6126   7.111   6.585  11.362
35367SOL    HW1 6127   7.048   6.509  11.375
35367SOL    HW2 6128   7.159   6.603  11.448
35368SOL     OW 6129   5.903   5.837  12.973
35368SOL    HW1 6130   5.974   5.908  12.979
35368SOL    HW2 6131   5.815   5.876  13.001
35369SOL     OW 6132   7.052   7.003  12.125
35369SOL    HW1 6133   6.993   7.009  12.205
35369SOL    HW2 6134   7.037   6.915  12.079
35370SOL     OW 6135   7.253   7.300  11.744
35370SOL    HW1 6136   7.212   7.277  11.656
35370SOL    HW2 6137   7.235   7.226  11.809
35371SOL     OW 6138   6.184   6.315  11.442
35371SOL    HW1 6139   6.208   6.384  11.374
35371SOL    HW2 6140   6.106   6.348  11.496
35372SOL     OW 6141   6.867   5.931  12.116
35372SOL    HW1 6142   6.781   5.881  12.103
35372SOL    HW2 6143   6.929   5.877  12.172
35373SOL     OW 6144   7.162   7.248  11.479
35373SOL    HW1 6145   7.251   7.294  11.482
35373SOL    HW2 6146   7.141   7.224  11.384
35374SOL     OW 6147   6.393   6.191  12.637
35374SOL    HW1 6148   6.346   6.188  12.726
35374SOL    HW2 6149   6.342   6.136  12.571
35375SOL     OW 6150   6.577   5.996  12.414
35375SOL    HW1 6151   6.500   6.030  12.468
35375SOL    HW2 6152   6.543   5.945  12.335
35376SOL     OW 6153   6.627   6.287  11.601
35376SOL    HW1 6154   6.653   6.283  11.697
35376SOL    HW2 6155   6.542   6.236  11.587
35377SOL     OW 6156   5.662   6.397  11.961
35377SOL    HW1 6157   5.761   6.385  11.970
35377SOL    HW2 6158   5.638   6.492  11.982
35378SOL     OW 6159   5.716   7.407  12.743
35378SOL    HW1 6160   5.706   7.392  12.842
35378SOL    HW2 6161   5.630   7.443  12.707
35379SOL     OW 6162   6.451   5.934  11.367
35379SOL    HW1 6163   6.510   5.997  11.318
35379SOL    HW2 6164   6.470   5.840  11.338
35380SOL     OW 6165   6.948   6.730  11.717
35380SOL    HW1 6166   7.031   6.701  11.669
35380SOL    HW2 6167   6.899   6.797  11.661
35381SOL     OW 6168   6.136   5.782  12.057
35381SOL    HW1 6169   6.131   5.777  12.157
35381SOL    HW2 6170   6.138   5.878  12.028
35382SOL     OW 6171   6.594   7.042  11.649
35382SOL    HW1 6172   6.548   7.114  11.597
35382SOL    HW2 6173   6.590   7.062  11.747
35383SOL     OW 6174   5.937   7.387  12.025
35383SOL    HW1 6175   5.987   7.301  12.031
35383SOL    HW2 6176   6.002   7.464  12.022
35384SOL     OW 6177   7.381   6.652  12.045
35384SOL    HW1 6178   7.319   6.637  11.969
35384SOL    HW2 6179   7.329   6.663  12.130
35385SOL     OW 6180   5.907   6.529  11.414
35385SOL    HW1 6181   5.989   6.568  11.372
35385SOL    HW2 6182   5.880   6.447  11.365
35386SOL     OW 6183   7.044   6.321  11.900
35386SOL    HW1 6184   7.039   6.256  11.975
35386SOL    HW2 6185   7.124   6.380  11.913
35387SOL     OW 6186   6.697   7.362  11.409
35387SOL    HW1 6187   6.637   7.300  11.459
35387SOL    HW2 6188   6.728   7.318  11.324
35388SOL     OW 6189   7.218   6.963  11.253
35388SOL    HW1 6190   7.186   7.057  11.243
35388SOL    HW2 6191   7.142   6.900  11.241
35389SOL     OW 6192   6.050   7.329  11.495
35389SOL    HW1 6193   6.083   7.368  11.581
35389SOL    HW2 6194   6.126   7.322  11.430
35390SOL     OW 6195   6.986   5.693  11.598
35390SOL    HW1 6196   6.962   5.656  11.508
35390SOL    HW2 6197   7.085   5.709  11.602
35391SOL     OW 6198   5.835   7.371  12.413
35391SOL    HW1 6199   5.892   7.306  12.463
35391SOL    HW2 6200   5.819   7.338  12.320
35392SOL     OW 6201   6.526   7.284  12.076
35392SOL    HW1 6202   6.606   7.227  12.097
35392SOL    HW2 6203   6.477   7.244  11.999
35393SOL     OW 6204   5.968   6.286  11.652
35393SOL    HW1 6205   6.013   6.196  11.649
35393SOL    HW2 6206   5.874   6.275  11.685
35394SOL     OW 6207   6.200   5.708  11.289
35394SOL    HW1 6208   6.298   5.686  11.296
35394SOL    HW2 6209   6.169   5.691  11.196
35395SOL     OW 6210   6.474   7.100  12.367
35395SOL    HW1 6211   6.451   7.075  12.273
35395SOL    HW2 6212   6.535   7.031  12.406
35396SOL     OW 6213   6.389   6.988  12.096
35396SOL    HW1 6214   6.479   7.002  12.054
35396SOL    HW2 6215   6.318   6.990  12.025
35397SOL     OW 6216   6.508   6.089  12.071
35397SOL    HW1 6217   6.483   6.080  11.975
35397SOL    HW2 6218   6.556   6.007  12.102
35398SOL     OW 6219   6.125   5.650  11.684
35398SOL    HW1 6220   6.044   5.651  11.742
35398SOL    HW2 6221   6.128   5.733  11.629
35399SOL     OW 6222   7.020   6.774  11.213
35399SOL    HW1 6223   7.052   6.698  11.270
35399SOL    HW2 6224   6.928   6.801  11.243
35400SOL     OW 6225   5.883   5.621  11.343
35400SOL    HW1 6226   5.932   5.705  11.322
35400SOL    HW2 6227   5.945   5.556  11.388
35401SOL     OW 6228   6.521   5.822  11.652
35401SOL    HW1 6229   6.473   5.863  11.574
35401SOL    HW2 6230   6.620   5.820  11.633
35402SOL     OW 6231   6.813   7.156  11.965
35402SOL    HW1 6232   6.834   7.230  11.900
35402SOL    HW2 6233   6.881   7.156  12.038
35403SOL     OW 6234   6.045   6.738  11.913
35403SOL    HW1 6235   5.974   6.711  11.978
35403SOL    HW2 6236   6.019   6.710  11.820
35404SOL     OW 6237   6.857   7.383  11.763
35404SOL    HW1 6238   6.901   7.447  11.699
35404SOL    HW2 6239   6.807   7.435  11.833
35405SOL     OW 6240   6.618   6.135  11.188
35405SOL    HW1 6241   6.577   6.217  11.149
35405SOL    HW2 6242   6.682   6.161  11.261
35406SOL     OW 6243   5.664   6.142  12.558
35406SOL    HW1 6244   5.756   6.141  12.517
35406SOL    HW2 6245   5.658   6.216  12.625
35407SOL     OW 6246   6.147   5.808  12.319
35407SOL    HW1 6247   6.185   5.724  12.356
35407SOL    HW2 6248   6.059   5.827  12.363
35408SOL     OW 6249   6.452   6.040  11.814
35408SOL    HW1 6250   6.420   6.112  11.752
35408SOL    HW2 6251   6.476   5.959  11.761
35409SOL     OW 6252   6.603   5.625  11.925
35409SOL    HW1 6253   6.531   5.630  11.856
35409SOL    HW2 6254   6.579   5.556  11.994
35410SOL     OW 6255   7.015   6.759  12.039
35410SOL    HW1 6256   6.960   6.675  12.032
35410SOL    HW2 6257   7.041   6.788  11.947
35411SOL     OW 6258   7.052   6.176  12.164
35411SOL    HW1 6259   7.022   6.081  12.171
35411SOL    HW2 6260   7.125   6.192  12.230
35412SOL     OW 6261   7.443   6.419  11.549
35412SOL    HW1 6262   7.485   6.355  11.613
35412SOL    HW2 6263   7.405   6.368  11.471
35413SOL     OW 6264   6.074   6.971  11.346
35413SOL    HW1 6265   5.987   6.956  11.393
35413SOL    HW2 6266   6.057   6.997  11.251
35414SOL     OW 6267   7.250   6.866  11.829
35414SOL    HW1 6268   7.349   6.874  11.843
35414SOL    HW2 6269   7.205   6.950  11.860
35415SOL     OW 6270   6.976   6.161  11.250
35415SOL    HW1 6271   6.922   6.140  11.331
35415SOL    HW2 6272   7.067   6.120  11.259
35416SOL     OW 6273   6.113   5.842  11.500
35416SOL    HW1 6274   6.140   5.783  11.425
35416SOL    HW2 6275   6.113   5.937  11.469
35417SOL     OW 6276   6.650   6.933  12.512
35417SOL    HW1 6277   6.570   6.910  12.567
35417SOL    HW2 6278   6.733   6.907  12.561
35418SOL     OW 6279   6.697   6.781  12.272
35418SOL    HW1 6280   6.657   6.825  12.353
35418SOL    HW2 6281   6.656   6.818  12.189
35419SOL     OW 6282   7.224   6.685  12.251
35419SOL    HW1 6283   7.229   6.766  12.310
35419SOL    HW2 6284   7.138   6.687  12.200
35420SOL     OW 6285   6.501   5.675  12.574
35420SOL    HW1 6286   6.526   5.655  12.479
35420SOL    HW2 6287   6.573   5.731  12.616
35421SOL     OW 6288   6.291   6.636  11.540
35421SOL    HW1 6289   6.277   6.643  11.639
35421SOL    HW2 6290   6.375   6.585  11.522
35422SOL     OW 6291   5.996   6.399  12.423
35422SOL    HW1 6292   6.082   6.411  12.473
35422SOL    HW2 6293   5.954   6.312  12.450
35423SOL     OW 6294   6.860   5.972  12.434
35423SOL    HW1 6295   6.881   6.046  12.498
35423SOL    HW2 6296   6.771   5.989  12.391
35424SOL     OW 6297   5.650   7.150  12.503
35424SOL    HW1 6298   5.604   7.232  12.469
35424SOL    HW2 6299   5.748   7.169  12.512
35425SOL     OW 6300   5.953   6.686  11.673
35425SOL    HW1 6301   5.946   6.769  11.617
35425SOL    HW2 6302   5.957   6.606  11.613
35426SOL     OW 6303   6.152   6.123  12.037
35426SOL    HW1 6304   6.164   6.189  11.963
35426SOL    HW2 6305   6.198   6.157  12.120
35427SOL     OW 6306   6.838   6.934  11.560
35427SOL    HW1 6307   6.888   7.011  11.600
35427SOL    HW2 6308   6.743   6.936  11.592
35428SOL     OW 6309   6.858   7.031  12.314
35428SOL    HW1 6310   6.905   7.044  12.401
35428SOL    HW2 6311   6.792   6.957  12.323
35429SOL     OW 6312   7.168   6.225  11.644
35429SOL    HW1 6313   7.137   6.286  11.717
35429SOL    HW2 6314   7.218   6.277  11.575
35430SOL     OW 6315   5.940   7.096  12.501
35430SOL    HW1 6316   5.919   7.052  12.414
35430SOL    HW2 6317   6.037   7.122  12.504
35431SOL     OW 6318   5.988   6.337  12.770
35431SOL    HW1 6319   6.056   6.392  12.723
35431SOL    HW2 6320   6.028   6.249  12.797
35432SOL     OW 6321   7.173   6.365  12.842
35432SOL    HW1 6322   7.081   6.403  12.837
35432SOL    HW2 6323   7.233   6.412  12.777
35433SOL     OW 6324   6.159   6.456  12.201
35433SOL    HW1 6325   6.203   6.545  12.192
35433SOL    HW2 6326   6.096   6.456  12.278
35434SOL     OW 6327   6.946   6.448  12.217
35434SOL    HW1 6328   6.871   6.448  12.151
35434SOL    HW2 6329   6.983   6.356  12.226
35435SOL     OW 6330   6.795   6.111  11.447
35435SOL    HW1 6331   6.808   6.027  11.501
35435SOL    HW2 6332   6.766   6.185  11.507
35436SOL     OW 6333   5.893   5.799  12.403
35436SOL    HW1 6334   5.870   5.836  12.493
35436SOL    HW2 6335   5.863   5.704  12.397
35437SOL     OW 6336   5.623   6.896  12.454
35437SOL    HW1 6337   5.676   6.847  12.522
35437SOL    HW2 6338   5.645   6.994  12.459
35438SOL     OW 6339   6.318   6.220  12.236
35438SOL    HW1 6340   6.377   6.194  12.160
35438SOL    HW2 6341   6.290   6.316  12.225
35439SOL     OW 6342   5.893   5.649  11.790
35439SOL    HW1 6343   5.882   5.743  11.823
35439SOL    HW2 6344   5.888   5.586  11.867
35440SOL     OW 6345   7.208   5.953  11.546
35440SOL    HW1 6346   7.210   5.877  11.610
35440SOL    HW2 6347   7.160   6.030  11.586
35441SOL     OW 6348   6.609   6.352  12.138
35441SOL    HW1 6349   6.624   6.373  12.234
35441SOL    HW2 6350   6.579   6.257  12.129
35442SOL     OW 6351   6.566   7.159  12.872
35442SOL    HW1 6352   6.546   7.203  12.784
35442SOL    HW2 6353   6.605   7.068  12.856
35443SOL     OW 6354   7.126   5.860  11.297
35443SOL    HW1 6355   7.065   5.785  11.320
35443SOL    HW2 6356   7.148   5.912  11.380
35444SOL     OW 6357   6.889   6.424  11.214
35444SOL    HW1 6358   6.923   6.331  11.229
35444SOL    HW2 6359   6.907   6.451  11.119
35445SOL     OW 6360   6.654   6.919  12.021
35445SOL    HW1 6361   6.661   6.835  11.966
35445SOL    HW2 6362   6.716   6.988  11.985
35446SOL     OW 6363   5.905   6.396  12.121
35446SOL    HW1 6364   5.998   6.432  12.126
35446SOL    HW2 6365   5.899   6.311  12.173
35447SOL     OW 6366   5.925   6.095  12.178
35447SOL    HW1 6367   5.873   6.012  12.161
35447SOL    HW2 6368   6.002   6.100  12.114
35448SOL     OW 6369   6.724   5.966  12.850
35448SOL    HW1 6370   6.679   6.029  12.914
35448SOL    HW2 6371   6.817   5.997  12.833
35449SOL     OW 6372   6.746   5.793  12.649
35449SOL    HW1 6373   6.746   5.857  12.726
35449SOL    HW2 6374   6.774   5.841  12.566
35450SOL     OW 6375   5.594   6.912  11.372
35450SOL    HW1 6376   5.501   6.933  11.341
35450SOL    HW2 6377   5.604   6.813  11.385
35451SOL     OW 6378   5.674   7.387  12.099
35451SOL    HW1 6379   5.632   7.301  12.072
35451SOL    HW2 6380   5.768   7.390  12.065
35452SOL     OW 6381   6.090   7.154  12.082
35452SOL    HW1 6382   6.156   7.228  12.091
35452SOL    HW2 6383   6.134   7.075  12.040
35453SOL     OW 6384   6.588   6.382  12.410
35453SOL    HW1 6385   6.629   6.350  12.496
35453SOL    HW2 6386   6.492   6.355  12.407
35454SOL     OW 6387   5.626   6.130  12.286
35454SOL    HW1 6388   5.711   6.097  12.245
35454SOL    HW2 6389   5.639   6.145  12.384
35455SOL     OW 6390   6.401   6.158  11.497
35455SOL    HW1 6391   6.408   6.069  11.451
35455SOL    HW2 6392   6.307   6.192  11.489
35456SOL     OW 6393   7.243   6.190  12.378
35456SOL    HW1 6394   7.205   6.121  12.440
35456SOL    HW2 6395   7.325   6.154  12.334
35457SOL     OW 6396   6.257   6.050  12.441
35457SOL    HW1 6397   6.223   5.961  12.411
35457SOL    HW2 6398   6.283   6.104  12.361
35458SOL     OW 6399   6.516   7.264  12.637
35458SOL    HW1 6400   6.492   7.246  12.542
35458SOL    HW2 6401   6.546   7.358  12.647
35459SOL     OW 6402   6.059   6.086  11.363
35459SOL    HW1 6403   6.120   6.166  11.367
35459SOL    HW2 6404   5.964   6.117  11.370
35460SOL     OW 6405   5.745   6.723  12.638
35460SOL    HW1 6406   5.767   6.662  12.714
35460SOL    HW2 6407   5.755   6.674  12.552
35461SOL     OW 6408   6.933   6.645  12.406
35461SOL    HW1 6409   6.957   6.582  12.332
35461SOL    HW2 6410   6.843   6.685  12.388
35462SOL     OW 6411   6.888   6.441  11.481
35462SOL    HW1 6412   6.802   6.410  11.523
35462SOL    HW2 6413   6.884   6.427  11.382
35463SOL     OW 6414   7.345   7.333  12.326
35463SOL    HW1 6415   7.406   7.363  12.253
35463SOL    HW2 6416   7.307   7.244  12.304
35464SOL     OW 6417   6.838   7.317  12.300
35464SOL    HW1 6418   6.922   7.322  12.246
35464SOL    HW2 6419   6.815   7.221  12.318
35465SOL     OW 6420   5.669   6.844  12.194
35465SOL    HW1 6421   5.664   6.843  12.294
35465SOL    HW2 6422   5.586   6.803  12.156
35466SOL     OW 6423   7.312   5.721  11.695
35466SOL    HW1 6424   7.385   5.704  11.628
35466SOL    HW2 6425   7.281   5.634  11.733
35467SOL     OW 6426   6.974   7.159  11.649
35467SOL    HW1 6427   7.041   7.171  11.575
35467SOL    HW2 6428   6.934   7.248  11.672
35468SOL     OW 6429   6.866   6.513  11.844
35468SOL    HW1 6430   6.926   6.432  11.846
35468SOL    HW2 6431   6.906   6.582  11.784
35469SOL     OW 6432   6.258   7.202  11.326
35469SOL    HW1 6433   6.267   7.212  11.227
35469SOL    HW2 6434   6.218   7.113  11.347
35470SOL     OW 6435   7.236   7.306  12.566
35470SOL    HW1 6436   7.289   7.316  12.482
35470SOL    HW2 6437   7.209   7.396  12.600
35471SOL     OW 6438   7.427   5.761  12.135
35471SOL    HW1 6439   7.466   5.676  12.099
35471SOL    HW2 6440   7.329   5.763  12.116
35472SOL     OW 6441   5.849   5.912  11.892
35472SOL    HW1 6442   5.770   5.963  11.858
35472SOL    HW2 6443   5.840   5.897  11.990
35473SOL     OW 6444   6.780   7.198  11.203
35473SOL    HW1 6445   6.786   7.105  11.240
35473SOL    HW2 6446   6.721   7.198  11.123
35474SOL     OW 6447   6.408   6.588  12.544
35474SOL    HW1 6448   6.448   6.587  12.452
35474SOL    HW2 6449   6.418   6.680  12.584
35475SOL     OW 6450   6.502   6.496  11.463
35475SOL    HW1 6451   6.565   6.534  11.395
35475SOL    HW2 6452   6.542   6.413  11.502
35476SOL     OW 6453   7.090   7.193  11.216
35476SOL    HW1 6454   6.998   7.230  11.223
35476SOL    HW2 6455   7.128   7.213  11.126
35477SOL     OW 6456   5.958   6.874  12.662
35477SOL    HW1 6457   5.945   6.967  12.628
35477SOL    HW2 6458   5.874   6.822  12.649
35478SOL     OW 6459   7.200   6.878  12.461
35478SOL    HW1 6460   7.260   6.881  12.541
35478SOL    HW2 6461   7.125   6.942  12.474
35479SOL     OW 6462   6.625   6.684  11.868
35479SOL    HW1 6463   6.555   6.637  11.922
35479SOL    HW2 6464   6.684   6.616  11.825
35480SOL     OW 6465   6.600   5.822  12.143
35480SOL    HW1 6466   6.592   5.786  12.050
35480SOL    HW2 6467   6.598   5.746  12.208
35481SOL     OW 6468   6.176   7.073  11.663
35481SOL    HW1 6469   6.218   7.015  11.593
35481SOL    HW2 6470   6.132   7.152  11.619
35482SOL     OW 6471   7.295   5.971  12.553
35482SOL    HW1 6472   7.368   6.040  12.557
35482SOL    HW2 6473   7.323   5.896  12.494
35483SOL     OW 6474   5.841   6.934  11.462
35483SOL    HW1 6475   5.745   6.935  11.435
35483SOL    HW2 6476   5.853   6.987  11.546
35484SOL     OW 6477   5.661   5.931  11.205
35484SOL    HW1 6478   5.569   5.903  11.176
35484SOL    HW2 6479   5.692   6.008  11.149
35485SOL     OW 6480   7.026   6.442  12.570
35485SOL    HW1 6481   6.969   6.494  12.507
35485SOL    HW2 6482   7.122   6.454  12.546
35486SOL     OW 6483   5.658   5.752  11.490
35486SOL    HW1 6484   5.641   5.835  11.436
35486SOL    HW2 6485   5.748   5.715  11.468
35487SOL     OW 6486   6.769   6.921  11.291
35487SOL    HW1 6487   6.670   6.910  11.293
35487SOL    HW2 6488   6.803   6.936  11.384
35488SOL     OW 6489   6.199   6.428  12.603
35488SOL    HW1 6490   6.255   6.509  12.586
35488SOL    HW2 6491   6.258   6.348  12.606
35489SOL     OW 6492   7.079   7.353  12.131
35489SOL    HW1 6493   7.112   7.417  12.062
35489SOL    HW2 6494   7.145   7.347  12.206
35490SOL     OW 6495   5.976   7.327  12.732
35490SOL    HW1 6496   5.885   7.368  12.730
35490SOL    HW2 6497   5.969   7.233  12.764
35491SOL     OW 6498   7.260   6.469  12.426
35491SOL    HW1 6499   7.233   6.380  12.389
35491SOL    HW2 6500   7.261   6.537  12.353
35492SOL     OW 6501   6.811   5.911  11.621
35492SOL    HW1 6502   6.876   5.837  11.610
35492SOL    HW2 6503   6.831   5.961  11.705
35493SOL     OW 6504   6.180   6.331  11.824
35493SOL    HW1 6505   6.230   6.416  11.805
35493SOL    HW2 6506   6.092   6.333  11.776
35494SOL     OW 6507   7.316   6.520  12.689
35494SOL    HW1 6508   7.354   6.611  12.704
35494SOL    HW2 6509   7.308   6.503  12.590
35495SOL     OW 6510   6.445   6.960  11.188
35495SOL    HW1 6511   6.399   6.975  11.276
35495SOL    HW2 6512   6.489   7.045  11.158
35496SOL     OW 6513   6.247   7.376  12.125
35496SOL    HW1 6514   6.201   7.464  12.112
35496SOL    HW2 6515   6.346   7.388  12.118
35497SOL     OW 6516   6.445   6.542  12.033
35497SOL    HW1 6517   6.499   6.473  12.081
35497SOL    HW2 6518   6.413   6.611  12.099
35498SOL     OW 6519   6.669   6.570  11.259
35498SOL    HW1 6520   6.646   6.623  11.177
35498SOL    HW2 6521   6.750   6.514  11.240
35499SOL     OW 6522   7.447   7.155  12.023
35499SOL    HW1 6523   7.376   7.143  11.953
35499SOL    HW2 6524   7.448   7.076  12.083
35500SOL     OW 6525   5.665   6.826  11.825
35500SOL    HW1 6526   5.664   6.779  11.913
35500SOL    HW2 6527   5.747   6.798  11.774
35501SOL     OW 6528   7.410   5.778  12.399
35501SOL    HW1 6529   7.406   5.688  12.443
35501SOL    HW2 6530   7.413   5.767  12.300
35502SOL     OW 6531   6.014   6.010  11.692
35502SOL    HW1 6532   6.044   5.938  11.630
35502SOL    HW2 6533   5.975   5.970  11.775
35503SOL     OW 6534   7.291   7.073  12.276
35503SOL    HW1 6535   7.198   7.048  12.249
35503SOL    HW2 6536   7.317   7.023  12.358
35504SOL     OW 6537   5.903   6.133  12.452
35504SOL    HW1 6538   5.941   6.074  12.524
35504SOL    HW2 6539   5.943   6.107  12.364
35505SOL     OW 6540   6.398   7.172  11.859
35505SOL    HW1 6541   6.430   7.182  11.765
35505SOL    HW2 6542   6.319   7.110  11.861
35506SOL     OW 6543   7.010   5.800  12.284
35506SOL    HW1 6544   7.062   5.735  12.339
35506SOL    HW2 6545   6.961   5.863  12.345
35507SOL     OW 6546   6.587   5.620  12.326
35507SOL    HW1 6547   6.524   5.548  12.295
35507SOL    HW2 6548   6.680   5.584  12.326
35508SOL     OW 6549   6.356   6.916  11.473
35508SOL    HW1 6550   6.310   6.829  11.490
35508SOL    HW2 6551   6.447   6.913  11.514
35509SOL     OW 6552   6.204   7.153  12.456
35509SOL    HW1 6553   6.199   7.235  12.513
35509SOL    HW2 6554   6.293   7.150  12.411
35510SOL     OW 6555   6.938   5.638  11.340
35510SOL    HW1 6556   6.973   5.597  11.256
35510SOL    HW2 6557   6.848   5.600  11.360
35511SOL     OW 6558   6.886   6.039  11.863
35511SOL    HW1 6559   6.827   6.119  11.867
35511SOL    HW2 6560   6.901   6.004  11.956
35512SOL     OW 6561   7.179   5.807  12.054
35512SOL    HW1 6562   7.095   5.806  12.108
35512SOL    HW2 6563   7.181   5.890  11.998
35513SOL     OW 6564   5.625   6.663  11.472
35513SOL    HW1 6565   5.724   6.652  11.463
35513SOL    HW2 6566   5.585   6.577  11.504
35514SOL     OW 6567   6.461   7.232  11.509
35514SOL    HW1 6568   6.384   7.197  11.455
35514SOL    HW2 6569   6.429   7.303  11.571
35515SOL     OW 6570   5.816   8.076   0.113
35515SOL    HW1 6571   5.723   8.074   0.150
35515SOL    HW2 6572   5.817   8.037   0.021
35516SOL     OW 6573   5.811   7.723   0.996
35516SOL    HW1 6574   5.846   7.706   1.088
35516SOL    HW2 6575   5.723   7.678   0.984
35517SOL     OW 6576   5.605   7.816   0.647
35517SOL    HW1 6577   5.523   7.859   0.686
35517SOL    HW2 6578   5.577   7.743   0.584
35518SOL     OW 6579   6.155   8.723   1.165
35518SOL    HW1 6580   6.062   8.716   1.128
35518SOL    HW2 6581   6.166   8.812   1.209
35519SOL     OW 6582   7.141   8.959   0.703
35519SOL    HW1 6583   7.084   8.943   0.784
35519SOL    HW2 6584   7.082   8.969   0.623
35520SOL     OW 6585   6.721   8.151   0.717
35520SOL    HW1 6586   6.778   8.229   0.692
35520SOL    HW2 6587   6.661   8.177   0.793
35521SOL     OW 6588   7.341   8.055   0.231
35521SOL    HW1 6589   7.329   8.042   0.132
35521SOL    HW2 6590   7.311   7.974   0.280
35522SOL     OW 6591   6.354   8.592   1.023
35522SOL    HW1 6592   6.276   8.609   1.083
35522SOL    HW2 6593   6.388   8.679   0.987
35523SOL     OW 6594   6.436   8.246   1.823
35523SOL    HW1 6595   6.432   8.322   1.888
35523SOL    HW2 6596   6.458   8.282   1.732
35524SOL     OW 6597   6.271   8.460   0.665
35524SOL    HW1 6598   6.340   8.444   0.735
35524SOL    HW2 6599   6.198   8.517   0.703
35525SOL     OW 6600   6.272   8.609   1.803
35525SOL    HW1 6601   6.332   8.688   1.817
35525SOL    HW2 6602   6.186   8.640   1.762
35526SOL     OW 6603   5.921   8.883   1.061
35526SOL    HW1 6604   5.843   8.852   1.008
35526SOL    HW2 6605   5.979   8.941   1.004
35527SOL     OW 6606   7.046   8.953   1.339
35527SOL    HW1 6607   7.070   9.047   1.365
35527SOL    HW2 6608   7.030   8.899   1.421
35528SOL     OW 6609   6.024   7.840   1.499
35528SOL    HW1 6610   6.106   7.784   1.508
35528SOL    HW2 6611   5.943   7.782   1.503
35529SOL     OW 6612   7.189   7.895   0.737
35529SOL    HW1 6613   7.115   7.941   0.687
35529SOL    HW2 6614   7.240   7.963   0.790
35530SOL     OW 6615   5.817   9.161   0.483
35530SOL    HW1 6616   5.851   9.238   0.537
35530SOL    HW2 6617   5.861   9.161   0.393
35531SOL     OW 6618   6.713   8.789   1.690
35531SOL    HW1 6619   6.760   8.789   1.778
35531SOL    HW2 6620   6.665   8.702   1.679
35532SOL     OW 6621   5.816   8.882   0.538
35532SOL    HW1 6622   5.790   8.978   0.538
35532SOL    HW2 6623   5.745   8.828   0.583
35533SOL     OW 6624   5.826   8.539   0.886
35533SOL    HW1 6625   5.840   8.455   0.938
35533SOL    HW2 6626   5.771   8.603   0.941
35534SOL     OW 6627   6.206   9.234   1.439
35534SOL    HW1 6628   6.114   9.217   1.474
35534SOL    HW2 6629   6.234   9.326   1.465
35535SOL     OW 6630   6.192   8.412   0.123
35535SOL    HW1 6631   6.199   8.496   0.069
35535SOL    HW2 6632   6.238   8.425   0.211
35536SOL     OW 6633   7.180   7.562   1.480
35536SOL    HW1 6634   7.162   7.629   1.408
35536SOL    HW2 6635   7.177   7.608   1.569
35537SOL     OW 6636   5.708   8.091   0.563
35537SOL    HW1 6637   5.663   8.003   0.580
35537SOL    HW2 6638   5.707   8.145   0.647
35538SOL     OW 6639   7.428   9.215   0.359
35538SOL    HW1 6640   7.482   9.186   0.439
35538SOL    HW2 6641   7.458   9.305   0.330
35539SOL     OW 6642   5.613   9.044   0.117
35539SOL    HW1 6643   5.594   8.948   0.138
35539SOL    HW2 6644   5.580   9.102   0.192
35540SOL     OW 6645   7.275   8.370   0.612
35540SOL    HW1 6646   7.370   8.341   0.620
35540SOL    HW2 6647   7.267   8.435   0.537
35541SOL     OW 6648   7.227   8.556   0.432
35541SOL    HW1 6649   7.313   8.558   0.380
35541SOL    HW2 6650   7.241   8.603   0.520
35542SOL     OW 6651   5.699   8.185   1.597
35542SOL    HW1 6652   5.787   8.172   1.642
35542SOL    HW2 6653   5.686   8.282   1.575
35543SOL     OW 6654   6.199   8.813   0.726
35543SOL    HW1 6655   6.150   8.726   0.735
35543SOL    HW2 6656   6.176   8.856   0.639
35544SOL     OW 6657   6.879   8.676   1.423
35544SOL    HW1 6658   6.916   8.603   1.365
35544SOL    HW2 6659   6.931   8.681   1.508
35545SOL     OW 6660   6.395   7.452   0.502
35545SOL    HW1 6661   6.435   7.543   0.493
35545SOL    HW2 6662   6.295   7.460   0.508
35546SOL     OW 6663   5.783   8.424   1.264
35546SOL    HW1 6664   5.872   8.379   1.250
35546SOL    HW2 6665   5.710   8.359   1.245
35547SOL     OW 6666   7.111   8.447   0.190
35547SOL    HW1 6667   7.048   8.371   0.203
35547SOL    HW2 6668   7.159   8.465   0.276
35548SOL     OW 6669   6.773   9.240   1.616
35548SOL    HW1 6670   6.797   9.300   1.540
35548SOL    HW2 6671   6.780   9.145   1.586
35549SOL     OW 6672   5.903   7.699   1.801
35549SOL    HW1 6673   5.974   7.770   1.807
35549SOL    HW2 6674   5.815   7.738   1.829
35550SOL     OW 6675   7.052   8.865   0.953
35550SOL    HW1 6676   6.993   8.871   1.033
35550SOL    HW2 6677   7.037   8.777   0.907
35551SOL     OW 6678   7.253   9.162   0.572
35551SOL    HW1 6679   7.212   9.139   0.484
35551SOL    HW2 6680   7.235   9.088   0.637
35552SOL     OW 6681   6.184   8.177   0.270
35552SOL    HW1 6682   6.208   8.246   0.202
35552SOL    HW2 6683   6.106   8.210   0.324
35553SOL     OW 6684   6.867   7.793   0.944
35553SOL    HW1 6685   6.781   7.743   0.931
35553SOL    HW2 6686   6.929   7.739   1.000
35554SOL     OW 6687   7.162   9.110   0.307
35554SOL    HW1 6688   7.251   9.156   0.310
35554SOL    HW2 6689   7.141   9.086   0.212
35555SOL     OW 6690   6.393   8.053   1.465
35555SOL    HW1 6691   6.346   8.050   1.554
35555SOL    HW2 6692   6.342   7.998   1.399
35556SOL     OW 6693   6.980   7.917   1.674
35556SOL    HW1 6694   6.960   7.960   1.762
35556SOL    HW2 6695   7.058   7.855   1.683
35557SOL     OW 6696   6.559   8.338   1.572
35557SOL    HW1 6697   6.605   8.254   1.543
35557SOL    HW2 6698   6.503   8.372   1.497
35558SOL     OW 6699   6.577   7.858   1.242
35558SOL    HW1 6700   6.500   7.892   1.296
35558SOL    HW2 6701   6.543   7.807   1.163
35559SOL     OW 6702   6.627   8.149   0.429
35559SOL    HW1 6703   6.653   8.145   0.525
35559SOL    HW2 6704   6.542   8.098   0.415
35560SOL     OW 6705   5.662   8.259   0.789
35560SOL    HW1 6706   5.761   8.247   0.798
35560SOL    HW2 6707   5.638   8.354   0.810
35561SOL     OW 6708   5.716   9.269   1.571
35561SOL    HW1 6709   5.706   9.254   1.670
35561SOL    HW2 6710   5.630   9.305   1.535
35562SOL     OW 6711   6.451   7.796   0.195
35562SOL    HW1 6712   6.510   7.859   0.146
35562SOL    HW2 6713   6.470   7.702   0.166
35563SOL     OW 6714   7.305   8.033   1.831
35563SOL    HW1 6715   7.279   8.122   1.795
35563SOL    HW2 6716   7.303   7.965   1.758
35564SOL     OW 6717   6.948   8.592   0.545
35564SOL    HW1 6718   7.031   8.563   0.497
35564SOL    HW2 6719   6.899   8.659   0.489
35565SOL     OW 6720   6.136   7.644   0.885
35565SOL    HW1 6721   6.131   7.639   0.985
35565SOL    HW2 6722   6.138   7.740   0.856
35566SOL     OW 6723   6.594   8.904   0.477
35566SOL    HW1 6724   6.548   8.976   0.425
35566SOL    HW2 6725   6.590   8.924   0.575
35567SOL     OW 6726   5.937   9.249   0.853
35567SOL    HW1 6727   5.987   9.163   0.859
35567SOL    HW2 6728   6.002   9.326   0.850
35568SOL     OW 6729   7.381   8.514   0.873
35568SOL    HW1 6730   7.319   8.499   0.797
35568SOL    HW2 6731   7.329   8.525   0.958
35569SOL     OW 6732   6.813   8.998   1.506
35569SOL    HW1 6733   6.819   8.921   1.570
35569SOL    HW2 6734   6.761   8.972   1.426
35570SOL     OW 6735   5.907   8.391   0.242
35570SOL    HW1 6736   5.989   8.430   0.200
35570SOL    HW2 6737   5.880   8.309   0.193
35571SOL     OW 6738   7.044   8.183   0.728
35571SOL    HW1 6739   7.039   8.118   0.803
35571SOL    HW2 6740   7.124   8.242   0.741
35572SOL     OW 6741   6.047   8.714   1.727
35572SOL    HW1 6742   5.997   8.715   1.641
35572SOL    HW2 6743   5.984   8.696   1.803
35573SOL     OW 6744   6.697   9.224   0.237
35573SOL    HW1 6745   6.637   9.162   0.287
35573SOL    HW2 6746   6.728   9.180   0.152
35574SOL     OW 6747   5.788   7.733   1.498
35574SOL    HW1 6748   5.708   7.793   1.485
35574SOL    HW2 6749   5.778   7.684   1.584
35575SOL     OW 6750   7.218   8.825   0.081
35575SOL    HW1 6751   7.186   8.919   0.071
35575SOL    HW2 6752   7.142   8.762   0.069
35576SOL     OW 6753   6.050   9.191   0.323
35576SOL    HW1 6754   6.083   9.230   0.409
35576SOL    HW2 6755   6.126   9.184   0.258
35577SOL     OW 6756   6.986   7.555   0.426
35577SOL    HW1 6757   6.962   7.518   0.336
35577SOL    HW2 6758   7.085   7.571   0.430
35578SOL     OW 6759   5.835   9.233   1.241
35578SOL    HW1 6760   5.892   9.168   1.291
35578SOL    HW2 6761   5.819   9.200   1.148
35579SOL     OW 6762   6.526   9.146   0.904
35579SOL    HW1 6763   6.606   9.089   0.925
35579SOL    HW2 6764   6.477   9.106   0.827
35580SOL     OW 6765   5.968   8.148   0.480
35580SOL    HW1 6766   6.013   8.058   0.477
35580SOL    HW2 6767   5.874   8.137   0.513
35581SOL     OW 6768   7.133   7.670   1.729
35581SOL    HW1 6769   7.128   7.707   1.821
35581SOL    HW2 6770   7.061   7.601   1.717
35582SOL     OW 6771   6.200   7.570   0.117
35582SOL    HW1 6772   6.298   7.548   0.124
35582SOL    HW2 6773   6.169   7.553   0.024
35583SOL     OW 6774   6.367   7.712   1.749
35583SOL    HW1 6775   6.434   7.651   1.792
35583SOL    HW2 6776   6.294   7.731   1.814
35584SOL     OW 6777   6.474   8.962   1.195
35584SOL    HW1 6778   6.451   8.937   1.101
35584SOL    HW2 6779   6.535   8.893   1.234
35585SOL     OW 6780   6.937   8.038   1.433
35585SOL    HW1 6781   6.965   7.995   1.518
35585SOL    HW2 6782   6.962   8.134   1.434
35586SOL     OW 6783   6.389   8.850   0.924
35586SOL    HW1 6784   6.479   8.864   0.882
35586SOL    HW2 6785   6.318   8.852   0.853
35587SOL     OW 6786   6.508   7.951   0.899
35587SOL    HW1 6787   6.483   7.942   0.803
35587SOL    HW2 6788   6.556   7.869   0.930
35588SOL     OW 6789   6.125   7.512   0.512
35588SOL    HW1 6790   6.044   7.513   0.570
35588SOL    HW2 6791   6.128   7.595   0.457
35589SOL     OW 6792   7.020   8.636   0.041
35589SOL    HW1 6793   7.052   8.560   0.098
35589SOL    HW2 6794   6.928   8.663   0.071
35590SOL     OW 6795   5.883   7.483   0.171
35590SOL    HW1 6796   5.932   7.567   0.150
35590SOL    HW2 6797   5.945   7.418   0.216
35591SOL     OW 6798   6.521   7.684   0.480
35591SOL    HW1 6799   6.473   7.725   0.402
35591SOL    HW2 6800   6.620   7.682   0.461
35592SOL     OW 6801   6.662   8.131   1.464
35592SOL    HW1 6802   6.582   8.070   1.467
35592SOL    HW2 6803   6.743   8.078   1.440
35593SOL     OW 6804   6.813   9.018   0.793
35593SOL    HW1 6805   6.834   9.092   0.728
35593SOL    HW2 6806   6.881   9.018   0.866
35594SOL     OW 6807   6.045   8.600   0.741
35594SOL    HW1 6808   5.974   8.573   0.806
35594SOL    HW2 6809   6.019   8.572   0.648
35595SOL     OW 6810   6.857   9.245   0.591
35595SOL    HW1 6811   6.901   9.309   0.527
35595SOL    HW2 6812   6.807   9.297   0.661
35596SOL     OW 6813   6.618   7.997   0.016
35596SOL    HW1 6814   6.577   8.079  -0.023
35596SOL    HW2 6815   6.682   8.023   0.089
35597SOL     OW 6816   5.664   8.004   1.386
35597SOL    HW1 6817   5.756   8.003   1.345
35597SOL    HW2 6818   5.658   8.078   1.453
35598SOL     OW 6819   6.147   7.670   1.147
35598SOL    HW1 6820   6.185   7.586   1.184
35598SOL    HW2 6821   6.059   7.689   1.191
35599SOL     OW 6822   6.452   7.902   0.642
35599SOL    HW1 6823   6.420   7.974   0.580
35599SOL    HW2 6824   6.476   7.821   0.589
35600SOL     OW 6825   6.603   7.487   0.753
35600SOL    HW1 6826   6.531   7.492   0.684
35600SOL    HW2 6827   6.579   7.418   0.822
35601SOL     OW 6828   7.015   8.621   0.867
35601SOL    HW1 6829   6.960   8.537   0.860
35601SOL    HW2 6830   7.041   8.650   0.775
35602SOL     OW 6831   7.052   8.038   0.992
35602SOL    HW1 6832   7.022   7.943   0.999
35602SOL    HW2 6833   7.125   8.054   1.058
35603SOL     OW 6834   7.443   8.281   0.377
35603SOL    HW1 6835   7.485   8.217   0.441
35603SOL    HW2 6836   7.405   8.230   0.299
35604SOL     OW 6837   6.074   8.833   0.174
35604SOL    HW1 6838   5.987   8.818   0.221
35604SOL    HW2 6839   6.057   8.859   0.079
35605SOL     OW 6840   7.250   8.728   0.657
35605SOL    HW1 6841   7.349   8.736   0.671
35605SOL    HW2 6842   7.205   8.812   0.688
35606SOL     OW 6843   6.976   8.023   0.078
35606SOL    HW1 6844   6.922   8.002   0.159
35606SOL    HW2 6845   7.067   7.982   0.087
35607SOL     OW 6846   6.113   7.704   0.328
35607SOL    HW1 6847   6.140   7.645   0.253
35607SOL    HW2 6848   6.113   7.799   0.297
35608SOL     OW 6849   7.340   8.671   1.588
35608SOL    HW1 6850   7.431   8.632   1.575
35608SOL    HW2 6851   7.348   8.767   1.612
35609SOL     OW 6852   6.650   8.795   1.340
35609SOL    HW1 6853   6.570   8.772   1.395
35609SOL    HW2 6854   6.733   8.769   1.389
35610SOL     OW 6855   7.178   9.077   1.625
35610SOL    HW1 6856   7.205   9.111   1.535
35610SOL    HW2 6857   7.257   9.039   1.671
35611SOL     OW 6858   6.697   8.643   1.100
35611SOL    HW1 6859   6.657   8.687   1.181
35611SOL    HW2 6860   6.656   8.680   1.017
35612SOL     OW 6861   7.224   8.547   1.079
35612SOL    HW1 6862   7.229   8.628   1.138
35612SOL    HW2 6863   7.138   8.549   1.028
35613SOL     OW 6864   6.501   7.537   1.402
35613SOL    HW1 6865   6.526   7.517   1.307
35613SOL    HW2 6866   6.573   7.593   1.444
35614SOL     OW 6867   6.566   8.564   1.719
35614SOL    HW1 6868   6.467   8.570   1.729
35614SOL    HW2 6869   6.589   8.484   1.663
35615SOL     OW 6870   6.291   8.498   0.368
35615SOL    HW1 6871   6.277   8.505   0.467
35615SOL    HW2 6872   6.375   8.447   0.350
35616SOL     OW 6873   5.996   8.261   1.251
35616SOL    HW1 6874   6.082   8.273   1.301
35616SOL    HW2 6875   5.954   8.174   1.278
35617SOL     OW 6876   6.860   7.834   1.262
35617SOL    HW1 6877   6.881   7.908   1.326
35617SOL    HW2 6878   6.771   7.851   1.219
35618SOL     OW 6879   5.650   9.012   1.331
35618SOL    HW1 6880   5.604   9.094   1.297
35618SOL    HW2 6881   5.748   9.031   1.340
35619SOL     OW 6882   5.953   8.548   0.501
35619SOL    HW1 6883   5.946   8.631   0.445
35619SOL    HW2 6884   5.957   8.468   0.441
35620SOL     OW 6885   6.152   7.985   0.865
35620SOL    HW1 6886   6.164   8.051   0.791
35620SOL    HW2 6887   6.198   8.019   0.948
35621SOL     OW 6888   6.838   8.796   0.388
35621SOL    HW1 6889   6.888   8.873   0.428
35621SOL    HW2 6890   6.743   8.798   0.420
35622SOL     OW 6891   6.858   8.893   1.142
35622SOL    HW1 6892   6.905   8.906   1.229
35622SOL    HW2 6893   6.792   8.819   1.151
35623SOL     OW 6894   7.168   8.087   0.472
35623SOL    HW1 6895   7.137   8.148   0.545
35623SOL    HW2 6896   7.218   8.139   0.403
35624SOL     OW 6897   5.940   8.958   1.329
35624SOL    HW1 6898   5.919   8.914   1.242
35624SOL    HW2 6899   6.037   8.984   1.332
35625SOL     OW 6900   5.988   8.199   1.598
35625SOL    HW1 6901   6.056   8.254   1.551
35625SOL    HW2 6902   6.028   8.111   1.625
35626SOL     OW 6903   7.173   8.227   1.670
35626SOL    HW1 6904   7.081   8.265   1.665
35626SOL    HW2 6905   7.233   8.274   1.605
35627SOL     OW 6906   6.599   7.553   1.770
35627SOL    HW1 6907   6.605   7.638   1.718
35627SOL    HW2 6908   6.631   7.477   1.713
35628SOL     OW 6909   6.090   7.498   1.740
35628SOL    HW1 6910   6.048   7.441   1.670
35628SOL    HW2 6911   6.024   7.567   1.772
35629SOL     OW 6912   6.159   8.318   1.029
35629SOL    HW1 6913   6.203   8.407   1.020
35629SOL    HW2 6914   6.096   8.318   1.106
35630SOL     OW 6915   6.946   8.310   1.045
35630SOL    HW1 6916   6.871   8.310   0.979
35630SOL    HW2 6917   6.983   8.218   1.054
35631SOL     OW 6918   6.795   7.973   0.275
35631SOL    HW1 6919   6.808   7.889   0.329
35631SOL    HW2 6920   6.766   8.047   0.335
35632SOL     OW 6921   5.893   7.661   1.231
35632SOL    HW1 6922   5.870   7.698   1.321
35632SOL    HW2 6923   5.863   7.566   1.225
35633SOL     OW 6924   5.623   8.758   1.282
35633SOL    HW1 6925   5.676   8.709   1.350
35633SOL    HW2 6926   5.645   8.856   1.287
35634SOL     OW 6927   6.318   8.082   1.064
35634SOL    HW1 6928   6.377   8.056   0.988
35634SOL    HW2 6929   6.290   8.178   1.053
35635SOL     OW 6930   7.314   8.383   1.854
35635SOL    HW1 6931   7.268   8.376   1.765
35635SOL    HW2 6932   7.252   8.427   1.920
35636SOL     OW 6933   5.893   7.511   0.618
35636SOL    HW1 6934   5.882   7.605   0.651
35636SOL    HW2 6935   5.888   7.448   0.695
35637SOL     OW 6936   7.208   7.815   0.374
35637SOL    HW1 6937   7.210   7.739   0.438
35637SOL    HW2 6938   7.160   7.892   0.414
35638SOL     OW 6939   6.609   8.214   0.966
35638SOL    HW1 6940   6.624   8.235   1.062
35638SOL    HW2 6941   6.579   8.119   0.957
35639SOL     OW 6942   6.566   9.021   1.700
35639SOL    HW1 6943   6.546   9.065   1.612
35639SOL    HW2 6944   6.605   8.930   1.684
35640SOL     OW 6945   7.445   8.966   1.605
35640SOL    HW1 6946   7.459   8.993   1.510
35640SOL    HW2 6947   7.528   8.988   1.658
35641SOL     OW 6948   5.936   8.346   1.804
35641SOL    HW1 6949   6.012   8.390   1.852
35641SOL    HW2 6950   5.971   8.299   1.722
35642SOL     OW 6951   7.126   7.722   0.125
35642SOL    HW1 6952   7.065   7.647   0.148
35642SOL    HW2 6953   7.148   7.774   0.208
35643SOL     OW 6954   6.889   8.286   0.042
35643SOL    HW1 6955   6.923   8.193   0.057
35643SOL    HW2 6956   6.907   8.313  -0.053
35644SOL     OW 6957   6.654   8.781   0.849
35644SOL    HW1 6958   6.661   8.697   0.794
35644SOL    HW2 6959   6.716   8.850   0.813
35645SOL     OW 6960   5.905   8.258   0.949
35645SOL    HW1 6961   5.998   8.294   0.954
35645SOL    HW2 6962   5.899   8.173   1.001
35646SOL     OW 6963   5.925   7.957   1.006
35646SOL    HW1 6964   5.873   7.874   0.989
35646SOL    HW2 6965   6.002   7.962   0.942
35647SOL     OW 6966   6.724   7.828   1.678
35647SOL    HW1 6967   6.679   7.891   1.742
35647SOL    HW2 6968   6.817   7.859   1.661
35648SOL     OW 6969   6.746   7.655   1.477
35648SOL    HW1 6970   6.746   7.719   1.554
35648SOL    HW2 6971   6.774   7.703   1.394
35649SOL     OW 6972   5.594   8.774   0.200
35649SOL    HW1 6973   5.501   8.795   0.169
35649SOL    HW2 6974   5.604   8.675   0.213
35650SOL     OW 6975   5.674   9.249   0.927
35650SOL    HW1 6976   5.632   9.163   0.900
35650SOL    HW2 6977   5.768   9.252   0.893
35651SOL     OW 6978   6.090   9.016   0.910
35651SOL    HW1 6979   6.156   9.090   0.919
35651SOL    HW2 6980   6.134   8.937   0.868
35652SOL     OW 6981   6.588   8.244   1.238
35652SOL    HW1 6982   6.629   8.212   1.324
35652SOL    HW2 6983   6.492   8.217   1.235
35653SOL     OW 6984   5.626   7.992   1.114
35653SOL    HW1 6985   5.711   7.959   1.073
35653SOL    HW2 6986   5.639   8.007   1.212
35654SOL     OW 6987   5.775   7.968   1.722
35654SOL    HW1 6988   5.834   7.928   1.652
35654SOL    HW2 6989   5.717   8.039   1.681
35655SOL     OW 6990   6.955   8.398   1.660
35655SOL    HW1 6991   6.994   8.487   1.680
35655SOL    HW2 6992   6.965   8.378   1.563
35656SOL     OW 6993   6.401   8.020   0.325
35656SOL    HW1 6994   6.408   7.931   0.279
35656SOL    HW2 6995   6.307   8.054   0.317
35657SOL     OW 6996   7.243   8.052   1.206
35657SOL    HW1 6997   7.205   7.983   1.268
35657SOL    HW2 6998   7.325   8.016   1.162
35658SOL     OW 6999   5.838   9.012   1.744
35658SOL    HW1 7000   5.808   9.069   1.820
35658SOL    HW2 7001   5.831   8.915   1.770
35659SOL     OW 7002   6.257   7.912   1.269
35659SOL    HW1 7003   6.223   7.823   1.239
35659SOL    HW2 7004   6.283   7.966   1.189
35660SOL     OW 7005   6.516   9.126   1.465
35660SOL    HW1 7006   6.492   9.108   1.370
35660SOL    HW2 7007   6.546   9.220   1.475
35661SOL     OW 7008   6.059   7.948   0.191
35661SOL    HW1 7009   6.120   8.028   0.195
35661SOL    HW2 7010   5.964   7.979   0.198
35662SOL     OW 7011   5.745   8.585   1.466
35662SOL    HW1 7012   5.767   8.524   1.542
35662SOL    HW2 7013   5.755   8.536   1.380
35663SOL     OW 7014   6.933   8.507   1.234
35663SOL    HW1 7015   6.957   8.444   1.160
35663SOL    HW2 7016   6.843   8.547   1.216
35664SOL     OW 7017   6.888   8.303   0.309
35664SOL    HW1 7018   6.802   8.272   0.351
35664SOL    HW2 7019   6.884   8.289   0.210
35665SOL     OW 7020   7.345   9.195   1.154
35665SOL    HW1 7021   7.406   9.225   1.081
35665SOL    HW2 7022   7.307   9.106   1.132
35666SOL     OW 7023   6.838   9.179   1.128
35666SOL    HW1 7024   6.922   9.184   1.074
35666SOL    HW2 7025   6.815   9.083   1.146
35667SOL     OW 7026   5.669   8.706   1.022
35667SOL    HW1 7027   5.664   8.705   1.122
35667SOL    HW2 7028   5.586   8.665   0.984
35668SOL     OW 7029   6.274   9.110   1.716
35668SOL    HW1 7030   6.218   9.191   1.725
35668SOL    HW2 7031   6.326   9.114   1.630
35669SOL     OW 7032   6.489   7.534   0.133
35669SOL    HW1 7033   6.540   7.535   0.047
35669SOL    HW2 7034   6.545   7.492   0.204
35670SOL     OW 7035   7.312   7.583   0.523
35670SOL    HW1 7036   7.385   7.566   0.456
35670SOL    HW2 7037   7.281   7.496   0.561
35671SOL     OW 7038   6.974   9.021   0.477
35671SOL    HW1 7039   7.041   9.033   0.403
35671SOL    HW2 7040   6.934   9.110   0.500
35672SOL     OW 7041   5.716   9.242   1.851
35672SOL    HW1 7042   5.675   9.168   1.904
35672SOL    HW2 7043   5.780   9.293   1.909
35673SOL     OW 7044   6.866   8.375   0.672
35673SOL    HW1 7045   6.926   8.294   0.674
35673SOL    HW2 7046   6.906   8.444   0.612
35674SOL     OW 7047   6.416   8.721   1.422
35674SOL    HW1 7048   6.411   8.754   1.517
35674SOL    HW2 7049   6.330   8.740   1.376
35675SOL     OW 7050   6.258   9.064   0.154
35675SOL    HW1 7051   6.267   9.074   0.055
35675SOL    HW2 7052   6.218   8.975   0.175
35676SOL     OW 7053   7.236   9.168   1.394
35676SOL    HW1 7054   7.289   9.178   1.310
35676SOL    HW2 7055   7.209   9.258   1.428
35677SOL     OW 7056   7.427   7.623   0.963
35677SOL    HW1 7057   7.466   7.538   0.927
35677SOL    HW2 7058   7.329   7.625   0.944
35678SOL     OW 7059   5.849   7.774   0.720
35678SOL    HW1 7060   5.770   7.825   0.686
35678SOL    HW2 7061   5.840   7.759   0.818
35679SOL     OW 7062   6.780   9.060   0.031
35679SOL    HW1 7063   6.786   8.967   0.068
35679SOL    HW2 7064   6.721   9.060  -0.049
35680SOL     OW 7065   6.408   8.450   1.372
35680SOL    HW1 7066   6.448   8.449   1.280
35680SOL    HW2 7067   6.418   8.542   1.412
35681SOL     OW 7068   6.502   8.358   0.291
35681SOL    HW1 7069   6.565   8.396   0.223
35681SOL    HW2 7070   6.542   8.275   0.330
35682SOL     OW 7071   7.090   9.055   0.044
35682SOL    HW1 7072   6.998   9.092   0.051
35682SOL    HW2 7073   7.128   9.075  -0.046
35683SOL     OW 7074   5.958   8.736   1.490
35683SOL    HW1 7075   5.945   8.829   1.456
35683SOL    HW2 7076   5.874   8.684   1.477
35684SOL     OW 7077   7.200   8.740   1.289
35684SOL    HW1 7078   7.260   8.743   1.369
35684SOL    HW2 7079   7.125   8.804   1.302
35685SOL     OW 7080   6.625   8.546   0.696
35685SOL    HW1 7081   6.555   8.499   0.750
35685SOL    HW2 7082   6.684   8.478   0.653
35686SOL     OW 7083   6.600   7.684   0.971
35686SOL    HW1 7084   6.592   7.648   0.878
35686SOL    HW2 7085   6.598   7.608   1.036
35687SOL     OW 7086   6.176   8.935   0.491
35687SOL    HW1 7087   6.218   8.877   0.421
35687SOL    HW2 7088   6.132   9.014   0.447
35688SOL     OW 7089   7.295   7.833   1.381
35688SOL    HW1 7090   7.368   7.902   1.385
35688SOL    HW2 7091   7.323   7.758   1.322
35689SOL     OW 7092   5.841   8.796   0.290
35689SOL    HW1 7093   5.745   8.797   0.263
35689SOL    HW2 7094   5.853   8.849   0.374
35690SOL     OW 7095   5.691   8.461   1.726
35690SOL    HW1 7096   5.614   8.428   1.780
35690SOL    HW2 7097   5.776   8.431   1.768
35691SOL     OW 7098   6.258   7.651   1.489
35691SOL    HW1 7099   6.348   7.635   1.449
35691SOL    HW2 7100   6.266   7.656   1.588
35692SOL     OW 7101   7.026   8.304   1.398
35692SOL    HW1 7102   6.969   8.356   1.335
35692SOL    HW2 7103   7.122   8.316   1.374
35693SOL     OW 7104   5.658   7.614   0.318
35693SOL    HW1 7105   5.641   7.697   0.264
35693SOL    HW2 7106   5.748   7.577   0.296
35694SOL     OW 7107   6.769   8.783   0.119
35694SOL    HW1 7108   6.670   8.772   0.121
35694SOL    HW2 7109   6.803   8.798   0.212
35695SOL     OW 7110   6.199   8.290   1.431
35695SOL    HW1 7111   6.255   8.371   1.414
35695SOL    HW2 7112   6.258   8.210   1.434
35696SOL     OW 7113   7.079   9.215   0.959
35696SOL    HW1 7114   7.112   9.279   0.890
35696SOL    HW2 7115   7.145   9.209   1.034
35697SOL     OW 7116   6.302   8.013   1.708
35697SOL    HW1 7117   6.321   8.078   1.782
35697SOL    HW2 7118   6.362   7.933   1.717
35698SOL     OW 7119   7.036   8.668   1.633
35698SOL    HW1 7120   7.027   8.658   1.732
35698SOL    HW2 7121   7.132   8.661   1.607
35699SOL     OW 7122   5.976   9.189   1.560
35699SOL    HW1 7123   5.885   9.230   1.558
35699SOL    HW2 7124   5.969   9.095   1.592
35700SOL     OW 7125   7.260   8.331   1.254
35700SOL    HW1 7126   7.233   8.242   1.217
35700SOL    HW2 7127   7.261   8.399   1.181
35701SOL     OW 7128   6.811   7.773   0.449
35701SOL    HW1 7129   6.876   7.699   0.438
35701SOL    HW2 7130   6.831   7.823   0.533
35702SOL     OW 7131   6.180   8.193   0.652
35702SOL    HW1 7132   6.230   8.278   0.633
35702SOL    HW2 7133   6.092   8.195   0.604
35703SOL     OW 7134   7.363   7.790   1.642
35703SOL    HW1 7135   7.346   7.821   1.548
35703SOL    HW2 7136   7.279   7.753   1.680
35704SOL     OW 7137   7.316   8.382   1.517
35704SOL    HW1 7138   7.354   8.473   1.532
35704SOL    HW2 7139   7.308   8.365   1.418
35705SOL     OW 7140   6.445   8.822   0.016
35705SOL    HW1 7141   6.399   8.837   0.104
35705SOL    HW2 7142   6.489   8.907  -0.014
35706SOL     OW 7143   6.247   9.238   0.953
35706SOL    HW1 7144   6.201   9.326   0.940
35706SOL    HW2 7145   6.346   9.250   0.946
35707SOL     OW 7146   6.445   8.404   0.861
35707SOL    HW1 7147   6.499   8.335   0.909
35707SOL    HW2 7148   6.413   8.473   0.927
35708SOL     OW 7149   6.669   8.432   0.087
35708SOL    HW1 7150   6.646   8.485   0.005
35708SOL    HW2 7151   6.750   8.376   0.068
35709SOL     OW 7152   7.447   9.017   0.851
35709SOL    HW1 7153   7.376   9.005   0.781
35709SOL    HW2 7154   7.448   8.938   0.911
35710SOL     OW 7155   5.807   8.762   1.844
35710SOL    HW1 7156   5.742   8.689   1.823
35710SOL    HW2 7157   5.811   8.776   1.942
35711SOL     OW 7158   5.665   8.688   0.653
35711SOL    HW1 7159   5.664   8.641   0.741
35711SOL    HW2 7160   5.747   8.660   0.602
35712SOL     OW 7161   6.258   8.839   1.624
35712SOL    HW1 7162   6.180   8.789   1.662
35712SOL    HW2 7163   6.255   8.934   1.655
35713SOL     OW 7164   7.410   7.640   1.227
35713SOL    HW1 7165   7.406   7.550   1.271
35713SOL    HW2 7166   7.413   7.629   1.128
35714SOL     OW 7167   6.014   7.872   0.520
35714SOL    HW1 7168   6.044   7.800   0.458
35714SOL    HW2 7169   5.975   7.832   0.603
35715SOL     OW 7170   7.291   8.935   1.104
35715SOL    HW1 7171   7.198   8.910   1.077
35715SOL    HW2 7172   7.317   8.885   1.186
35716SOL     OW 7173   5.903   7.995   1.280
35716SOL    HW1 7174   5.941   7.936   1.352
35716SOL    HW2 7175   5.943   7.969   1.192
35717SOL     OW 7176   6.398   9.034   0.687
35717SOL    HW1 7177   6.430   9.044   0.593
35717SOL    HW2 7178   6.319   8.972   0.689
35718SOL     OW 7179   7.010   7.662   1.112
35718SOL    HW1 7180   7.062   7.597   1.167
35718SOL    HW2 7181   6.961   7.725   1.173
35719SOL     OW 7182   6.587   7.482   1.154
35719SOL    HW1 7183   6.524   7.410   1.123
35719SOL    HW2 7184   6.680   7.446   1.154
35720SOL     OW 7185   6.356   8.778   0.301
35720SOL    HW1 7186   6.310   8.691   0.318
35720SOL    HW2 7187   6.447   8.775   0.342
35721SOL     OW 7188   6.204   9.015   1.284
35721SOL    HW1 7189   6.199   9.097   1.341
35721SOL    HW2 7190   6.293   9.012   1.239
35722SOL     OW 7191   6.938   7.500   0.168
35722SOL    HW1 7192   6.973   7.459   0.084
35722SOL    HW2 7193   6.848   7.462   0.188
35723SOL     OW 7194   6.886   7.901   0.691
35723SOL    HW1 7195   6.827   7.981   0.695
35723SOL    HW2 7196   6.901   7.866   0.784
35724SOL     OW 7197   7.179   7.669   0.882
35724SOL    HW1 7198   7.095   7.668   0.936
35724SOL    HW2 7199   7.181   7.752   0.826
35725SOL     OW 7200   5.625   8.525   0.300
35725SOL    HW1 7201   5.724   8.514   0.291
35725SOL    HW2 7202   5.585   8.439   0.332
35726SOL     OW 7203   6.461   9.094   0.337
35726SOL    HW1 7204   6.384   9.059   0.283
35726SOL    HW2 7205   6.429   9.165   0.399
35727SOL     OW 7206   5.816   8.076   1.975
35727SOL    HW1 7207   5.723   8.074   2.012
35727SOL    HW2 7208   5.817   8.037   1.883
35728SOL     OW 7209   5.811   7.723   2.858
35728SOL    HW1 7210   5.846   7.706   2.950
35728SOL    HW2 7211   5.723   7.678   2.846
35729SOL     OW 7212   5.605   7.816   2.509
35729SOL    HW1 7213   5.523   7.859   2.548
35729SOL    HW2 7214   5.577   7.743   2.446
35730SOL     OW 7215   6.155   8.723   3.027
35730SOL    HW1 7216   6.062   8.716   2.990
35730SOL    HW2 7217   6.166   8.812   3.071
35731SOL     OW 7218   7.141   8.959   2.565
35731SOL    HW1 7219   7.084   8.943   2.646
35731SOL    HW2 7220   7.082   8.969   2.485
35732SOL     OW 7221   6.721   8.151   2.579
35732SOL    HW1 7222   6.778   8.229   2.554
35732SOL    HW2 7223   6.661   8.177   2.655
35733SOL     OW 7224   7.341   8.055   2.093
35733SOL    HW1 7225   7.329   8.042   1.994
35733SOL    HW2 7226   7.311   7.974   2.142
35734SOL     OW 7227   6.354   8.592   2.885
35734SOL    HW1 7228   6.276   8.609   2.945
35734SOL    HW2 7229   6.388   8.679   2.849
35735SOL     OW 7230   6.436   8.246   3.685
35735SOL    HW1 7231   6.432   8.322   3.750
35735SOL    HW2 7232   6.458   8.282   3.594
35736SOL     OW 7233   6.271   8.460   2.527
35736SOL    HW1 7234   6.340   8.444   2.597
35736SOL    HW2 7235   6.198   8.517   2.565
35737SOL     OW 7236   6.272   8.609   3.665
35737SOL    HW1 7237   6.332   8.688   3.679
35737SOL    HW2 7238   6.186   8.640   3.624
35738SOL     OW 7239   5.921   8.883   2.923
35738SOL    HW1 7240   5.843   8.852   2.870
35738SOL    HW2 7241   5.979   8.941   2.866
35739SOL     OW 7242   7.046   8.953   3.201
35739SOL    HW1 7243   7.070   9.047   3.227
35739SOL    HW2 7244   7.030   8.899   3.283
35740SOL     OW 7245   6.024   7.840   3.361
35740SOL    HW1 7246   6.106   7.784   3.370
35740SOL    HW2 7247   5.943   7.782   3.365
35741SOL     OW 7248   7.189   7.895   2.599
35741SOL    HW1 7249   7.115   7.941   2.549
35741SOL    HW2 7250   7.240   7.963   2.652
35742SOL     OW 7251   5.817   9.161   2.345
35742SOL    HW1 7252   5.851   9.238   2.399
35742SOL    HW2 7253   5.861   9.161   2.255
35743SOL     OW 7254   6.713   8.789   3.552
35743SOL    HW1 7255   6.760   8.789   3.640
35743SOL    HW2 7256   6.665   8.702   3.541
35744SOL     OW 7257   5.816   8.882   2.400
35744SOL    HW1 7258   5.790   8.978   2.400
35744SOL    HW2 7259   5.745   8.828   2.445
35745SOL     OW 7260   5.826   8.539   2.748
35745SOL    HW1 7261   5.840   8.455   2.800
35745SOL    HW2 7262   5.771   8.603   2.803
35746SOL     OW 7263   6.206   9.234   3.301
35746SOL    HW1 7264   6.114   9.217   3.336
35746SOL    HW2 7265   6.234   9.326   3.327
35747SOL     OW 7266   6.192   8.412   1.985
35747SOL    HW1 7267   6.199   8.496   1.931
35747SOL    HW2 7268   6.238   8.425   2.073
35748SOL     OW 7269   7.180   7.562   3.342
35748SOL    HW1 7270   7.162   7.629   3.270
35748SOL    HW2 7271   7.177   7.608   3.431
35749SOL     OW 7272   5.708   8.091   2.425
35749SOL    HW1 7273   5.663   8.003   2.442
35749SOL    HW2 7274   5.707   8.145   2.509
35750SOL     OW 7275   7.428   9.215   2.221
35750SOL    HW1 7276   7.482   9.186   2.301
35750SOL    HW2 7277   7.458   9.305   2.192
35751SOL     OW 7278   5.613   9.044   1.979
35751SOL    HW1 7279   5.594   8.948   2.000
35751SOL    HW2 7280   5.580   9.102   2.054
35752SOL     OW 7281   7.275   8.370   2.474
35752SOL    HW1 7282   7.370   8.341   2.482
35752SOL    HW2 7283   7.267   8.435   2.399
35753SOL     OW 7284   7.227   8.556   2.294
35753SOL    HW1 7285   7.313   8.558   2.242
35753SOL    HW2 7286   7.241   8.603   2.382
35754SOL     OW 7287   5.699   8.185   3.459
35754SOL    HW1 7288   5.787   8.172   3.504
35754SOL    HW2 7289   5.686   8.282   3.437
35755SOL     OW 7290   6.199   8.813   2.588
35755SOL    HW1 7291   6.150   8.726   2.597
35755SOL    HW2 7292   6.176   8.856   2.501
35756SOL     OW 7293   6.879   8.676   3.285
35756SOL    HW1 7294   6.916   8.603   3.227
35756SOL    HW2 7295   6.931   8.681   3.370
35757SOL     OW 7296   6.395   7.452   2.364
35757SOL    HW1 7297   6.435   7.543   2.355
35757SOL    HW2 7298   6.295   7.460   2.370
35758SOL     OW 7299   5.783   8.424   3.126
35758SOL    HW1 7300   5.872   8.379   3.112
35758SOL    HW2 7301   5.710   8.359   3.107
35759SOL     OW 7302   7.111   8.447   2.052
35759SOL    HW1 7303   7.048   8.371   2.065
35759SOL    HW2 7304   7.159   8.465   2.138
35760SOL     OW 7305   6.773   9.240   3.478
35760SOL    HW1 7306   6.797   9.300   3.402
35760SOL    HW2 7307   6.780   9.145   3.448
35761SOL     OW 7308   5.903   7.699   3.663
35761SOL    HW1 7309   5.974   7.770   3.669
35761SOL    HW2 7310   5.815   7.738   3.691
35762SOL     OW 7311   7.052   8.865   2.815
35762SOL    HW1 7312   6.993   8.871   2.895
35762SOL    HW2 7313   7.037   8.777   2.769
35763SOL     OW 7314   7.253   9.162   2.434
35763SOL    HW1 7315   7.212   9.139   2.346
35763SOL    HW2 7316   7.235   9.088   2.499
35764SOL     OW 7317   6.184   8.177   2.132
35764SOL    HW1 7318   6.208   8.246   2.064
35764SOL    HW2 7319   6.106   8.210   2.186
35765SOL     OW 7320   6.867   7.793   2.806
35765SOL    HW1 7321   6.781   7.743   2.793
35765SOL    HW2 7322   6.929   7.739   2.862
35766SOL     OW 7323   7.162   9.110   2.169
35766SOL    HW1 7324   7.251   9.156   2.172
35766SOL    HW2 7325   7.141   9.086   2.074
35767SOL     OW 7326   6.393   8.053   3.327
35767SOL    HW1 7327   6.346   8.050   3.416
35767SOL    HW2 7328   6.342   7.998   3.261
35768SOL     OW 7329   6.980   7.917   3.536
35768SOL    HW1 7330   6.960   7.960   3.624
35768SOL    HW2 7331   7.058   7.855   3.545
35769SOL     OW 7332   6.559   8.338   3.434
35769SOL    HW1 7333   6.605   8.254   3.405
35769SOL    HW2 7334   6.503   8.372   3.359
35770SOL     OW 7335   6.577   7.858   3.104
35770SOL    HW1 7336   6.500   7.892   3.158
35770SOL    HW2 7337   6.543   7.807   3.025
35771SOL     OW 7338   6.627   8.149   2.291
35771SOL    HW1 7339   6.653   8.145   2.387
35771SOL    HW2 7340   6.542   8.098   2.277
35772SOL     OW 7341   5.662   8.259   2.651
35772SOL    HW1 7342   5.761   8.247   2.660
35772SOL    HW2 7343   5.638   8.354   2.672
35773SOL     OW 7344   5.716   9.269   3.433
35773SOL    HW1 7345   5.706   9.254   3.532
35773SOL    HW2 7346   5.630   9.305   3.397
35774SOL     OW 7347   6.451   7.796   2.057
35774SOL    HW1 7348   6.510   7.859   2.008
35774SOL    HW2 7349   6.470   7.702   2.028
35775SOL     OW 7350   7.305   8.033   3.693
35775SOL    HW1 7351   7.279   8.122   3.657
35775SOL    HW2 7352   7.303   7.965   3.620
35776SOL     OW 7353   6.948   8.592   2.407
35776SOL    HW1 7354   7.031   8.563   2.359
35776SOL    HW2 7355   6.899   8.659   2.351
35777SOL     OW 7356   6.136   7.644   2.747
35777SOL    HW1 7357   6.131   7.639   2.847
35777SOL    HW2 7358   6.138   7.740   2.718
35778SOL     OW 7359   6.594   8.904   2.339
35778SOL    HW1 7360   6.548   8.976   2.287
35778SOL    HW2 7361   6.590   8.924   2.437
35779SOL     OW 7362   5.937   9.249   2.715
35779SOL    HW1 7363   5.987   9.163   2.721
35779SOL    HW2 7364   6.002   9.326   2.712
35780SOL     OW 7365   7.381   8.514   2.735
35780SOL    HW1 7366   7.319   8.499   2.659
35780SOL    HW2 7367   7.329   8.525   2.820
35781SOL     OW 7368   6.813   8.998   3.368
35781SOL    HW1 7369   6.819   8.921   3.432
35781SOL    HW2 7370   6.761   8.972   3.288
35782SOL     OW 7371   5.907   8.391   2.104
35782SOL    HW1 7372   5.989   8.430   2.062
35782SOL    HW2 7373   5.880   8.309   2.055
35783SOL     OW 7374   7.044   8.183   2.590
35783SOL    HW1 7375   7.039   8.118   2.665
35783SOL    HW2 7376   7.124   8.242   2.603
35784SOL     OW 7377   6.047   8.714   3.589
35784SOL    HW1 7378   5.997   8.715   3.503
35784SOL    HW2 7379   5.984   8.696   3.665
35785SOL     OW 7380   6.697   9.224   2.099
35785SOL    HW1 7381   6.637   9.162   2.149
35785SOL    HW2 7382   6.728   9.180   2.014
35786SOL     OW 7383   5.788   7.733   3.360
35786SOL    HW1 7384   5.708   7.793   3.347
35786SOL    HW2 7385   5.778   7.684   3.446
35787SOL     OW 7386   7.218   8.825   1.943
35787SOL    HW1 7387   7.186   8.919   1.933
35787SOL    HW2 7388   7.142   8.762   1.931
35788SOL     OW 7389   6.050   9.191   2.185
35788SOL    HW1 7390   6.083   9.230   2.271
35788SOL    HW2 7391   6.126   9.184   2.120
35789SOL     OW 7392   6.986   7.555   2.288
35789SOL    HW1 7393   6.962   7.518   2.198
35789SOL    HW2 7394   7.085   7.571   2.292
35790SOL     OW 7395   5.835   9.233   3.103
35790SOL    HW1 7396   5.892   9.168   3.153
35790SOL    HW2 7397   5.819   9.200   3.010
35791SOL     OW 7398   6.526   9.146   2.766
35791SOL    HW1 7399   6.606   9.089   2.787
35791SOL    HW2 7400   6.477   9.106   2.689
35792SOL     OW 7401   5.968   8.148   2.342
35792SOL    HW1 7402   6.013   8.058   2.339
35792SOL    HW2 7403   5.874   8.137   2.375
35793SOL     OW 7404   7.133   7.670   3.591
35793SOL    HW1 7405   7.128   7.707   3.683
35793SOL    HW2 7406   7.061   7.601   3.579
35794SOL     OW 7407   6.200   7.570   1.979
35794SOL    HW1 7408   6.298   7.548   1.986
35794SOL    HW2 7409   6.169   7.553   1.886
35795SOL     OW 7410   6.367   7.712   3.611
35795SOL    HW1 7411   6.434   7.651   3.654
35795SOL    HW2 7412   6.294   7.731   3.676
35796SOL     OW 7413   6.474   8.962   3.057
35796SOL    HW1 7414   6.451   8.937   2.963
35796SOL    HW2 7415   6.535   8.893   3.096
35797SOL     OW 7416   6.937   8.038   3.295
35797SOL    HW1 7417   6.965   7.995   3.380
35797SOL    HW2 7418   6.962   8.134   3.296
35798SOL     OW 7419   6.389   8.850   2.786
35798SOL    HW1 7420   6.479   8.864   2.744
35798SOL    HW2 7421   6.318   8.852   2.715
35799SOL     OW 7422   6.508   7.951   2.761
35799SOL    HW1 7423   6.483   7.942   2.665
35799SOL    HW2 7424   6.556   7.869   2.792
35800SOL     OW 7425   6.125   7.512   2.374
35800SOL    HW1 7426   6.044   7.513   2.432
35800SOL    HW2 7427   6.128   7.595   2.319
35801SOL     OW 7428   7.020   8.636   1.903
35801SOL    HW1 7429   7.052   8.560   1.960
35801SOL    HW2 7430   6.928   8.663   1.933
35802SOL     OW 7431   5.883   7.483   2.033
35802SOL    HW1 7432   5.932   7.567   2.012
35802SOL    HW2 7433   5.945   7.418   2.078
35803SOL     OW 7434   6.521   7.684   2.342
35803SOL    HW1 7435   6.473   7.725   2.264
35803SOL    HW2 7436   6.620   7.682   2.323
35804SOL     OW 7437   6.662   8.131   3.326
35804SOL    HW1 7438   6.582   8.070   3.329
35804SOL    HW2 7439   6.743   8.078   3.302
35805SOL     OW 7440   6.813   9.018   2.655
35805SOL    HW1 7441   6.834   9.092   2.590
35805SOL    HW2 7442   6.881   9.018   2.728
35806SOL     OW 7443   6.045   8.600   2.603
35806SOL    HW1 7444   5.974   8.573   2.668
35806SOL    HW2 7445   6.019   8.572   2.510
35807SOL     OW 7446   6.857   9.245   2.453
35807SOL    HW1 7447   6.901   9.309   2.389
35807SOL    HW2 7448   6.807   9.297   2.523
35808SOL     OW 7449   6.618   7.997   1.878
35808SOL    HW1 7450   6.577   8.079   1.839
35808SOL    HW2 7451   6.682   8.023   1.951
35809SOL     OW 7452   5.664   8.004   3.248
35809SOL    HW1 7453   5.756   8.003   3.207
35809SOL    HW2 7454   5.658   8.078   3.315
35810SOL     OW 7455   6.147   7.670   3.009
35810SOL    HW1 7456   6.185   7.586   3.046
35810SOL    HW2 7457   6.059   7.689   3.053
35811SOL     OW 7458   6.452   7.902   2.504
35811SOL    HW1 7459   6.420   7.974   2.442
35811SOL    HW2 7460   6.476   7.821   2.451
35812SOL     OW 7461   6.603   7.487   2.615
35812SOL    HW1 7462   6.531   7.492   2.546
35812SOL    HW2 7463   6.579   7.418   2.684
35813SOL     OW 7464   7.015   8.621   2.729
35813SOL    HW1 7465   6.960   8.537   2.722
35813SOL    HW2 7466   7.041   8.650   2.637
35814SOL     OW 7467   7.052   8.038   2.854
35814SOL    HW1 7468   7.022   7.943   2.861
35814SOL    HW2 7469   7.125   8.054   2.920
35815SOL     OW 7470   7.443   8.281   2.239
35815SOL    HW1 7471   7.485   8.217   2.303
35815SOL    HW2 7472   7.405   8.230   2.161
35816SOL     OW 7473   6.074   8.833   2.036
35816SOL    HW1 7474   5.987   8.818   2.083
35816SOL    HW2 7475   6.057   8.859   1.941
35817SOL     OW 7476   7.250   8.728   2.519
35817SOL    HW1 7477   7.349   8.736   2.533
35817SOL    HW2 7478   7.205   8.812   2.550
35818SOL     OW 7479   6.976   8.023   1.940
35818SOL    HW1 7480   6.922   8.002   2.021
35818SOL    HW2 7481   7.067   7.982   1.949
35819SOL     OW 7482   6.113   7.704   2.190
35819SOL    HW1 7483   6.140   7.645   2.115
35819SOL    HW2 7484   6.113   7.799   2.159
35820SOL     OW 7485   7.340   8.671   3.450
35820SOL    HW1 7486   7.431   8.632   3.437
35820SOL    HW2 7487   7.348   8.767   3.474
35821SOL     OW 7488   6.650   8.795   3.202
35821SOL    HW1 7489   6.570   8.772   3.257
35821SOL    HW2 7490   6.733   8.769   3.251
35822SOL     OW 7491   7.178   9.077   3.487
35822SOL    HW1 7492   7.205   9.111   3.397
35822SOL    HW2 7493   7.257   9.039   3.533
35823SOL     OW 7494   6.697   8.643   2.962
35823SOL    HW1 7495   6.657   8.687   3.043
35823SOL    HW2 7496   6.656   8.680   2.879
35824SOL     OW 7497   7.224   8.547   2.941
35824SOL    HW1 7498   7.229   8.628   3.000
35824SOL    HW2 7499   7.138   8.549   2.890
35825SOL     OW 7500   6.501   7.537   3.264
35825SOL    HW1 7501   6.526   7.517   3.169
35825SOL    HW2 7502   6.573   7.593   3.306
35826SOL     OW 7503   6.566   8.564   3.581
35826SOL    HW1 7504   6.467   8.570   3.591
35826SOL    HW2 7505   6.589   8.484   3.525
35827SOL     OW 7506   6.291   8.498   2.230
35827SOL    HW1 7507   6.277   8.505   2.329
35827SOL    HW2 7508   6.375   8.447   2.212
35828SOL     OW 7509   5.996   8.261   3.113
35828SOL    HW1 7510   6.082   8.273   3.163
35828SOL    HW2 7511   5.954   8.174   3.140
35829SOL     OW 7512   6.860   7.834   3.124
35829SOL    HW1 7513   6.881   7.908   3.188
35829SOL    HW2 7514   6.771   7.851   3.081
35830SOL     OW 7515   5.650   9.012   3.193
35830SOL    HW1 7516   5.604   9.094   3.159
35830SOL    HW2 7517   5.748   9.031   3.202
35831SOL     OW 7518   5.953   8.548   2.363
35831SOL    HW1 7519   5.946   8.631   2.307
35831SOL    HW2 7520   5.957   8.468   2.303
35832SOL     OW 7521   6.152   7.985   2.727
35832SOL    HW1 7522   6.164   8.051   2.653
35832SOL    HW2 7523   6.198   8.019   2.810
35833SOL     OW 7524   6.838   8.796   2.250
35833SOL    HW1 7525   6.888   8.873   2.290
35833SOL    HW2 7526   6.743   8.798   2.282
35834SOL     OW 7527   6.858   8.893   3.004
35834SOL    HW1 7528   6.905   8.906   3.091
35834SOL    HW2 7529   6.792   8.819   3.013
35835SOL     OW 7530   7.168   8.087   2.334
35835SOL    HW1 7531   7.137   8.148   2.407
35835SOL    HW2 7532   7.218   8.139   2.265
35836SOL     OW 7533   5.940   8.958   3.191
35836SOL    HW1 7534   5.919   8.914   3.104
35836SOL    HW2 7535   6.037   8.984   3.194
35837SOL     OW 7536   5.988   8.199   3.460
35837SOL    HW1 7537   6.056   8.254   3.413
35837SOL    HW2 7538   6.028   8.111   3.487
35838SOL     OW 7539   7.173   8.227   3.532
35838SOL    HW1 7540   7.081   8.265   3.527
35838SOL    HW2 7541   7.233   8.274   3.467
35839SOL     OW 7542   6.599   7.553   3.632
35839SOL    HW1 7543   6.605   7.638   3.580
35839SOL    HW2 7544   6.631   7.477   3.575
35840SOL     OW 7545   6.090   7.498   3.602
35840SOL    HW1 7546   6.048   7.441   3.532
35840SOL    HW2 7547   6.024   7.567   3.634
35841SOL     OW 7548   6.159   8.318   2.891
35841SOL    HW1 7549   6.203   8.407   2.882
35841SOL    HW2 7550   6.096   8.318   2.968
35842SOL     OW 7551   6.946   8.310   2.907
35842SOL    HW1 7552   6.871   8.310   2.841
35842SOL    HW2 7553   6.983   8.218   2.916
35843SOL     OW 7554   6.795   7.973   2.137
35843SOL    HW1 7555   6.808   7.889   2.191
35843SOL    HW2 7556   6.766   8.047   2.197
35844SOL     OW 7557   5.893   7.661   3.093
35844SOL    HW1 7558   5.870   7.698   3.183
35844SOL    HW2 7559   5.863   7.566   3.087
35845SOL     OW 7560   5.623   8.758   3.144
35845SOL    HW1 7561   5.676   8.709   3.212
35845SOL    HW2 7562   5.645   8.856   3.149
35846SOL     OW 7563   6.318   8.082   2.926
35846SOL    HW1 7564   6.377   8.056   2.850
35846SOL    HW2 7565   6.290   8.178   2.915
35847SOL     OW 7566   7.314   8.383   3.716
35847SOL    HW1 7567   7.268   8.376   3.627
35847SOL    HW2 7568   7.252   8.427   3.782
35848SOL     OW 7569   5.893   7.511   2.480
35848SOL    HW1 7570   5.882   7.605   2.513
35848SOL    HW2 7571   5.888   7.448   2.557
35849SOL     OW 7572   7.208   7.815   2.236
35849SOL    HW1 7573   7.210   7.739   2.300
35849SOL    HW2 7574   7.160   7.892   2.276
35850SOL     OW 7575   6.609   8.214   2.828
35850SOL    HW1 7576   6.624   8.235   2.924
35850SOL    HW2 7577   6.579   8.119   2.819
35851SOL     OW 7578   6.566   9.021   3.562
35851SOL    HW1 7579   6.546   9.065   3.474
35851SOL    HW2 7580   6.605   8.930   3.546
35852SOL     OW 7581   7.445   8.966   3.467
35852SOL    HW1 7582   7.459   8.993   3.372
35852SOL    HW2 7583   7.528   8.988   3.520
35853SOL     OW 7584   5.936   8.346   3.666
35853SOL    HW1 7585   6.012   8.390   3.714
35853SOL    HW2 7586   5.971   8.299   3.584
35854SOL     OW 7587   7.126   7.722   1.987
35854SOL    HW1 7588   7.065   7.647   2.010
35854SOL    HW2 7589   7.148   7.774   2.070
35855SOL     OW 7590   6.889   8.286   1.904
35855SOL    HW1 7591   6.923   8.193   1.919
35855SOL    HW2 7592   6.907   8.313   1.809
35856SOL     OW 7593   6.654   8.781   2.711
35856SOL    HW1 7594   6.661   8.697   2.656
35856SOL    HW2 7595   6.716   8.850   2.675
35857SOL     OW 7596   5.905   8.258   2.811
35857SOL    HW1 7597   5.998   8.294   2.816
35857SOL    HW2 7598   5.899   8.173   2.863
35858SOL     OW 7599   5.925   7.957   2.868
35858SOL    HW1 7600   5.873   7.874   2.851
35858SOL    HW2 7601   6.002   7.962   2.804
35859SOL     OW 7602   6.724   7.828   3.540
35859SOL    HW1 7603   6.679   7.891   3.604
35859SOL    HW2 7604   6.817   7.859   3.523
35860SOL     OW 7605   6.746   7.655   3.339
35860SOL    HW1 7606   6.746   7.719   3.416
35860SOL    HW2 7607   6.774   7.703   3.256
35861SOL     OW 7608   5.594   8.774   2.062
35861SOL    HW1 7609   5.501   8.795   2.031
35861SOL    HW2 7610   5.604   8.675   2.075
35862SOL     OW 7611   5.674   9.249   2.789
35862SOL    HW1 7612   5.632   9.163   2.762
35862SOL    HW2 7613   5.768   9.252   2.755
35863SOL     OW 7614   6.090   9.016   2.772
35863SOL    HW1 7615   6.156   9.090   2.781
35863SOL    HW2 7616   6.134   8.937   2.730
35864SOL     OW 7617   6.588   8.244   3.100
35864SOL    HW1 7618   6.629   8.212   3.186
35864SOL    HW2 7619   6.492   8.217   3.097
35865SOL     OW 7620   5.626   7.992   2.976
35865SOL    HW1 7621   5.711   7.959   2.935
35865SOL    HW2 7622   5.639   8.007   3.074
35866SOL     OW 7623   5.775   7.968   3.584
35866SOL    HW1 7624   5.834   7.928   3.514
35866SOL    HW2 7625   5.717   8.039   3.543
35867SOL     OW 7626   6.955   8.398   3.522
35867SOL    HW1 7627   6.994   8.487   3.542
35867SOL    HW2 7628   6.965   8.378   3.425
35868SOL     OW 7629   6.401   8.020   2.187
35868SOL    HW1 7630   6.408   7.931   2.141
35868SOL    HW2 7631   6.307   8.054   2.179
35869SOL     OW 7632   7.243   8.052   3.068
35869SOL    HW1 7633   7.205   7.983   3.130
35869SOL    HW2 7634   7.325   8.016   3.024
35870SOL     OW 7635   5.838   9.012   3.606
35870SOL    HW1 7636   5.808   9.069   3.682
35870SOL    HW2 7637   5.831   8.915   3.632
35871SOL     OW 7638   6.257   7.912   3.131
35871SOL    HW1 7639   6.223   7.823   3.101
35871SOL    HW2 7640   6.283   7.966   3.051
35872SOL     OW 7641   6.516   9.126   3.327
35872SOL    HW1 7642   6.492   9.108   3.232
35872SOL    HW2 7643   6.546   9.220   3.337
35873SOL     OW 7644   6.059   7.948   2.053
35873SOL    HW1 7645   6.120   8.028   2.057
35873SOL    HW2 7646   5.964   7.979   2.060
35874SOL     OW 7647   5.745   8.585   3.328
35874SOL    HW1 7648   5.767   8.524   3.404
35874SOL    HW2 7649   5.755   8.536   3.242
35875SOL     OW 7650   6.933   8.507   3.096
35875SOL    HW1 7651   6.957   8.444   3.022
35875SOL    HW2 7652   6.843   8.547   3.078
35876SOL     OW 7653   6.888   8.303   2.171
35876SOL    HW1 7654   6.802   8.272   2.213
35876SOL    HW2 7655   6.884   8.289   2.072
35877SOL     OW 7656   7.345   9.195   3.016
35877SOL    HW1 7657   7.406   9.225   2.943
35877SOL    HW2 7658   7.307   9.106   2.994
35878SOL     OW 7659   6.838   9.179   2.990
35878SOL    HW1 7660   6.922   9.184   2.936
35878SOL    HW2 7661   6.815   9.083   3.008
35879SOL     OW 7662   5.669   8.706   2.884
35879SOL    HW1 7663   5.664   8.705   2.984
35879SOL    HW2 7664   5.586   8.665   2.846
35880SOL     OW 7665   6.274   9.110   3.578
35880SOL    HW1 7666   6.218   9.191   3.587
35880SOL    HW2 7667   6.326   9.114   3.492
35881SOL     OW 7668   7.312   7.583   2.385
35881SOL    HW1 7669   7.385   7.566   2.318
35881SOL    HW2 7670   7.281   7.496   2.423
35882SOL     OW 7671   6.974   9.021   2.339
35882SOL    HW1 7672   7.041   9.033   2.265
35882SOL    HW2 7673   6.934   9.110   2.362
35883SOL     OW 7674   5.716   9.242   3.713
35883SOL    HW1 7675   5.675   9.168   3.766
35883SOL    HW2 7676   5.780   9.293   3.771
35884SOL     OW 7677   6.866   8.375   2.534
35884SOL    HW1 7678   6.926   8.294   2.536
35884SOL    HW2 7679   6.906   8.444   2.474
35885SOL     OW 7680   6.416   8.721   3.284
35885SOL    HW1 7681   6.411   8.754   3.379
35885SOL    HW2 7682   6.330   8.740   3.238
35886SOL     OW 7683   6.258   9.064   2.016
35886SOL    HW1 7684   6.267   9.074   1.917
35886SOL    HW2 7685   6.218   8.975   2.037
35887SOL     OW 7686   7.236   9.168   3.256
35887SOL    HW1 7687   7.289   9.178   3.172
35887SOL    HW2 7688   7.209   9.258   3.290
35888SOL     OW 7689   7.427   7.623   2.825
35888SOL    HW1 7690   7.466   7.538   2.789
35888SOL    HW2 7691   7.329   7.625   2.806
35889SOL     OW 7692   5.849   7.774   2.582
35889SOL    HW1 7693   5.770   7.825   2.548
35889SOL    HW2 7694   5.840   7.759   2.680
35890SOL     OW 7695   6.780   9.060   1.893
35890SOL    HW1 7696   6.786   8.967   1.930
35890SOL    HW2 7697   6.721   9.060   1.813
35891SOL     OW 7698   6.408   8.450   3.234
35891SOL    HW1 7699   6.448   8.449   3.142
35891SOL    HW2 7700   6.418   8.542   3.274
35892SOL     OW 7701   6.502   8.358   2.153
35892SOL    HW1 7702   6.565   8.396   2.085
35892SOL    HW2 7703   6.542   8.275   2.192
35893SOL     OW 7704   7.090   9.055   1.906
35893SOL    HW1 7705   6.998   9.092   1.913
35893SOL    HW2 7706   7.128   9.075   1.816
35894SOL     OW 7707   5.958   8.736   3.352
35894SOL    HW1 7708   5.945   8.829   3.318
35894SOL    HW2 7709   5.874   8.684   3.339
35895SOL     OW 7710   7.200   8.740   3.151
35895SOL    HW1 7711   7.260   8.743   3.231
35895SOL    HW2 7712   7.125   8.804   3.164
35896SOL     OW 7713   6.625   8.546   2.558
35896SOL    HW1 7714   6.555   8.499   2.612
35896SOL    HW2 7715   6.684   8.478   2.515
35897SOL     OW 7716   6.600   7.684   2.833
35897SOL    HW1 7717   6.592   7.648   2.740
35897SOL    HW2 7718   6.598   7.608   2.898
35898SOL     OW 7719   6.176   8.935   2.353
35898SOL    HW1 7720   6.218   8.877   2.283
35898SOL    HW2 7721   6.132   9.014   2.309
35899SOL     OW 7722   7.295   7.833   3.243
35899SOL    HW1 7723   7.368   7.902   3.247
35899SOL    HW2 7724   7.323   7.758   3.184
35900SOL     OW 7725   5.841   8.796   2.152
35900SOL    HW1 7726   5.745   8.797   2.125
35900SOL    HW2 7727   5.853   8.849   2.236
35901SOL     OW 7728   5.691   8.461   3.588
35901SOL    HW1 7729   5.614   8.428   3.642
35901SOL    HW2 7730   5.776   8.431   3.630
35902SOL     OW 7731   6.258   7.651   3.351
35902SOL    HW1 7732   6.348   7.635   3.311
35902SOL    HW2 7733   6.266   7.656   3.450
35903SOL     OW 7734   5.661   7.793   1.895
35903SOL    HW1 7735   5.569   7.765   1.866
35903SOL    HW2 7736   5.692   7.870   1.839
35904SOL     OW 7737   7.026   8.304   3.260
35904SOL    HW1 7738   6.969   8.356   3.197
35904SOL    HW2 7739   7.122   8.316   3.236
35905SOL     OW 7740   5.658   7.614   2.180
35905SOL    HW1 7741   5.641   7.697   2.126
35905SOL    HW2 7742   5.748   7.577   2.158
35906SOL     OW 7743   6.769   8.783   1.981
35906SOL    HW1 7744   6.670   8.772   1.983
35906SOL    HW2 7745   6.803   8.798   2.074
35907SOL     OW 7746   6.199   8.290   3.293
35907SOL    HW1 7747   6.255   8.371   3.276
35907SOL    HW2 7748   6.258   8.210   3.296
35908SOL     OW 7749   7.079   9.215   2.821
35908SOL    HW1 7750   7.112   9.279   2.752
35908SOL    HW2 7751   7.145   9.209   2.896
35909SOL     OW 7752   6.302   8.013   3.570
35909SOL    HW1 7753   6.321   8.078   3.644
35909SOL    HW2 7754   6.362   7.933   3.579
35910SOL     OW 7755   7.036   8.668   3.495
35910SOL    HW1 7756   7.027   8.658   3.594
35910SOL    HW2 7757   7.132   8.661   3.469
35911SOL     OW 7758   5.976   9.189   3.422
35911SOL    HW1 7759   5.885   9.230   3.420
35911SOL    HW2 7760   5.969   9.095   3.454
35912SOL     OW 7761   7.260   8.331   3.116
35912SOL    HW1 7762   7.233   8.242   3.079
35912SOL    HW2 7763   7.261   8.399   3.043
35913SOL     OW 7764   6.811   7.773   2.311
35913SOL    HW1 7765   6.876   7.699   2.300
35913SOL    HW2 7766   6.831   7.823   2.395
35914SOL     OW 7767   6.180   8.193   2.514
35914SOL    HW1 7768   6.230   8.278   2.495
35914SOL    HW2 7769   6.092   8.195   2.466
35915SOL     OW 7770   7.363   7.790   3.504
35915SOL    HW1 7771   7.346   7.821   3.410
35915SOL    HW2 7772   7.279   7.753   3.542
35916SOL     OW 7773   7.316   8.382   3.379
35916SOL    HW1 7774   7.354   8.473   3.394
35916SOL    HW2 7775   7.308   8.365   3.280
35917SOL     OW 7776   6.445   8.822   1.878
35917SOL    HW1 7777   6.399   8.837   1.966
35917SOL    HW2 7778   6.489   8.907   1.848
35918SOL     OW 7779   6.247   9.238   2.815
35918SOL    HW1 7780   6.201   9.326   2.802
35918SOL    HW2 7781   6.346   9.250   2.808
35919SOL     OW 7782   6.445   8.404   2.723
35919SOL    HW1 7783   6.499   8.335   2.771
35919SOL    HW2 7784   6.413   8.473   2.789
35920SOL     OW 7785   6.669   8.432   1.949
35920SOL    HW1 7786   6.646   8.485   1.867
35920SOL    HW2 7787   6.750   8.376   1.930
35921SOL     OW 7788   7.447   9.017   2.713
35921SOL    HW1 7789   7.376   9.005   2.643
35921SOL    HW2 7790   7.448   8.938   2.773
35922SOL     OW 7791   5.807   8.762   3.706
35922SOL    HW1 7792   5.742   8.689   3.685
35922SOL    HW2 7793   5.811   8.776   3.804
35923SOL     OW 7794   5.665   8.688   2.515
35923SOL    HW1 7795   5.664   8.641   2.603
35923SOL    HW2 7796   5.747   8.660   2.464
35924SOL     OW 7797   6.258   8.839   3.486
35924SOL    HW1 7798   6.180   8.789   3.524
35924SOL    HW2 7799   6.255   8.934   3.517
35925SOL     OW 7800   7.410   7.640   3.089
35925SOL    HW1 7801   7.406   7.550   3.133
35925SOL    HW2 7802   7.413   7.629   2.990
35926SOL     OW 7803   6.014   7.872   2.382
35926SOL    HW1 7804   6.044   7.800   2.320
35926SOL    HW2 7805   5.975   7.832   2.465
35927SOL     OW 7806   7.291   8.935   2.966
35927SOL    HW1 7807   7.198   8.910   2.939
35927SOL    HW2 7808   7.317   8.885   3.048
35928SOL     OW 7809   5.903   7.995   3.142
35928SOL    HW1 7810   5.941   7.936   3.214
35928SOL    HW2 7811   5.943   7.969   3.054
35929SOL     OW 7812   6.398   9.034   2.549
35929SOL    HW1 7813   6.430   9.044   2.455
35929SOL    HW2 7814   6.319   8.972   2.551
35930SOL     OW 7815   7.010   7.662   2.974
35930SOL    HW1 7816   7.062   7.597   3.029
35930SOL    HW2 7817   6.961   7.725   3.035
35931SOL     OW 7818   6.587   7.482   3.016
35931SOL    HW1 7819   6.524   7.410   2.985
35931SOL    HW2 7820   6.680   7.446   3.016
35932SOL     OW 7821   6.356   8.778   2.163
35932SOL    HW1 7822   6.310   8.691   2.180
35932SOL    HW2 7823   6.447   8.775   2.204
35933SOL     OW 7824   6.204   9.015   3.146
35933SOL    HW1 7825   6.199   9.097   3.203
35933SOL    HW2 7826   6.293   9.012   3.101
35934SOL     OW 7827   6.938   7.500   2.030
35934SOL    HW1 7828   6.973   7.459   1.946
35934SOL    HW2 7829   6.848   7.462   2.050
35935SOL     OW 7830   6.886   7.901   2.553
35935SOL    HW1 7831   6.827   7.981   2.557
35935SOL    HW2 7832   6.901   7.866   2.646
35936SOL     OW 7833   7.179   7.669   2.744
35936SOL    HW1 7834   7.095   7.668   2.798
35936SOL    HW2 7835   7.181   7.752   2.688
35937SOL     OW 7836   5.625   8.525   2.162
35937SOL    HW1 7837   5.724   8.514   2.153
35937SOL    HW2 7838   5.585   8.439   2.194
35938SOL     OW 7839   6.461   9.094   2.199
35938SOL    HW1 7840   6.384   9.059   2.145
35938SOL    HW2 7841   6.429   9.165   2.261
35939SOL     OW 7842   5.816   8.076   3.837
35939SOL    HW1 7843   5.723   8.074   3.874
35939SOL    HW2 7844   5.817   8.037   3.745
35940SOL     OW 7845   5.811   7.723   4.720
35940SOL    HW1 7846   5.846   7.706   4.812
35940SOL    HW2 7847   5.723   7.678   4.708
35941SOL     OW 7848   5.605   7.816   4.371
35941SOL    HW1 7849   5.523   7.859   4.410
35941SOL    HW2 7850   5.577   7.743   4.308
35942SOL     OW 7851   6.155   8.723   4.889
35942SOL    HW1 7852   6.062   8.716   4.852
35942SOL    HW2 7853   6.166   8.812   4.933
35943SOL     OW 7854   7.141   8.959   4.427
35943SOL    HW1 7855   7.084   8.943   4.508
35943SOL    HW2 7856   7.082   8.969   4.347
35944SOL     OW 7857   6.721   8.151   4.441
35944SOL    HW1 7858   6.778   8.229   4.416
35944SOL    HW2 7859   6.661   8.177   4.517
35945SOL     OW 7860   7.341   8.055   3.955
35945SOL    HW1 7861   7.329   8.042   3.856
35945SOL    HW2 7862   7.311   7.974   4.004
35946SOL     OW 7863   6.354   8.592   4.747
35946SOL    HW1 7864   6.276   8.609   4.807
35946SOL    HW2 7865   6.388   8.679   4.711
35947SOL     OW 7866   6.436   8.246   5.547
35947SOL    HW1 7867   6.432   8.322   5.612
35947SOL    HW2 7868   6.458   8.282   5.456
35948SOL     OW 7869   6.271   8.460   4.389
35948SOL    HW1 7870   6.340   8.444   4.459
35948SOL    HW2 7871   6.198   8.517   4.427
35949SOL     OW 7872   6.272   8.609   5.527
35949SOL    HW1 7873   6.332   8.688   5.541
35949SOL    HW2 7874   6.186   8.640   5.486
35950SOL     OW 7875   5.921   8.883   4.785
35950SOL    HW1 7876   5.843   8.852   4.732
35950SOL    HW2 7877   5.979   8.941   4.728
35951SOL     OW 7878   7.046   8.953   5.063
35951SOL    HW1 7879   7.070   9.047   5.089
35951SOL    HW2 7880   7.030   8.899   5.145
35952SOL     OW 7881   6.024   7.840   5.223
35952SOL    HW1 7882   6.106   7.784   5.232
35952SOL    HW2 7883   5.943   7.782   5.227
35953SOL     OW 7884   7.189   7.895   4.461
35953SOL    HW1 7885   7.115   7.941   4.411
35953SOL    HW2 7886   7.240   7.963   4.514
35954SOL     OW 7887   5.817   9.161   4.207
35954SOL    HW1 7888   5.851   9.238   4.261
35954SOL    HW2 7889   5.861   9.161   4.117
35955SOL     OW 7890   6.713   8.789   5.414
35955SOL    HW1 7891   6.760   8.789   5.502
35955SOL    HW2 7892   6.665   8.702   5.403
35956SOL     OW 7893   5.816   8.882   4.262
35956SOL    HW1 7894   5.790   8.978   4.262
35956SOL    HW2 7895   5.745   8.828   4.307
35957SOL     OW 7896   5.826   8.539   4.610
35957SOL    HW1 7897   5.840   8.455   4.662
35957SOL    HW2 7898   5.771   8.603   4.665
35958SOL     OW 7899   6.206   9.234   5.163
35958SOL    HW1 7900   6.114   9.217   5.198
35958SOL    HW2 7901   6.234   9.326   5.189
35959SOL     OW 7902   6.192   8.412   3.847
35959SOL    HW1 7903   6.199   8.496   3.793
35959SOL    HW2 7904   6.238   8.425   3.935
35960SOL     OW 7905   7.180   7.562   5.204
35960SOL    HW1 7906   7.162   7.629   5.132
35960SOL    HW2 7907   7.177   7.608   5.293
35961SOL     OW 7908   5.708   8.091   4.287
35961SOL    HW1 7909   5.663   8.003   4.304
35961SOL    HW2 7910   5.707   8.145   4.371
35962SOL     OW 7911   7.428   9.215   4.083
35962SOL    HW1 7912   7.482   9.186   4.163
35962SOL    HW2 7913   7.458   9.305   4.054
35963SOL     OW 7914   5.613   9.044   3.841
35963SOL    HW1 7915   5.594   8.948   3.862
35963SOL    HW2 7916   5.580   9.102   3.916
35964SOL     OW 7917   7.275   8.370   4.336
35964SOL    HW1 7918   7.370   8.341   4.344
35964SOL    HW2 7919   7.267   8.435   4.261
35965SOL     OW 7920   7.227   8.556   4.156
35965SOL    HW1 7921   7.313   8.558   4.104
35965SOL    HW2 7922   7.241   8.603   4.244
35966SOL     OW 7923   5.699   8.185   5.321
35966SOL    HW1 7924   5.787   8.172   5.366
35966SOL    HW2 7925   5.686   8.282   5.299
35967SOL     OW 7926   6.199   8.813   4.450
35967SOL    HW1 7927   6.150   8.726   4.459
35967SOL    HW2 7928   6.176   8.856   4.363
35968SOL     OW 7929   6.879   8.676   5.147
35968SOL    HW1 7930   6.916   8.603   5.089
35968SOL    HW2 7931   6.931   8.681   5.232
35969SOL     OW 7932   6.395   7.452   4.226
35969SOL    HW1 7933   6.435   7.543   4.217
35969SOL    HW2 7934   6.295   7.460   4.232
35970SOL     OW 7935   5.783   8.424   4.988
35970SOL    HW1 7936   5.872   8.379   4.974
35970SOL    HW2 7937   5.710   8.359   4.969
35971SOL     OW 7938   7.111   8.447   3.914
35971SOL    HW1 7939   7.048   8.371   3.927
35971SOL    HW2 7940   7.159   8.465   4.000
35972SOL     OW 7941   6.773   9.240   5.340
35972SOL    HW1 7942   6.797   9.300   5.264
35972SOL    HW2 7943   6.780   9.145   5.310
35973SOL     OW 7944   5.903   7.699   5.525
35973SOL    HW1 7945   5.974   7.770   5.531
35973SOL    HW2 7946   5.815   7.738   5.553
35974SOL     OW 7947   7.052   8.865   4.677
35974SOL    HW1 7948   6.993   8.871   4.757
35974SOL    HW2 7949   7.037   8.777   4.631
35975SOL     OW 7950   7.253   9.162   4.296
35975SOL    HW1 7951   7.212   9.139   4.208
35975SOL    HW2 7952   7.235   9.088   4.361
35976SOL     OW 7953   6.184   8.177   3.994
35976SOL    HW1 7954   6.208   8.246   3.926
35976SOL    HW2 7955   6.106   8.210   4.048
35977SOL     OW 7956   6.867   7.793   4.668
35977SOL    HW1 7957   6.781   7.743   4.655
35977SOL    HW2 7958   6.929   7.739   4.724
35978SOL     OW 7959   7.162   9.110   4.031
35978SOL    HW1 7960   7.251   9.156   4.034
35978SOL    HW2 7961   7.141   9.086   3.936
35979SOL     OW 7962   6.393   8.053   5.189
35979SOL    HW1 7963   6.346   8.050   5.278
35979SOL    HW2 7964   6.342   7.998   5.123
35980SOL     OW 7965   6.980   7.917   5.398
35980SOL    HW1 7966   6.960   7.960   5.486
35980SOL    HW2 7967   7.058   7.855   5.407
35981SOL     OW 7968   6.559   8.338   5.296
35981SOL    HW1 7969   6.605   8.254   5.267
35981SOL    HW2 7970   6.503   8.372   5.221
35982SOL     OW 7971   6.577   7.858   4.966
35982SOL    HW1 7972   6.500   7.892   5.020
35982SOL    HW2 7973   6.543   7.807   4.887
35983SOL     OW 7974   6.627   8.149   4.153
35983SOL    HW1 7975   6.653   8.145   4.249
35983SOL    HW2 7976   6.542   8.098   4.139
35984SOL     OW 7977   5.662   8.259   4.513
35984SOL    HW1 7978   5.761   8.247   4.522
35984SOL    HW2 7979   5.638   8.354   4.534
35985SOL     OW 7980   5.716   9.269   5.295
35985SOL    HW1 7981   5.706   9.254   5.394
35985SOL    HW2 7982   5.630   9.305   5.259
35986SOL     OW 7983   6.451   7.796   3.919
35986SOL    HW1 7984   6.510   7.859   3.870
35986SOL    HW2 7985   6.470   7.702   3.890
35987SOL     OW 7986   7.305   8.033   5.555
35987SOL    HW1 7987   7.279   8.122   5.519
35987SOL    HW2 7988   7.303   7.965   5.482
35988SOL     OW 7989   6.948   8.592   4.269
35988SOL    HW1 7990   7.031   8.563   4.221
35988SOL    HW2 7991   6.899   8.659   4.213
35989SOL     OW 7992   6.136   7.644   4.609
35989SOL    HW1 7993   6.131   7.639   4.709
35989SOL    HW2 7994   6.138   7.740   4.580
35990SOL     OW 7995   6.594   8.904   4.201
35990SOL    HW1 7996   6.548   8.976   4.149
35990SOL    HW2 7997   6.590   8.924   4.299
35991SOL     OW 7998   5.937   9.249   4.577
35991SOL    HW1 7999   5.987   9.163   4.583
35991SOL    HW2 8000   6.002   9.326   4.574
35992SOL     OW 8001   7.381   8.514   4.597
35992SOL    HW1 8002   7.319   8.499   4.521
35992SOL    HW2 8003   7.329   8.525   4.682
35993SOL     OW 8004   6.813   8.998   5.230
35993SOL    HW1 8005   6.819   8.921   5.294
35993SOL    HW2 8006   6.761   8.972   5.150
35994SOL     OW 8007   5.907   8.391   3.966
35994SOL    HW1 8008   5.989   8.430   3.924
35994SOL    HW2 8009   5.880   8.309   3.917
35995SOL     OW 8010   7.044   8.183   4.452
35995SOL    HW1 8011   7.039   8.118   4.527
35995SOL    HW2 8012   7.124   8.242   4.465
35996SOL     OW 8013   6.047   8.714   5.451
35996SOL    HW1 8014   5.997   8.715   5.365
35996SOL    HW2 8015   5.984   8.696   5.527
35997SOL     OW 8016   6.697   9.224   3.961
35997SOL    HW1 8017   6.637   9.162   4.011
35997SOL    HW2 8018   6.728   9.180   3.876
35998SOL     OW 8019   5.788   7.733   5.222
35998SOL    HW1 8020   5.708   7.793   5.209
35998SOL    HW2 8021   5.778   7.684   5.308
35999SOL     OW 8022   7.218   8.825   3.805
35999SOL    HW1 8023   7.186   8.919   3.795
35999SOL    HW2 8024   7.142   8.762   3.793
36000SOL     OW 8025   6.050   9.191   4.047
36000SOL    HW1 8026   6.083   9.230   4.133
36000SOL    HW2 8027   6.126   9.184   3.982
36001SOL     OW 8028   6.986   7.555   4.150
36001SOL    HW1 8029   6.962   7.518   4.060
36001SOL    HW2 8030   7.085   7.571   4.154
36002SOL     OW 8031   5.835   9.233   4.965
36002SOL    HW1 8032   5.892   9.168   5.015
36002SOL    HW2 8033   5.819   9.200   4.872
36003SOL     OW 8034   6.526   9.146   4.628
36003SOL    HW1 8035   6.606   9.089   4.649
36003SOL    HW2 8036   6.477   9.106   4.551
36004SOL     OW 8037   5.968   8.148   4.204
36004SOL    HW1 8038   6.013   8.058   4.201
36004SOL    HW2 8039   5.874   8.137   4.237
36005SOL     OW 8040   7.133   7.670   5.453
36005SOL    HW1 8041   7.128   7.707   5.545
36005SOL    HW2 8042   7.061   7.601   5.441
36006SOL     OW 8043   6.200   7.570   3.841
36006SOL    HW1 8044   6.298   7.548   3.848
36006SOL    HW2 8045   6.169   7.553   3.748
36007SOL     OW 8046   6.367   7.712   5.473
36007SOL    HW1 8047   6.434   7.651   5.516
36007SOL    HW2 8048   6.294   7.731   5.538
36008SOL     OW 8049   6.474   8.962   4.919
36008SOL    HW1 8050   6.451   8.937   4.825
36008SOL    HW2 8051   6.535   8.893   4.958
36009SOL     OW 8052   6.937   8.038   5.157
36009SOL    HW1 8053   6.965   7.995   5.242
36009SOL    HW2 8054   6.962   8.134   5.158
36010SOL     OW 8055   6.389   8.850   4.648
36010SOL    HW1 8056   6.479   8.864   4.606
36010SOL    HW2 8057   6.318   8.852   4.577
36011SOL     OW 8058   6.508   7.951   4.623
36011SOL    HW1 8059   6.483   7.942   4.527
36011SOL    HW2 8060   6.556   7.869   4.654
36012SOL     OW 8061   6.125   7.512   4.236
36012SOL    HW1 8062   6.044   7.513   4.294
36012SOL    HW2 8063   6.128   7.595   4.181
36013SOL     OW 8064   7.020   8.636   3.765
36013SOL    HW1 8065   7.052   8.560   3.822
36013SOL    HW2 8066   6.928   8.663   3.795
36014SOL     OW 8067   5.883   7.483   3.895
36014SOL    HW1 8068   5.932   7.567   3.874
36014SOL    HW2 8069   5.945   7.418   3.940
36015SOL     OW 8070   6.521   7.684   4.204
36015SOL    HW1 8071   6.473   7.725   4.126
36015SOL    HW2 8072   6.620   7.682   4.185
36016SOL     OW 8073   6.662   8.131   5.188
36016SOL    HW1 8074   6.582   8.070   5.191
36016SOL    HW2 8075   6.743   8.078   5.164
36017SOL     OW 8076   6.813   9.018   4.517
36017SOL    HW1 8077   6.834   9.092   4.452
36017SOL    HW2 8078   6.881   9.018   4.590
36018SOL     OW 8079   6.045   8.600   4.465
36018SOL    HW1 8080   5.974   8.573   4.530
36018SOL    HW2 8081   6.019   8.572   4.372
36019SOL     OW 8082   6.857   9.245   4.315
36019SOL    HW1 8083   6.901   9.309   4.251
36019SOL    HW2 8084   6.807   9.297   4.385
36020SOL     OW 8085   6.618   7.997   3.740
36020SOL    HW1 8086   6.577   8.079   3.701
36020SOL    HW2 8087   6.682   8.023   3.813
36021SOL     OW 8088   5.664   8.004   5.110
36021SOL    HW1 8089   5.756   8.003   5.069
36021SOL    HW2 8090   5.658   8.078   5.177
36022SOL     OW 8091   6.147   7.670   4.871
36022SOL    HW1 8092   6.185   7.586   4.908
36022SOL    HW2 8093   6.059   7.689   4.915
36023SOL     OW 8094   6.452   7.902   4.366
36023SOL    HW1 8095   6.420   7.974   4.304
36023SOL    HW2 8096   6.476   7.821   4.313
36024SOL     OW 8097   6.603   7.487   4.477
36024SOL    HW1 8098   6.531   7.492   4.408
36024SOL    HW2 8099   6.579   7.418   4.546
36025SOL     OW 8100   7.015   8.621   4.591
36025SOL    HW1 8101   6.960   8.537   4.584
36025SOL    HW2 8102   7.041   8.650   4.499
36026SOL     OW 8103   7.052   8.038   4.716
36026SOL    HW1 8104   7.022   7.943   4.723
36026SOL    HW2 8105   7.125   8.054   4.782
36027SOL     OW 8106   7.443   8.281   4.101
36027SOL    HW1 8107   7.485   8.217   4.165
36027SOL    HW2 8108   7.405   8.230   4.023
36028SOL     OW 8109   6.074   8.833   3.898
36028SOL    HW1 8110   5.987   8.818   3.945
36028SOL    HW2 8111   6.057   8.859   3.803
36029SOL     OW 8112   7.250   8.728   4.381
36029SOL    HW1 8113   7.349   8.736   4.395
36029SOL    HW2 8114   7.205   8.812   4.412
36030SOL     OW 8115   6.976   8.023   3.802
36030SOL    HW1 8116   6.922   8.002   3.883
36030SOL    HW2 8117   7.067   7.982   3.811
36031SOL     OW 8118   6.113   7.704   4.052
36031SOL    HW1 8119   6.140   7.645   3.977
36031SOL    HW2 8120   6.113   7.799   4.021
36032SOL     OW 8121   7.340   8.671   5.312
36032SOL    HW1 8122   7.431   8.632   5.299
36032SOL    HW2 8123   7.348   8.767   5.336
36033SOL     OW 8124   6.650   8.795   5.064
36033SOL    HW1 8125   6.570   8.772   5.119
36033SOL    HW2 8126   6.733   8.769   5.113
36034SOL     OW 8127   7.178   9.077   5.349
36034SOL    HW1 8128   7.205   9.111   5.259
36034SOL    HW2 8129   7.257   9.039   5.395
36035SOL     OW 8130   6.697   8.643   4.824
36035SOL    HW1 8131   6.657   8.687   4.905
36035SOL    HW2 8132   6.656   8.680   4.741
36036SOL     OW 8133   7.224   8.547   4.803
36036SOL    HW1 8134   7.229   8.628   4.862
36036SOL    HW2 8135   7.138   8.549   4.752
36037SOL     OW 8136   6.501   7.537   5.126
36037SOL    HW1 8137   6.526   7.517   5.031
36037SOL    HW2 8138   6.573   7.593   5.168
36038SOL     OW 8139   6.566   8.564   5.443
36038SOL    HW1 8140   6.467   8.570   5.453
36038SOL    HW2 8141   6.589   8.484   5.387
36039SOL     OW 8142   6.291   8.498   4.092
36039SOL    HW1 8143   6.277   8.505   4.191
36039SOL    HW2 8144   6.375   8.447   4.074
36040SOL     OW 8145   5.996   8.261   4.975
36040SOL    HW1 8146   6.082   8.273   5.025
36040SOL    HW2 8147   5.954   8.174   5.002
36041SOL     OW 8148   6.860   7.834   4.986
36041SOL    HW1 8149   6.881   7.908   5.050
36041SOL    HW2 8150   6.771   7.851   4.943
36042SOL     OW 8151   5.650   9.012   5.055
36042SOL    HW1 8152   5.604   9.094   5.021
36042SOL    HW2 8153   5.748   9.031   5.064
36043SOL     OW 8154   5.953   8.548   4.225
36043SOL    HW1 8155   5.946   8.631   4.169
36043SOL    HW2 8156   5.957   8.468   4.165
36044SOL     OW 8157   6.152   7.985   4.589
36044SOL    HW1 8158   6.164   8.051   4.515
36044SOL    HW2 8159   6.198   8.019   4.672
36045SOL     OW 8160   6.838   8.796   4.112
36045SOL    HW1 8161   6.888   8.873   4.152
36045SOL    HW2 8162   6.743   8.798   4.144
36046SOL     OW 8163   6.858   8.893   4.866
36046SOL    HW1 8164   6.905   8.906   4.953
36046SOL    HW2 8165   6.792   8.819   4.875
36047SOL     OW 8166   7.168   8.087   4.196
36047SOL    HW1 8167   7.137   8.148   4.269
36047SOL    HW2 8168   7.218   8.139   4.127
36048SOL     OW 8169   5.940   8.958   5.053
36048SOL    HW1 8170   5.919   8.914   4.966
36048SOL    HW2 8171   6.037   8.984   5.056
36049SOL     OW 8172   5.988   8.199   5.322
36049SOL    HW1 8173   6.056   8.254   5.275
36049SOL    HW2 8174   6.028   8.111   5.349
36050SOL     OW 8175   7.173   8.227   5.394
36050SOL    HW1 8176   7.081   8.265   5.389
36050SOL    HW2 8177   7.233   8.274   5.329
36051SOL     OW 8178   6.599   7.553   5.494
36051SOL    HW1 8179   6.605   7.638   5.442
36051SOL    HW2 8180   6.631   7.477   5.437
36052SOL     OW 8181   6.090   7.498   5.464
36052SOL    HW1 8182   6.048   7.441   5.394
36052SOL    HW2 8183   6.024   7.567   5.496
36053SOL     OW 8184   6.159   8.318   4.753
36053SOL    HW1 8185   6.203   8.407   4.744
36053SOL    HW2 8186   6.096   8.318   4.830
36054SOL     OW 8187   6.946   8.310   4.769
36054SOL    HW1 8188   6.871   8.310   4.703
36054SOL    HW2 8189   6.983   8.218   4.778
36055SOL     OW 8190   6.795   7.973   3.999
36055SOL    HW1 8191   6.808   7.889   4.053
36055SOL    HW2 8192   6.766   8.047   4.059
36056SOL     OW 8193   5.893   7.661   4.955
36056SOL    HW1 8194   5.870   7.698   5.045
36056SOL    HW2 8195   5.863   7.566   4.949
36057SOL     OW 8196   5.623   8.758   5.006
36057SOL    HW1 8197   5.676   8.709   5.074
36057SOL    HW2 8198   5.645   8.856   5.011
36058SOL     OW 8199   6.318   8.082   4.788
36058SOL    HW1 8200   6.377   8.056   4.712
36058SOL    HW2 8201   6.290   8.178   4.777
36059SOL     OW 8202   7.314   8.383   5.578
36059SOL    HW1 8203   7.268   8.376   5.489
36059SOL    HW2 8204   7.252   8.427   5.644
36060SOL     OW 8205   5.893   7.511   4.342
36060SOL    HW1 8206   5.882   7.605   4.375
36060SOL    HW2 8207   5.888   7.448   4.419
36061SOL     OW 8208   7.208   7.815   4.098
36061SOL    HW1 8209   7.210   7.739   4.162
36061SOL    HW2 8210   7.160   7.892   4.138
36062SOL     OW 8211   6.609   8.214   4.690
36062SOL    HW1 8212   6.624   8.235   4.786
36062SOL    HW2 8213   6.579   8.119   4.681
36063SOL     OW 8214   6.566   9.021   5.424
36063SOL    HW1 8215   6.546   9.065   5.336
36063SOL    HW2 8216   6.605   8.930   5.408
36064SOL     OW 8217   7.445   8.966   5.329
36064SOL    HW1 8218   7.459   8.993   5.234
36064SOL    HW2 8219   7.528   8.988   5.382
36065SOL     OW 8220   5.936   8.346   5.528
36065SOL    HW1 8221   6.012   8.390   5.576
36065SOL    HW2 8222   5.971   8.299   5.446
36066SOL     OW 8223   7.126   7.722   3.849
36066SOL    HW1 8224   7.065   7.647   3.872
36066SOL    HW2 8225   7.148   7.774   3.932
36067SOL     OW 8226   6.889   8.286   3.766
36067SOL    HW1 8227   6.923   8.193   3.781
36067SOL    HW2 8228   6.907   8.313   3.671
36068SOL     OW 8229   6.654   8.781   4.573
36068SOL    HW1 8230   6.661   8.697   4.518
36068SOL    HW2 8231   6.716   8.850   4.537
36069SOL     OW 8232   5.905   8.258   4.673
36069SOL    HW1 8233   5.998   8.294   4.678
36069SOL    HW2 8234   5.899   8.173   4.725
36070SOL     OW 8235   5.925   7.957   4.730
36070SOL    HW1 8236   5.873   7.874   4.713
36070SOL    HW2 8237   6.002   7.962   4.666
36071SOL     OW 8238   6.724   7.828   5.402
36071SOL    HW1 8239   6.679   7.891   5.466
36071SOL    HW2 8240   6.817   7.859   5.385
36072SOL     OW 8241   6.746   7.655   5.201
36072SOL    HW1 8242   6.746   7.719   5.278
36072SOL    HW2 8243   6.774   7.703   5.118
36073SOL     OW 8244   5.594   8.774   3.924
36073SOL    HW1 8245   5.501   8.795   3.893
36073SOL    HW2 8246   5.604   8.675   3.937
36074SOL     OW 8247   5.674   9.249   4.651
36074SOL    HW1 8248   5.632   9.163   4.624
36074SOL    HW2 8249   5.768   9.252   4.617
36075SOL     OW 8250   6.090   9.016   4.634
36075SOL    HW1 8251   6.156   9.090   4.643
36075SOL    HW2 8252   6.134   8.937   4.592
36076SOL     OW 8253   6.588   8.244   4.962
36076SOL    HW1 8254   6.629   8.212   5.048
36076SOL    HW2 8255   6.492   8.217   4.959
36077SOL     OW 8256   5.626   7.992   4.838
36077SOL    HW1 8257   5.711   7.959   4.797
36077SOL    HW2 8258   5.639   8.007   4.936
36078SOL     OW 8259   5.775   7.968   5.446
36078SOL    HW1 8260   5.834   7.928   5.376
36078SOL    HW2 8261   5.717   8.039   5.405
36079SOL     OW 8262   6.955   8.398   5.384
36079SOL    HW1 8263   6.994   8.487   5.404
36079SOL    HW2 8264   6.965   8.378   5.287
36080SOL     OW 8265   6.401   8.020   4.049
36080SOL    HW1 8266   6.408   7.931   4.003
36080SOL    HW2 8267   6.307   8.054   4.041
36081SOL     OW 8268   7.243   8.052   4.930
36081SOL    HW1 8269   7.205   7.983   4.992
36081SOL    HW2 8270   7.325   8.016   4.886
36082SOL     OW 8271   5.838   9.012   5.468
36082SOL    HW1 8272   5.808   9.069   5.544
36082SOL    HW2 8273   5.831   8.915   5.494
36083SOL     OW 8274   6.257   7.912   4.993
36083SOL    HW1 8275   6.223   7.823   4.963
36083SOL    HW2 8276   6.283   7.966   4.913
36084SOL     OW 8277   6.516   9.126   5.189
36084SOL    HW1 8278   6.492   9.108   5.094
36084SOL    HW2 8279   6.546   9.220   5.199
36085SOL     OW 8280   6.059   7.948   3.915
36085SOL    HW1 8281   6.120   8.028   3.919
36085SOL    HW2 8282   5.964   7.979   3.922
36086SOL     OW 8283   5.745   8.585   5.190
36086SOL    HW1 8284   5.767   8.524   5.266
36086SOL    HW2 8285   5.755   8.536   5.104
36087SOL     OW 8286   6.933   8.507   4.958
36087SOL    HW1 8287   6.957   8.444   4.884
36087SOL    HW2 8288   6.843   8.547   4.940
36088SOL     OW 8289   6.888   8.303   4.033
36088SOL    HW1 8290   6.802   8.272   4.075
36088SOL    HW2 8291   6.884   8.289   3.934
36089SOL     OW 8292   7.345   9.195   4.878
36089SOL    HW1 8293   7.406   9.225   4.805
36089SOL    HW2 8294   7.307   9.106   4.856
36090SOL     OW 8295   6.838   9.179   4.852
36090SOL    HW1 8296   6.922   9.184   4.798
36090SOL    HW2 8297   6.815   9.083   4.870
36091SOL     OW 8298   5.669   8.706   4.746
36091SOL    HW1 8299   5.664   8.705   4.846
36091SOL    HW2 8300   5.586   8.665   4.708
36092SOL     OW 8301   6.274   9.110   5.440
36092SOL    HW1 8302   6.218   9.191   5.449
36092SOL    HW2 8303   6.326   9.114   5.354
36093SOL     OW 8304   7.312   7.583   4.247
36093SOL    HW1 8305   7.385   7.566   4.180
36093SOL    HW2 8306   7.281   7.496   4.285
36094SOL     OW 8307   6.974   9.021   4.201
36094SOL    HW1 8308   7.041   9.033   4.127
36094SOL    HW2 8309   6.934   9.110   4.224
36095SOL     OW 8310   5.716   9.242   5.575
36095SOL    HW1 8311   5.675   9.168   5.628
36095SOL    HW2 8312   5.780   9.293   5.633
36096SOL     OW 8313   6.866   8.375   4.396
36096SOL    HW1 8314   6.926   8.294   4.398
36096SOL    HW2 8315   6.906   8.444   4.336
36097SOL     OW 8316   6.416   8.721   5.146
36097SOL    HW1 8317   6.411   8.754   5.241
36097SOL    HW2 8318   6.330   8.740   5.100
36098SOL     OW 8319   6.258   9.064   3.878
36098SOL    HW1 8320   6.267   9.074   3.779
36098SOL    HW2 8321   6.218   8.975   3.899
36099SOL     OW 8322   7.236   9.168   5.118
36099SOL    HW1 8323   7.289   9.178   5.034
36099SOL    HW2 8324   7.209   9.258   5.152
36100SOL     OW 8325   7.427   7.623   4.687
36100SOL    HW1 8326   7.466   7.538   4.651
36100SOL    HW2 8327   7.329   7.625   4.668
36101SOL     OW 8328   5.849   7.774   4.444
36101SOL    HW1 8329   5.770   7.825   4.410
36101SOL    HW2 8330   5.840   7.759   4.542
36102SOL     OW 8331   6.780   9.060   3.755
36102SOL    HW1 8332   6.786   8.967   3.792
36102SOL    HW2 8333   6.721   9.060   3.675
36103SOL     OW 8334   6.408   8.450   5.096
36103SOL    HW1 8335   6.448   8.449   5.004
36103SOL    HW2 8336   6.418   8.542   5.136
36104SOL     OW 8337   6.502   8.358   4.015
36104SOL    HW1 8338   6.565   8.396   3.947
36104SOL    HW2 8339   6.542   8.275   4.054
36105SOL     OW 8340   7.090   9.055   3.768
36105SOL    HW1 8341   6.998   9.092   3.775
36105SOL    HW2 8342   7.128   9.075   3.678
36106SOL     OW 8343   5.958   8.736   5.214
36106SOL    HW1 8344   5.945   8.829   5.180
36106SOL    HW2 8345   5.874   8.684   5.201
36107SOL     OW 8346   7.200   8.740   5.013
36107SOL    HW1 8347   7.260   8.743   5.093
36107SOL    HW2 8348   7.125   8.804   5.026
36108SOL     OW 8349   6.625   8.546   4.420
36108SOL    HW1 8350   6.555   8.499   4.474
36108SOL    HW2 8351   6.684   8.478   4.377
36109SOL     OW 8352   6.600   7.684   4.695
36109SOL    HW1 8353   6.592   7.648   4.602
36109SOL    HW2 8354   6.598   7.608   4.760
36110SOL     OW 8355   6.176   8.935   4.215
36110SOL    HW1 8356   6.218   8.877   4.145
36110SOL    HW2 8357   6.132   9.014   4.171
36111SOL     OW 8358   7.295   7.833   5.105
36111SOL    HW1 8359   7.368   7.902   5.109
36111SOL    HW2 8360   7.323   7.758   5.046
36112SOL     OW 8361   5.841   8.796   4.014
36112SOL    HW1 8362   5.745   8.797   3.987
36112SOL    HW2 8363   5.853   8.849   4.098
36113SOL     OW 8364   5.691   8.461   5.450
36113SOL    HW1 8365   5.614   8.428   5.504
36113SOL    HW2 8366   5.776   8.431   5.492
36114SOL     OW 8367   6.258   7.651   5.213
36114SOL    HW1 8368   6.348   7.635   5.173
36114SOL    HW2 8369   6.266   7.656   5.312
36115SOL     OW 8370   5.661   7.793   3.757
36115SOL    HW1 8371   5.569   7.765   3.728
36115SOL    HW2 8372   5.692   7.870   3.701
36116SOL     OW 8373   7.026   8.304   5.122
36116SOL    HW1 8374   6.969   8.356   5.059
36116SOL    HW2 8375   7.122   8.316   5.098
36117SOL     OW 8376   5.658   7.614   4.042
36117SOL    HW1 8377   5.641   7.697   3.988
36117SOL    HW2 8378   5.748   7.577   4.020
36118SOL     OW 8379   6.769   8.783   3.843
36118SOL    HW1 8380   6.670   8.772   3.845
36118SOL    HW2 8381   6.803   8.798   3.936
36119SOL     OW 8382   6.199   8.290   5.155
36119SOL    HW1 8383   6.255   8.371   5.138
36119SOL    HW2 8384   6.258   8.210   5.158
36120SOL     OW 8385   7.079   9.215   4.683
36120SOL    HW1 8386   7.112   9.279   4.614
36120SOL    HW2 8387   7.145   9.209   4.758
36121SOL     OW 8388   6.302   8.013   5.432
36121SOL    HW1 8389   6.321   8.078   5.506
36121SOL    HW2 8390   6.362   7.933   5.441
36122SOL     OW 8391   7.036   8.668   5.357
36122SOL    HW1 8392   7.027   8.658   5.456
36122SOL    HW2 8393   7.132   8.661   5.331
36123SOL     OW 8394   5.976   9.189   5.284
36123SOL    HW1 8395   5.885   9.230   5.282
36123SOL    HW2 8396   5.969   9.095   5.316
36124SOL     OW 8397   7.260   8.331   4.978
36124SOL    HW1 8398   7.233   8.242   4.941
36124SOL    HW2 8399   7.261   8.399   4.905
36125SOL     OW 8400   6.811   7.773   4.173
36125SOL    HW1 8401   6.876   7.699   4.162
36125SOL    HW2 8402   6.831   7.823   4.257
36126SOL     OW 8403   6.180   8.193   4.376
36126SOL    HW1 8404   6.230   8.278   4.357
36126SOL    HW2 8405   6.092   8.195   4.328
36127SOL     OW 8406   7.363   7.790   5.366
36127SOL    HW1 8407   7.346   7.821   5.272
36127SOL    HW2 8408   7.279   7.753   5.404
36128SOL     OW 8409   7.316   8.382   5.241
36128SOL    HW1 8410   7.354   8.473   5.256
36128SOL    HW2 8411   7.308   8.365   5.142
36129SOL     OW 8412   6.445   8.822   3.740
36129SOL    HW1 8413   6.399   8.837   3.828
36129SOL    HW2 8414   6.489   8.907   3.710
36130SOL     OW 8415   6.247   9.238   4.677
36130SOL    HW1 8416   6.201   9.326   4.664
36130SOL    HW2 8417   6.346   9.250   4.670
36131SOL     OW 8418   6.445   8.404   4.585
36131SOL    HW1 8419   6.499   8.335   4.633
36131SOL    HW2 8420   6.413   8.473   4.651
36132SOL     OW 8421   6.669   8.432   3.811
36132SOL    HW1 8422   6.646   8.485   3.729
36132SOL    HW2 8423   6.750   8.376   3.792
36133SOL     OW 8424   7.447   9.017   4.575
36133SOL    HW1 8425   7.376   9.005   4.505
36133SOL    HW2 8426   7.448   8.938   4.635
36134SOL     OW 8427   5.807   8.762   5.568
36134SOL    HW1 8428   5.742   8.689   5.547
36134SOL    HW2 8429   5.811   8.776   5.666
36135SOL     OW 8430   5.665   8.688   4.377
36135SOL    HW1 8431   5.664   8.641   4.465
36135SOL    HW2 8432   5.747   8.660   4.326
36136SOL     OW 8433   6.258   8.839   5.348
36136SOL    HW1 8434   6.180   8.789   5.386
36136SOL    HW2 8435   6.255   8.934   5.379
36137SOL     OW 8436   7.410   7.640   4.951
36137SOL    HW1 8437   7.406   7.550   4.995
36137SOL    HW2 8438   7.413   7.629   4.852
36138SOL     OW 8439   6.014   7.872   4.244
36138SOL    HW1 8440   6.044   7.800   4.182
36138SOL    HW2 8441   5.975   7.832   4.327
36139SOL     OW 8442   7.291   8.935   4.828
36139SOL    HW1 8443   7.198   8.910   4.801
36139SOL    HW2 8444   7.317   8.885   4.910
36140SOL     OW 8445   5.903   7.995   5.004
36140SOL    HW1 8446   5.941   7.936   5.076
36140SOL    HW2 8447   5.943   7.969   4.916
36141SOL     OW 8448   6.398   9.034   4.411
36141SOL    HW1 8449   6.430   9.044   4.317
36141SOL    HW2 8450   6.319   8.972   4.413
36142SOL     OW 8451   7.010   7.662   4.836
36142SOL    HW1 8452   7.062   7.597   4.891
36142SOL    HW2 8453   6.961   7.725   4.897
36143SOL     OW 8454   6.587   7.482   4.878
36143SOL    HW1 8455   6.524   7.410   4.847
36143SOL    HW2 8456   6.680   7.446   4.878
36144SOL     OW 8457   6.356   8.778   4.025
36144SOL    HW1 8458   6.310   8.691   4.042
36144SOL    HW2 8459   6.447   8.775   4.066
36145SOL     OW 8460   6.204   9.015   5.008
36145SOL    HW1 8461   6.199   9.097   5.065
36145SOL    HW2 8462   6.293   9.012   4.963
36146SOL     OW 8463   6.938   7.500   3.892
36146SOL    HW1 8464   6.973   7.459   3.808
36146SOL    HW2 8465   6.848   7.462   3.912
36147SOL     OW 8466   6.886   7.901   4.415
36147SOL    HW1 8467   6.827   7.981   4.419
36147SOL    HW2 8468   6.901   7.866   4.508
36148SOL     OW 8469   7.179   7.669   4.606
36148SOL    HW1 8470   7.095   7.668   4.660
36148SOL    HW2 8471   7.181   7.752   4.550
36149SOL     OW 8472   5.625   8.525   4.024
36149SOL    HW1 8473   5.724   8.514   4.015
36149SOL    HW2 8474   5.585   8.439   4.056
36150SOL     OW 8475   6.461   9.094   4.061
36150SOL    HW1 8476   6.384   9.059   4.007
36150SOL    HW2 8477   6.429   9.165   4.123
36151SOL     OW 8478   5.816   8.076   5.699
36151SOL    HW1 8479   5.723   8.074   5.736
36151SOL    HW2 8480   5.817   8.037   5.607
36152SOL     OW 8481   5.811   7.723   6.582
36152SOL    HW1 8482   5.846   7.706   6.674
36152SOL    HW2 8483   5.723   7.678   6.570
36153SOL     OW 8484   5.605   7.816   6.233
36153SOL    HW1 8485   5.523   7.859   6.272
36153SOL    HW2 8486   5.577   7.743   6.170
36154SOL     OW 8487   6.155   8.723   6.751
36154SOL    HW1 8488   6.062   8.716   6.714
36154SOL    HW2 8489   6.166   8.812   6.795
36155SOL     OW 8490   7.141   8.959   6.289
36155SOL    HW1 8491   7.084   8.943   6.370
36155SOL    HW2 8492   7.082   8.969   6.209
36156SOL     OW 8493   6.721   8.151   6.303
36156SOL    HW1 8494   6.778   8.229   6.278
36156SOL    HW2 8495   6.661   8.177   6.379
36157SOL     OW 8496   7.341   8.055   5.817
36157SOL    HW1 8497   7.329   8.042   5.718
36157SOL    HW2 8498   7.311   7.974   5.866
36158SOL     OW 8499   6.354   8.592   6.609
36158SOL    HW1 8500   6.276   8.609   6.669
36158SOL    HW2 8501   6.388   8.679   6.573
36159SOL     OW 8502   6.436   8.246   7.409
36159SOL    HW1 8503   6.432   8.322   7.474
36159SOL    HW2 8504   6.458   8.282   7.318
36160SOL     OW 8505   6.271   8.460   6.251
36160SOL    HW1 8506   6.340   8.444   6.321
36160SOL    HW2 8507   6.198   8.517   6.289
36161SOL     OW 8508   6.272   8.609   7.389
36161SOL    HW1 8509   6.332   8.688   7.403
36161SOL    HW2 8510   6.186   8.640   7.348
36162SOL     OW 8511   5.921   8.883   6.647
36162SOL    HW1 8512   5.843   8.852   6.594
36162SOL    HW2 8513   5.979   8.941   6.590
36163SOL     OW 8514   7.046   8.953   6.925
36163SOL    HW1 8515   7.070   9.047   6.951
36163SOL    HW2 8516   7.030   8.899   7.007
36164SOL     OW 8517   6.024   7.840   7.085
36164SOL    HW1 8518   6.106   7.784   7.094
36164SOL    HW2 8519   5.943   7.782   7.089
36165SOL     OW 8520   7.189   7.895   6.323
36165SOL    HW1 8521   7.115   7.941   6.273
36165SOL    HW2 8522   7.240   7.963   6.376
36166SOL     OW 8523   5.817   9.161   6.069
36166SOL    HW1 8524   5.851   9.238   6.123
36166SOL    HW2 8525   5.861   9.161   5.979
36167SOL     OW 8526   6.713   8.789   7.276
36167SOL    HW1 8527   6.760   8.789   7.364
36167SOL    HW2 8528   6.665   8.702   7.265
36168SOL     OW 8529   5.816   8.882   6.124
36168SOL    HW1 8530   5.790   8.978   6.124
36168SOL    HW2 8531   5.745   8.828   6.169
36169SOL     OW 8532   5.826   8.539   6.472
36169SOL    HW1 8533   5.840   8.455   6.524
36169SOL    HW2 8534   5.771   8.603   6.527
36170SOL     OW 8535   6.206   9.234   7.025
36170SOL    HW1 8536   6.114   9.217   7.060
36170SOL    HW2 8537   6.234   9.326   7.051
36171SOL     OW 8538   6.192   8.412   5.709
36171SOL    HW1 8539   6.199   8.496   5.655
36171SOL    HW2 8540   6.238   8.425   5.797
36172SOL     OW 8541   7.180   7.562   7.066
36172SOL    HW1 8542   7.162   7.629   6.994
36172SOL    HW2 8543   7.177   7.608   7.155
36173SOL     OW 8544   5.708   8.091   6.149
36173SOL    HW1 8545   5.663   8.003   6.166
36173SOL    HW2 8546   5.707   8.145   6.233
36174SOL     OW 8547   7.428   9.215   5.945
36174SOL    HW1 8548   7.482   9.186   6.025
36174SOL    HW2 8549   7.458   9.305   5.916
36175SOL     OW 8550   5.613   9.044   5.703
36175SOL    HW1 8551   5.594   8.948   5.724
36175SOL    HW2 8552   5.580   9.102   5.778
36176SOL     OW 8553   7.275   8.370   6.198
36176SOL    HW1 8554   7.370   8.341   6.206
36176SOL    HW2 8555   7.267   8.435   6.123
36177SOL     OW 8556   7.227   8.556   6.018
36177SOL    HW1 8557   7.313   8.558   5.966
36177SOL    HW2 8558   7.241   8.603   6.106
36178SOL     OW 8559   5.699   8.185   7.183
36178SOL    HW1 8560   5.787   8.172   7.228
36178SOL    HW2 8561   5.686   8.282   7.161
36179SOL     OW 8562   6.199   8.813   6.312
36179SOL    HW1 8563   6.150   8.726   6.321
36179SOL    HW2 8564   6.176   8.856   6.225
36180SOL     OW 8565   6.879   8.676   7.009
36180SOL    HW1 8566   6.916   8.603   6.951
36180SOL    HW2 8567   6.931   8.681   7.094
36181SOL     OW 8568   6.395   7.452   6.088
36181SOL    HW1 8569   6.435   7.543   6.079
36181SOL    HW2 8570   6.295   7.460   6.094
36182SOL     OW 8571   5.783   8.424   6.850
36182SOL    HW1 8572   5.872   8.379   6.836
36182SOL    HW2 8573   5.710   8.359   6.831
36183SOL     OW 8574   7.111   8.447   5.776
36183SOL    HW1 8575   7.048   8.371   5.789
36183SOL    HW2 8576   7.159   8.465   5.862
36184SOL     OW 8577   6.773   9.240   7.202
36184SOL    HW1 8578   6.797   9.300   7.126
36184SOL    HW2 8579   6.780   9.145   7.172
36185SOL     OW 8580   5.903   7.699   7.387
36185SOL    HW1 8581   5.974   7.770   7.393
36185SOL    HW2 8582   5.815   7.738   7.415
36186SOL     OW 8583   7.052   8.865   6.539
36186SOL    HW1 8584   6.993   8.871   6.619
36186SOL    HW2 8585   7.037   8.777   6.493
36187SOL     OW 8586   7.253   9.162   6.158
36187SOL    HW1 8587   7.212   9.139   6.070
36187SOL    HW2 8588   7.235   9.088   6.223
36188SOL     OW 8589   6.184   8.177   5.856
36188SOL    HW1 8590   6.208   8.246   5.788
36188SOL    HW2 8591   6.106   8.210   5.910
36189SOL     OW 8592   6.867   7.793   6.530
36189SOL    HW1 8593   6.781   7.743   6.517
36189SOL    HW2 8594   6.929   7.739   6.586
36190SOL     OW 8595   7.162   9.110   5.893
36190SOL    HW1 8596   7.251   9.156   5.896
36190SOL    HW2 8597   7.141   9.086   5.798
36191SOL     OW 8598   6.393   8.053   7.051
36191SOL    HW1 8599   6.346   8.050   7.140
36191SOL    HW2 8600   6.342   7.998   6.985
36192SOL     OW 8601   6.980   7.917   7.260
36192SOL    HW1 8602   6.960   7.960   7.348
36192SOL    HW2 8603   7.058   7.855   7.269
36193SOL     OW 8604   6.559   8.338   7.158
36193SOL    HW1 8605   6.605   8.254   7.129
36193SOL    HW2 8606   6.503   8.372   7.083
36194SOL     OW 8607   6.577   7.858   6.828
36194SOL    HW1 8608   6.500   7.892   6.882
36194SOL    HW2 8609   6.543   7.807   6.749
36195SOL     OW 8610   6.627   8.149   6.015
36195SOL    HW1 8611   6.653   8.145   6.111
36195SOL    HW2 8612   6.542   8.098   6.001
36196SOL     OW 8613   5.662   8.259   6.375
36196SOL    HW1 8614   5.761   8.247   6.384
36196SOL    HW2 8615   5.638   8.354   6.396
36197SOL     OW 8616   5.716   9.269   7.157
36197SOL    HW1 8617   5.706   9.254   7.256
36197SOL    HW2 8618   5.630   9.305   7.121
36198SOL     OW 8619   6.451   7.796   5.781
36198SOL    HW1 8620   6.510   7.859   5.732
36198SOL    HW2 8621   6.470   7.702   5.752
36199SOL     OW 8622   7.305   8.033   7.417
36199SOL    HW1 8623   7.279   8.122   7.381
36199SOL    HW2 8624   7.303   7.965   7.344
36200SOL     OW 8625   6.948   8.592   6.131
36200SOL    HW1 8626   7.031   8.563   6.083
36200SOL    HW2 8627   6.899   8.659   6.075
36201SOL     OW 8628   6.136   7.644   6.471
36201SOL    HW1 8629   6.131   7.639   6.571
36201SOL    HW2 8630   6.138   7.740   6.442
36202SOL     OW 8631   6.594   8.904   6.063
36202SOL    HW1 8632   6.548   8.976   6.011
36202SOL    HW2 8633   6.590   8.924   6.161
36203SOL     OW 8634   5.937   9.249   6.439
36203SOL    HW1 8635   5.987   9.163   6.445
36203SOL    HW2 8636   6.002   9.326   6.436
36204SOL     OW 8637   7.381   8.514   6.459
36204SOL    HW1 8638   7.319   8.499   6.383
36204SOL    HW2 8639   7.329   8.525   6.544
36205SOL     OW 8640   6.813   8.998   7.092
36205SOL    HW1 8641   6.819   8.921   7.156
36205SOL    HW2 8642   6.761   8.972   7.012
36206SOL     OW 8643   5.907   8.391   5.828
36206SOL    HW1 8644   5.989   8.430   5.786
36206SOL    HW2 8645   5.880   8.309   5.779
36207SOL     OW 8646   7.044   8.183   6.314
36207SOL    HW1 8647   7.039   8.118   6.389
36207SOL    HW2 8648   7.124   8.242   6.327
36208SOL     OW 8649   6.047   8.714   7.313
36208SOL    HW1 8650   5.997   8.715   7.227
36208SOL    HW2 8651   5.984   8.696   7.389
36209SOL     OW 8652   6.697   9.224   5.823
36209SOL    HW1 8653   6.637   9.162   5.873
36209SOL    HW2 8654   6.728   9.180   5.738
36210SOL     OW 8655   5.788   7.733   7.084
36210SOL    HW1 8656   5.708   7.793   7.071
36210SOL    HW2 8657   5.778   7.684   7.170
36211SOL     OW 8658   7.218   8.825   5.667
36211SOL    HW1 8659   7.186   8.919   5.657
36211SOL    HW2 8660   7.142   8.762   5.655
36212SOL     OW 8661   6.050   9.191   5.909
36212SOL    HW1 8662   6.083   9.230   5.995
36212SOL    HW2 8663   6.126   9.184   5.844
36213SOL     OW 8664   6.986   7.555   6.012
36213SOL    HW1 8665   6.962   7.518   5.922
36213SOL    HW2 8666   7.085   7.571   6.016
36214SOL     OW 8667   5.835   9.233   6.827
36214SOL    HW1 8668   5.892   9.168   6.877
36214SOL    HW2 8669   5.819   9.200   6.734
36215SOL     OW 8670   6.526   9.146   6.490
36215SOL    HW1 8671   6.606   9.089   6.511
36215SOL    HW2 8672   6.477   9.106   6.413
36216SOL     OW 8673   5.968   8.148   6.066
36216SOL    HW1 8674   6.013   8.058   6.063
36216SOL    HW2 8675   5.874   8.137   6.099
36217SOL     OW 8676   7.133   7.670   7.315
36217SOL    HW1 8677   7.128   7.707   7.407
36217SOL    HW2 8678   7.061   7.601   7.303
36218SOL     OW 8679   6.200   7.570   5.703
36218SOL    HW1 8680   6.298   7.548   5.710
36218SOL    HW2 8681   6.169   7.553   5.610
36219SOL     OW 8682   6.367   7.712   7.335
36219SOL    HW1 8683   6.434   7.651   7.378
36219SOL    HW2 8684   6.294   7.731   7.400
36220SOL     OW 8685   6.474   8.962   6.781
36220SOL    HW1 8686   6.451   8.937   6.687
36220SOL    HW2 8687   6.535   8.893   6.820
36221SOL     OW 8688   6.937   8.038   7.019
36221SOL    HW1 8689   6.965   7.995   7.104
36221SOL    HW2 8690   6.962   8.134   7.020
36222SOL     OW 8691   6.389   8.850   6.510
36222SOL    HW1 8692   6.479   8.864   6.468
36222SOL    HW2 8693   6.318   8.852   6.439
36223SOL     OW 8694   6.508   7.951   6.485
36223SOL    HW1 8695   6.483   7.942   6.389
36223SOL    HW2 8696   6.556   7.869   6.516
36224SOL     OW 8697   6.125   7.512   6.098
36224SOL    HW1 8698   6.044   7.513   6.156
36224SOL    HW2 8699   6.128   7.595   6.043
36225SOL     OW 8700   7.020   8.636   5.627
36225SOL    HW1 8701   7.052   8.560   5.684
36225SOL    HW2 8702   6.928   8.663   5.657
36226SOL     OW 8703   5.883   7.483   5.757
36226SOL    HW1 8704   5.932   7.567   5.736
36226SOL    HW2 8705   5.945   7.418   5.802
36227SOL     OW 8706   6.521   7.684   6.066
36227SOL    HW1 8707   6.473   7.725   5.988
36227SOL    HW2 8708   6.620   7.682   6.047
36228SOL     OW 8709   6.662   8.131   7.050
36228SOL    HW1 8710   6.582   8.070   7.053
36228SOL    HW2 8711   6.743   8.078   7.026
36229SOL     OW 8712   6.813   9.018   6.379
36229SOL    HW1 8713   6.834   9.092   6.314
36229SOL    HW2 8714   6.881   9.018   6.452
36230SOL     OW 8715   6.045   8.600   6.327
36230SOL    HW1 8716   5.974   8.573   6.392
36230SOL    HW2 8717   6.019   8.572   6.234
36231SOL     OW 8718   6.857   9.245   6.177
36231SOL    HW1 8719   6.901   9.309   6.113
36231SOL    HW2 8720   6.807   9.297   6.247
36232SOL     OW 8721   6.618   7.997   5.602
36232SOL    HW1 8722   6.577   8.079   5.563
36232SOL    HW2 8723   6.682   8.023   5.675
36233SOL     OW 8724   5.664   8.004   6.972
36233SOL    HW1 8725   5.756   8.003   6.931
36233SOL    HW2 8726   5.658   8.078   7.039
36234SOL     OW 8727   6.147   7.670   6.733
36234SOL    HW1 8728   6.185   7.586   6.770
36234SOL    HW2 8729   6.059   7.689   6.777
36235SOL     OW 8730   6.452   7.902   6.228
36235SOL    HW1 8731   6.420   7.974   6.166
36235SOL    HW2 8732   6.476   7.821   6.175
36236SOL     OW 8733   6.603   7.487   6.339
36236SOL    HW1 8734   6.531   7.492   6.270
36236SOL    HW2 8735   6.579   7.418   6.408
36237SOL     OW 8736   7.015   8.621   6.453
36237SOL    HW1 8737   6.960   8.537   6.446
36237SOL    HW2 8738   7.041   8.650   6.361
36238SOL     OW 8739   7.052   8.038   6.578
36238SOL    HW1 8740   7.022   7.943   6.585
36238SOL    HW2 8741   7.125   8.054   6.644
36239SOL     OW 8742   7.443   8.281   5.963
36239SOL    HW1 8743   7.485   8.217   6.027
36239SOL    HW2 8744   7.405   8.230   5.885
36240SOL     OW 8745   6.074   8.833   5.760
36240SOL    HW1 8746   5.987   8.818   5.807
36240SOL    HW2 8747   6.057   8.859   5.665
36241SOL     OW 8748   7.250   8.728   6.243
36241SOL    HW1 8749   7.349   8.736   6.257
36241SOL    HW2 8750   7.205   8.812   6.274
36242SOL     OW 8751   6.976   8.023   5.664
36242SOL    HW1 8752   6.922   8.002   5.745
36242SOL    HW2 8753   7.067   7.982   5.673
36243SOL     OW 8754   6.113   7.704   5.914
36243SOL    HW1 8755   6.140   7.645   5.839
36243SOL    HW2 8756   6.113   7.799   5.883
36244SOL     OW 8757   7.340   8.671   7.174
36244SOL    HW1 8758   7.431   8.632   7.161
36244SOL    HW2 8759   7.348   8.767   7.198
36245SOL     OW 8760   6.650   8.795   6.926
36245SOL    HW1 8761   6.570   8.772   6.981
36245SOL    HW2 8762   6.733   8.769   6.975
36246SOL     OW 8763   7.178   9.077   7.211
36246SOL    HW1 8764   7.205   9.111   7.121
36246SOL    HW2 8765   7.257   9.039   7.257
36247SOL     OW 8766   6.697   8.643   6.686
36247SOL    HW1 8767   6.657   8.687   6.767
36247SOL    HW2 8768   6.656   8.680   6.603
36248SOL     OW 8769   7.224   8.547   6.665
36248SOL    HW1 8770   7.229   8.628   6.724
36248SOL    HW2 8771   7.138   8.549   6.614
36249SOL     OW 8772   6.501   7.537   6.988
36249SOL    HW1 8773   6.526   7.517   6.893
36249SOL    HW2 8774   6.573   7.593   7.030
36250SOL     OW 8775   6.566   8.564   7.305
36250SOL    HW1 8776   6.467   8.570   7.315
36250SOL    HW2 8777   6.589   8.484   7.249
36251SOL     OW 8778   6.291   8.498   5.954
36251SOL    HW1 8779   6.277   8.505   6.053
36251SOL    HW2 8780   6.375   8.447   5.936
36252SOL     OW 8781   5.996   8.261   6.837
36252SOL    HW1 8782   6.082   8.273   6.887
36252SOL    HW2 8783   5.954   8.174   6.864
36253SOL     OW 8784   6.860   7.834   6.848
36253SOL    HW1 8785   6.881   7.908   6.912
36253SOL    HW2 8786   6.771   7.851   6.805
36254SOL     OW 8787   5.650   9.012   6.917
36254SOL    HW1 8788   5.604   9.094   6.883
36254SOL    HW2 8789   5.748   9.031   6.926
36255SOL     OW 8790   5.953   8.548   6.087
36255SOL    HW1 8791   5.946   8.631   6.031
36255SOL    HW2 8792   5.957   8.468   6.027
36256SOL     OW 8793   6.152   7.985   6.451
36256SOL    HW1 8794   6.164   8.051   6.377
36256SOL    HW2 8795   6.198   8.019   6.534
36257SOL     OW 8796   6.838   8.796   5.974
36257SOL    HW1 8797   6.888   8.873   6.014
36257SOL    HW2 8798   6.743   8.798   6.006
36258SOL     OW 8799   6.858   8.893   6.728
36258SOL    HW1 8800   6.905   8.906   6.815
36258SOL    HW2 8801   6.792   8.819   6.737
36259SOL     OW 8802   7.168   8.087   6.058
36259SOL    HW1 8803   7.137   8.148   6.131
36259SOL    HW2 8804   7.218   8.139   5.989
36260SOL     OW 8805   5.940   8.958   6.915
36260SOL    HW1 8806   5.919   8.914   6.828
36260SOL    HW2 8807   6.037   8.984   6.918
36261SOL     OW 8808   5.988   8.199   7.184
36261SOL    HW1 8809   6.056   8.254   7.137
36261SOL    HW2 8810   6.028   8.111   7.211
36262SOL     OW 8811   7.173   8.227   7.256
36262SOL    HW1 8812   7.081   8.265   7.251
36262SOL    HW2 8813   7.233   8.274   7.191
36263SOL     OW 8814   6.599   7.553   7.356
36263SOL    HW1 8815   6.605   7.638   7.304
36263SOL    HW2 8816   6.631   7.477   7.299
36264SOL     OW 8817   6.090   7.498   7.326
36264SOL    HW1 8818   6.048   7.441   7.256
36264SOL    HW2 8819   6.024   7.567   7.358
36265SOL     OW 8820   6.159   8.318   6.615
36265SOL    HW1 8821   6.203   8.407   6.606
36265SOL    HW2 8822   6.096   8.318   6.692
36266SOL     OW 8823   6.946   8.310   6.631
36266SOL    HW1 8824   6.871   8.310   6.565
36266SOL    HW2 8825   6.983   8.218   6.640
36267SOL     OW 8826   6.795   7.973   5.861
36267SOL    HW1 8827   6.808   7.889   5.915
36267SOL    HW2 8828   6.766   8.047   5.921
36268SOL     OW 8829   5.893   7.661   6.817
36268SOL    HW1 8830   5.870   7.698   6.907
36268SOL    HW2 8831   5.863   7.566   6.811
36269SOL     OW 8832   5.623   8.758   6.868
36269SOL    HW1 8833   5.676   8.709   6.936
36269SOL    HW2 8834   5.645   8.856   6.873
36270SOL     OW 8835   6.318   8.082   6.650
36270SOL    HW1 8836   6.377   8.056   6.574
36270SOL    HW2 8837   6.290   8.178   6.639
36271SOL     OW 8838   7.314   8.383   7.440
36271SOL    HW1 8839   7.268   8.376   7.351
36271SOL    HW2 8840   7.252   8.427   7.506
36272SOL     OW 8841   5.893   7.511   6.204
36272SOL    HW1 8842   5.882   7.605   6.237
36272SOL    HW2 8843   5.888   7.448   6.281
36273SOL     OW 8844   7.208   7.815   5.960
36273SOL    HW1 8845   7.210   7.739   6.024
36273SOL    HW2 8846   7.160   7.892   6.000
36274SOL     OW 8847   6.609   8.214   6.552
36274SOL    HW1 8848   6.624   8.235   6.648
36274SOL    HW2 8849   6.579   8.119   6.543
36275SOL     OW 8850   6.566   9.021   7.286
36275SOL    HW1 8851   6.546   9.065   7.198
36275SOL    HW2 8852   6.605   8.930   7.270
36276SOL     OW 8853   7.445   8.966   7.191
36276SOL    HW1 8854   7.459   8.993   7.096
36276SOL    HW2 8855   7.528   8.988   7.244
36277SOL     OW 8856   5.936   8.346   7.390
36277SOL    HW1 8857   6.012   8.390   7.438
36277SOL    HW2 8858   5.971   8.299   7.308
36278SOL     OW 8859   7.126   7.722   5.711
36278SOL    HW1 8860   7.065   7.647   5.734
36278SOL    HW2 8861   7.148   7.774   5.794
36279SOL     OW 8862   6.889   8.286   5.628
36279SOL    HW1 8863   6.923   8.193   5.643
36279SOL    HW2 8864   6.907   8.313   5.533
36280SOL     OW 8865   6.654   8.781   6.435
36280SOL    HW1 8866   6.661   8.697   6.380
36280SOL    HW2 8867   6.716   8.850   6.399
36281SOL     OW 8868   5.905   8.258   6.535
36281SOL    HW1 8869   5.998   8.294   6.540
36281SOL    HW2 8870   5.899   8.173   6.587
36282SOL     OW 8871   5.925   7.957   6.592
36282SOL    HW1 8872   5.873   7.874   6.575
36282SOL    HW2 8873   6.002   7.962   6.528
36283SOL     OW 8874   6.724   7.828   7.264
36283SOL    HW1 8875   6.679   7.891   7.328
36283SOL    HW2 8876   6.817   7.859   7.247
36284SOL     OW 8877   6.746   7.655   7.063
36284SOL    HW1 8878   6.746   7.719   7.140
36284SOL    HW2 8879   6.774   7.703   6.980
36285SOL     OW 8880   5.594   8.774   5.786
36285SOL    HW1 8881   5.501   8.795   5.755
36285SOL    HW2 8882   5.604   8.675   5.799
36286SOL     OW 8883   5.674   9.249   6.513
36286SOL    HW1 8884   5.632   9.163   6.486
36286SOL    HW2 8885   5.768   9.252   6.479
36287SOL     OW 8886   6.090   9.016   6.496
36287SOL    HW1 8887   6.156   9.090   6.505
36287SOL    HW2 8888   6.134   8.937   6.454
36288SOL     OW 8889   6.588   8.244   6.824
36288SOL    HW1 8890   6.629   8.212   6.910
36288SOL    HW2 8891   6.492   8.217   6.821
36289SOL     OW 8892   5.626   7.992   6.700
36289SOL    HW1 8893   5.711   7.959   6.659
36289SOL    HW2 8894   5.639   8.007   6.798
36290SOL     OW 8895   5.775   7.968   7.308
36290SOL    HW1 8896   5.834   7.928   7.238
36290SOL    HW2 8897   5.717   8.039   7.267
36291SOL     OW 8898   6.955   8.398   7.246
36291SOL    HW1 8899   6.994   8.487   7.266
36291SOL    HW2 8900   6.965   8.378   7.149
36292SOL     OW 8901   6.401   8.020   5.911
36292SOL    HW1 8902   6.408   7.931   5.865
36292SOL    HW2 8903   6.307   8.054   5.903
36293SOL     OW 8904   7.243   8.052   6.792
36293SOL    HW1 8905   7.205   7.983   6.854
36293SOL    HW2 8906   7.325   8.016   6.748
36294SOL     OW 8907   5.838   9.012   7.330
36294SOL    HW1 8908   5.808   9.069   7.406
36294SOL    HW2 8909   5.831   8.915   7.356
36295SOL     OW 8910   6.257   7.912   6.855
36295SOL    HW1 8911   6.223   7.823   6.825
36295SOL    HW2 8912   6.283   7.966   6.775
36296SOL     OW 8913   6.516   9.126   7.051
36296SOL    HW1 8914   6.492   9.108   6.956
36296SOL    HW2 8915   6.546   9.220   7.061
36297SOL     OW 8916   6.059   7.948   5.777
36297SOL    HW1 8917   6.120   8.028   5.781
36297SOL    HW2 8918   5.964   7.979   5.784
36298SOL     OW 8919   5.745   8.585   7.052
36298SOL    HW1 8920   5.767   8.524   7.128
36298SOL    HW2 8921   5.755   8.536   6.966
36299SOL     OW 8922   6.933   8.507   6.820
36299SOL    HW1 8923   6.957   8.444   6.746
36299SOL    HW2 8924   6.843   8.547   6.802
36300SOL     OW 8925   6.888   8.303   5.895
36300SOL    HW1 8926   6.802   8.272   5.937
36300SOL    HW2 8927   6.884   8.289   5.796
36301SOL     OW 8928   7.345   9.195   6.740
36301SOL    HW1 8929   7.406   9.225   6.667
36301SOL    HW2 8930   7.307   9.106   6.718
36302SOL     OW 8931   6.838   9.179   6.714
36302SOL    HW1 8932   6.922   9.184   6.660
36302SOL    HW2 8933   6.815   9.083   6.732
36303SOL     OW 8934   5.669   8.706   6.608
36303SOL    HW1 8935   5.664   8.705   6.708
36303SOL    HW2 8936   5.586   8.665   6.570
36304SOL     OW 8937   6.274   9.110   7.302
36304SOL    HW1 8938   6.218   9.191   7.311
36304SOL    HW2 8939   6.326   9.114   7.216
36305SOL     OW 8940   7.312   7.583   6.109
36305SOL    HW1 8941   7.385   7.566   6.042
36305SOL    HW2 8942   7.281   7.496   6.147
36306SOL     OW 8943   6.974   9.021   6.063
36306SOL    HW1 8944   7.041   9.033   5.989
36306SOL    HW2 8945   6.934   9.110   6.086
36307SOL     OW 8946   5.716   9.242   7.437
36307SOL    HW1 8947   5.675   9.168   7.490
36307SOL    HW2 8948   5.780   9.293   7.495
36308SOL     OW 8949   6.866   8.375   6.258
36308SOL    HW1 8950   6.926   8.294   6.260
36308SOL    HW2 8951   6.906   8.444   6.198
36309SOL     OW 8952   6.416   8.721   7.008
36309SOL    HW1 8953   6.411   8.754   7.103
36309SOL    HW2 8954   6.330   8.740   6.962
36310SOL     OW 8955   6.258   9.064   5.740
36310SOL    HW1 8956   6.267   9.074   5.641
36310SOL    HW2 8957   6.218   8.975   5.761
36311SOL     OW 8958   7.236   9.168   6.980
36311SOL    HW1 8959   7.289   9.178   6.896
36311SOL    HW2 8960   7.209   9.258   7.014
36312SOL     OW 8961   7.427   7.623   6.549
36312SOL    HW1 8962   7.466   7.538   6.513
36312SOL    HW2 8963   7.329   7.625   6.530
36313SOL     OW 8964   5.849   7.774   6.306
36313SOL    HW1 8965   5.770   7.825   6.272
36313SOL    HW2 8966   5.840   7.759   6.404
36314SOL     OW 8967   6.780   9.060   5.617
36314SOL    HW1 8968   6.786   8.967   5.654
36314SOL    HW2 8969   6.721   9.060   5.537
36315SOL     OW 8970   6.408   8.450   6.958
36315SOL    HW1 8971   6.448   8.449   6.866
36315SOL    HW2 8972   6.418   8.542   6.998
36316SOL     OW 8973   6.502   8.358   5.877
36316SOL    HW1 8974   6.565   8.396   5.809
36316SOL    HW2 8975   6.542   8.275   5.916
36317SOL     OW 8976   7.090   9.055   5.630
36317SOL    HW1 8977   6.998   9.092   5.637
36317SOL    HW2 8978   7.128   9.075   5.540
36318SOL     OW 8979   5.958   8.736   7.076
36318SOL    HW1 8980   5.945   8.829   7.042
36318SOL    HW2 8981   5.874   8.684   7.063
36319SOL     OW 8982   7.200   8.740   6.875
36319SOL    HW1 8983   7.260   8.743   6.955
36319SOL    HW2 8984   7.125   8.804   6.888
36320SOL     OW 8985   6.625   8.546   6.282
36320SOL    HW1 8986   6.555   8.499   6.336
36320SOL    HW2 8987   6.684   8.478   6.239
36321SOL     OW 8988   6.600   7.684   6.557
36321SOL    HW1 8989   6.592   7.648   6.464
36321SOL    HW2 8990   6.598   7.608   6.622
36322SOL     OW 8991   6.176   8.935   6.077
36322SOL    HW1 8992   6.218   8.877   6.007
36322SOL    HW2 8993   6.132   9.014   6.033
36323SOL     OW 8994   7.295   7.833   6.967
36323SOL    HW1 8995   7.368   7.902   6.971
36323SOL    HW2 8996   7.323   7.758   6.908
36324SOL     OW 8997   5.841   8.796   5.876
36324SOL    HW1 8998   5.745   8.797   5.849
36324SOL    HW2 8999   5.853   8.849   5.960
36325SOL     OW 9000   5.691   8.461   7.312
36325SOL    HW1 9001   5.614   8.428   7.366
36325SOL    HW2 9002   5.776   8.431   7.354
36326SOL     OW 9003   6.258   7.651   7.075
36326SOL    HW1 9004   6.348   7.635   7.035
36326SOL    HW2 9005   6.266   7.656   7.174
36327SOL     OW 9006   5.661   7.793   5.619
36327SOL    HW1 9007   5.569   7.765   5.590
36327SOL    HW2 9008   5.692   7.870   5.563
36328SOL     OW 9009   7.026   8.304   6.984
36328SOL    HW1 9010   6.969   8.356   6.921
36328SOL    HW2 9011   7.122   8.316   6.960
36329SOL     OW 9012   5.658   7.614   5.904
36329SOL    HW1 9013   5.641   7.697   5.850
36329SOL    HW2 9014   5.748   7.577   5.882
36330SOL     OW 9015   6.769   8.783   5.705
36330SOL    HW1 9016   6.670   8.772   5.707
36330SOL    HW2 9017   6.803   8.798   5.798
36331SOL     OW 9018   6.199   8.290   7.017
36331SOL    HW1 9019   6.255   8.371   7.000
36331SOL    HW2 9020   6.258   8.210   7.020
36332SOL     OW 9021   7.079   9.215   6.545
36332SOL    HW1 9022   7.112   9.279   6.476
36332SOL    HW2 9023   7.145   9.209   6.620
36333SOL     OW 9024   6.302   8.013   7.294
36333SOL    HW1 9025   6.321   8.078   7.368
36333SOL    HW2 9026   6.362   7.933   7.303
36334SOL     OW 9027   7.036   8.668   7.219
36334SOL    HW1 9028   7.027   8.658   7.318
36334SOL    HW2 9029   7.132   8.661   7.193
36335SOL     OW 9030   5.976   9.189   7.146
36335SOL    HW1 9031   5.885   9.230   7.144
36335SOL    HW2 9032   5.969   9.095   7.178
36336SOL     OW 9033   7.260   8.331   6.840
36336SOL    HW1 9034   7.233   8.242   6.803
36336SOL    HW2 9035   7.261   8.399   6.767
36337SOL     OW 9036   6.811   7.773   6.035
36337SOL    HW1 9037   6.876   7.699   6.024
36337SOL    HW2 9038   6.831   7.823   6.119
36338SOL     OW 9039   6.180   8.193   6.238
36338SOL    HW1 9040   6.230   8.278   6.219
36338SOL    HW2 9041   6.092   8.195   6.190
36339SOL     OW 9042   7.363   7.790   7.228
36339SOL    HW1 9043   7.346   7.821   7.134
36339SOL    HW2 9044   7.279   7.753   7.266
36340SOL     OW 9045   7.316   8.382   7.103
36340SOL    HW1 9046   7.354   8.473   7.118
36340SOL    HW2 9047   7.308   8.365   7.004
36341SOL     OW 9048   6.445   8.822   5.602
36341SOL    HW1 9049   6.399   8.837   5.690
36341SOL    HW2 9050   6.489   8.907   5.572
36342SOL     OW 9051   6.247   9.238   6.539
36342SOL    HW1 9052   6.201   9.326   6.526
36342SOL    HW2 9053   6.346   9.250   6.532
36343SOL     OW 9054   6.445   8.404   6.447
36343SOL    HW1 9055   6.499   8.335   6.495
36343SOL    HW2 9056   6.413   8.473   6.513
36344SOL     OW 9057   6.669   8.432   5.673
36344SOL    HW1 9058   6.646   8.485   5.591
36344SOL    HW2 9059   6.750   8.376   5.654
36345SOL     OW 9060   7.447   9.017   6.437
36345SOL    HW1 9061   7.376   9.005   6.367
36345SOL    HW2 9062   7.448   8.938   6.497
36346SOL     OW 9063   5.807   8.762   7.430
36346SOL    HW1 9064   5.742   8.689   7.409
36346SOL    HW2 9065   5.811   8.776   7.528
36347SOL     OW 9066   5.665   8.688   6.239
36347SOL    HW1 9067   5.664   8.641   6.327
36347SOL    HW2 9068   5.747   8.660   6.188
36348SOL     OW 9069   6.258   8.839   7.210
36348SOL    HW1 9070   6.180   8.789   7.248
36348SOL    HW2 9071   6.255   8.934   7.241
36349SOL     OW 9072   7.410   7.640   6.813
36349SOL    HW1 9073   7.406   7.550   6.857
36349SOL    HW2 9074   7.413   7.629   6.714
36350SOL     OW 9075   6.014   7.872   6.106
36350SOL    HW1 9076   6.044   7.800   6.044
36350SOL    HW2 9077   5.975   7.832   6.189
36351SOL     OW 9078   7.291   8.935   6.690
36351SOL    HW1 9079   7.198   8.910   6.663
36351SOL    HW2 9080   7.317   8.885   6.772
36352SOL     OW 9081   5.903   7.995   6.866
36352SOL    HW1 9082   5.941   7.936   6.938
36352SOL    HW2 9083   5.943   7.969   6.778
36353SOL     OW 9084   6.398   9.034   6.273
36353SOL    HW1 9085   6.430   9.044   6.179
36353SOL    HW2 9086   6.319   8.972   6.275
36354SOL     OW 9087   7.010   7.662   6.698
36354SOL    HW1 9088   7.062   7.597   6.753
36354SOL    HW2 9089   6.961   7.725   6.759
36355SOL     OW 9090   6.587   7.482   6.740
36355SOL    HW1 9091   6.524   7.410   6.709
36355SOL    HW2 9092   6.680   7.446   6.740
36356SOL     OW 9093   6.356   8.778   5.887
36356SOL    HW1 9094   6.310   8.691   5.904
36356SOL    HW2 9095   6.447   8.775   5.928
36357SOL     OW 9096   6.204   9.015   6.870
36357SOL    HW1 9097   6.199   9.097   6.927
36357SOL    HW2 9098   6.293   9.012   6.825
36358SOL     OW 9099   6.938   7.500   5.754
36358SOL    HW1 9100   6.973   7.459   5.670
36358SOL    HW2 9101   6.848   7.462   5.774
36359SOL     OW 9102   6.886   7.901   6.277
36359SOL    HW1 9103   6.827   7.981   6.281
36359SOL    HW2 9104   6.901   7.866   6.370
36360SOL     OW 9105   7.179   7.669   6.468
36360SOL    HW1 9106   7.095   7.668   6.522
36360SOL    HW2 9107   7.181   7.752   6.412
36361SOL     OW 9108   5.625   8.525   5.886
36361SOL    HW1 9109   5.724   8.514   5.877
36361SOL    HW2 9110   5.585   8.439   5.918
36362SOL     OW 9111   6.461   9.094   5.923
36362SOL    HW1 9112   6.384   9.059   5.869
36362SOL    HW2 9113   6.429   9.165   5.985
36363SOL     OW 9114   5.816   8.076   7.561
36363SOL    HW1 9115   5.723   8.074   7.598
36363SOL    HW2 9116   5.817   8.037   7.469
36364SOL     OW 9117   5.811   7.723   8.444
36364SOL    HW1 9118   5.846   7.706   8.536
36364SOL    HW2 9119   5.723   7.678   8.432
36365SOL     OW 9120   5.605   7.816   8.095
36365SOL    HW1 9121   5.523   7.859   8.134
36365SOL    HW2 9122   5.577   7.743   8.032
36366SOL     OW 9123   6.155   8.723   8.613
36366SOL    HW1 9124   6.062   8.716   8.576
36366SOL    HW2 9125   6.166   8.812   8.657
36367SOL     OW 9126   7.141   8.959   8.151
36367SOL    HW1 9127   7.084   8.943   8.232
36367SOL    HW2 9128   7.082   8.969   8.071
36368SOL     OW 9129   6.721   8.151   8.165
36368SOL    HW1 9130   6.778   8.229   8.140
36368SOL    HW2 9131   6.661   8.177   8.241
36369SOL     OW 9132   7.341   8.055   7.679
36369SOL    HW1 9133   7.329   8.042   7.580
36369SOL    HW2 9134   7.311   7.974   7.728
36370SOL     OW 9135   6.354   8.592   8.471
36370SOL    HW1 9136   6.276   8.609   8.531
36370SOL    HW2 9137   6.388   8.679   8.435
36371SOL     OW 9138   6.436   8.246   9.271
36371SOL    HW1 9139   6.432   8.322   9.336
36371SOL    HW2 9140   6.458   8.282   9.180
36372SOL     OW 9141   6.271   8.460   8.113
36372SOL    HW1 9142   6.340   8.444   8.183
36372SOL    HW2 9143   6.198   8.517   8.151
36373SOL     OW 9144   6.272   8.609   9.251
36373SOL    HW1 9145   6.332   8.688   9.265
36373SOL    HW2 9146   6.186   8.640   9.210
36374SOL     OW 9147   5.921   8.883   8.509
36374SOL    HW1 9148   5.843   8.852   8.456
36374SOL    HW2 9149   5.979   8.941   8.452
36375SOL     OW 9150   7.046   8.953   8.787
36375SOL    HW1 9151   7.070   9.047   8.813
36375SOL    HW2 9152   7.030   8.899   8.869
36376SOL     OW 9153   6.024   7.840   8.947
36376SOL    HW1 9154   6.106   7.784   8.956
36376SOL    HW2 9155   5.943   7.782   8.951
36377SOL     OW 9156   7.189   7.895   8.185
36377SOL    HW1 9157   7.115   7.941   8.135
36377SOL    HW2 9158   7.240   7.963   8.238
36378SOL     OW 9159   5.817   9.161   7.931
36378SOL    HW1 9160   5.851   9.238   7.985
36378SOL    HW2 9161   5.861   9.161   7.841
36379SOL     OW 9162   6.713   8.789   9.138
36379SOL    HW1 9163   6.760   8.789   9.226
36379SOL    HW2 9164   6.665   8.702   9.127
36380SOL     OW 9165   5.816   8.882   7.986
36380SOL    HW1 9166   5.790   8.978   7.986
36380SOL    HW2 9167   5.745   8.828   8.031
36381SOL     OW 9168   5.826   8.539   8.334
36381SOL    HW1 9169   5.840   8.455   8.386
36381SOL    HW2 9170   5.771   8.603   8.389
36382SOL     OW 9171   6.206   9.234   8.887
36382SOL    HW1 9172   6.114   9.217   8.922
36382SOL    HW2 9173   6.234   9.326   8.913
36383SOL     OW 9174   6.192   8.412   7.571
36383SOL    HW1 9175   6.199   8.496   7.517
36383SOL    HW2 9176   6.238   8.425   7.659
36384SOL     OW 9177   7.180   7.562   8.928
36384SOL    HW1 9178   7.162   7.629   8.856
36384SOL    HW2 9179   7.177   7.608   9.017
36385SOL     OW 9180   5.708   8.091   8.011
36385SOL    HW1 9181   5.663   8.003   8.028
36385SOL    HW2 9182   5.707   8.145   8.095
36386SOL     OW 9183   7.428   9.215   7.807
36386SOL    HW1 9184   7.482   9.186   7.887
36386SOL    HW2 9185   7.458   9.305   7.778
36387SOL     OW 9186   5.613   9.044   7.565
36387SOL    HW1 9187   5.594   8.948   7.586
36387SOL    HW2 9188   5.580   9.102   7.640
36388SOL     OW 9189   7.275   8.370   8.060
36388SOL    HW1 9190   7.370   8.341   8.068
36388SOL    HW2 9191   7.267   8.435   7.985
36389SOL     OW 9192   7.227   8.556   7.880
36389SOL    HW1 9193   7.313   8.558   7.828
36389SOL    HW2 9194   7.241   8.603   7.968
36390SOL     OW 9195   5.699   8.185   9.045
36390SOL    HW1 9196   5.787   8.172   9.090
36390SOL    HW2 9197   5.686   8.282   9.023
36391SOL     OW 9198   6.199   8.813   8.174
36391SOL    HW1 9199   6.150   8.726   8.183
36391SOL    HW2 9200   6.176   8.856   8.087
36392SOL     OW 9201   6.879   8.676   8.871
36392SOL    HW1 9202   6.916   8.603   8.813
36392SOL    HW2 9203   6.931   8.681   8.956
36393SOL     OW 9204   6.395   7.452   7.950
36393SOL    HW1 9205   6.435   7.543   7.941
36393SOL    HW2 9206   6.295   7.460   7.956
36394SOL     OW 9207   5.783   8.424   8.712
36394SOL    HW1 9208   5.872   8.379   8.698
36394SOL    HW2 9209   5.710   8.359   8.693
36395SOL     OW 9210   7.111   8.447   7.638
36395SOL    HW1 9211   7.048   8.371   7.651
36395SOL    HW2 9212   7.159   8.465   7.724
36396SOL     OW 9213   6.773   9.240   9.064
36396SOL    HW1 9214   6.797   9.300   8.988
36396SOL    HW2 9215   6.780   9.145   9.034
36397SOL     OW 9216   5.903   7.699   9.249
36397SOL    HW1 9217   5.974   7.770   9.255
36397SOL    HW2 9218   5.815   7.738   9.277
36398SOL     OW 9219   7.052   8.865   8.401
36398SOL    HW1 9220   6.993   8.871   8.481
36398SOL    HW2 9221   7.037   8.777   8.355
36399SOL     OW 9222   7.253   9.162   8.020
36399SOL    HW1 9223   7.212   9.139   7.932
36399SOL    HW2 9224   7.235   9.088   8.085
36400SOL     OW 9225   6.184   8.177   7.718
36400SOL    HW1 9226   6.208   8.246   7.650
36400SOL    HW2 9227   6.106   8.210   7.772
36401SOL     OW 9228   6.867   7.793   8.392
36401SOL    HW1 9229   6.781   7.743   8.379
36401SOL    HW2 9230   6.929   7.739   8.448
36402SOL     OW 9231   7.162   9.110   7.755
36402SOL    HW1 9232   7.251   9.156   7.758
36402SOL    HW2 9233   7.141   9.086   7.660
36403SOL     OW 9234   6.393   8.053   8.913
36403SOL    HW1 9235   6.346   8.050   9.002
36403SOL    HW2 9236   6.342   7.998   8.847
36404SOL     OW 9237   6.980   7.917   9.122
36404SOL    HW1 9238   6.960   7.960   9.210
36404SOL    HW2 9239   7.058   7.855   9.131
36405SOL     OW 9240   6.559   8.338   9.020
36405SOL    HW1 9241   6.605   8.254   8.991
36405SOL    HW2 9242   6.503   8.372   8.945
36406SOL     OW 9243   6.577   7.858   8.690
36406SOL    HW1 9244   6.500   7.892   8.744
36406SOL    HW2 9245   6.543   7.807   8.611
36407SOL     OW 9246   6.627   8.149   7.877
36407SOL    HW1 9247   6.653   8.145   7.973
36407SOL    HW2 9248   6.542   8.098   7.863
36408SOL     OW 9249   5.662   8.259   8.237
36408SOL    HW1 9250   5.761   8.247   8.246
36408SOL    HW2 9251   5.638   8.354   8.258
36409SOL     OW 9252   5.716   9.269   9.019
36409SOL    HW1 9253   5.706   9.254   9.118
36409SOL    HW2 9254   5.630   9.305   8.983
36410SOL     OW 9255   6.451   7.796   7.643
36410SOL    HW1 9256   6.510   7.859   7.594
36410SOL    HW2 9257   6.470   7.702   7.614
36411SOL     OW 9258   7.305   8.033   9.279
36411SOL    HW1 9259   7.279   8.122   9.243
36411SOL    HW2 9260   7.303   7.965   9.206
36412SOL     OW 9261   6.948   8.592   7.993
36412SOL    HW1 9262   7.031   8.563   7.945
36412SOL    HW2 9263   6.899   8.659   7.937
36413SOL     OW 9264   6.136   7.644   8.333
36413SOL    HW1 9265   6.131   7.639   8.433
36413SOL    HW2 9266   6.138   7.740   8.304
36414SOL     OW 9267   6.594   8.904   7.925
36414SOL    HW1 9268   6.548   8.976   7.873
36414SOL    HW2 9269   6.590   8.924   8.023
36415SOL     OW 9270   5.937   9.249   8.301
36415SOL    HW1 9271   5.987   9.163   8.307
36415SOL    HW2 9272   6.002   9.326   8.298
36416SOL     OW 9273   7.381   8.514   8.321
36416SOL    HW1 9274   7.319   8.499   8.245
36416SOL    HW2 9275   7.329   8.525   8.406
36417SOL     OW 9276   6.813   8.998   8.954
36417SOL    HW1 9277   6.819   8.921   9.018
36417SOL    HW2 9278   6.761   8.972   8.874
36418SOL     OW 9279   5.907   8.391   7.690
36418SOL    HW1 9280   5.989   8.430   7.648
36418SOL    HW2 9281   5.880   8.309   7.641
36419SOL     OW 9282   7.044   8.183   8.176
36419SOL    HW1 9283   7.039   8.118   8.251
36419SOL    HW2 9284   7.124   8.242   8.189
36420SOL     OW 9285   6.047   8.714   9.175
36420SOL    HW1 9286   5.997   8.715   9.089
36420SOL    HW2 9287   5.984   8.696   9.251
36421SOL     OW 9288   6.697   9.224   7.685
36421SOL    HW1 9289   6.637   9.162   7.735
36421SOL    HW2 9290   6.728   9.180   7.600
36422SOL     OW 9291   5.788   7.733   8.946
36422SOL    HW1 9292   5.708   7.793   8.933
36422SOL    HW2 9293   5.778   7.684   9.032
36423SOL     OW 9294   7.218   8.825   7.529
36423SOL    HW1 9295   7.186   8.919   7.519
36423SOL    HW2 9296   7.142   8.762   7.517
36424SOL     OW 9297   6.050   9.191   7.771
36424SOL    HW1 9298   6.083   9.230   7.857
36424SOL    HW2 9299   6.126   9.184   7.706
36425SOL     OW 9300   6.986   7.555   7.874
36425SOL    HW1 9301   6.962   7.518   7.784
36425SOL    HW2 9302   7.085   7.571   7.878
36426SOL     OW 9303   5.835   9.233   8.689
36426SOL    HW1 9304   5.892   9.168   8.739
36426SOL    HW2 9305   5.819   9.200   8.596
36427SOL     OW 9306   6.526   9.146   8.352
36427SOL    HW1 9307   6.606   9.089   8.373
36427SOL    HW2 9308   6.477   9.106   8.275
36428SOL     OW 9309   5.968   8.148   7.928
36428SOL    HW1 9310   6.013   8.058   7.925
36428SOL    HW2 9311   5.874   8.137   7.961
36429SOL     OW 9312   7.133   7.670   9.177
36429SOL    HW1 9313   7.128   7.707   9.269
36429SOL    HW2 9314   7.061   7.601   9.165
36430SOL     OW 9315   6.200   7.570   7.565
36430SOL    HW1 9316   6.298   7.548   7.572
36430SOL    HW2 9317   6.169   7.553   7.472
36431SOL     OW 9318   6.367   7.712   9.197
36431SOL    HW1 9319   6.434   7.651   9.240
36431SOL    HW2 9320   6.294   7.731   9.262
36432SOL     OW 9321   6.474   8.962   8.643
36432SOL    HW1 9322   6.451   8.937   8.549
36432SOL    HW2 9323   6.535   8.893   8.682
36433SOL     OW 9324   6.937   8.038   8.881
36433SOL    HW1 9325   6.965   7.995   8.966
36433SOL    HW2 9326   6.962   8.134   8.882
36434SOL     OW 9327   6.389   8.850   8.372
36434SOL    HW1 9328   6.479   8.864   8.330
36434SOL    HW2 9329   6.318   8.852   8.301
36435SOL     OW 9330   6.508   7.951   8.347
36435SOL    HW1 9331   6.483   7.942   8.251
36435SOL    HW2 9332   6.556   7.869   8.378
36436SOL     OW 9333   6.125   7.512   7.960
36436SOL    HW1 9334   6.044   7.513   8.018
36436SOL    HW2 9335   6.128   7.595   7.905
36437SOL     OW 9336   7.020   8.636   7.489
36437SOL    HW1 9337   7.052   8.560   7.546
36437SOL    HW2 9338   6.928   8.663   7.519
36438SOL     OW 9339   5.883   7.483   7.619
36438SOL    HW1 9340   5.932   7.567   7.598
36438SOL    HW2 9341   5.945   7.418   7.664
36439SOL     OW 9342   6.521   7.684   7.928
36439SOL    HW1 9343   6.473   7.725   7.850
36439SOL    HW2 9344   6.620   7.682   7.909
36440SOL     OW 9345   6.662   8.131   8.912
36440SOL    HW1 9346   6.582   8.070   8.915
36440SOL    HW2 9347   6.743   8.078   8.888
36441SOL     OW 9348   6.813   9.018   8.241
36441SOL    HW1 9349   6.834   9.092   8.176
36441SOL    HW2 9350   6.881   9.018   8.314
36442SOL     OW 9351   6.045   8.600   8.189
36442SOL    HW1 9352   5.974   8.573   8.254
36442SOL    HW2 9353   6.019   8.572   8.096
36443SOL     OW 9354   6.857   9.245   8.039
36443SOL    HW1 9355   6.901   9.309   7.975
36443SOL    HW2 9356   6.807   9.297   8.109
36444SOL     OW 9357   6.618   7.997   7.464
36444SOL    HW1 9358   6.577   8.079   7.425
36444SOL    HW2 9359   6.682   8.023   7.537
36445SOL     OW 9360   5.664   8.004   8.834
36445SOL    HW1 9361   5.756   8.003   8.793
36445SOL    HW2 9362   5.658   8.078   8.901
36446SOL     OW 9363   6.147   7.670   8.595
36446SOL    HW1 9364   6.185   7.586   8.632
36446SOL    HW2 9365   6.059   7.689   8.639
36447SOL     OW 9366   6.452   7.902   8.090
36447SOL    HW1 9367   6.420   7.974   8.028
36447SOL    HW2 9368   6.476   7.821   8.037
36448SOL     OW 9369   6.603   7.487   8.201
36448SOL    HW1 9370   6.531   7.492   8.132
36448SOL    HW2 9371   6.579   7.418   8.270
36449SOL     OW 9372   7.015   8.621   8.315
36449SOL    HW1 9373   6.960   8.537   8.308
36449SOL    HW2 9374   7.041   8.650   8.223
36450SOL     OW 9375   7.052   8.038   8.440
36450SOL    HW1 9376   7.022   7.943   8.447
36450SOL    HW2 9377   7.125   8.054   8.506
36451SOL     OW 9378   7.443   8.281   7.825
36451SOL    HW1 9379   7.485   8.217   7.889
36451SOL    HW2 9380   7.405   8.230   7.747
36452SOL     OW 9381   6.074   8.833   7.622
36452SOL    HW1 9382   5.987   8.818   7.669
36452SOL    HW2 9383   6.057   8.859   7.527
36453SOL     OW 9384   7.250   8.728   8.105
36453SOL    HW1 9385   7.349   8.736   8.119
36453SOL    HW2 9386   7.205   8.812   8.136
36454SOL     OW 9387   6.976   8.023   7.526
36454SOL    HW1 9388   6.922   8.002   7.607
36454SOL    HW2 9389   7.067   7.982   7.535
36455SOL     OW 9390   6.113   7.704   7.776
36455SOL    HW1 9391   6.140   7.645   7.701
36455SOL    HW2 9392   6.113   7.799   7.745
36456SOL     OW 9393   7.340   8.671   9.036
36456SOL    HW1 9394   7.431   8.632   9.023
36456SOL    HW2 9395   7.348   8.767   9.060
36457SOL     OW 9396   6.650   8.795   8.788
36457SOL    HW1 9397   6.570   8.772   8.843
36457SOL    HW2 9398   6.733   8.769   8.837
36458SOL     OW 9399   7.178   9.077   9.073
36458SOL    HW1 9400   7.205   9.111   8.983
36458SOL    HW2 9401   7.257   9.039   9.119
36459SOL     OW 9402   6.697   8.643   8.548
36459SOL    HW1 9403   6.657   8.687   8.629
36459SOL    HW2 9404   6.656   8.680   8.465
36460SOL     OW 9405   7.224   8.547   8.527
36460SOL    HW1 9406   7.229   8.628   8.586
36460SOL    HW2 9407   7.138   8.549   8.476
36461SOL     OW 9408   6.501   7.537   8.850
36461SOL    HW1 9409   6.526   7.517   8.755
36461SOL    HW2 9410   6.573   7.593   8.892
36462SOL     OW 9411   6.566   8.564   9.167
36462SOL    HW1 9412   6.467   8.570   9.177
36462SOL    HW2 9413   6.589   8.484   9.111
36463SOL     OW 9414   6.291   8.498   7.816
36463SOL    HW1 9415   6.277   8.505   7.915
36463SOL    HW2 9416   6.375   8.447   7.798
36464SOL     OW 9417   5.996   8.261   8.699
36464SOL    HW1 9418   6.082   8.273   8.749
36464SOL    HW2 9419   5.954   8.174   8.726
36465SOL     OW 9420   6.860   7.834   8.710
36465SOL    HW1 9421   6.881   7.908   8.774
36465SOL    HW2 9422   6.771   7.851   8.667
36466SOL     OW 9423   5.650   9.012   8.779
36466SOL    HW1 9424   5.604   9.094   8.745
36466SOL    HW2 9425   5.748   9.031   8.788
36467SOL     OW 9426   5.953   8.548   7.949
36467SOL    HW1 9427   5.946   8.631   7.893
36467SOL    HW2 9428   5.957   8.468   7.889
36468SOL     OW 9429   6.152   7.985   8.313
36468SOL    HW1 9430   6.164   8.051   8.239
36468SOL    HW2 9431   6.198   8.019   8.396
36469SOL     OW 9432   6.838   8.796   7.836
36469SOL    HW1 9433   6.888   8.873   7.876
36469SOL    HW2 9434   6.743   8.798   7.868
36470SOL     OW 9435   6.858   8.893   8.590
36470SOL    HW1 9436   6.905   8.906   8.677
36470SOL    HW2 9437   6.792   8.819   8.599
36471SOL     OW 9438   7.168   8.087   7.920
36471SOL    HW1 9439   7.137   8.148   7.993
36471SOL    HW2 9440   7.218   8.139   7.851
36472SOL     OW 9441   5.940   8.958   8.777
36472SOL    HW1 9442   5.919   8.914   8.690
36472SOL    HW2 9443   6.037   8.984   8.780
36473SOL     OW 9444   5.988   8.199   9.046
36473SOL    HW1 9445   6.056   8.254   8.999
36473SOL    HW2 9446   6.028   8.111   9.073
36474SOL     OW 9447   7.173   8.227   9.118
36474SOL    HW1 9448   7.081   8.265   9.113
36474SOL    HW2 9449   7.233   8.274   9.053
36475SOL     OW 9450   6.599   7.553   9.218
36475SOL    HW1 9451   6.605   7.638   9.166
36475SOL    HW2 9452   6.631   7.477   9.161
36476SOL     OW 9453   6.090   7.498   9.188
36476SOL    HW1 9454   6.048   7.441   9.118
36476SOL    HW2 9455   6.024   7.567   9.220
36477SOL     OW 9456   6.159   8.318   8.477
36477SOL    HW1 9457   6.203   8.407   8.468
36477SOL    HW2 9458   6.096   8.318   8.554
36478SOL     OW 9459   6.946   8.310   8.493
36478SOL    HW1 9460   6.871   8.310   8.427
36478SOL    HW2 9461   6.983   8.218   8.502
36479SOL     OW 9462   6.795   7.973   7.723
36479SOL    HW1 9463   6.808   7.889   7.777
36479SOL    HW2 9464   6.766   8.047   7.783
36480SOL     OW 9465   5.893   7.661   8.679
36480SOL    HW1 9466   5.870   7.698   8.769
36480SOL    HW2 9467   5.863   7.566   8.673
36481SOL     OW 9468   5.623   8.758   8.730
36481SOL    HW1 9469   5.676   8.709   8.798
36481SOL    HW2 9470   5.645   8.856   8.735
36482SOL     OW 9471   6.318   8.082   8.512
36482SOL    HW1 9472   6.377   8.056   8.436
36482SOL    HW2 9473   6.290   8.178   8.501
36483SOL     OW 9474   7.314   8.383   9.302
36483SOL    HW1 9475   7.268   8.376   9.213
36483SOL    HW2 9476   7.252   8.427   9.368
36484SOL     OW 9477   5.893   7.511   8.066
36484SOL    HW1 9478   5.882   7.605   8.099
36484SOL    HW2 9479   5.888   7.448   8.143
36485SOL     OW 9480   7.208   7.815   7.822
36485SOL    HW1 9481   7.210   7.739   7.886
36485SOL    HW2 9482   7.160   7.892   7.862
36486SOL     OW 9483   6.609   8.214   8.414
36486SOL    HW1 9484   6.624   8.235   8.510
36486SOL    HW2 9485   6.579   8.119   8.405
36487SOL     OW 9486   6.566   9.021   9.148
36487SOL    HW1 9487   6.546   9.065   9.060
36487SOL    HW2 9488   6.605   8.930   9.132
36488SOL     OW 9489   7.445   8.966   9.053
36488SOL    HW1 9490   7.459   8.993   8.958
36488SOL    HW2 9491   7.528   8.988   9.106
36489SOL     OW 9492   5.936   8.346   9.252
36489SOL    HW1 9493   6.012   8.390   9.300
36489SOL    HW2 9494   5.971   8.299   9.170
36490SOL     OW 9495   7.126   7.722   7.573
36490SOL    HW1 9496   7.065   7.647   7.596
36490SOL    HW2 9497   7.148   7.774   7.656
36491SOL     OW 9498   6.889   8.286   7.490
36491SOL    HW1 9499   6.923   8.193   7.505
36491SOL    HW2 9500   6.907   8.313   7.395
36492SOL     OW 9501   6.654   8.781   8.297
36492SOL    HW1 9502   6.661   8.697   8.242
36492SOL    HW2 9503   6.716   8.850   8.261
36493SOL     OW 9504   5.905   8.258   8.397
36493SOL    HW1 9505   5.998   8.294   8.402
36493SOL    HW2 9506   5.899   8.173   8.449
36494SOL     OW 9507   5.925   7.957   8.454
36494SOL    HW1 9508   5.873   7.874   8.437
36494SOL    HW2 9509   6.002   7.962   8.390
36495SOL     OW 9510   6.724   7.828   9.126
36495SOL    HW1 9511   6.679   7.891   9.190
36495SOL    HW2 9512   6.817   7.859   9.109
36496SOL     OW 9513   6.746   7.655   8.925
36496SOL    HW1 9514   6.746   7.719   9.002
36496SOL    HW2 9515   6.774   7.703   8.842
36497SOL     OW 9516   5.594   8.774   7.648
36497SOL    HW1 9517   5.501   8.795   7.617
36497SOL    HW2 9518   5.604   8.675   7.661
36498SOL     OW 9519   5.674   9.249   8.375
36498SOL    HW1 9520   5.632   9.163   8.348
36498SOL    HW2 9521   5.768   9.252   8.341
36499SOL     OW 9522   6.090   9.016   8.358
36499SOL    HW1 9523   6.156   9.090   8.367
36499SOL    HW2 9524   6.134   8.937   8.316
36500SOL     OW 9525   6.588   8.244   8.686
36500SOL    HW1 9526   6.629   8.212   8.772
36500SOL    HW2 9527   6.492   8.217   8.683
36501SOL     OW 9528   5.626   7.992   8.562
36501SOL    HW1 9529   5.711   7.959   8.521
36501SOL    HW2 9530   5.639   8.007   8.660
36502SOL     OW 9531   5.775   7.968   9.170
36502SOL    HW1 9532   5.834   7.928   9.100
36502SOL    HW2 9533   5.717   8.039   9.129
36503SOL     OW 9534   6.955   8.398   9.108
36503SOL    HW1 9535   6.994   8.487   9.128
36503SOL    HW2 9536   6.965   8.378   9.011
36504SOL     OW 9537   6.401   8.020   7.773
36504SOL    HW1 9538   6.408   7.931   7.727
36504SOL    HW2 9539   6.307   8.054   7.765
36505SOL     OW 9540   7.243   8.052   8.654
36505SOL    HW1 9541   7.205   7.983   8.716
36505SOL    HW2 9542   7.325   8.016   8.610
36506SOL     OW 9543   5.838   9.012   9.192
36506SOL    HW1 9544   5.808   9.069   9.268
36506SOL    HW2 9545   5.831   8.915   9.218
36507SOL     OW 9546   6.257   7.912   8.717
36507SOL    HW1 9547   6.223   7.823   8.687
36507SOL    HW2 9548   6.283   7.966   8.637
36508SOL     OW 9549   6.516   9.126   8.913
36508SOL    HW1 9550   6.492   9.108   8.818
36508SOL    HW2 9551   6.546   9.220   8.923
36509SOL     OW 9552   6.059   7.948   7.639
36509SOL    HW1 9553   6.120   8.028   7.643
36509SOL    HW2 9554   5.964   7.979   7.646
36510SOL     OW 9555   5.745   8.585   8.914
36510SOL    HW1 9556   5.767   8.524   8.990
36510SOL    HW2 9557   5.755   8.536   8.828
36511SOL     OW 9558   6.933   8.507   8.682
36511SOL    HW1 9559   6.957   8.444   8.608
36511SOL    HW2 9560   6.843   8.547   8.664
36512SOL     OW 9561   6.888   8.303   7.757
36512SOL    HW1 9562   6.802   8.272   7.799
36512SOL    HW2 9563   6.884   8.289   7.658
36513SOL     OW 9564   7.345   9.195   8.602
36513SOL    HW1 9565   7.406   9.225   8.529
36513SOL    HW2 9566   7.307   9.106   8.580
36514SOL     OW 9567   6.838   9.179   8.576
36514SOL    HW1 9568   6.922   9.184   8.522
36514SOL    HW2 9569   6.815   9.083   8.594
36515SOL     OW 9570   5.669   8.706   8.470
36515SOL    HW1 9571   5.664   8.705   8.570
36515SOL    HW2 9572   5.586   8.665   8.432
36516SOL     OW 9573   6.274   9.110   9.164
36516SOL    HW1 9574   6.218   9.191   9.173
36516SOL    HW2 9575   6.326   9.114   9.078
36517SOL     OW 9576   7.312   7.583   7.971
36517SOL    HW1 9577   7.385   7.566   7.904
36517SOL    HW2 9578   7.281   7.496   8.009
36518SOL     OW 9579   6.974   9.021   7.925
36518SOL    HW1 9580   7.041   9.033   7.851
36518SOL    HW2 9581   6.934   9.110   7.948
36519SOL     OW 9582   5.716   9.242   9.299
36519SOL    HW1 9583   5.675   9.168   9.352
36519SOL    HW2 9584   5.780   9.293   9.357
36520SOL     OW 9585   6.866   8.375   8.120
36520SOL    HW1 9586   6.926   8.294   8.122
36520SOL    HW2 9587   6.906   8.444   8.060
36521SOL     OW 9588   6.416   8.721   8.870
36521SOL    HW1 9589   6.411   8.754   8.965
36521SOL    HW2 9590   6.330   8.740   8.824
36522SOL     OW 9591   6.258   9.064   7.602
36522SOL    HW1 9592   6.267   9.074   7.503
36522SOL    HW2 9593   6.218   8.975   7.623
36523SOL     OW 9594   7.236   9.168   8.842
36523SOL    HW1 9595   7.289   9.178   8.758
36523SOL    HW2 9596   7.209   9.258   8.876
36524SOL     OW 9597   7.427   7.623   8.411
36524SOL    HW1 9598   7.466   7.538   8.375
36524SOL    HW2 9599   7.329   7.625   8.392
36525SOL     OW 9600   5.849   7.774   8.168
36525SOL    HW1 9601   5.770   7.825   8.134
36525SOL    HW2 9602   5.840   7.759   8.266
36526SOL     OW 9603   6.780   9.060   7.479
36526SOL    HW1 9604   6.786   8.967   7.516
36526SOL    HW2 9605   6.721   9.060   7.399
36527SOL     OW 9606   6.408   8.450   8.820
36527SOL    HW1 9607   6.448   8.449   8.728
36527SOL    HW2 9608   6.418   8.542   8.860
36528SOL     OW 9609   6.502   8.358   7.739
36528SOL    HW1 9610   6.565   8.396   7.671
36528SOL    HW2 9611   6.542   8.275   7.778
36529SOL     OW 9612   7.090   9.055   7.492
36529SOL    HW1 9613   6.998   9.092   7.499
36529SOL    HW2 9614   7.128   9.075   7.402
36530SOL     OW 9615   5.958   8.736   8.938
36530SOL    HW1 9616   5.945   8.829   8.904
36530SOL    HW2 9617   5.874   8.684   8.925
36531SOL     OW 9618   7.200   8.740   8.737
36531SOL    HW1 9619   7.260   8.743   8.817
36531SOL    HW2 9620   7.125   8.804   8.750
36532SOL     OW 9621   6.625   8.546   8.144
36532SOL    HW1 9622   6.555   8.499   8.198
36532SOL    HW2 9623   6.684   8.478   8.101
36533SOL     OW 9624   6.600   7.684   8.419
36533SOL    HW1 9625   6.592   7.648   8.326
36533SOL    HW2 9626   6.598   7.608   8.484
36534SOL     OW 9627   6.176   8.935   7.939
36534SOL    HW1 9628   6.218   8.877   7.869
36534SOL    HW2 9629   6.132   9.014   7.895
36535SOL     OW 9630   7.295   7.833   8.829
36535SOL    HW1 9631   7.368   7.902   8.833
36535SOL    HW2 9632   7.323   7.758   8.770
36536SOL     OW 9633   5.841   8.796   7.738
36536SOL    HW1 9634   5.745   8.797   7.711
36536SOL    HW2 9635   5.853   8.849   7.822
36537SOL     OW 9636   5.691   8.461   9.174
36537SOL    HW1 9637   5.614   8.428   9.228
36537SOL    HW2 9638   5.776   8.431   9.216
36538SOL     OW 9639   6.258   7.651   8.937
36538SOL    HW1 9640   6.348   7.635   8.897
36538SOL    HW2 9641   6.266   7.656   9.036
36539SOL     OW 9642   5.661   7.793   7.481
36539SOL    HW1 9643   5.569   7.765   7.452
36539SOL    HW2 9644   5.692   7.870   7.425
36540SOL     OW 9645   7.026   8.304   8.846
36540SOL    HW1 9646   6.969   8.356   8.783
36540SOL    HW2 9647   7.122   8.316   8.822
36541SOL     OW 9648   5.658   7.614   7.766
36541SOL    HW1 9649   5.641   7.697   7.712
36541SOL    HW2 9650   5.748   7.577   7.744
36542SOL     OW 9651   6.769   8.783   7.567
36542SOL    HW1 9652   6.670   8.772   7.569
36542SOL    HW2 9653   6.803   8.798   7.660
36543SOL     OW 9654   6.199   8.290   8.879
36543SOL    HW1 9655   6.255   8.371   8.862
36543SOL    HW2 9656   6.258   8.210   8.882
36544SOL     OW 9657   7.079   9.215   8.407
36544SOL    HW1 9658   7.112   9.279   8.338
36544SOL    HW2 9659   7.145   9.209   8.482
36545SOL     OW 9660   6.302   8.013   9.156
36545SOL    HW1 9661   6.321   8.078   9.230
36545SOL    HW2 9662   6.362   7.933   9.165
36546SOL     OW 9663   7.036   8.668   9.081
36546SOL    HW1 9664   7.027   8.658   9.180
36546SOL    HW2 9665   7.132   8.661   9.055
36547SOL     OW 9666   5.976   9.189   9.008
36547SOL    HW1 9667   5.885   9.230   9.006
36547SOL    HW2 9668   5.969   9.095   9.040
36548SOL     OW 9669   7.260   8.331   8.702
36548SOL    HW1 9670   7.233   8.242   8.665
36548SOL    HW2 9671   7.261   8.399   8.629
36549SOL     OW 9672   6.811   7.773   7.897
36549SOL    HW1 9673   6.876   7.699   7.886
36549SOL    HW2 9674   6.831   7.823   7.981
36550SOL     OW 9675   6.180   8.193   8.100
36550SOL    HW1 9676   6.230   8.278   8.081
36550SOL    HW2 9677   6.092   8.195   8.052
36551SOL     OW 9678   7.363   7.790   9.090
36551SOL    HW1 9679   7.346   7.821   8.996
36551SOL    HW2 9680   7.279   7.753   9.128
36552SOL     OW 9681   7.316   8.382   8.965
36552SOL    HW1 9682   7.354   8.473   8.980
36552SOL    HW2 9683   7.308   8.365   8.866
36553SOL     OW 9684   6.445   8.822   7.464
36553SOL    HW1 9685   6.399   8.837   7.552
36553SOL    HW2 9686   6.489   8.907   7.434
36554SOL     OW 9687   6.247   9.238   8.401
36554SOL    HW1 9688   6.201   9.326   8.388
36554SOL    HW2 9689   6.346   9.250   8.394
36555SOL     OW 9690   6.445   8.404   8.309
36555SOL    HW1 9691   6.499   8.335   8.357
36555SOL    HW2 9692   6.413   8.473   8.375
36556SOL     OW 9693   6.669   8.432   7.535
36556SOL    HW1 9694   6.646   8.485   7.453
36556SOL    HW2 9695   6.750   8.376   7.516
36557SOL     OW 9696   7.447   9.017   8.299
36557SOL    HW1 9697   7.376   9.005   8.229
36557SOL    HW2 9698   7.448   8.938   8.359
36558SOL     OW 9699   5.807   8.762   9.292
36558SOL    HW1 9700   5.742   8.689   9.271
36558SOL    HW2 9701   5.811   8.776   9.390
36559SOL     OW 9702   5.665   8.688   8.101
36559SOL    HW1 9703   5.664   8.641   8.189
36559SOL    HW2 9704   5.747   8.660   8.050
36560SOL     OW 9705   6.258   8.839   9.072
36560SOL    HW1 9706   6.180   8.789   9.110
36560SOL    HW2 9707   6.255   8.934   9.103
36561SOL     OW 9708   7.410   7.640   8.675
36561SOL    HW1 9709   7.406   7.550   8.719
36561SOL    HW2 9710   7.413   7.629   8.576
36562SOL     OW 9711   6.014   7.872   7.968
36562SOL    HW1 9712   6.044   7.800   7.906
36562SOL    HW2 9713   5.975   7.832   8.051
36563SOL     OW 9714   7.291   8.935   8.552
36563SOL    HW1 9715   7.198   8.910   8.525
36563SOL    HW2 9716   7.317   8.885   8.634
36564SOL     OW 9717   5.903   7.995   8.728
36564SOL    HW1 9718   5.941   7.936   8.800
36564SOL    HW2 9719   5.943   7.969   8.640
36565SOL     OW 9720   6.398   9.034   8.135
36565SOL    HW1 9721   6.430   9.044   8.041
36565SOL    HW2 9722   6.319   8.972   8.137
36566SOL     OW 9723   7.010   7.662   8.560
36566SOL    HW1 9724   7.062   7.597   8.615
36566SOL    HW2 9725   6.961   7.725   8.621
36567SOL     OW 9726   6.587   7.482   8.602
36567SOL    HW1 9727   6.524   7.410   8.571
36567SOL    HW2 9728   6.680   7.446   8.602
36568SOL     OW 9729   6.356   8.778   7.749
36568SOL    HW1 9730   6.310   8.691   7.766
36568SOL    HW2 9731   6.447   8.775   7.790
36569SOL     OW 9732   6.204   9.015   8.732
36569SOL    HW1 9733   6.199   9.097   8.789
36569SOL    HW2 9734   6.293   9.012   8.687
36570SOL     OW 9735   6.938   7.500   7.616
36570SOL    HW1 9736   6.973   7.459   7.532
36570SOL    HW2 9737   6.848   7.462   7.636
36571SOL     OW 9738   6.886   7.901   8.139
36571SOL    HW1 9739   6.827   7.981   8.143
36571SOL    HW2 9740   6.901   7.866   8.232
36572SOL     OW 9741   7.179   7.669   8.330
36572SOL    HW1 9742   7.095   7.668   8.384
36572SOL    HW2 9743   7.181   7.752   8.274
36573SOL     OW 9744   5.625   8.525   7.748
36573SOL    HW1 9745   5.724   8.514   7.739
36573SOL    HW2 9746   5.585   8.439   7.780
36574SOL     OW 9747   6.461   9.094   7.785
36574SOL    HW1 9748   6.384   9.059   7.731
36574SOL    HW2 9749   6.429   9.165   7.847
36575SOL     OW 9750   5.816   8.076   9.423
36575SOL    HW1 9751   5.723   8.074   9.460
36575SOL    HW2 9752   5.817   8.037   9.331
36576SOL     OW 9753   5.811   7.723  10.306
36576SOL    HW1 9754   5.846   7.706  10.398
36576SOL    HW2 9755   5.723   7.678  10.294
36577SOL     OW 9756   5.605   7.816   9.957
36577SOL    HW1 9757   5.523   7.859   9.996
36577SOL    HW2 9758   5.577   7.743   9.894
36578SOL     OW 9759   6.155   8.723  10.475
36578SOL    HW1 9760   6.062   8.716  10.438
36578SOL    HW2 9761   6.166   8.812  10.519
36579SOL     OW 9762   7.141   8.959  10.013
36579SOL    HW1 9763   7.084   8.943  10.094
36579SOL    HW2 9764   7.082   8.969   9.933
36580SOL     OW 9765   6.721   8.151  10.027
36580SOL    HW1 9766   6.778   8.229  10.002
36580SOL    HW2 9767   6.661   8.177  10.103
36581SOL     OW 9768   7.341   8.055   9.541
36581SOL    HW1 9769   7.329   8.042   9.442
36581SOL    HW2 9770   7.311   7.974   9.590
36582SOL     OW 9771   6.354   8.592  10.333
36582SOL    HW1 9772   6.276   8.609  10.393
36582SOL    HW2 9773   6.388   8.679  10.297
36583SOL     OW 9774   6.436   8.246  11.133
36583SOL    HW1 9775   6.432   8.322  11.198
36583SOL    HW2 9776   6.458   8.282  11.042
36584SOL     OW 9777   6.271   8.460   9.975
36584SOL    HW1 9778   6.340   8.444  10.045
36584SOL    HW2 9779   6.198   8.517  10.013
36585SOL     OW 9780   6.272   8.609  11.113
36585SOL    HW1 9781   6.332   8.688  11.127
36585SOL    HW2 9782   6.186   8.640  11.072
36586SOL     OW 9783   5.921   8.883  10.371
36586SOL    HW1 9784   5.843   8.852  10.318
36586SOL    HW2 9785   5.979   8.941  10.314
36587SOL     OW 9786   7.046   8.953  10.649
36587SOL    HW1 9787   7.070   9.047  10.675
36587SOL    HW2 9788   7.030   8.899  10.731
36588SOL     OW 9789   6.024   7.840  10.809
36588SOL    HW1 9790   6.106   7.784  10.818
36588SOL    HW2 9791   5.943   7.782  10.813
36589SOL     OW 9792   7.189   7.895  10.047
36589SOL    HW1 9793   7.115   7.941   9.997
36589SOL    HW2 9794   7.240   7.963  10.100
36590SOL     OW 9795   5.817   9.161   9.793
36590SOL    HW1 9796   5.851   9.238   9.847
36590SOL    HW2 9797   5.861   9.161   9.703
36591SOL     OW 9798   6.713   8.789  11.000
36591SOL    HW1 9799   6.760   8.789  11.088
36591SOL    HW2 9800   6.665   8.702  10.989
36592SOL     OW 9801   5.816   8.882   9.848
36592SOL    HW1 9802   5.790   8.978   9.848
36592SOL    HW2 9803   5.745   8.828   9.893
36593SOL     OW 9804   5.826   8.539  10.196
36593SOL    HW1 9805   5.840   8.455  10.248
36593SOL    HW2 9806   5.771   8.603  10.251
36594SOL     OW 9807   6.206   9.234  10.749
36594SOL    HW1 9808   6.114   9.217  10.784
36594SOL    HW2 9809   6.234   9.326  10.775
36595SOL     OW 9810   6.192   8.412   9.433
36595SOL    HW1 9811   6.199   8.496   9.379
36595SOL    HW2 9812   6.238   8.425   9.521
36596SOL     OW 9813   7.180   7.562  10.790
36596SOL    HW1 9814   7.162   7.629  10.718
36596SOL    HW2 9815   7.177   7.608  10.879
36597SOL     OW 9816   5.708   8.091   9.873
36597SOL    HW1 9817   5.663   8.003   9.890
36597SOL    HW2 9818   5.707   8.145   9.957
36598SOL     OW 9819   7.428   9.215   9.669
36598SOL    HW1 9820   7.482   9.186   9.749
36598SOL    HW2 9821   7.458   9.305   9.640
36599SOL     OW 9822   5.613   9.044   9.427
36599SOL    HW1 9823   5.594   8.948   9.448
36599SOL    HW2 9824   5.580   9.102   9.502
36600SOL     OW 9825   7.275   8.370   9.922
36600SOL    HW1 9826   7.370   8.341   9.930
36600SOL    HW2 9827   7.267   8.435   9.847
36601SOL     OW 9828   7.227   8.556   9.742
36601SOL    HW1 9829   7.313   8.558   9.690
36601SOL    HW2 9830   7.241   8.603   9.830
36602SOL     OW 9831   5.699   8.185  10.907
36602SOL    HW1 9832   5.787   8.172  10.952
36602SOL    HW2 9833   5.686   8.282  10.885
36603SOL     OW 9834   6.199   8.813  10.036
36603SOL    HW1 9835   6.150   8.726  10.045
36603SOL    HW2 9836   6.176   8.856   9.949
36604SOL     OW 9837   6.879   8.676  10.733
36604SOL    HW1 9838   6.916   8.603  10.675
36604SOL    HW2 9839   6.931   8.681  10.818
36605SOL     OW 9840   6.395   7.452   9.812
36605SOL    HW1 9841   6.435   7.543   9.803
36605SOL    HW2 9842   6.295   7.460   9.818
36606SOL     OW 9843   5.783   8.424  10.574
36606SOL    HW1 9844   5.872   8.379  10.560
36606SOL    HW2 9845   5.710   8.359  10.555
36607SOL     OW 9846   7.111   8.447   9.500
36607SOL    HW1 9847   7.048   8.371   9.513
36607SOL    HW2 9848   7.159   8.465   9.586
36608SOL     OW 9849   6.773   9.240  10.926
36608SOL    HW1 9850   6.797   9.300  10.850
36608SOL    HW2 9851   6.780   9.145  10.896
36609SOL     OW 9852   5.903   7.699  11.111
36609SOL    HW1 9853   5.974   7.770  11.117
36609SOL    HW2 9854   5.815   7.738  11.139
36610SOL     OW 9855   7.052   8.865  10.263
36610SOL    HW1 9856   6.993   8.871  10.343
36610SOL    HW2 9857   7.037   8.777  10.217
36611SOL     OW 9858   7.253   9.162   9.882
36611SOL    HW1 9859   7.212   9.139   9.794
36611SOL    HW2 9860   7.235   9.088   9.947
36612SOL     OW 9861   6.184   8.177   9.580
36612SOL    HW1 9862   6.208   8.246   9.512
36612SOL    HW2 9863   6.106   8.210   9.634
36613SOL     OW 9864   6.867   7.793  10.254
36613SOL    HW1 9865   6.781   7.743  10.241
36613SOL    HW2 9866   6.929   7.739  10.310
36614SOL     OW 9867   7.162   9.110   9.617
36614SOL    HW1 9868   7.251   9.156   9.620
36614SOL    HW2 9869   7.141   9.086   9.522
36615SOL     OW 9870   6.393   8.053  10.775
36615SOL    HW1 9871   6.346   8.050  10.864
36615SOL    HW2 9872   6.342   7.998  10.709
36616SOL     OW 9873   6.980   7.917  10.984
36616SOL    HW1 9874   6.960   7.960  11.072
36616SOL    HW2 9875   7.058   7.855  10.993
36617SOL     OW 9876   6.559   8.338  10.882
36617SOL    HW1 9877   6.605   8.254  10.853
36617SOL    HW2 9878   6.503   8.372  10.807
36618SOL     OW 9879   6.577   7.858  10.552
36618SOL    HW1 9880   6.500   7.892  10.606
36618SOL    HW2 9881   6.543   7.807  10.473
36619SOL     OW 9882   6.627   8.149   9.739
36619SOL    HW1 9883   6.653   8.145   9.835
36619SOL    HW2 9884   6.542   8.098   9.725
36620SOL     OW 9885   5.662   8.259  10.099
36620SOL    HW1 9886   5.761   8.247  10.108
36620SOL    HW2 9887   5.638   8.354  10.120
36621SOL     OW 9888   5.716   9.269  10.881
36621SOL    HW1 9889   5.706   9.254  10.980
36621SOL    HW2 9890   5.630   9.305  10.845
36622SOL     OW 9891   6.451   7.796   9.505
36622SOL    HW1 9892   6.510   7.859   9.456
36622SOL    HW2 9893   6.470   7.702   9.476
36623SOL     OW 9894   7.305   8.033  11.141
36623SOL    HW1 9895   7.279   8.122  11.105
36623SOL    HW2 9896   7.303   7.965  11.068
36624SOL     OW 9897   6.948   8.592   9.855
36624SOL    HW1 9898   7.031   8.563   9.807
36624SOL    HW2 9899   6.899   8.659   9.799
36625SOL     OW 9900   6.136   7.644  10.195
36625SOL    HW1 9901   6.131   7.639  10.295
36625SOL    HW2 9902   6.138   7.740  10.166
36626SOL     OW 9903   6.594   8.904   9.787
36626SOL    HW1 9904   6.548   8.976   9.735
36626SOL    HW2 9905   6.590   8.924   9.885
36627SOL     OW 9906   5.937   9.249  10.163
36627SOL    HW1 9907   5.987   9.163  10.169
36627SOL    HW2 9908   6.002   9.326  10.160
36628SOL     OW 9909   7.381   8.514  10.183
36628SOL    HW1 9910   7.319   8.499  10.107
36628SOL    HW2 9911   7.329   8.525  10.268
36629SOL     OW 9912   6.813   8.998  10.816
36629SOL    HW1 9913   6.819   8.921  10.880
36629SOL    HW2 9914   6.761   8.972  10.736
36630SOL     OW 9915   5.907   8.391   9.552
36630SOL    HW1 9916   5.989   8.430   9.510
36630SOL    HW2 9917   5.880   8.309   9.503
36631SOL     OW 9918   7.044   8.183  10.038
36631SOL    HW1 9919   7.039   8.118  10.113
36631SOL    HW2 9920   7.124   8.242  10.051
36632SOL     OW 9921   6.047   8.714  11.037
36632SOL    HW1 9922   5.997   8.715  10.951
36632SOL    HW2 9923   5.984   8.696  11.113
36633SOL     OW 9924   6.697   9.224   9.547
36633SOL    HW1 9925   6.637   9.162   9.597
36633SOL    HW2 9926   6.728   9.180   9.462
36634SOL     OW 9927   5.788   7.733  10.808
36634SOL    HW1 9928   5.708   7.793  10.795
36634SOL    HW2 9929   5.778   7.684  10.894
36635SOL     OW 9930   7.218   8.825   9.391
36635SOL    HW1 9931   7.186   8.919   9.381
36635SOL    HW2 9932   7.142   8.762   9.379
36636SOL     OW 9933   6.050   9.191   9.633
36636SOL    HW1 9934   6.083   9.230   9.719
36636SOL    HW2 9935   6.126   9.184   9.568
36637SOL     OW 9936   6.986   7.555   9.736
36637SOL    HW1 9937   6.962   7.518   9.646
36637SOL    HW2 9938   7.085   7.571   9.740
36638SOL     OW 9939   5.835   9.233  10.551
36638SOL    HW1 9940   5.892   9.168  10.601
36638SOL    HW2 9941   5.819   9.200  10.458
36639SOL     OW 9942   6.526   9.146  10.214
36639SOL    HW1 9943   6.606   9.089  10.235
36639SOL    HW2 9944   6.477   9.106  10.137
36640SOL     OW 9945   5.968   8.148   9.790
36640SOL    HW1 9946   6.013   8.058   9.787
36640SOL    HW2 9947   5.874   8.137   9.823
36641SOL     OW 9948   7.133   7.670  11.039
36641SOL    HW1 9949   7.128   7.707  11.131
36641SOL    HW2 9950   7.061   7.601  11.027
36642SOL     OW 9951   6.200   7.570   9.427
36642SOL    HW1 9952   6.298   7.548   9.434
36642SOL    HW2 9953   6.169   7.553   9.334
36643SOL     OW 9954   6.367   7.712  11.059
36643SOL    HW1 9955   6.434   7.651  11.102
36643SOL    HW2 9956   6.294   7.731  11.124
36644SOL     OW 9957   6.474   8.962  10.505
36644SOL    HW1 9958   6.451   8.937  10.411
36644SOL    HW2 9959   6.535   8.893  10.544
36645SOL     OW 9960   6.937   8.038  10.743
36645SOL    HW1 9961   6.965   7.995  10.828
36645SOL    HW2 9962   6.962   8.134  10.744
36646SOL     OW 9963   6.389   8.850  10.234
36646SOL    HW1 9964   6.479   8.864  10.192
36646SOL    HW2 9965   6.318   8.852  10.163
36647SOL     OW 9966   6.508   7.951  10.209
36647SOL    HW1 9967   6.483   7.942  10.113
36647SOL    HW2 9968   6.556   7.869  10.240
36648SOL     OW 9969   6.125   7.512   9.822
36648SOL    HW1 9970   6.044   7.513   9.880
36648SOL    HW2 9971   6.128   7.595   9.767
36649SOL     OW 9972   7.020   8.636   9.351
36649SOL    HW1 9973   7.052   8.560   9.408
36649SOL    HW2 9974   6.928   8.663   9.381
36650SOL     OW 9975   5.883   7.483   9.481
36650SOL    HW1 9976   5.932   7.567   9.460
36650SOL    HW2 9977   5.945   7.418   9.526
36651SOL     OW 9978   6.521   7.684   9.790
36651SOL    HW1 9979   6.473   7.725   9.712
36651SOL    HW2 9980   6.620   7.682   9.771
36652SOL     OW 9981   6.662   8.131  10.774
36652SOL    HW1 9982   6.582   8.070  10.777
36652SOL    HW2 9983   6.743   8.078  10.750
36653SOL     OW 9984   6.813   9.018  10.103
36653SOL    HW1 9985   6.834   9.092  10.038
36653SOL    HW2 9986   6.881   9.018  10.176
36654SOL     OW 9987   6.045   8.600  10.051
36654SOL    HW1 9988   5.974   8.573  10.116
36654SOL    HW2 9989   6.019   8.572   9.958
36655SOL     OW 9990   6.857   9.245   9.901
36655SOL    HW1 9991   6.901   9.309   9.837
36655SOL    HW2 9992   6.807   9.297   9.971
36656SOL     OW 9993   6.618   7.997   9.326
36656SOL    HW1 9994   6.577   8.079   9.287
36656SOL    HW2 9995   6.682   8.023   9.399
36657SOL     OW 9996   5.664   8.004  10.696
36657SOL    HW1 9997   5.756   8.003  10.655
36657SOL    HW2 9998   5.658   8.078  10.763
36658SOL     OW 9999   6.147   7.670  10.457
36658SOL    HW110000   6.185   7.586  10.494
36658SOL    HW210001   6.059   7.689  10.501
36659SOL     OW10002   6.452   7.902   9.952
36659SOL    HW110003   6.420   7.974   9.890
36659SOL    HW210004   6.476   7.821   9.899
36660SOL     OW10005   6.603   7.487  10.063
36660SOL    HW110006   6.531   7.492   9.994
36660SOL    HW210007   6.579   7.418  10.132
36661SOL     OW10008   7.015   8.621  10.177
36661SOL    HW110009   6.960   8.537  10.170
36661SOL    HW210010   7.041   8.650  10.085
36662SOL     OW10011   7.052   8.038  10.302
36662SOL    HW110012   7.022   7.943  10.309
36662SOL    HW210013   7.125   8.054  10.368
36663SOL     OW10014   7.443   8.281   9.687
36663SOL    HW110015   7.485   8.217   9.751
36663SOL    HW210016   7.405   8.230   9.609
36664SOL     OW10017   6.074   8.833   9.484
36664SOL    HW110018   5.987   8.818   9.531
36664SOL    HW210019   6.057   8.859   9.389
36665SOL     OW10020   7.250   8.728   9.967
36665SOL    HW110021   7.349   8.736   9.981
36665SOL    HW210022   7.205   8.812   9.998
36666SOL     OW10023   6.976   8.023   9.388
36666SOL    HW110024   6.922   8.002   9.469
36666SOL    HW210025   7.067   7.982   9.397
36667SOL     OW10026   6.113   7.704   9.638
36667SOL    HW110027   6.140   7.645   9.563
36667SOL    HW210028   6.113   7.799   9.607
36668SOL     OW10029   7.340   8.671  10.898
36668SOL    HW110030   7.431   8.632  10.885
36668SOL    HW210031   7.348   8.767  10.922
36669SOL     OW10032   6.650   8.795  10.650
36669SOL    HW110033   6.570   8.772  10.705
36669SOL    HW210034   6.733   8.769  10.699
36670SOL     OW10035   7.178   9.077  10.935
36670SOL    HW110036   7.205   9.111  10.845
36670SOL    HW210037   7.257   9.039  10.981
36671SOL     OW10038   6.697   8.643  10.410
36671SOL    HW110039   6.657   8.687  10.491
36671SOL    HW210040   6.656   8.680  10.327
36672SOL     OW10041   7.224   8.547  10.389
36672SOL    HW110042   7.229   8.628  10.448
36672SOL    HW210043   7.138   8.549  10.338
36673SOL     OW10044   6.501   7.537  10.712
36673SOL    HW110045   6.526   7.517  10.617
36673SOL    HW210046   6.573   7.593  10.754
36674SOL     OW10047   6.566   8.564  11.029
36674SOL    HW110048   6.467   8.570  11.039
36674SOL    HW210049   6.589   8.484  10.973
36675SOL     OW10050   6.291   8.498   9.678
36675SOL    HW110051   6.277   8.505   9.777
36675SOL    HW210052   6.375   8.447   9.660
36676SOL     OW10053   5.996   8.261  10.561
36676SOL    HW110054   6.082   8.273  10.611
36676SOL    HW210055   5.954   8.174  10.588
36677SOL     OW10056   6.860   7.834  10.572
36677SOL    HW110057   6.881   7.908  10.636
36677SOL    HW210058   6.771   7.851  10.529
36678SOL     OW10059   5.650   9.012  10.641
36678SOL    HW110060   5.604   9.094  10.607
36678SOL    HW210061   5.748   9.031  10.650
36679SOL     OW10062   5.953   8.548   9.811
36679SOL    HW110063   5.946   8.631   9.755
36679SOL    HW210064   5.957   8.468   9.751
36680SOL     OW10065   6.152   7.985  10.175
36680SOL    HW110066   6.164   8.051  10.101
36680SOL    HW210067   6.198   8.019  10.258
36681SOL     OW10068   6.838   8.796   9.698
36681SOL    HW110069   6.888   8.873   9.738
36681SOL    HW210070   6.743   8.798   9.730
36682SOL     OW10071   6.858   8.893  10.452
36682SOL    HW110072   6.905   8.906  10.539
36682SOL    HW210073   6.792   8.819  10.461
36683SOL     OW10074   7.168   8.087   9.782
36683SOL    HW110075   7.137   8.148   9.855
36683SOL    HW210076   7.218   8.139   9.713
36684SOL     OW10077   5.940   8.958  10.639
36684SOL    HW110078   5.919   8.914  10.552
36684SOL    HW210079   6.037   8.984  10.642
36685SOL     OW10080   5.988   8.199  10.908
36685SOL    HW110081   6.056   8.254  10.861
36685SOL    HW210082   6.028   8.111  10.935
36686SOL     OW10083   7.173   8.227  10.980
36686SOL    HW110084   7.081   8.265  10.975
36686SOL    HW210085   7.233   8.274  10.915
36687SOL     OW10086   6.599   7.553  11.080
36687SOL    HW110087   6.605   7.638  11.028
36687SOL    HW210088   6.631   7.477  11.023
36688SOL     OW10089   6.090   7.498  11.050
36688SOL    HW110090   6.048   7.441  10.980
36688SOL    HW210091   6.024   7.567  11.082
36689SOL     OW10092   6.159   8.318  10.339
36689SOL    HW110093   6.203   8.407  10.330
36689SOL    HW210094   6.096   8.318  10.416
36690SOL     OW10095   6.946   8.310  10.355
36690SOL    HW110096   6.871   8.310  10.289
36690SOL    HW210097   6.983   8.218  10.364
36691SOL     OW10098   6.795   7.973   9.585
36691SOL    HW110099   6.808   7.889   9.639
36691SOL    HW210100   6.766   8.047   9.645
36692SOL     OW10101   5.893   7.661  10.541
36692SOL    HW110102   5.870   7.698  10.631
36692SOL    HW210103   5.863   7.566  10.535
36693SOL     OW10104   5.623   8.758  10.592
36693SOL    HW110105   5.676   8.709  10.660
36693SOL    HW210106   5.645   8.856  10.597
36694SOL     OW10107   6.318   8.082  10.374
36694SOL    HW110108   6.377   8.056  10.298
36694SOL    HW210109   6.290   8.178  10.363
36695SOL     OW10110   7.314   8.383  11.164
36695SOL    HW110111   7.268   8.376  11.075
36695SOL    HW210112   7.252   8.427  11.230
36696SOL     OW10113   5.893   7.511   9.928
36696SOL    HW110114   5.882   7.605   9.961
36696SOL    HW210115   5.888   7.448  10.005
36697SOL     OW10116   7.208   7.815   9.684
36697SOL    HW110117   7.210   7.739   9.748
36697SOL    HW210118   7.160   7.892   9.724
36698SOL     OW10119   6.609   8.214  10.276
36698SOL    HW110120   6.624   8.235  10.372
36698SOL    HW210121   6.579   8.119  10.267
36699SOL     OW10122   6.566   9.021  11.010
36699SOL    HW110123   6.546   9.065  10.922
36699SOL    HW210124   6.605   8.930  10.994
36700SOL     OW10125   7.445   8.966  10.915
36700SOL    HW110126   7.459   8.993  10.820
36700SOL    HW210127   7.528   8.988  10.968
36701SOL     OW10128   5.936   8.346  11.114
36701SOL    HW110129   6.012   8.390  11.162
36701SOL    HW210130   5.971   8.299  11.032
36702SOL     OW10131   7.126   7.722   9.435
36702SOL    HW110132   7.065   7.647   9.458
36702SOL    HW210133   7.148   7.774   9.518
36703SOL     OW10134   6.889   8.286   9.352
36703SOL    HW110135   6.923   8.193   9.367
36703SOL    HW210136   6.907   8.313   9.257
36704SOL     OW10137   6.654   8.781  10.159
36704SOL    HW110138   6.661   8.697  10.104
36704SOL    HW210139   6.716   8.850  10.123
36705SOL     OW10140   5.905   8.258  10.259
36705SOL    HW110141   5.998   8.294  10.264
36705SOL    HW210142   5.899   8.173  10.311
36706SOL     OW10143   5.925   7.957  10.316
36706SOL    HW110144   5.873   7.874  10.299
36706SOL    HW210145   6.002   7.962  10.252
36707SOL     OW10146   6.724   7.828  10.988
36707SOL    HW110147   6.679   7.891  11.052
36707SOL    HW210148   6.817   7.859  10.971
36708SOL     OW10149   6.746   7.655  10.787
36708SOL    HW110150   6.746   7.719  10.864
36708SOL    HW210151   6.774   7.703  10.704
36709SOL     OW10152   5.594   8.774   9.510
36709SOL    HW110153   5.501   8.795   9.479
36709SOL    HW210154   5.604   8.675   9.523
36710SOL     OW10155   5.674   9.249  10.237
36710SOL    HW110156   5.632   9.163  10.210
36710SOL    HW210157   5.768   9.252  10.203
36711SOL     OW10158   6.090   9.016  10.220
36711SOL    HW110159   6.156   9.090  10.229
36711SOL    HW210160   6.134   8.937  10.178
36712SOL     OW10161   6.588   8.244  10.548
36712SOL    HW110162   6.629   8.212  10.634
36712SOL    HW210163   6.492   8.217  10.545
36713SOL     OW10164   5.626   7.992  10.424
36713SOL    HW110165   5.711   7.959  10.383
36713SOL    HW210166   5.639   8.007  10.522
36714SOL     OW10167   5.775   7.968  11.032
36714SOL    HW110168   5.834   7.928  10.962
36714SOL    HW210169   5.717   8.039  10.991
36715SOL     OW10170   6.955   8.398  10.970
36715SOL    HW110171   6.994   8.487  10.990
36715SOL    HW210172   6.965   8.378  10.873
36716SOL     OW10173   6.401   8.020   9.635
36716SOL    HW110174   6.408   7.931   9.589
36716SOL    HW210175   6.307   8.054   9.627
36717SOL     OW10176   7.243   8.052  10.516
36717SOL    HW110177   7.205   7.983  10.578
36717SOL    HW210178   7.325   8.016  10.472
36718SOL     OW10179   5.838   9.012  11.054
36718SOL    HW110180   5.808   9.069  11.130
36718SOL    HW210181   5.831   8.915  11.080
36719SOL     OW10182   6.257   7.912  10.579
36719SOL    HW110183   6.223   7.823  10.549
36719SOL    HW210184   6.283   7.966  10.499
36720SOL     OW10185   6.516   9.126  10.775
36720SOL    HW110186   6.492   9.108  10.680
36720SOL    HW210187   6.546   9.220  10.785
36721SOL     OW10188   6.059   7.948   9.501
36721SOL    HW110189   6.120   8.028   9.505
36721SOL    HW210190   5.964   7.979   9.508
36722SOL     OW10191   5.745   8.585  10.776
36722SOL    HW110192   5.767   8.524  10.852
36722SOL    HW210193   5.755   8.536  10.690
36723SOL     OW10194   6.933   8.507  10.544
36723SOL    HW110195   6.957   8.444  10.470
36723SOL    HW210196   6.843   8.547  10.526
36724SOL     OW10197   6.888   8.303   9.619
36724SOL    HW110198   6.802   8.272   9.661
36724SOL    HW210199   6.884   8.289   9.520
36725SOL     OW10200   7.345   9.195  10.464
36725SOL    HW110201   7.406   9.225  10.391
36725SOL    HW210202   7.307   9.106  10.442
36726SOL     OW10203   6.838   9.179  10.438
36726SOL    HW110204   6.922   9.184  10.384
36726SOL    HW210205   6.815   9.083  10.456
36727SOL     OW10206   5.669   8.706  10.332
36727SOL    HW110207   5.664   8.705  10.432
36727SOL    HW210208   5.586   8.665  10.294
36728SOL     OW10209   6.274   9.110  11.026
36728SOL    HW110210   6.218   9.191  11.035
36728SOL    HW210211   6.326   9.114  10.940
36729SOL     OW10212   7.312   7.583   9.833
36729SOL    HW110213   7.385   7.566   9.766
36729SOL    HW210214   7.281   7.496   9.871
36730SOL     OW10215   6.974   9.021   9.787
36730SOL    HW110216   7.041   9.033   9.713
36730SOL    HW210217   6.934   9.110   9.810
36731SOL     OW10218   5.716   9.242  11.161
36731SOL    HW110219   5.675   9.168  11.214
36731SOL    HW210220   5.780   9.293  11.219
36732SOL     OW10221   6.866   8.375   9.982
36732SOL    HW110222   6.926   8.294   9.984
36732SOL    HW210223   6.906   8.444   9.922
36733SOL     OW10224   6.416   8.721  10.732
36733SOL    HW110225   6.411   8.754  10.827
36733SOL    HW210226   6.330   8.740  10.686
36734SOL     OW10227   6.258   9.064   9.464
36734SOL    HW110228   6.267   9.074   9.365
36734SOL    HW210229   6.218   8.975   9.485
36735SOL     OW10230   7.236   9.168  10.704
36735SOL    HW110231   7.289   9.178  10.620
36735SOL    HW210232   7.209   9.258  10.738
36736SOL     OW10233   7.427   7.623  10.273
36736SOL    HW110234   7.466   7.538  10.237
36736SOL    HW210235   7.329   7.625  10.254
36737SOL     OW10236   5.849   7.774  10.030
36737SOL    HW110237   5.770   7.825   9.996
36737SOL    HW210238   5.840   7.759  10.128
36738SOL     OW10239   6.780   9.060   9.341
36738SOL    HW110240   6.786   8.967   9.378
36738SOL    HW210241   6.721   9.060   9.261
36739SOL     OW10242   6.408   8.450  10.682
36739SOL    HW110243   6.448   8.449  10.590
36739SOL    HW210244   6.418   8.542  10.722
36740SOL     OW10245   6.502   8.358   9.601
36740SOL    HW110246   6.565   8.396   9.533
36740SOL    HW210247   6.542   8.275   9.640
36741SOL     OW10248   7.090   9.055   9.354
36741SOL    HW110249   6.998   9.092   9.361
36741SOL    HW210250   7.128   9.075   9.264
36742SOL     OW10251   5.958   8.736  10.800
36742SOL    HW110252   5.945   8.829  10.766
36742SOL    HW210253   5.874   8.684  10.787
36743SOL     OW10254   7.200   8.740  10.599
36743SOL    HW110255   7.260   8.743  10.679
36743SOL    HW210256   7.125   8.804  10.612
36744SOL     OW10257   6.625   8.546  10.006
36744SOL    HW110258   6.555   8.499  10.060
36744SOL    HW210259   6.684   8.478   9.963
36745SOL     OW10260   6.600   7.684  10.281
36745SOL    HW110261   6.592   7.648  10.188
36745SOL    HW210262   6.598   7.608  10.346
36746SOL     OW10263   6.176   8.935   9.801
36746SOL    HW110264   6.218   8.877   9.731
36746SOL    HW210265   6.132   9.014   9.757
36747SOL     OW10266   7.295   7.833  10.691
36747SOL    HW110267   7.368   7.902  10.695
36747SOL    HW210268   7.323   7.758  10.632
36748SOL     OW10269   5.841   8.796   9.600
36748SOL    HW110270   5.745   8.797   9.573
36748SOL    HW210271   5.853   8.849   9.684
36749SOL     OW10272   5.691   8.461  11.036
36749SOL    HW110273   5.614   8.428  11.090
36749SOL    HW210274   5.776   8.431  11.078
36750SOL     OW10275   6.258   7.651  10.799
36750SOL    HW110276   6.348   7.635  10.759
36750SOL    HW210277   6.266   7.656  10.898
36751SOL     OW10278   5.661   7.793   9.343
36751SOL    HW110279   5.569   7.765   9.314
36751SOL    HW210280   5.692   7.870   9.287
36752SOL     OW10281   7.026   8.304  10.708
36752SOL    HW110282   6.969   8.356  10.645
36752SOL    HW210283   7.122   8.316  10.684
36753SOL     OW10284   5.658   7.614   9.628
36753SOL    HW110285   5.641   7.697   9.574
36753SOL    HW210286   5.748   7.577   9.606
36754SOL     OW10287   6.769   8.783   9.429
36754SOL    HW110288   6.670   8.772   9.431
36754SOL    HW210289   6.803   8.798   9.522
36755SOL     OW10290   6.199   8.290  10.741
36755SOL    HW110291   6.255   8.371  10.724
36755SOL    HW210292   6.258   8.210  10.744
36756SOL     OW10293   7.079   9.215  10.269
36756SOL    HW110294   7.112   9.279  10.200
36756SOL    HW210295   7.145   9.209  10.344
36757SOL     OW10296   6.302   8.013  11.018
36757SOL    HW110297   6.321   8.078  11.092
36757SOL    HW210298   6.362   7.933  11.027
36758SOL     OW10299   7.036   8.668  10.943
36758SOL    HW110300   7.027   8.658  11.042
36758SOL    HW210301   7.132   8.661  10.917
36759SOL     OW10302   5.976   9.189  10.870
36759SOL    HW110303   5.885   9.230  10.868
36759SOL    HW210304   5.969   9.095  10.902
36760SOL     OW10305   7.260   8.331  10.564
36760SOL    HW110306   7.233   8.242  10.527
36760SOL    HW210307   7.261   8.399  10.491
36761SOL     OW10308   6.811   7.773   9.759
36761SOL    HW110309   6.876   7.699   9.748
36761SOL    HW210310   6.831   7.823   9.843
36762SOL     OW10311   6.180   8.193   9.962
36762SOL    HW110312   6.230   8.278   9.943
36762SOL    HW210313   6.092   8.195   9.914
36763SOL     OW10314   7.363   7.790  10.952
36763SOL    HW110315   7.346   7.821  10.858
36763SOL    HW210316   7.279   7.753  10.990
36764SOL     OW10317   7.316   8.382  10.827
36764SOL    HW110318   7.354   8.473  10.842
36764SOL    HW210319   7.308   8.365  10.728
36765SOL     OW10320   6.445   8.822   9.326
36765SOL    HW110321   6.399   8.837   9.414
36765SOL    HW210322   6.489   8.907   9.296
36766SOL     OW10323   6.247   9.238  10.263
36766SOL    HW110324   6.201   9.326  10.250
36766SOL    HW210325   6.346   9.250  10.256
36767SOL     OW10326   6.445   8.404  10.171
36767SOL    HW110327   6.499   8.335  10.219
36767SOL    HW210328   6.413   8.473  10.237
36768SOL     OW10329   6.669   8.432   9.397
36768SOL    HW110330   6.646   8.485   9.315
36768SOL    HW210331   6.750   8.376   9.378
36769SOL     OW10332   7.447   9.017  10.161
36769SOL    HW110333   7.376   9.005  10.091
36769SOL    HW210334   7.448   8.938  10.221
36770SOL     OW10335   5.807   8.762  11.154
36770SOL    HW110336   5.742   8.689  11.133
36770SOL    HW210337   5.811   8.776  11.252
36771SOL     OW10338   5.665   8.688   9.963
36771SOL    HW110339   5.664   8.641  10.051
36771SOL    HW210340   5.747   8.660   9.912
36772SOL     OW10341   6.258   8.839  10.934
36772SOL    HW110342   6.180   8.789  10.972
36772SOL    HW210343   6.255   8.934  10.965
36773SOL     OW10344   7.410   7.640  10.537
36773SOL    HW110345   7.406   7.550  10.581
36773SOL    HW210346   7.413   7.629  10.438
36774SOL     OW10347   6.014   7.872   9.830
36774SOL    HW110348   6.044   7.800   9.768
36774SOL    HW210349   5.975   7.832   9.913
36775SOL     OW10350   7.291   8.935  10.414
36775SOL    HW110351   7.198   8.910  10.387
36775SOL    HW210352   7.317   8.885  10.496
36776SOL     OW10353   5.903   7.995  10.590
36776SOL    HW110354   5.941   7.936  10.662
36776SOL    HW210355   5.943   7.969  10.502
36777SOL     OW10356   6.398   9.034   9.997
36777SOL    HW110357   6.430   9.044   9.903
36777SOL    HW210358   6.319   8.972   9.999
36778SOL     OW10359   7.010   7.662  10.422
36778SOL    HW110360   7.062   7.597  10.477
36778SOL    HW210361   6.961   7.725  10.483
36779SOL     OW10362   6.587   7.482  10.464
36779SOL    HW110363   6.524   7.410  10.433
36779SOL    HW210364   6.680   7.446  10.464
36780SOL     OW10365   6.356   8.778   9.611
36780SOL    HW110366   6.310   8.691   9.628
36780SOL    HW210367   6.447   8.775   9.652
36781SOL     OW10368   6.204   9.015  10.594
36781SOL    HW110369   6.199   9.097  10.651
36781SOL    HW210370   6.293   9.012  10.549
36782SOL     OW10371   6.938   7.500   9.478
36782SOL    HW110372   6.973   7.459   9.394
36782SOL    HW210373   6.848   7.462   9.498
36783SOL     OW10374   6.886   7.901  10.001
36783SOL    HW110375   6.827   7.981  10.005
36783SOL    HW210376   6.901   7.866  10.094
36784SOL     OW10377   7.179   7.669  10.192
36784SOL    HW110378   7.095   7.668  10.246
36784SOL    HW210379   7.181   7.752  10.136
36785SOL     OW10380   5.625   8.525   9.610
36785SOL    HW110381   5.724   8.514   9.601
36785SOL    HW210382   5.585   8.439   9.642
36786SOL     OW10383   6.461   9.094   9.647
36786SOL    HW110384   6.384   9.059   9.593
36786SOL    HW210385   6.429   9.165   9.709
36787SOL     OW10386   5.816   8.076  11.285
36787SOL    HW110387   5.723   8.074  11.322
36787SOL    HW210388   5.817   8.037  11.193
36788SOL     OW10389   5.811   7.723  12.168
36788SOL    HW110390   5.846   7.706  12.260
36788SOL    HW210391   5.723   7.678  12.156
36789SOL     OW10392   5.605   7.816  11.819
36789SOL    HW110393   5.523   7.859  11.858
36789SOL    HW210394   5.577   7.743  11.756
36790SOL     OW10395   6.155   8.723  12.337
36790SOL    HW110396   6.062   8.716  12.300
36790SOL    HW210397   6.166   8.812  12.381
36791SOL     OW10398   7.141   8.959  11.875
36791SOL    HW110399   7.084   8.943  11.956
36791SOL    HW210400   7.082   8.969  11.795
36792SOL     OW10401   6.721   8.151  11.889
36792SOL    HW110402   6.778   8.229  11.864
36792SOL    HW210403   6.661   8.177  11.965
36793SOL     OW10404   7.341   8.055  11.403
36793SOL    HW110405   7.329   8.042  11.304
36793SOL    HW210406   7.311   7.974  11.452
36794SOL     OW10407   6.354   8.592  12.195
36794SOL    HW110408   6.276   8.609  12.255
36794SOL    HW210409   6.388   8.679  12.159
36795SOL     OW10410   6.271   8.460  11.837
36795SOL    HW110411   6.340   8.444  11.907
36795SOL    HW210412   6.198   8.517  11.875
36796SOL     OW10413   5.921   8.883  12.233
36796SOL    HW110414   5.843   8.852  12.180
36796SOL    HW210415   5.979   8.941  12.176
36797SOL     OW10416   7.046   8.953  12.511
36797SOL    HW110417   7.070   9.047  12.537
36797SOL    HW210418   7.030   8.899  12.593
36798SOL     OW10419   6.024   7.840  12.671
36798SOL    HW110420   6.106   7.784  12.680
36798SOL    HW210421   5.943   7.782  12.675
36799SOL     OW10422   7.189   7.895  11.909
36799SOL    HW110423   7.115   7.941  11.859
36799SOL    HW210424   7.240   7.963  11.962
36800SOL     OW10425   5.817   9.161  11.655
36800SOL    HW110426   5.851   9.238  11.709
36800SOL    HW210427   5.861   9.161  11.565
36801SOL     OW10428   5.816   8.882  11.710
36801SOL    HW110429   5.790   8.978  11.710
36801SOL    HW210430   5.745   8.828  11.755
36802SOL     OW10431   5.826   8.539  12.058
36802SOL    HW110432   5.840   8.455  12.110
36802SOL    HW210433   5.771   8.603  12.113
36803SOL     OW10434   6.206   9.234  12.611
36803SOL    HW110435   6.114   9.217  12.646
36803SOL    HW210436   6.234   9.326  12.637
36804SOL     OW10437   6.192   8.412  11.295
36804SOL    HW110438   6.199   8.496  11.241
36804SOL    HW210439   6.238   8.425  11.383
36805SOL     OW10440   7.180   7.562  12.652
36805SOL    HW110441   7.162   7.629  12.580
36805SOL    HW210442   7.177   7.608  12.741
36806SOL     OW10443   5.708   8.091  11.735
36806SOL    HW110444   5.663   8.003  11.752
36806SOL    HW210445   5.707   8.145  11.819
36807SOL     OW10446   7.428   9.215  11.531
36807SOL    HW110447   7.482   9.186  11.611
36807SOL    HW210448   7.458   9.305  11.502
36808SOL     OW10449   5.613   9.044  11.289
36808SOL    HW110450   5.594   8.948  11.310
36808SOL    HW210451   5.580   9.102  11.364
36809SOL     OW10452   7.275   8.370  11.784
36809SOL    HW110453   7.370   8.341  11.792
36809SOL    HW210454   7.267   8.435  11.709
36810SOL     OW10455   7.227   8.556  11.604
36810SOL    HW110456   7.313   8.558  11.552
36810SOL    HW210457   7.241   8.603  11.692
36811SOL     OW10458   6.199   8.813  11.898
36811SOL    HW110459   6.150   8.726  11.907
36811SOL    HW210460   6.176   8.856  11.811
36812SOL     OW10461   6.395   7.452  11.674
36812SOL    HW110462   6.435   7.543  11.665
36812SOL    HW210463   6.295   7.460  11.680
36813SOL     OW10464   5.783   8.424  12.436
36813SOL    HW110465   5.872   8.379  12.422
36813SOL    HW210466   5.710   8.359  12.417
36814SOL     OW10467   7.111   8.447  11.362
36814SOL    HW110468   7.048   8.371  11.375
36814SOL    HW210469   7.159   8.465  11.448
36815SOL     OW10470   5.903   7.699  12.973
36815SOL    HW110471   5.974   7.770  12.979
36815SOL    HW210472   5.815   7.738  13.001
36816SOL     OW10473   7.052   8.865  12.125
36816SOL    HW110474   6.993   8.871  12.205
36816SOL    HW210475   7.037   8.777  12.079
36817SOL     OW10476   7.253   9.162  11.744
36817SOL    HW110477   7.212   9.139  11.656
36817SOL    HW210478   7.235   9.088  11.809
36818SOL     OW10479   6.184   8.177  11.442
36818SOL    HW110480   6.208   8.246  11.374
36818SOL    HW210481   6.106   8.210  11.496
36819SOL     OW10482   6.867   7.793  12.116
36819SOL    HW110483   6.781   7.743  12.103
36819SOL    HW210484   6.929   7.739  12.172
36820SOL     OW10485   7.162   9.110  11.479
36820SOL    HW110486   7.251   9.156  11.482
36820SOL    HW210487   7.141   9.086  11.384
36821SOL     OW10488   6.393   8.053  12.637
36821SOL    HW110489   6.346   8.050  12.726
36821SOL    HW210490   6.342   7.998  12.571
36822SOL     OW10491   6.577   7.858  12.414
36822SOL    HW110492   6.500   7.892  12.468
36822SOL    HW210493   6.543   7.807  12.335
36823SOL     OW10494   6.627   8.149  11.601
36823SOL    HW110495   6.653   8.145  11.697
36823SOL    HW210496   6.542   8.098  11.587
36824SOL     OW10497   5.662   8.259  11.961
36824SOL    HW110498   5.761   8.247  11.970
36824SOL    HW210499   5.638   8.354  11.982
36825SOL     OW10500   5.716   9.269  12.743
36825SOL    HW110501   5.706   9.254  12.842
36825SOL    HW210502   5.630   9.305  12.707
36826SOL     OW10503   6.451   7.796  11.367
36826SOL    HW110504   6.510   7.859  11.318
36826SOL    HW210505   6.470   7.702  11.338
36827SOL     OW10506   6.948   8.592  11.717
36827SOL    HW110507   7.031   8.563  11.669
36827SOL    HW210508   6.899   8.659  11.661
36828SOL     OW10509   6.136   7.644  12.057
36828SOL    HW110510   6.131   7.639  12.157
36828SOL    HW210511   6.138   7.740  12.028
36829SOL     OW10512   6.594   8.904  11.649
36829SOL    HW110513   6.548   8.976  11.597
36829SOL    HW210514   6.590   8.924  11.747
36830SOL     OW10515   5.937   9.249  12.025
36830SOL    HW110516   5.987   9.163  12.031
36830SOL    HW210517   6.002   9.326  12.022
36831SOL     OW10518   7.381   8.514  12.045
36831SOL    HW110519   7.319   8.499  11.969
36831SOL    HW210520   7.329   8.525  12.130
36832SOL     OW10521   5.907   8.391  11.414
36832SOL    HW110522   5.989   8.430  11.372
36832SOL    HW210523   5.880   8.309  11.365
36833SOL     OW10524   7.044   8.183  11.900
36833SOL    HW110525   7.039   8.118  11.975
36833SOL    HW210526   7.124   8.242  11.913
36834SOL     OW10527   6.697   9.224  11.409
36834SOL    HW110528   6.637   9.162  11.459
36834SOL    HW210529   6.728   9.180  11.324
36835SOL     OW10530   5.788   7.733  12.670
36835SOL    HW110531   5.708   7.793  12.657
36835SOL    HW210532   5.778   7.684  12.756
36836SOL     OW10533   7.218   8.825  11.253
36836SOL    HW110534   7.186   8.919  11.243
36836SOL    HW210535   7.142   8.762  11.241
36837SOL     OW10536   6.050   9.191  11.495
36837SOL    HW110537   6.083   9.230  11.581
36837SOL    HW210538   6.126   9.184  11.430
36838SOL     OW10539   6.986   7.555  11.598
36838SOL    HW110540   6.962   7.518  11.508
36838SOL    HW210541   7.085   7.571  11.602
36839SOL     OW10542   5.835   9.233  12.413
36839SOL    HW110543   5.892   9.168  12.463
36839SOL    HW210544   5.819   9.200  12.320
36840SOL     OW10545   6.526   9.146  12.076
36840SOL    HW110546   6.606   9.089  12.097
36840SOL    HW210547   6.477   9.106  11.999
36841SOL     OW10548   5.968   8.148  11.652
36841SOL    HW110549   6.013   8.058  11.649
36841SOL    HW210550   5.874   8.137  11.685
36842SOL     OW10551   6.200   7.570  11.289
36842SOL    HW110552   6.298   7.548  11.296
36842SOL    HW210553   6.169   7.553  11.196
36843SOL     OW10554   6.474   8.962  12.367
36843SOL    HW110555   6.451   8.937  12.273
36843SOL    HW210556   6.535   8.893  12.406
36844SOL     OW10557   6.389   8.850  12.096
36844SOL    HW110558   6.479   8.864  12.054
36844SOL    HW210559   6.318   8.852  12.025
36845SOL     OW10560   6.508   7.951  12.071
36845SOL    HW110561   6.483   7.942  11.975
36845SOL    HW210562   6.556   7.869  12.102
36846SOL     OW10563   6.125   7.512  11.684
36846SOL    HW110564   6.044   7.513  11.742
36846SOL    HW210565   6.128   7.595  11.629
36847SOL     OW10566   7.020   8.636  11.213
36847SOL    HW110567   7.052   8.560  11.270
36847SOL    HW210568   6.928   8.663  11.243
36848SOL     OW10569   5.883   7.483  11.343
36848SOL    HW110570   5.932   7.567  11.322
36848SOL    HW210571   5.945   7.418  11.388
36849SOL     OW10572   6.521   7.684  11.652
36849SOL    HW110573   6.473   7.725  11.574
36849SOL    HW210574   6.620   7.682  11.633
36850SOL     OW10575   6.813   9.018  11.965
36850SOL    HW110576   6.834   9.092  11.900
36850SOL    HW210577   6.881   9.018  12.038
36851SOL     OW10578   6.045   8.600  11.913
36851SOL    HW110579   5.974   8.573  11.978
36851SOL    HW210580   6.019   8.572  11.820
36852SOL     OW10581   6.857   9.245  11.763
36852SOL    HW110582   6.901   9.309  11.699
36852SOL    HW210583   6.807   9.297  11.833
36853SOL     OW10584   6.618   7.997  11.188
36853SOL    HW110585   6.577   8.079  11.149
36853SOL    HW210586   6.682   8.023  11.261
36854SOL     OW10587   5.664   8.004  12.558
36854SOL    HW110588   5.756   8.003  12.517
36854SOL    HW210589   5.658   8.078  12.625
36855SOL     OW10590   6.147   7.670  12.319
36855SOL    HW110591   6.185   7.586  12.356
36855SOL    HW210592   6.059   7.689  12.363
36856SOL     OW10593   6.452   7.902  11.814
36856SOL    HW110594   6.420   7.974  11.752
36856SOL    HW210595   6.476   7.821  11.761
36857SOL     OW10596   6.603   7.487  11.925
36857SOL    HW110597   6.531   7.492  11.856
36857SOL    HW210598   6.579   7.418  11.994
36858SOL     OW10599   7.015   8.621  12.039
36858SOL    HW110600   6.960   8.537  12.032
36858SOL    HW210601   7.041   8.650  11.947
36859SOL     OW10602   7.052   8.038  12.164
36859SOL    HW110603   7.022   7.943  12.171
36859SOL    HW210604   7.125   8.054  12.230
36860SOL     OW10605   7.443   8.281  11.549
36860SOL    HW110606   7.485   8.217  11.613
36860SOL    HW210607   7.405   8.230  11.471
36861SOL     OW10608   6.074   8.833  11.346
36861SOL    HW110609   5.987   8.818  11.393
36861SOL    HW210610   6.057   8.859  11.251
36862SOL     OW10611   7.250   8.728  11.829
36862SOL    HW110612   7.349   8.736  11.843
36862SOL    HW210613   7.205   8.812  11.860
36863SOL     OW10614   6.976   8.023  11.250
36863SOL    HW110615   6.922   8.002  11.331
36863SOL    HW210616   7.067   7.982  11.259
36864SOL     OW10617   6.113   7.704  11.500
36864SOL    HW110618   6.140   7.645  11.425
36864SOL    HW210619   6.113   7.799  11.469
36865SOL     OW10620   6.650   8.795  12.512
36865SOL    HW110621   6.570   8.772  12.567
36865SOL    HW210622   6.733   8.769  12.561
36866SOL     OW10623   6.697   8.643  12.272
36866SOL    HW110624   6.657   8.687  12.353
36866SOL    HW210625   6.656   8.680  12.189
36867SOL     OW10626   7.224   8.547  12.251
36867SOL    HW110627   7.229   8.628  12.310
36867SOL    HW210628   7.138   8.549  12.200
36868SOL     OW10629   6.501   7.537  12.574
36868SOL    HW110630   6.526   7.517  12.479
36868SOL    HW210631   6.573   7.593  12.616
36869SOL     OW10632   6.291   8.498  11.540
36869SOL    HW110633   6.277   8.505  11.639
36869SOL    HW210634   6.375   8.447  11.522
36870SOL     OW10635   5.996   8.261  12.423
36870SOL    HW110636   6.082   8.273  12.473
36870SOL    HW210637   5.954   8.174  12.450
36871SOL     OW10638   6.860   7.834  12.434
36871SOL    HW110639   6.881   7.908  12.498
36871SOL    HW210640   6.771   7.851  12.391
36872SOL     OW10641   5.650   9.012  12.503
36872SOL    HW110642   5.604   9.094  12.469
36872SOL    HW210643   5.748   9.031  12.512
36873SOL     OW10644   5.953   8.548  11.673
36873SOL    HW110645   5.946   8.631  11.617
36873SOL    HW210646   5.957   8.468  11.613
36874SOL     OW10647   6.152   7.985  12.037
36874SOL    HW110648   6.164   8.051  11.963
36874SOL    HW210649   6.198   8.019  12.120
36875SOL     OW10650   6.838   8.796  11.560
36875SOL    HW110651   6.888   8.873  11.600
36875SOL    HW210652   6.743   8.798  11.592
36876SOL     OW10653   6.858   8.893  12.314
36876SOL    HW110654   6.905   8.906  12.401
36876SOL    HW210655   6.792   8.819  12.323
36877SOL     OW10656   7.168   8.087  11.644
36877SOL    HW110657   7.137   8.148  11.717
36877SOL    HW210658   7.218   8.139  11.575
36878SOL     OW10659   5.940   8.958  12.501
36878SOL    HW110660   5.919   8.914  12.414
36878SOL    HW210661   6.037   8.984  12.504
36879SOL     OW10662   5.988   8.199  12.770
36879SOL    HW110663   6.056   8.254  12.723
36879SOL    HW210664   6.028   8.111  12.797
36880SOL     OW10665   7.173   8.227  12.842
36880SOL    HW110666   7.081   8.265  12.837
36880SOL    HW210667   7.233   8.274  12.777
36881SOL     OW10668   6.159   8.318  12.201
36881SOL    HW110669   6.203   8.407  12.192
36881SOL    HW210670   6.096   8.318  12.278
36882SOL     OW10671   6.946   8.310  12.217
36882SOL    HW110672   6.871   8.310  12.151
36882SOL    HW210673   6.983   8.218  12.226
36883SOL     OW10674   6.795   7.973  11.447
36883SOL    HW110675   6.808   7.889  11.501
36883SOL    HW210676   6.766   8.047  11.507
36884SOL     OW10677   5.893   7.661  12.403
36884SOL    HW110678   5.870   7.698  12.493
36884SOL    HW210679   5.863   7.566  12.397
36885SOL     OW10680   5.623   8.758  12.454
36885SOL    HW110681   5.676   8.709  12.522
36885SOL    HW210682   5.645   8.856  12.459
36886SOL     OW10683   6.318   8.082  12.236
36886SOL    HW110684   6.377   8.056  12.160
36886SOL    HW210685   6.290   8.178  12.225
36887SOL     OW10686   5.893   7.511  11.790
36887SOL    HW110687   5.882   7.605  11.823
36887SOL    HW210688   5.888   7.448  11.867
36888SOL     OW10689   7.208   7.815  11.546
36888SOL    HW110690   7.210   7.739  11.610
36888SOL    HW210691   7.160   7.892  11.586
36889SOL     OW10692   6.609   8.214  12.138
36889SOL    HW110693   6.624   8.235  12.234
36889SOL    HW210694   6.579   8.119  12.129
36890SOL     OW10695   6.566   9.021  12.872
36890SOL    HW110696   6.546   9.065  12.784
36890SOL    HW210697   6.605   8.930  12.856
36891SOL     OW10698   7.126   7.722  11.297
36891SOL    HW110699   7.065   7.647  11.320
36891SOL    HW210700   7.148   7.774  11.380
36892SOL     OW10701   6.889   8.286  11.214
36892SOL    HW110702   6.923   8.193  11.229
36892SOL    HW210703   6.907   8.313  11.119
36893SOL     OW10704   6.654   8.781  12.021
36893SOL    HW110705   6.661   8.697  11.966
36893SOL    HW210706   6.716   8.850  11.985
36894SOL     OW10707   5.905   8.258  12.121
36894SOL    HW110708   5.998   8.294  12.126
36894SOL    HW210709   5.899   8.173  12.173
36895SOL     OW10710   5.925   7.957  12.178
36895SOL    HW110711   5.873   7.874  12.161
36895SOL    HW210712   6.002   7.962  12.114
36896SOL     OW10713   6.724   7.828  12.850
36896SOL    HW110714   6.679   7.891  12.914
36896SOL    HW210715   6.817   7.859  12.833
36897SOL     OW10716   6.746   7.655  12.649
36897SOL    HW110717   6.746   7.719  12.726
36897SOL    HW210718   6.774   7.703  12.566
36898SOL     OW10719   5.594   8.774  11.372
36898SOL    HW110720   5.501   8.795  11.341
36898SOL    HW210721   5.604   8.675  11.385
36899SOL     OW10722   5.674   9.249  12.099
36899SOL    HW110723   5.632   9.163  12.072
36899SOL    HW210724   5.768   9.252  12.065
36900SOL     OW10725   6.090   9.016  12.082
36900SOL    HW110726   6.156   9.090  12.091
36900SOL    HW210727   6.134   8.937  12.040
36901SOL     OW10728   6.588   8.244  12.410
36901SOL    HW110729   6.629   8.212  12.496
36901SOL    HW210730   6.492   8.217  12.407
36902SOL     OW10731   5.626   7.992  12.286
36902SOL    HW110732   5.711   7.959  12.245
36902SOL    HW210733   5.639   8.007  12.384
36903SOL     OW10734   6.401   8.020  11.497
36903SOL    HW110735   6.408   7.931  11.451
36903SOL    HW210736   6.307   8.054  11.489
36904SOL     OW10737   7.243   8.052  12.378
36904SOL    HW110738   7.205   7.983  12.440
36904SOL    HW210739   7.325   8.016  12.334
36905SOL     OW10740   6.257   7.912  12.441
36905SOL    HW110741   6.223   7.823  12.411
36905SOL    HW210742   6.283   7.966  12.361
36906SOL     OW10743   6.516   9.126  12.637
36906SOL    HW110744   6.492   9.108  12.542
36906SOL    HW210745   6.546   9.220  12.647
36907SOL     OW10746   6.059   7.948  11.363
36907SOL    HW110747   6.120   8.028  11.367
36907SOL    HW210748   5.964   7.979  11.370
36908SOL     OW10749   5.745   8.585  12.638
36908SOL    HW110750   5.767   8.524  12.714
36908SOL    HW210751   5.755   8.536  12.552
36909SOL     OW10752   6.933   8.507  12.406
36909SOL    HW110753   6.957   8.444  12.332
36909SOL    HW210754   6.843   8.547  12.388
36910SOL     OW10755   6.888   8.303  11.481
36910SOL    HW110756   6.802   8.272  11.523
36910SOL    HW210757   6.884   8.289  11.382
36911SOL     OW10758   7.345   9.195  12.326
36911SOL    HW110759   7.406   9.225  12.253
36911SOL    HW210760   7.307   9.106  12.304
36912SOL     OW10761   6.838   9.179  12.300
36912SOL    HW110762   6.922   9.184  12.246
36912SOL    HW210763   6.815   9.083  12.318
36913SOL     OW10764   5.669   8.706  12.194
36913SOL    HW110765   5.664   8.705  12.294
36913SOL    HW210766   5.586   8.665  12.156
36914SOL     OW10767   7.312   7.583  11.695
36914SOL    HW110768   7.385   7.566  11.628
36914SOL    HW210769   7.281   7.496  11.733
36915SOL     OW10770   6.974   9.021  11.649
36915SOL    HW110771   7.041   9.033  11.575
36915SOL    HW210772   6.934   9.110  11.672
36916SOL     OW10773   6.866   8.375  11.844
36916SOL    HW110774   6.926   8.294  11.846
36916SOL    HW210775   6.906   8.444  11.784
36917SOL     OW10776   6.258   9.064  11.326
36917SOL    HW110777   6.267   9.074  11.227
36917SOL    HW210778   6.218   8.975  11.347
36918SOL     OW10779   7.236   9.168  12.566
36918SOL    HW110780   7.289   9.178  12.482
36918SOL    HW210781   7.209   9.258  12.600
36919SOL     OW10782   7.427   7.623  12.135
36919SOL    HW110783   7.466   7.538  12.099
36919SOL    HW210784   7.329   7.625  12.116
36920SOL     OW10785   5.849   7.774  11.892
36920SOL    HW110786   5.770   7.825  11.858
36920SOL    HW210787   5.840   7.759  11.990
36921SOL     OW10788   6.780   9.060  11.203
36921SOL    HW110789   6.786   8.967  11.240
36921SOL    HW210790   6.721   9.060  11.123
36922SOL     OW10791   6.408   8.450  12.544
36922SOL    HW110792   6.448   8.449  12.452
36922SOL    HW210793   6.418   8.542  12.584
36923SOL     OW10794   6.502   8.358  11.463
36923SOL    HW110795   6.565   8.396  11.395
36923SOL    HW210796   6.542   8.275  11.502
36924SOL     OW10797   7.090   9.055  11.216
36924SOL    HW110798   6.998   9.092  11.223
36924SOL    HW210799   7.128   9.075  11.126
36925SOL     OW10800   5.958   8.736  12.662
36925SOL    HW110801   5.945   8.829  12.628
36925SOL    HW210802   5.874   8.684  12.649
36926SOL     OW10803   7.200   8.740  12.461
36926SOL    HW110804   7.260   8.743  12.541
36926SOL    HW210805   7.125   8.804  12.474
36927SOL     OW10806   6.625   8.546  11.868
36927SOL    HW110807   6.555   8.499  11.922
36927SOL    HW210808   6.684   8.478  11.825
36928SOL     OW10809   6.600   7.684  12.143
36928SOL    HW110810   6.592   7.648  12.050
36928SOL    HW210811   6.598   7.608  12.208
36929SOL     OW10812   6.176   8.935  11.663
36929SOL    HW110813   6.218   8.877  11.593
36929SOL    HW210814   6.132   9.014  11.619
36930SOL     OW10815   7.295   7.833  12.553
36930SOL    HW110816   7.368   7.902  12.557
36930SOL    HW210817   7.323   7.758  12.494
36931SOL     OW10818   5.841   8.796  11.462
36931SOL    HW110819   5.745   8.797  11.435
36931SOL    HW210820   5.853   8.849  11.546
36932SOL     OW10821   5.661   7.793  11.205
36932SOL    HW110822   5.569   7.765  11.176
36932SOL    HW210823   5.692   7.870  11.149
36933SOL     OW10824   7.026   8.304  12.570
36933SOL    HW110825   6.969   8.356  12.507
36933SOL    HW210826   7.122   8.316  12.546
36934SOL     OW10827   5.658   7.614  11.490
36934SOL    HW110828   5.641   7.697  11.436
36934SOL    HW210829   5.748   7.577  11.468
36935SOL     OW10830   6.769   8.783  11.291
36935SOL    HW110831   6.670   8.772  11.293
36935SOL    HW210832   6.803   8.798  11.384
36936SOL     OW10833   6.199   8.290  12.603
36936SOL    HW110834   6.255   8.371  12.586
36936SOL    HW210835   6.258   8.210  12.606
36937SOL     OW10836   7.079   9.215  12.131
36937SOL    HW110837   7.112   9.279  12.062
36937SOL    HW210838   7.145   9.209  12.206
36938SOL     OW10839   5.976   9.189  12.732
36938SOL    HW110840   5.885   9.230  12.730
36938SOL    HW210841   5.969   9.095  12.764
36939SOL     OW10842   7.260   8.331  12.426
36939SOL    HW110843   7.233   8.242  12.389
36939SOL    HW210844   7.261   8.399  12.353
36940SOL     OW10845   6.811   7.773  11.621
36940SOL    HW110846   6.876   7.699  11.610
36940SOL    HW210847   6.831   7.823  11.705
36941SOL     OW10848   6.180   8.193  11.824
36941SOL    HW110849   6.230   8.278  11.805
36941SOL    HW210850   6.092   8.195  11.776
36942SOL     OW10851   7.363   7.790  12.814
36942SOL    HW110852   7.346   7.821  12.720
36942SOL    HW210853   7.279   7.753  12.852
36943SOL     OW10854   7.316   8.382  12.689
36943SOL    HW110855   7.354   8.473  12.704
36943SOL    HW210856   7.308   8.365  12.590
36944SOL     OW10857   6.445   8.822  11.188
36944SOL    HW110858   6.399   8.837  11.276
36944SOL    HW210859   6.489   8.907  11.158
36945SOL     OW10860   6.247   9.238  12.125
36945SOL    HW110861   6.201   9.326  12.112
36945SOL    HW210862   6.346   9.250  12.118
36946SOL     OW10863   6.445   8.404  12.033
36946SOL    HW110864   6.499   8.335  12.081
36946SOL    HW210865   6.413   8.473  12.099
36947SOL     OW10866   6.669   8.432  11.259
36947SOL    HW110867   6.646   8.485  11.177
36947SOL    HW210868   6.750   8.376  11.240
36948SOL     OW10869   7.447   9.017  12.023
36948SOL    HW110870   7.376   9.005  11.953
36948SOL    HW210871   7.448   8.938  12.083
36949SOL     OW10872   5.665   8.688  11.825
36949SOL    HW110873   5.664   8.641  11.913
36949SOL    HW210874   5.747   8.660  11.774
36950SOL     OW10875   7.410   7.640  12.399
36950SOL    HW110876   7.406   7.550  12.443
36950SOL    HW210877   7.413   7.629  12.300
36951SOL     OW10878   6.014   7.872  11.692
36951SOL    HW110879   6.044   7.800  11.630
36951SOL    HW210880   5.975   7.832  11.775
36952SOL     OW10881   7.291   8.935  12.276
36952SOL    HW110882   7.198   8.910  12.249
36952SOL    HW210883   7.317   8.885  12.358
36953SOL     OW10884   5.903   7.995  12.452
36953SOL    HW110885   5.941   7.936  12.524
36953SOL    HW210886   5.943   7.969  12.364
36954SOL     OW10887   6.398   9.034  11.859
36954SOL    HW110888   6.430   9.044  11.765
36954SOL    HW210889   6.319   8.972  11.861
36955SOL     OW10890   7.010   7.662  12.284
36955SOL    HW110891   7.062   7.597  12.339
36955SOL    HW210892   6.961   7.725  12.345
36956SOL     OW10893   6.587   7.482  12.326
36956SOL    HW110894   6.524   7.410  12.295
36956SOL    HW210895   6.680   7.446  12.326
36957SOL     OW10896   6.356   8.778  11.473
36957SOL    HW110897   6.310   8.691  11.490
36957SOL    HW210898   6.447   8.775  11.514
36958SOL     OW10899   6.204   9.015  12.456
36958SOL    HW110900   6.199   9.097  12.513
36958SOL    HW210901   6.293   9.012  12.411
36959SOL     OW10902   6.938   7.500  11.340
36959SOL    HW110903   6.973   7.459  11.256
36959SOL    HW210904   6.848   7.462  11.360
36960SOL     OW10905   6.886   7.901  11.863
36960SOL    HW110906   6.827   7.981  11.867
36960SOL    HW210907   6.901   7.866  11.956
36961SOL     OW10908   7.179   7.669  12.054
36961SOL    HW110909   7.095   7.668  12.108
36961SOL    HW210910   7.181   7.752  11.998
36962SOL     OW10911   5.625   8.525  11.472
36962SOL    HW110912   5.724   8.514  11.463
36962SOL    HW210913   5.585   8.439  11.504
36963SOL     OW10914   6.461   9.094  11.509
36963SOL    HW110915   6.384   9.059  11.455
36963SOL    HW210916   6.429   9.165  11.571
36964SOL     OW10917   5.816   9.938   0.113
36964SOL    HW110918   5.723   9.936   0.150
36964SOL    HW210919   5.817   9.899   0.021
36965SOL     OW10920   5.811   9.585   0.996
36965SOL    HW110921   5.846   9.568   1.088
36965SOL    HW210922   5.723   9.540   0.984
36966SOL     OW10923   5.605   9.678   0.647
36966SOL    HW110924   5.523   9.721   0.686
36966SOL    HW210925   5.577   9.605   0.584
36967SOL     OW10926   6.155  10.585   1.165
36967SOL    HW110927   6.062  10.578   1.128
36967SOL    HW210928   6.166  10.674   1.209
36968SOL     OW10929   7.141  10.821   0.703
36968SOL    HW110930   7.084  10.805   0.784
36968SOL    HW210931   7.082  10.831   0.623
36969SOL     OW10932   6.721  10.013   0.717
36969SOL    HW110933   6.778  10.091   0.692
36969SOL    HW210934   6.661  10.039   0.793
36970SOL     OW10935   7.341   9.917   0.231
36970SOL    HW110936   7.329   9.904   0.132
36970SOL    HW210937   7.311   9.836   0.280
36971SOL     OW10938   6.354  10.454   1.023
36971SOL    HW110939   6.276  10.471   1.083
36971SOL    HW210940   6.388  10.541   0.987
36972SOL     OW10941   6.436  10.108   1.823
36972SOL    HW110942   6.432  10.184   1.888
36972SOL    HW210943   6.458  10.144   1.732
36973SOL     OW10944   6.271  10.322   0.665
36973SOL    HW110945   6.340  10.306   0.735
36973SOL    HW210946   6.198  10.379   0.703
36974SOL     OW10947   6.272  10.471   1.803
36974SOL    HW110948   6.332  10.550   1.817
36974SOL    HW210949   6.186  10.502   1.762
36975SOL     OW10950   5.921  10.745   1.061
36975SOL    HW110951   5.843  10.714   1.008
36975SOL    HW210952   5.979  10.803   1.004
36976SOL     OW10953   7.046  10.815   1.339
36976SOL    HW110954   7.070  10.909   1.365
36976SOL    HW210955   7.030  10.761   1.421
36977SOL     OW10956   6.024   9.702   1.499
36977SOL    HW110957   6.106   9.646   1.508
36977SOL    HW210958   5.943   9.644   1.503
36978SOL     OW10959   7.189   9.757   0.737
36978SOL    HW110960   7.115   9.803   0.687
36978SOL    HW210961   7.240   9.825   0.790
36979SOL     OW10962   5.817  11.023   0.483
36979SOL    HW110963   5.851  11.100   0.537
36979SOL    HW210964   5.861  11.023   0.393
36980SOL     OW10965   6.713  10.651   1.690
36980SOL    HW110966   6.760  10.651   1.778
36980SOL    HW210967   6.665  10.564   1.679
36981SOL     OW10968   5.816  10.744   0.538
36981SOL    HW110969   5.790  10.840   0.538
36981SOL    HW210970   5.745  10.690   0.583
36982SOL     OW10971   5.826  10.401   0.886
36982SOL    HW110972   5.840  10.317   0.938
36982SOL    HW210973   5.771  10.465   0.941
36983SOL     OW10974   6.206  11.096   1.439
36983SOL    HW110975   6.114  11.079   1.474
36983SOL    HW210976   6.234  11.188   1.465
36984SOL     OW10977   6.192  10.274   0.123
36984SOL    HW110978   6.199  10.358   0.069
36984SOL    HW210979   6.238  10.287   0.211
36985SOL     OW10980   7.180   9.424   1.480
36985SOL    HW110981   7.162   9.491   1.408
36985SOL    HW210982   7.177   9.470   1.569
36986SOL     OW10983   5.708   9.953   0.563
36986SOL    HW110984   5.663   9.865   0.580
36986SOL    HW210985   5.707  10.007   0.647
36987SOL     OW10986   7.428  11.077   0.359
36987SOL    HW110987   7.482  11.048   0.439
36987SOL    HW210988   7.458  11.167   0.330
36988SOL     OW10989   5.613  10.906   0.117
36988SOL    HW110990   5.594  10.810   0.138
36988SOL    HW210991   5.580  10.964   0.192
36989SOL     OW10992   7.275  10.232   0.612
36989SOL    HW110993   7.370  10.203   0.620
36989SOL    HW210994   7.267  10.297   0.537
36990SOL     OW10995   7.227  10.418   0.432
36990SOL    HW110996   7.313  10.420   0.380
36990SOL    HW210997   7.241  10.465   0.520
36991SOL     OW10998   5.699  10.047   1.597
36991SOL    HW110999   5.787  10.034   1.642
36991SOL    HW211000   5.686  10.144   1.575
36992SOL     OW11001   6.199  10.675   0.726
36992SOL    HW111002   6.150  10.588   0.735
36992SOL    HW211003   6.176  10.718   0.639
36993SOL     OW11004   6.879  10.538   1.423
36993SOL    HW111005   6.916  10.465   1.365
36993SOL    HW211006   6.931  10.543   1.508
36994SOL     OW11007   6.395   9.314   0.502
36994SOL    HW111008   6.435   9.405   0.493
36994SOL    HW211009   6.295   9.322   0.508
36995SOL     OW11010   5.783  10.286   1.264
36995SOL    HW111011   5.872  10.241   1.250
36995SOL    HW211012   5.710  10.221   1.245
36996SOL     OW11013   7.111  10.309   0.190
36996SOL    HW111014   7.048  10.233   0.203
36996SOL    HW211015   7.159  10.327   0.276
36997SOL     OW11016   6.773  11.102   1.616
36997SOL    HW111017   6.797  11.162   1.540
36997SOL    HW211018   6.780  11.007   1.586
36998SOL     OW11019   5.903   9.561   1.801
36998SOL    HW111020   5.974   9.632   1.807
36998SOL    HW211021   5.815   9.600   1.829
36999SOL     OW11022   7.052  10.727   0.953
36999SOL    HW111023   6.993  10.733   1.033
36999SOL    HW211024   7.037  10.639   0.907
37000SOL     OW11025   7.253  11.024   0.572
37000SOL    HW111026   7.212  11.001   0.484
37000SOL    HW211027   7.235  10.950   0.637
37001SOL     OW11028   6.184  10.039   0.270
37001SOL    HW111029   6.208  10.108   0.202
37001SOL    HW211030   6.106  10.072   0.324
37002SOL     OW11031   6.867   9.655   0.944
37002SOL    HW111032   6.781   9.605   0.931
37002SOL    HW211033   6.929   9.601   1.000
37003SOL     OW11034   7.162  10.972   0.307
37003SOL    HW111035   7.251  11.018   0.310
37003SOL    HW211036   7.141  10.948   0.212
37004SOL     OW11037   6.393   9.915   1.465
37004SOL    HW111038   6.346   9.912   1.554
37004SOL    HW211039   6.342   9.860   1.399
37005SOL     OW11040   6.980   9.779   1.674
37005SOL    HW111041   6.960   9.822   1.762
37005SOL    HW211042   7.058   9.717   1.683
37006SOL     OW11043   6.559  10.200   1.572
37006SOL    HW111044   6.605  10.116   1.543
37006SOL    HW211045   6.503  10.234   1.497
37007SOL     OW11046   6.577   9.720   1.242
37007SOL    HW111047   6.500   9.754   1.296
37007SOL    HW211048   6.543   9.669   1.163
37008SOL     OW11049   6.627  10.011   0.429
37008SOL    HW111050   6.653  10.007   0.525
37008SOL    HW211051   6.542   9.960   0.415
37009SOL     OW11052   5.662  10.121   0.789
37009SOL    HW111053   5.761  10.109   0.798
37009SOL    HW211054   5.638  10.216   0.810
37010SOL     OW11055   5.716  11.131   1.571
37010SOL    HW111056   5.706  11.116   1.670
37010SOL    HW211057   5.630  11.167   1.535
37011SOL     OW11058   6.451   9.658   0.195
37011SOL    HW111059   6.510   9.721   0.146
37011SOL    HW211060   6.470   9.564   0.166
37012SOL     OW11061   7.305   9.895   1.831
37012SOL    HW111062   7.279   9.984   1.795
37012SOL    HW211063   7.303   9.827   1.758
37013SOL     OW11064   6.948  10.454   0.545
37013SOL    HW111065   7.031  10.425   0.497
37013SOL    HW211066   6.899  10.521   0.489
37014SOL     OW11067   6.136   9.506   0.885
37014SOL    HW111068   6.131   9.501   0.985
37014SOL    HW211069   6.138   9.602   0.856
37015SOL     OW11070   6.594  10.766   0.477
37015SOL    HW111071   6.548  10.838   0.425
37015SOL    HW211072   6.590  10.786   0.575
37016SOL     OW11073   5.937  11.111   0.853
37016SOL    HW111074   5.987  11.025   0.859
37016SOL    HW211075   6.002  11.188   0.850
37017SOL     OW11076   7.381  10.376   0.873
37017SOL    HW111077   7.319  10.361   0.797
37017SOL    HW211078   7.329  10.387   0.958
37018SOL     OW11079   6.813  10.860   1.506
37018SOL    HW111080   6.819  10.783   1.570
37018SOL    HW211081   6.761  10.834   1.426
37019SOL     OW11082   5.907  10.253   0.242
37019SOL    HW111083   5.989  10.292   0.200
37019SOL    HW211084   5.880  10.171   0.193
37020SOL     OW11085   7.044  10.045   0.728
37020SOL    HW111086   7.039   9.980   0.803
37020SOL    HW211087   7.124  10.104   0.741
37021SOL     OW11088   6.047  10.576   1.727
37021SOL    HW111089   5.997  10.577   1.641
37021SOL    HW211090   5.984  10.558   1.803
37022SOL     OW11091   6.697  11.086   0.237
37022SOL    HW111092   6.637  11.024   0.287
37022SOL    HW211093   6.728  11.042   0.152
37023SOL     OW11094   5.788   9.595   1.498
37023SOL    HW111095   5.708   9.655   1.485
37023SOL    HW211096   5.778   9.546   1.584
37024SOL     OW11097   7.218  10.687   0.081
37024SOL    HW111098   7.186  10.781   0.071
37024SOL    HW211099   7.142  10.624   0.069
37025SOL     OW11100   6.050  11.053   0.323
37025SOL    HW111101   6.083  11.092   0.409
37025SOL    HW211102   6.126  11.046   0.258
37026SOL     OW11103   6.986   9.417   0.426
37026SOL    HW111104   6.962   9.380   0.336
37026SOL    HW211105   7.085   9.433   0.430
37027SOL     OW11106   5.835  11.095   1.241
37027SOL    HW111107   5.892  11.030   1.291
37027SOL    HW211108   5.819  11.062   1.148
37028SOL     OW11109   6.526  11.008   0.904
37028SOL    HW111110   6.606  10.951   0.925
37028SOL    HW211111   6.477  10.968   0.827
37029SOL     OW11112   5.968  10.010   0.480
37029SOL    HW111113   6.013   9.920   0.477
37029SOL    HW211114   5.874   9.999   0.513
37030SOL     OW11115   7.133   9.532   1.729
37030SOL    HW111116   7.128   9.569   1.821
37030SOL    HW211117   7.061   9.463   1.717
37031SOL     OW11118   6.200   9.432   0.117
37031SOL    HW111119   6.298   9.410   0.124
37031SOL    HW211120   6.169   9.415   0.024
37032SOL     OW11121   6.367   9.574   1.749
37032SOL    HW111122   6.434   9.513   1.792
37032SOL    HW211123   6.294   9.593   1.814
37033SOL     OW11124   6.474  10.824   1.195
37033SOL    HW111125   6.451  10.799   1.101
37033SOL    HW211126   6.535  10.755   1.234
37034SOL     OW11127   6.937   9.900   1.433
37034SOL    HW111128   6.965   9.857   1.518
37034SOL    HW211129   6.962   9.996   1.434
37035SOL     OW11130   6.389  10.712   0.924
37035SOL    HW111131   6.479  10.726   0.882
37035SOL    HW211132   6.318  10.714   0.853
37036SOL     OW11133   6.508   9.813   0.899
37036SOL    HW111134   6.483   9.804   0.803
37036SOL    HW211135   6.556   9.731   0.930
37037SOL     OW11136   6.125   9.374   0.512
37037SOL    HW111137   6.044   9.375   0.570
37037SOL    HW211138   6.128   9.457   0.457
37038SOL     OW11139   7.020  10.498   0.041
37038SOL    HW111140   7.052  10.422   0.098
37038SOL    HW211141   6.928  10.525   0.071
37039SOL     OW11142   5.883   9.345   0.171
37039SOL    HW111143   5.932   9.429   0.150
37039SOL    HW211144   5.945   9.280   0.216
37040SOL     OW11145   6.521   9.546   0.480
37040SOL    HW111146   6.473   9.587   0.402
37040SOL    HW211147   6.620   9.544   0.461
37041SOL     OW11148   6.662   9.993   1.464
37041SOL    HW111149   6.582   9.932   1.467
37041SOL    HW211150   6.743   9.940   1.440
37042SOL     OW11151   6.813  10.880   0.793
37042SOL    HW111152   6.834  10.954   0.728
37042SOL    HW211153   6.881  10.880   0.866
37043SOL     OW11154   6.045  10.462   0.741
37043SOL    HW111155   5.974  10.435   0.806
37043SOL    HW211156   6.019  10.434   0.648
37044SOL     OW11157   6.857  11.107   0.591
37044SOL    HW111158   6.901  11.171   0.527
37044SOL    HW211159   6.807  11.159   0.661
37045SOL     OW11160   6.618   9.859   0.016
37045SOL    HW111161   6.577   9.941  -0.023
37045SOL    HW211162   6.682   9.885   0.089
37046SOL     OW11163   5.664   9.866   1.386
37046SOL    HW111164   5.756   9.865   1.345
37046SOL    HW211165   5.658   9.940   1.453
37047SOL     OW11166   6.147   9.532   1.147
37047SOL    HW111167   6.185   9.448   1.184
37047SOL    HW211168   6.059   9.551   1.191
37048SOL     OW11169   6.452   9.764   0.642
37048SOL    HW111170   6.420   9.836   0.580
37048SOL    HW211171   6.476   9.683   0.589
37049SOL     OW11172   6.603   9.349   0.753
37049SOL    HW111173   6.531   9.354   0.684
37049SOL    HW211174   6.579   9.280   0.822
37050SOL     OW11175   7.015  10.483   0.867
37050SOL    HW111176   6.960  10.399   0.860
37050SOL    HW211177   7.041  10.512   0.775
37051SOL     OW11178   7.052   9.900   0.992
37051SOL    HW111179   7.022   9.805   0.999
37051SOL    HW211180   7.125   9.916   1.058
37052SOL     OW11181   7.443  10.143   0.377
37052SOL    HW111182   7.485  10.079   0.441
37052SOL    HW211183   7.405  10.092   0.299
37053SOL     OW11184   6.074  10.695   0.174
37053SOL    HW111185   5.987  10.680   0.221
37053SOL    HW211186   6.057  10.721   0.079
37054SOL     OW11187   7.250  10.590   0.657
37054SOL    HW111188   7.349  10.598   0.671
37054SOL    HW211189   7.205  10.674   0.688
37055SOL     OW11190   6.976   9.885   0.078
37055SOL    HW111191   6.922   9.864   0.159
37055SOL    HW211192   7.067   9.844   0.087
37056SOL     OW11193   6.113   9.566   0.328
37056SOL    HW111194   6.140   9.507   0.253
37056SOL    HW211195   6.113   9.661   0.297
37057SOL     OW11196   7.340  10.533   1.588
37057SOL    HW111197   7.431  10.494   1.575
37057SOL    HW211198   7.348  10.629   1.612
37058SOL     OW11199   6.650  10.657   1.340
37058SOL    HW111200   6.570  10.634   1.395
37058SOL    HW211201   6.733  10.631   1.389
37059SOL     OW11202   7.178  10.939   1.625
37059SOL    HW111203   7.205  10.973   1.535
37059SOL    HW211204   7.257  10.901   1.671
37060SOL     OW11205   6.697  10.505   1.100
37060SOL    HW111206   6.657  10.549   1.181
37060SOL    HW211207   6.656  10.542   1.017
37061SOL     OW11208   7.224  10.409   1.079
37061SOL    HW111209   7.229  10.490   1.138
37061SOL    HW211210   7.138  10.411   1.028
37062SOL     OW11211   6.501   9.399   1.402
37062SOL    HW111212   6.526   9.379   1.307
37062SOL    HW211213   6.573   9.455   1.444
37063SOL     OW11214   6.566  10.426   1.719
37063SOL    HW111215   6.467  10.432   1.729
37063SOL    HW211216   6.589  10.346   1.663
37064SOL     OW11217   6.291  10.360   0.368
37064SOL    HW111218   6.277  10.367   0.467
37064SOL    HW211219   6.375  10.309   0.350
37065SOL     OW11220   5.996  10.123   1.251
37065SOL    HW111221   6.082  10.135   1.301
37065SOL    HW211222   5.954  10.036   1.278
37066SOL     OW11223   6.860   9.696   1.262
37066SOL    HW111224   6.881   9.770   1.326
37066SOL    HW211225   6.771   9.713   1.219
37067SOL     OW11226   5.650  10.874   1.331
37067SOL    HW111227   5.604  10.956   1.297
37067SOL    HW211228   5.748  10.893   1.340
37068SOL     OW11229   5.953  10.410   0.501
37068SOL    HW111230   5.946  10.493   0.445
37068SOL    HW211231   5.957  10.330   0.441
37069SOL     OW11232   6.152   9.847   0.865
37069SOL    HW111233   6.164   9.913   0.791
37069SOL    HW211234   6.198   9.881   0.948
37070SOL     OW11235   6.838  10.658   0.388
37070SOL    HW111236   6.888  10.735   0.428
37070SOL    HW211237   6.743  10.660   0.420
37071SOL     OW11238   6.858  10.755   1.142
37071SOL    HW111239   6.905  10.768   1.229
37071SOL    HW211240   6.792  10.681   1.151
37072SOL     OW11241   7.168   9.949   0.472
37072SOL    HW111242   7.137  10.010   0.545
37072SOL    HW211243   7.218  10.001   0.403
37073SOL     OW11244   5.940  10.820   1.329
37073SOL    HW111245   5.919  10.776   1.242
37073SOL    HW211246   6.037  10.846   1.332
37074SOL     OW11247   5.988  10.061   1.598
37074SOL    HW111248   6.056  10.116   1.551
37074SOL    HW211249   6.028   9.973   1.625
37075SOL     OW11250   7.173  10.089   1.670
37075SOL    HW111251   7.081  10.127   1.665
37075SOL    HW211252   7.233  10.136   1.605
37076SOL     OW11253   6.599   9.415   1.770
37076SOL    HW111254   6.605   9.500   1.718
37076SOL    HW211255   6.631   9.339   1.713
37077SOL     OW11256   6.090   9.360   1.740
37077SOL    HW111257   6.048   9.303   1.670
37077SOL    HW211258   6.024   9.429   1.772
37078SOL     OW11259   6.159  10.180   1.029
37078SOL    HW111260   6.203  10.269   1.020
37078SOL    HW211261   6.096  10.180   1.106
37079SOL     OW11262   6.946  10.172   1.045
37079SOL    HW111263   6.871  10.172   0.979
37079SOL    HW211264   6.983  10.080   1.054
37080SOL     OW11265   6.795   9.835   0.275
37080SOL    HW111266   6.808   9.751   0.329
37080SOL    HW211267   6.766   9.909   0.335
37081SOL     OW11268   5.893   9.523   1.231
37081SOL    HW111269   5.870   9.560   1.321
37081SOL    HW211270   5.863   9.428   1.225
37082SOL     OW11271   5.623  10.620   1.282
37082SOL    HW111272   5.676  10.571   1.350
37082SOL    HW211273   5.645  10.718   1.287
37083SOL     OW11274   6.318   9.944   1.064
37083SOL    HW111275   6.377   9.918   0.988
37083SOL    HW211276   6.290  10.040   1.053
37084SOL     OW11277   7.314  10.245   1.854
37084SOL    HW111278   7.268  10.238   1.765
37084SOL    HW211279   7.252  10.289   1.920
37085SOL     OW11280   5.893   9.373   0.618
37085SOL    HW111281   5.882   9.467   0.651
37085SOL    HW211282   5.888   9.310   0.695
37086SOL     OW11283   7.208   9.677   0.374
37086SOL    HW111284   7.210   9.601   0.438
37086SOL    HW211285   7.160   9.754   0.414
37087SOL     OW11286   6.609  10.076   0.966
37087SOL    HW111287   6.624  10.097   1.062
37087SOL    HW211288   6.579   9.981   0.957
37088SOL     OW11289   6.566  10.883   1.700
37088SOL    HW111290   6.546  10.927   1.612
37088SOL    HW211291   6.605  10.792   1.684
37089SOL     OW11292   7.445  10.828   1.605
37089SOL    HW111293   7.459  10.855   1.510
37089SOL    HW211294   7.528  10.850   1.658
37090SOL     OW11295   5.936  10.208   1.804
37090SOL    HW111296   6.012  10.252   1.852
37090SOL    HW211297   5.971  10.161   1.722
37091SOL     OW11298   7.126   9.584   0.125
37091SOL    HW111299   7.065   9.509   0.148
37091SOL    HW211300   7.148   9.636   0.208
37092SOL     OW11301   6.889  10.148   0.042
37092SOL    HW111302   6.923  10.055   0.057
37092SOL    HW211303   6.907  10.175  -0.053
37093SOL     OW11304   6.654  10.643   0.849
37093SOL    HW111305   6.661  10.559   0.794
37093SOL    HW211306   6.716  10.712   0.813
37094SOL     OW11307   5.905  10.120   0.949
37094SOL    HW111308   5.998  10.156   0.954
37094SOL    HW211309   5.899  10.035   1.001
37095SOL     OW11310   5.925   9.819   1.006
37095SOL    HW111311   5.873   9.736   0.989
37095SOL    HW211312   6.002   9.824   0.942
37096SOL     OW11313   6.724   9.690   1.678
37096SOL    HW111314   6.679   9.753   1.742
37096SOL    HW211315   6.817   9.721   1.661
37097SOL     OW11316   6.746   9.517   1.477
37097SOL    HW111317   6.746   9.581   1.554
37097SOL    HW211318   6.774   9.565   1.394
37098SOL     OW11319   5.594  10.636   0.200
37098SOL    HW111320   5.501  10.657   0.169
37098SOL    HW211321   5.604  10.537   0.213
37099SOL     OW11322   5.674  11.111   0.927
37099SOL    HW111323   5.632  11.025   0.900
37099SOL    HW211324   5.768  11.114   0.893
37100SOL     OW11325   6.090  10.878   0.910
37100SOL    HW111326   6.156  10.952   0.919
37100SOL    HW211327   6.134  10.799   0.868
37101SOL     OW11328   6.588  10.106   1.238
37101SOL    HW111329   6.629  10.074   1.324
37101SOL    HW211330   6.492  10.079   1.235
37102SOL     OW11331   5.626   9.854   1.114
37102SOL    HW111332   5.711   9.821   1.073
37102SOL    HW211333   5.639   9.869   1.212
37103SOL     OW11334   5.775   9.830   1.722
37103SOL    HW111335   5.834   9.790   1.652
37103SOL    HW211336   5.717   9.901   1.681
37104SOL     OW11337   6.955  10.260   1.660
37104SOL    HW111338   6.994  10.349   1.680
37104SOL    HW211339   6.965  10.240   1.563
37105SOL     OW11340   6.401   9.882   0.325
37105SOL    HW111341   6.408   9.793   0.279
37105SOL    HW211342   6.307   9.916   0.317
37106SOL     OW11343   7.243   9.914   1.206
37106SOL    HW111344   7.205   9.845   1.268
37106SOL    HW211345   7.325   9.878   1.162
37107SOL     OW11346   5.838  10.874   1.744
37107SOL    HW111347   5.808  10.931   1.820
37107SOL    HW211348   5.831  10.777   1.770
37108SOL     OW11349   6.257   9.774   1.269
37108SOL    HW111350   6.223   9.685   1.239
37108SOL    HW211351   6.283   9.828   1.189
37109SOL     OW11352   6.516  10.988   1.465
37109SOL    HW111353   6.492  10.970   1.370
37109SOL    HW211354   6.546  11.082   1.475
37110SOL     OW11355   6.059   9.810   0.191
37110SOL    HW111356   6.120   9.890   0.195
37110SOL    HW211357   5.964   9.841   0.198
37111SOL     OW11358   5.745  10.447   1.466
37111SOL    HW111359   5.767  10.386   1.542
37111SOL    HW211360   5.755  10.398   1.380
37112SOL     OW11361   6.933  10.369   1.234
37112SOL    HW111362   6.957  10.306   1.160
37112SOL    HW211363   6.843  10.409   1.216
37113SOL     OW11364   6.888  10.165   0.309
37113SOL    HW111365   6.802  10.134   0.351
37113SOL    HW211366   6.884  10.151   0.210
37114SOL     OW11367   7.345  11.057   1.154
37114SOL    HW111368   7.406  11.087   1.081
37114SOL    HW211369   7.307  10.968   1.132
37115SOL     OW11370   6.838  11.041   1.128
37115SOL    HW111371   6.922  11.046   1.074
37115SOL    HW211372   6.815  10.945   1.146
37116SOL     OW11373   5.669  10.568   1.022
37116SOL    HW111374   5.664  10.567   1.122
37116SOL    HW211375   5.586  10.527   0.984
37117SOL     OW11376   6.274  10.972   1.716
37117SOL    HW111377   6.218  11.053   1.725
37117SOL    HW211378   6.326  10.976   1.630
37118SOL     OW11379   6.489   9.396   0.133
37118SOL    HW111380   6.540   9.397   0.047
37118SOL    HW211381   6.545   9.354   0.204
37119SOL     OW11382   7.312   9.445   0.523
37119SOL    HW111383   7.385   9.428   0.456
37119SOL    HW211384   7.281   9.358   0.561
37120SOL     OW11385   6.974  10.883   0.477
37120SOL    HW111386   7.041  10.895   0.403
37120SOL    HW211387   6.934  10.972   0.500
37121SOL     OW11388   5.716  11.104   1.851
37121SOL    HW111389   5.675  11.030   1.904
37121SOL    HW211390   5.780  11.155   1.909
37122SOL     OW11391   6.866  10.237   0.672
37122SOL    HW111392   6.926  10.156   0.674
37122SOL    HW211393   6.906  10.306   0.612
37123SOL     OW11394   6.416  10.583   1.422
37123SOL    HW111395   6.411  10.616   1.517
37123SOL    HW211396   6.330  10.602   1.376
37124SOL     OW11397   6.258  10.926   0.154
37124SOL    HW111398   6.267  10.936   0.055
37124SOL    HW211399   6.218  10.837   0.175
37125SOL     OW11400   7.236  11.030   1.394
37125SOL    HW111401   7.289  11.040   1.310
37125SOL    HW211402   7.209  11.120   1.428
37126SOL     OW11403   7.427   9.485   0.963
37126SOL    HW111404   7.466   9.400   0.927
37126SOL    HW211405   7.329   9.487   0.944
37127SOL     OW11406   5.849   9.636   0.720
37127SOL    HW111407   5.770   9.687   0.686
37127SOL    HW211408   5.840   9.621   0.818
37128SOL     OW11409   6.780  10.922   0.031
37128SOL    HW111410   6.786  10.829   0.068
37128SOL    HW211411   6.721  10.922  -0.049
37129SOL     OW11412   6.408  10.312   1.372
37129SOL    HW111413   6.448  10.311   1.280
37129SOL    HW211414   6.418  10.404   1.412
37130SOL     OW11415   6.502  10.220   0.291
37130SOL    HW111416   6.565  10.258   0.223
37130SOL    HW211417   6.542  10.137   0.330
37131SOL     OW11418   7.090  10.917   0.044
37131SOL    HW111419   6.998  10.954   0.051
37131SOL    HW211420   7.128  10.937  -0.046
37132SOL     OW11421   5.958  10.598   1.490
37132SOL    HW111422   5.945  10.691   1.456
37132SOL    HW211423   5.874  10.546   1.477
37133SOL     OW11424   7.200  10.602   1.289
37133SOL    HW111425   7.260  10.605   1.369
37133SOL    HW211426   7.125  10.666   1.302
37134SOL     OW11427   6.625  10.408   0.696
37134SOL    HW111428   6.555  10.361   0.750
37134SOL    HW211429   6.684  10.340   0.653
37135SOL     OW11430   6.600   9.546   0.971
37135SOL    HW111431   6.592   9.510   0.878
37135SOL    HW211432   6.598   9.470   1.036
37136SOL     OW11433   6.176  10.797   0.491
37136SOL    HW111434   6.218  10.739   0.421
37136SOL    HW211435   6.132  10.876   0.447
37137SOL     OW11436   7.295   9.695   1.381
37137SOL    HW111437   7.368   9.764   1.385
37137SOL    HW211438   7.323   9.620   1.322
37138SOL     OW11439   5.841  10.658   0.290
37138SOL    HW111440   5.745  10.659   0.263
37138SOL    HW211441   5.853  10.711   0.374
37139SOL     OW11442   5.691  10.323   1.726
37139SOL    HW111443   5.614  10.290   1.780
37139SOL    HW211444   5.776  10.293   1.768
37140SOL     OW11445   6.258   9.513   1.489
37140SOL    HW111446   6.348   9.497   1.449
37140SOL    HW211447   6.266   9.518   1.588
37141SOL     OW11448   7.026  10.166   1.398
37141SOL    HW111449   6.969  10.218   1.335
37141SOL    HW211450   7.122  10.178   1.374
37142SOL     OW11451   5.658   9.476   0.318
37142SOL    HW111452   5.641   9.559   0.264
37142SOL    HW211453   5.748   9.439   0.296
37143SOL     OW11454   6.769  10.645   0.119
37143SOL    HW111455   6.670  10.634   0.121
37143SOL    HW211456   6.803  10.660   0.212
37144SOL     OW11457   6.199  10.152   1.431
37144SOL    HW111458   6.255  10.233   1.414
37144SOL    HW211459   6.258  10.072   1.434
37145SOL     OW11460   7.079  11.077   0.959
37145SOL    HW111461   7.112  11.141   0.890
37145SOL    HW211462   7.145  11.071   1.034
37146SOL     OW11463   6.302   9.875   1.708
37146SOL    HW111464   6.321   9.940   1.782
37146SOL    HW211465   6.362   9.795   1.717
37147SOL     OW11466   7.036  10.530   1.633
37147SOL    HW111467   7.027  10.520   1.732
37147SOL    HW211468   7.132  10.523   1.607
37148SOL     OW11469   5.976  11.051   1.560
37148SOL    HW111470   5.885  11.092   1.558
37148SOL    HW211471   5.969  10.957   1.592
37149SOL     OW11472   7.260  10.193   1.254
37149SOL    HW111473   7.233  10.104   1.217
37149SOL    HW211474   7.261  10.261   1.181
37150SOL     OW11475   6.811   9.635   0.449
37150SOL    HW111476   6.876   9.561   0.438
37150SOL    HW211477   6.831   9.685   0.533
37151SOL     OW11478   6.180  10.055   0.652
37151SOL    HW111479   6.230  10.140   0.633
37151SOL    HW211480   6.092  10.057   0.604
37152SOL     OW11481   7.363   9.652   1.642
37152SOL    HW111482   7.346   9.683   1.548
37152SOL    HW211483   7.279   9.615   1.680
37153SOL     OW11484   7.316  10.244   1.517
37153SOL    HW111485   7.354  10.335   1.532
37153SOL    HW211486   7.308  10.227   1.418
37154SOL     OW11487   6.445  10.684   0.016
37154SOL    HW111488   6.399  10.699   0.104
37154SOL    HW211489   6.489  10.769  -0.014
37155SOL     OW11490   6.247  11.100   0.953
37155SOL    HW111491   6.201  11.188   0.940
37155SOL    HW211492   6.346  11.112   0.946
37156SOL     OW11493   6.445  10.266   0.861
37156SOL    HW111494   6.499  10.197   0.909
37156SOL    HW211495   6.413  10.335   0.927
37157SOL     OW11496   6.669  10.294   0.087
37157SOL    HW111497   6.646  10.347   0.005
37157SOL    HW211498   6.750  10.238   0.068
37158SOL     OW11499   7.447  10.879   0.851
37158SOL    HW111500   7.376  10.867   0.781
37158SOL    HW211501   7.448  10.800   0.911
37159SOL     OW11502   5.807  10.624   1.844
37159SOL    HW111503   5.742  10.551   1.823
37159SOL    HW211504   5.811  10.638   1.942
37160SOL     OW11505   5.665  10.550   0.653
37160SOL    HW111506   5.664  10.503   0.741
37160SOL    HW211507   5.747  10.522   0.602
37161SOL     OW11508   6.258  10.701   1.624
37161SOL    HW111509   6.180  10.651   1.662
37161SOL    HW211510   6.255  10.796   1.655
37162SOL     OW11511   7.410   9.502   1.227
37162SOL    HW111512   7.406   9.412   1.271
37162SOL    HW211513   7.413   9.491   1.128
37163SOL     OW11514   6.014   9.734   0.520
37163SOL    HW111515   6.044   9.662   0.458
37163SOL    HW211516   5.975   9.694   0.603
37164SOL     OW11517   7.291  10.797   1.104
37164SOL    HW111518   7.198  10.772   1.077
37164SOL    HW211519   7.317  10.747   1.186
37165SOL     OW11520   5.903   9.857   1.280
37165SOL    HW111521   5.941   9.798   1.352
37165SOL    HW211522   5.943   9.831   1.192
37166SOL     OW11523   6.398  10.896   0.687
37166SOL    HW111524   6.430  10.906   0.593
37166SOL    HW211525   6.319  10.834   0.689
37167SOL     OW11526   7.010   9.524   1.112
37167SOL    HW111527   7.062   9.459   1.167
37167SOL    HW211528   6.961   9.587   1.173
37168SOL     OW11529   6.587   9.344   1.154
37168SOL    HW111530   6.524   9.272   1.123
37168SOL    HW211531   6.680   9.308   1.154
37169SOL     OW11532   6.356  10.640   0.301
37169SOL    HW111533   6.310  10.553   0.318
37169SOL    HW211534   6.447  10.637   0.342
37170SOL     OW11535   6.204  10.877   1.284
37170SOL    HW111536   6.199  10.959   1.341
37170SOL    HW211537   6.293  10.874   1.239
37171SOL     OW11538   6.938   9.362   0.168
37171SOL    HW111539   6.973   9.321   0.084
37171SOL    HW211540   6.848   9.324   0.188
37172SOL     OW11541   6.886   9.763   0.691
37172SOL    HW111542   6.827   9.843   0.695
37172SOL    HW211543   6.901   9.728   0.784
37173SOL     OW11544   7.179   9.531   0.882
37173SOL    HW111545   7.095   9.530   0.936
37173SOL    HW211546   7.181   9.614   0.826
37174SOL     OW11547   5.625  10.387   0.300
37174SOL    HW111548   5.724  10.376   0.291
37174SOL    HW211549   5.585  10.301   0.332
37175SOL     OW11550   6.461  10.956   0.337
37175SOL    HW111551   6.384  10.921   0.283
37175SOL    HW211552   6.429  11.027   0.399
37176SOL     OW11553   5.816   9.938   1.975
37176SOL    HW111554   5.723   9.936   2.012
37176SOL    HW211555   5.817   9.899   1.883
37177SOL     OW11556   5.811   9.585   2.858
37177SOL    HW111557   5.846   9.568   2.950
37177SOL    HW211558   5.723   9.540   2.846
37178SOL     OW11559   5.605   9.678   2.509
37178SOL    HW111560   5.523   9.721   2.548
37178SOL    HW211561   5.577   9.605   2.446
37179SOL     OW11562   6.155  10.585   3.027
37179SOL    HW111563   6.062  10.578   2.990
37179SOL    HW211564   6.166  10.674   3.071
37180SOL     OW11565   7.141  10.821   2.565
37180SOL    HW111566   7.084  10.805   2.646
37180SOL    HW211567   7.082  10.831   2.485
37181SOL     OW11568   6.721  10.013   2.579
37181SOL    HW111569   6.778  10.091   2.554
37181SOL    HW211570   6.661  10.039   2.655
37182SOL     OW11571   7.341   9.917   2.093
37182SOL    HW111572   7.329   9.904   1.994
37182SOL    HW211573   7.311   9.836   2.142
37183SOL     OW11574   6.354  10.454   2.885
37183SOL    HW111575   6.276  10.471   2.945
37183SOL    HW211576   6.388  10.541   2.849
37184SOL     OW11577   6.436  10.108   3.685
37184SOL    HW111578   6.432  10.184   3.750
37184SOL    HW211579   6.458  10.144   3.594
37185SOL     OW11580   6.271  10.322   2.527
37185SOL    HW111581   6.340  10.306   2.597
37185SOL    HW211582   6.198  10.379   2.565
37186SOL     OW11583   6.272  10.471   3.665
37186SOL    HW111584   6.332  10.550   3.679
37186SOL    HW211585   6.186  10.502   3.624
37187SOL     OW11586   5.921  10.745   2.923
37187SOL    HW111587   5.843  10.714   2.870
37187SOL    HW211588   5.979  10.803   2.866
37188SOL     OW11589   7.046  10.815   3.201
37188SOL    HW111590   7.070  10.909   3.227
37188SOL    HW211591   7.030  10.761   3.283
37189SOL     OW11592   6.024   9.702   3.361
37189SOL    HW111593   6.106   9.646   3.370
37189SOL    HW211594   5.943   9.644   3.365
37190SOL     OW11595   7.189   9.757   2.599
37190SOL    HW111596   7.115   9.803   2.549
37190SOL    HW211597   7.240   9.825   2.652
37191SOL     OW11598   5.817  11.023   2.345
37191SOL    HW111599   5.851  11.100   2.399
37191SOL    HW211600   5.861  11.023   2.255
37192SOL     OW11601   6.713  10.651   3.552
37192SOL    HW111602   6.760  10.651   3.640
37192SOL    HW211603   6.665  10.564   3.541
37193SOL     OW11604   5.816  10.744   2.400
37193SOL    HW111605   5.790  10.840   2.400
37193SOL    HW211606   5.745  10.690   2.445
37194SOL     OW11607   5.826  10.401   2.748
37194SOL    HW111608   5.840  10.317   2.800
37194SOL    HW211609   5.771  10.465   2.803
37195SOL     OW11610   6.206  11.096   3.301
37195SOL    HW111611   6.114  11.079   3.336
37195SOL    HW211612   6.234  11.188   3.327
37196SOL     OW11613   6.192  10.274   1.985
37196SOL    HW111614   6.199  10.358   1.931
37196SOL    HW211615   6.238  10.287   2.073
37197SOL     OW11616   7.180   9.424   3.342
37197SOL    HW111617   7.162   9.491   3.270
37197SOL    HW211618   7.177   9.470   3.431
37198SOL     OW11619   5.708   9.953   2.425
37198SOL    HW111620   5.663   9.865   2.442
37198SOL    HW211621   5.707  10.007   2.509
37199SOL     OW11622   7.428  11.077   2.221
37199SOL    HW111623   7.482  11.048   2.301
37199SOL    HW211624   7.458  11.167   2.192
37200SOL     OW11625   5.613  10.906   1.979
37200SOL    HW111626   5.594  10.810   2.000
37200SOL    HW211627   5.580  10.964   2.054
37201SOL     OW11628   7.275  10.232   2.474
37201SOL    HW111629   7.370  10.203   2.482
37201SOL    HW211630   7.267  10.297   2.399
37202SOL     OW11631   7.227  10.418   2.294
37202SOL    HW111632   7.313  10.420   2.242
37202SOL    HW211633   7.241  10.465   2.382
37203SOL     OW11634   5.699  10.047   3.459
37203SOL    HW111635   5.787  10.034   3.504
37203SOL    HW211636   5.686  10.144   3.437
37204SOL     OW11637   6.199  10.675   2.588
37204SOL    HW111638   6.150  10.588   2.597
37204SOL    HW211639   6.176  10.718   2.501
37205SOL     OW11640   6.879  10.538   3.285
37205SOL    HW111641   6.916  10.465   3.227
37205SOL    HW211642   6.931  10.543   3.370
37206SOL     OW11643   6.395   9.314   2.364
37206SOL    HW111644   6.435   9.405   2.355
37206SOL    HW211645   6.295   9.322   2.370
37207SOL     OW11646   5.783  10.286   3.126
37207SOL    HW111647   5.872  10.241   3.112
37207SOL    HW211648   5.710  10.221   3.107
37208SOL     OW11649   7.111  10.309   2.052
37208SOL    HW111650   7.048  10.233   2.065
37208SOL    HW211651   7.159  10.327   2.138
37209SOL     OW11652   6.773  11.102   3.478
37209SOL    HW111653   6.797  11.162   3.402
37209SOL    HW211654   6.780  11.007   3.448
37210SOL     OW11655   5.903   9.561   3.663
37210SOL    HW111656   5.974   9.632   3.669
37210SOL    HW211657   5.815   9.600   3.691
37211SOL     OW11658   7.052  10.727   2.815
37211SOL    HW111659   6.993  10.733   2.895
37211SOL    HW211660   7.037  10.639   2.769
37212SOL     OW11661   7.253  11.024   2.434
37212SOL    HW111662   7.212  11.001   2.346
37212SOL    HW211663   7.235  10.950   2.499
37213SOL     OW11664   6.184  10.039   2.132
37213SOL    HW111665   6.208  10.108   2.064
37213SOL    HW211666   6.106  10.072   2.186
37214SOL     OW11667   6.867   9.655   2.806
37214SOL    HW111668   6.781   9.605   2.793
37214SOL    HW211669   6.929   9.601   2.862
37215SOL     OW11670   7.162  10.972   2.169
37215SOL    HW111671   7.251  11.018   2.172
37215SOL    HW211672   7.141  10.948   2.074
37216SOL     OW11673   6.393   9.915   3.327
37216SOL    HW111674   6.346   9.912   3.416
37216SOL    HW211675   6.342   9.860   3.261
37217SOL     OW11676   6.980   9.779   3.536
37217SOL    HW111677   6.960   9.822   3.624
37217SOL    HW211678   7.058   9.717   3.545
37218SOL     OW11679   6.559  10.200   3.434
37218SOL    HW111680   6.605  10.116   3.405
37218SOL    HW211681   6.503  10.234   3.359
37219SOL     OW11682   6.577   9.720   3.104
37219SOL    HW111683   6.500   9.754   3.158
37219SOL    HW211684   6.543   9.669   3.025
37220SOL     OW11685   6.627  10.011   2.291
37220SOL    HW111686   6.653  10.007   2.387
37220SOL    HW211687   6.542   9.960   2.277
37221SOL     OW11688   5.662  10.121   2.651
37221SOL    HW111689   5.761  10.109   2.660
37221SOL    HW211690   5.638  10.216   2.672
37222SOL     OW11691   5.716  11.131   3.433
37222SOL    HW111692   5.706  11.116   3.532
37222SOL    HW211693   5.630  11.167   3.397
37223SOL     OW11694   6.451   9.658   2.057
37223SOL    HW111695   6.510   9.721   2.008
37223SOL    HW211696   6.470   9.564   2.028
37224SOL     OW11697   7.305   9.895   3.693
37224SOL    HW111698   7.279   9.984   3.657
37224SOL    HW211699   7.303   9.827   3.620
37225SOL     OW11700   6.948  10.454   2.407
37225SOL    HW111701   7.031  10.425   2.359
37225SOL    HW211702   6.899  10.521   2.351
37226SOL     OW11703   6.136   9.506   2.747
37226SOL    HW111704   6.131   9.501   2.847
37226SOL    HW211705   6.138   9.602   2.718
37227SOL     OW11706   6.594  10.766   2.339
37227SOL    HW111707   6.548  10.838   2.287
37227SOL    HW211708   6.590  10.786   2.437
37228SOL     OW11709   5.937  11.111   2.715
37228SOL    HW111710   5.987  11.025   2.721
37228SOL    HW211711   6.002  11.188   2.712
37229SOL     OW11712   7.381  10.376   2.735
37229SOL    HW111713   7.319  10.361   2.659
37229SOL    HW211714   7.329  10.387   2.820
37230SOL     OW11715   6.813  10.860   3.368
37230SOL    HW111716   6.819  10.783   3.432
37230SOL    HW211717   6.761  10.834   3.288
37231SOL     OW11718   5.907  10.253   2.104
37231SOL    HW111719   5.989  10.292   2.062
37231SOL    HW211720   5.880  10.171   2.055
37232SOL     OW11721   7.044  10.045   2.590
37232SOL    HW111722   7.039   9.980   2.665
37232SOL    HW211723   7.124  10.104   2.603
37233SOL     OW11724   6.047  10.576   3.589
37233SOL    HW111725   5.997  10.577   3.503
37233SOL    HW211726   5.984  10.558   3.665
37234SOL     OW11727   6.697  11.086   2.099
37234SOL    HW111728   6.637  11.024   2.149
37234SOL    HW211729   6.728  11.042   2.014
37235SOL     OW11730   5.788   9.595   3.360
37235SOL    HW111731   5.708   9.655   3.347
37235SOL    HW211732   5.778   9.546   3.446
37236SOL     OW11733   7.218  10.687   1.943
37236SOL    HW111734   7.186  10.781   1.933
37236SOL    HW211735   7.142  10.624   1.931
37237SOL     OW11736   6.050  11.053   2.185
37237SOL    HW111737   6.083  11.092   2.271
37237SOL    HW211738   6.126  11.046   2.120
37238SOL     OW11739   6.986   9.417   2.288
37238SOL    HW111740   6.962   9.380   2.198
37238SOL    HW211741   7.085   9.433   2.292
37239SOL     OW11742   5.835  11.095   3.103
37239SOL    HW111743   5.892  11.030   3.153
37239SOL    HW211744   5.819  11.062   3.010
37240SOL     OW11745   6.526  11.008   2.766
37240SOL    HW111746   6.606  10.951   2.787
37240SOL    HW211747   6.477  10.968   2.689
37241SOL     OW11748   5.968  10.010   2.342
37241SOL    HW111749   6.013   9.920   2.339
37241SOL    HW211750   5.874   9.999   2.375
37242SOL     OW11751   7.133   9.532   3.591
37242SOL    HW111752   7.128   9.569   3.683
37242SOL    HW211753   7.061   9.463   3.579
37243SOL     OW11754   6.200   9.432   1.979
37243SOL    HW111755   6.298   9.410   1.986
37243SOL    HW211756   6.169   9.415   1.886
37244SOL     OW11757   6.367   9.574   3.611
37244SOL    HW111758   6.434   9.513   3.654
37244SOL    HW211759   6.294   9.593   3.676
37245SOL     OW11760   6.474  10.824   3.057
37245SOL    HW111761   6.451  10.799   2.963
37245SOL    HW211762   6.535  10.755   3.096
37246SOL     OW11763   6.937   9.900   3.295
37246SOL    HW111764   6.965   9.857   3.380
37246SOL    HW211765   6.962   9.996   3.296
37247SOL     OW11766   6.389  10.712   2.786
37247SOL    HW111767   6.479  10.726   2.744
37247SOL    HW211768   6.318  10.714   2.715
37248SOL     OW11769   6.508   9.813   2.761
37248SOL    HW111770   6.483   9.804   2.665
37248SOL    HW211771   6.556   9.731   2.792
37249SOL     OW11772   6.125   9.374   2.374
37249SOL    HW111773   6.044   9.375   2.432
37249SOL    HW211774   6.128   9.457   2.319
37250SOL     OW11775   7.020  10.498   1.903
37250SOL    HW111776   7.052  10.422   1.960
37250SOL    HW211777   6.928  10.525   1.933
37251SOL     OW11778   5.883   9.345   2.033
37251SOL    HW111779   5.932   9.429   2.012
37251SOL    HW211780   5.945   9.280   2.078
37252SOL     OW11781   6.521   9.546   2.342
37252SOL    HW111782   6.473   9.587   2.264
37252SOL    HW211783   6.620   9.544   2.323
37253SOL     OW11784   6.662   9.993   3.326
37253SOL    HW111785   6.582   9.932   3.329
37253SOL    HW211786   6.743   9.940   3.302
37254SOL     OW11787   6.813  10.880   2.655
37254SOL    HW111788   6.834  10.954   2.590
37254SOL    HW211789   6.881  10.880   2.728
37255SOL     OW11790   6.045  10.462   2.603
37255SOL    HW111791   5.974  10.435   2.668
37255SOL    HW211792   6.019  10.434   2.510
37256SOL     OW11793   6.857  11.107   2.453
37256SOL    HW111794   6.901  11.171   2.389
37256SOL    HW211795   6.807  11.159   2.523
37257SOL     OW11796   6.618   9.859   1.878
37257SOL    HW111797   6.577   9.941   1.839
37257SOL    HW211798   6.682   9.885   1.951
37258SOL     OW11799   5.664   9.866   3.248
37258SOL    HW111800   5.756   9.865   3.207
37258SOL    HW211801   5.658   9.940   3.315
37259SOL     OW11802   6.147   9.532   3.009
37259SOL    HW111803   6.185   9.448   3.046
37259SOL    HW211804   6.059   9.551   3.053
37260SOL     OW11805   6.452   9.764   2.504
37260SOL    HW111806   6.420   9.836   2.442
37260SOL    HW211807   6.476   9.683   2.451
37261SOL     OW11808   6.603   9.349   2.615
37261SOL    HW111809   6.531   9.354   2.546
37261SOL    HW211810   6.579   9.280   2.684
37262SOL     OW11811   7.015  10.483   2.729
37262SOL    HW111812   6.960  10.399   2.722
37262SOL    HW211813   7.041  10.512   2.637
37263SOL     OW11814   7.052   9.900   2.854
37263SOL    HW111815   7.022   9.805   2.861
37263SOL    HW211816   7.125   9.916   2.920
37264SOL     OW11817   7.443  10.143   2.239
37264SOL    HW111818   7.485  10.079   2.303
37264SOL    HW211819   7.405  10.092   2.161
37265SOL     OW11820   6.074  10.695   2.036
37265SOL    HW111821   5.987  10.680   2.083
37265SOL    HW211822   6.057  10.721   1.941
37266SOL     OW11823   7.250  10.590   2.519
37266SOL    HW111824   7.349  10.598   2.533
37266SOL    HW211825   7.205  10.674   2.550
37267SOL     OW11826   6.976   9.885   1.940
37267SOL    HW111827   6.922   9.864   2.021
37267SOL    HW211828   7.067   9.844   1.949
37268SOL     OW11829   6.113   9.566   2.190
37268SOL    HW111830   6.140   9.507   2.115
37268SOL    HW211831   6.113   9.661   2.159
37269SOL     OW11832   7.340  10.533   3.450
37269SOL    HW111833   7.431  10.494   3.437
37269SOL    HW211834   7.348  10.629   3.474
37270SOL     OW11835   6.650  10.657   3.202
37270SOL    HW111836   6.570  10.634   3.257
37270SOL    HW211837   6.733  10.631   3.251
37271SOL     OW11838   7.178  10.939   3.487
37271SOL    HW111839   7.205  10.973   3.397
37271SOL    HW211840   7.257  10.901   3.533
37272SOL     OW11841   6.697  10.505   2.962
37272SOL    HW111842   6.657  10.549   3.043
37272SOL    HW211843   6.656  10.542   2.879
37273SOL     OW11844   7.224  10.409   2.941
37273SOL    HW111845   7.229  10.490   3.000
37273SOL    HW211846   7.138  10.411   2.890
37274SOL     OW11847   6.501   9.399   3.264
37274SOL    HW111848   6.526   9.379   3.169
37274SOL    HW211849   6.573   9.455   3.306
37275SOL     OW11850   6.566  10.426   3.581
37275SOL    HW111851   6.467  10.432   3.591
37275SOL    HW211852   6.589  10.346   3.525
37276SOL     OW11853   6.291  10.360   2.230
37276SOL    HW111854   6.277  10.367   2.329
37276SOL    HW211855   6.375  10.309   2.212
37277SOL     OW11856   5.996  10.123   3.113
37277SOL    HW111857   6.082  10.135   3.163
37277SOL    HW211858   5.954  10.036   3.140
37278SOL     OW11859   6.860   9.696   3.124
37278SOL    HW111860   6.881   9.770   3.188
37278SOL    HW211861   6.771   9.713   3.081
37279SOL     OW11862   5.650  10.874   3.193
37279SOL    HW111863   5.604  10.956   3.159
37279SOL    HW211864   5.748  10.893   3.202
37280SOL     OW11865   5.953  10.410   2.363
37280SOL    HW111866   5.946  10.493   2.307
37280SOL    HW211867   5.957  10.330   2.303
37281SOL     OW11868   6.152   9.847   2.727
37281SOL    HW111869   6.164   9.913   2.653
37281SOL    HW211870   6.198   9.881   2.810
37282SOL     OW11871   6.838  10.658   2.250
37282SOL    HW111872   6.888  10.735   2.290
37282SOL    HW211873   6.743  10.660   2.282
37283SOL     OW11874   6.858  10.755   3.004
37283SOL    HW111875   6.905  10.768   3.091
37283SOL    HW211876   6.792  10.681   3.013
37284SOL     OW11877   7.168   9.949   2.334
37284SOL    HW111878   7.137  10.010   2.407
37284SOL    HW211879   7.218  10.001   2.265
37285SOL     OW11880   5.940  10.820   3.191
37285SOL    HW111881   5.919  10.776   3.104
37285SOL    HW211882   6.037  10.846   3.194
37286SOL     OW11883   5.988  10.061   3.460
37286SOL    HW111884   6.056  10.116   3.413
37286SOL    HW211885   6.028   9.973   3.487
37287SOL     OW11886   7.173  10.089   3.532
37287SOL    HW111887   7.081  10.127   3.527
37287SOL    HW211888   7.233  10.136   3.467
37288SOL     OW11889   6.599   9.415   3.632
37288SOL    HW111890   6.605   9.500   3.580
37288SOL    HW211891   6.631   9.339   3.575
37289SOL     OW11892   6.090   9.360   3.602
37289SOL    HW111893   6.048   9.303   3.532
37289SOL    HW211894   6.024   9.429   3.634
37290SOL     OW11895   6.159  10.180   2.891
37290SOL    HW111896   6.203  10.269   2.882
37290SOL    HW211897   6.096  10.180   2.968
37291SOL     OW11898   6.946  10.172   2.907
37291SOL    HW111899   6.871  10.172   2.841
37291SOL    HW211900   6.983  10.080   2.916
37292SOL     OW11901   6.795   9.835   2.137
37292SOL    HW111902   6.808   9.751   2.191
37292SOL    HW211903   6.766   9.909   2.197
37293SOL     OW11904   5.893   9.523   3.093
37293SOL    HW111905   5.870   9.560   3.183
37293SOL    HW211906   5.863   9.428   3.087
37294SOL     OW11907   5.623  10.620   3.144
37294SOL    HW111908   5.676  10.571   3.212
37294SOL    HW211909   5.645  10.718   3.149
37295SOL     OW11910   6.318   9.944   2.926
37295SOL    HW111911   6.377   9.918   2.850
37295SOL    HW211912   6.290  10.040   2.915
37296SOL     OW11913   7.314  10.245   3.716
37296SOL    HW111914   7.268  10.238   3.627
37296SOL    HW211915   7.252  10.289   3.782
37297SOL     OW11916   5.893   9.373   2.480
37297SOL    HW111917   5.882   9.467   2.513
37297SOL    HW211918   5.888   9.310   2.557
37298SOL     OW11919   7.208   9.677   2.236
37298SOL    HW111920   7.210   9.601   2.300
37298SOL    HW211921   7.160   9.754   2.276
37299SOL     OW11922   6.609  10.076   2.828
37299SOL    HW111923   6.624  10.097   2.924
37299SOL    HW211924   6.579   9.981   2.819
37300SOL     OW11925   6.566  10.883   3.562
37300SOL    HW111926   6.546  10.927   3.474
37300SOL    HW211927   6.605  10.792   3.546
37301SOL     OW11928   7.445  10.828   3.467
37301SOL    HW111929   7.459  10.855   3.372
37301SOL    HW211930   7.528  10.850   3.520
37302SOL     OW11931   5.936  10.208   3.666
37302SOL    HW111932   6.012  10.252   3.714
37302SOL    HW211933   5.971  10.161   3.584
37303SOL     OW11934   7.126   9.584   1.987
37303SOL    HW111935   7.065   9.509   2.010
37303SOL    HW211936   7.148   9.636   2.070
37304SOL     OW11937   6.889  10.148   1.904
37304SOL    HW111938   6.923  10.055   1.919
37304SOL    HW211939   6.907  10.175   1.809
37305SOL     OW11940   6.654  10.643   2.711
37305SOL    HW111941   6.661  10.559   2.656
37305SOL    HW211942   6.716  10.712   2.675
37306SOL     OW11943   5.905  10.120   2.811
37306SOL    HW111944   5.998  10.156   2.816
37306SOL    HW211945   5.899  10.035   2.863
37307SOL     OW11946   5.925   9.819   2.868
37307SOL    HW111947   5.873   9.736   2.851
37307SOL    HW211948   6.002   9.824   2.804
37308SOL     OW11949   6.724   9.690   3.540
37308SOL    HW111950   6.679   9.753   3.604
37308SOL    HW211951   6.817   9.721   3.523
37309SOL     OW11952   6.746   9.517   3.339
37309SOL    HW111953   6.746   9.581   3.416
37309SOL    HW211954   6.774   9.565   3.256
37310SOL     OW11955   5.594  10.636   2.062
37310SOL    HW111956   5.501  10.657   2.031
37310SOL    HW211957   5.604  10.537   2.075
37311SOL     OW11958   5.674  11.111   2.789
37311SOL    HW111959   5.632  11.025   2.762
37311SOL    HW211960   5.768  11.114   2.755
37312SOL     OW11961   6.090  10.878   2.772
37312SOL    HW111962   6.156  10.952   2.781
37312SOL    HW211963   6.134  10.799   2.730
37313SOL     OW11964   6.588  10.106   3.100
37313SOL    HW111965   6.629  10.074   3.186
37313SOL    HW211966   6.492  10.079   3.097
37314SOL     OW11967   5.626   9.854   2.976
37314SOL    HW111968   5.711   9.821   2.935
37314SOL    HW211969   5.639   9.869   3.074
37315SOL     OW11970   5.775   9.830   3.584
37315SOL    HW111971   5.834   9.790   3.514
37315SOL    HW211972   5.717   9.901   3.543
37316SOL     OW11973   6.955  10.260   3.522
37316SOL    HW111974   6.994  10.349   3.542
37316SOL    HW211975   6.965  10.240   3.425
37317SOL     OW11976   6.401   9.882   2.187
37317SOL    HW111977   6.408   9.793   2.141
37317SOL    HW211978   6.307   9.916   2.179
37318SOL     OW11979   7.243   9.914   3.068
37318SOL    HW111980   7.205   9.845   3.130
37318SOL    HW211981   7.325   9.878   3.024
37319SOL     OW11982   5.838  10.874   3.606
37319SOL    HW111983   5.808  10.931   3.682
37319SOL    HW211984   5.831  10.777   3.632
37320SOL     OW11985   6.257   9.774   3.131
37320SOL    HW111986   6.223   9.685   3.101
37320SOL    HW211987   6.283   9.828   3.051
37321SOL     OW11988   6.516  10.988   3.327
37321SOL    HW111989   6.492  10.970   3.232
37321SOL    HW211990   6.546  11.082   3.337
37322SOL     OW11991   6.059   9.810   2.053
37322SOL    HW111992   6.120   9.890   2.057
37322SOL    HW211993   5.964   9.841   2.060
37323SOL     OW11994   5.745  10.447   3.328
37323SOL    HW111995   5.767  10.386   3.404
37323SOL    HW211996   5.755  10.398   3.242
37324SOL     OW11997   6.933  10.369   3.096
37324SOL    HW111998   6.957  10.306   3.022
37324SOL    HW211999   6.843  10.409   3.078
37325SOL     OW12000   6.888  10.165   2.171
37325SOL    HW112001   6.802  10.134   2.213
37325SOL    HW212002   6.884  10.151   2.072
37326SOL     OW12003   7.345  11.057   3.016
37326SOL    HW112004   7.406  11.087   2.943
37326SOL    HW212005   7.307  10.968   2.994
37327SOL     OW12006   6.838  11.041   2.990
37327SOL    HW112007   6.922  11.046   2.936
37327SOL    HW212008   6.815  10.945   3.008
37328SOL     OW12009   5.669  10.568   2.884
37328SOL    HW112010   5.664  10.567   2.984
37328SOL    HW212011   5.586  10.527   2.846
37329SOL     OW12012   6.274  10.972   3.578
37329SOL    HW112013   6.218  11.053   3.587
37329SOL    HW212014   6.326  10.976   3.492
37330SOL     OW12015   7.312   9.445   2.385
37330SOL    HW112016   7.385   9.428   2.318
37330SOL    HW212017   7.281   9.358   2.423
37331SOL     OW12018   6.974  10.883   2.339
37331SOL    HW112019   7.041  10.895   2.265
37331SOL    HW212020   6.934  10.972   2.362
37332SOL     OW12021   5.716  11.104   3.713
37332SOL    HW112022   5.675  11.030   3.766
37332SOL    HW212023   5.780  11.155   3.771
37333SOL     OW12024   6.866  10.237   2.534
37333SOL    HW112025   6.926  10.156   2.536
37333SOL    HW212026   6.906  10.306   2.474
37334SOL     OW12027   6.416  10.583   3.284
37334SOL    HW112028   6.411  10.616   3.379
37334SOL    HW212029   6.330  10.602   3.238
37335SOL     OW12030   6.258  10.926   2.016
37335SOL    HW112031   6.267  10.936   1.917
37335SOL    HW212032   6.218  10.837   2.037
37336SOL     OW12033   7.236  11.030   3.256
37336SOL    HW112034   7.289  11.040   3.172
37336SOL    HW212035   7.209  11.120   3.290
37337SOL     OW12036   7.427   9.485   2.825
37337SOL    HW112037   7.466   9.400   2.789
37337SOL    HW212038   7.329   9.487   2.806
37338SOL     OW12039   5.849   9.636   2.582
37338SOL    HW112040   5.770   9.687   2.548
37338SOL    HW212041   5.840   9.621   2.680
37339SOL     OW12042   6.780  10.922   1.893
37339SOL    HW112043   6.786  10.829   1.930
37339SOL    HW212044   6.721  10.922   1.813
37340SOL     OW12045   6.408  10.312   3.234
37340SOL    HW112046   6.448  10.311   3.142
37340SOL    HW212047   6.418  10.404   3.274
37341SOL     OW12048   6.502  10.220   2.153
37341SOL    HW112049   6.565  10.258   2.085
37341SOL    HW212050   6.542  10.137   2.192
37342SOL     OW12051   7.090  10.917   1.906
37342SOL    HW112052   6.998  10.954   1.913
37342SOL    HW212053   7.128  10.937   1.816
37343SOL     OW12054   5.958  10.598   3.352
37343SOL    HW112055   5.945  10.691   3.318
37343SOL    HW212056   5.874  10.546   3.339
37344SOL     OW12057   7.200  10.602   3.151
37344SOL    HW112058   7.260  10.605   3.231
37344SOL    HW212059   7.125  10.666   3.164
37345SOL     OW12060   6.625  10.408   2.558
37345SOL    HW112061   6.555  10.361   2.612
37345SOL    HW212062   6.684  10.340   2.515
37346SOL     OW12063   6.600   9.546   2.833
37346SOL    HW112064   6.592   9.510   2.740
37346SOL    HW212065   6.598   9.470   2.898
37347SOL     OW12066   6.176  10.797   2.353
37347SOL    HW112067   6.218  10.739   2.283
37347SOL    HW212068   6.132  10.876   2.309
37348SOL     OW12069   7.295   9.695   3.243
37348SOL    HW112070   7.368   9.764   3.247
37348SOL    HW212071   7.323   9.620   3.184
37349SOL     OW12072   5.841  10.658   2.152
37349SOL    HW112073   5.745  10.659   2.125
37349SOL    HW212074   5.853  10.711   2.236
37350SOL     OW12075   5.691  10.323   3.588
37350SOL    HW112076   5.614  10.290   3.642
37350SOL    HW212077   5.776  10.293   3.630
37351SOL     OW12078   6.258   9.513   3.351
37351SOL    HW112079   6.348   9.497   3.311
37351SOL    HW212080   6.266   9.518   3.450
37352SOL     OW12081   5.661   9.655   1.895
37352SOL    HW112082   5.569   9.627   1.866
37352SOL    HW212083   5.692   9.732   1.839
37353SOL     OW12084   7.026  10.166   3.260
37353SOL    HW112085   6.969  10.218   3.197
37353SOL    HW212086   7.122  10.178   3.236
37354SOL     OW12087   5.658   9.476   2.180
37354SOL    HW112088   5.641   9.559   2.126
37354SOL    HW212089   5.748   9.439   2.158
37355SOL     OW12090   6.769  10.645   1.981
37355SOL    HW112091   6.670  10.634   1.983
37355SOL    HW212092   6.803  10.660   2.074
37356SOL     OW12093   6.199  10.152   3.293
37356SOL    HW112094   6.255  10.233   3.276
37356SOL    HW212095   6.258  10.072   3.296
37357SOL     OW12096   7.079  11.077   2.821
37357SOL    HW112097   7.112  11.141   2.752
37357SOL    HW212098   7.145  11.071   2.896
37358SOL     OW12099   6.302   9.875   3.570
37358SOL    HW112100   6.321   9.940   3.644
37358SOL    HW212101   6.362   9.795   3.579
37359SOL     OW12102   7.036  10.530   3.495
37359SOL    HW112103   7.027  10.520   3.594
37359SOL    HW212104   7.132  10.523   3.469
37360SOL     OW12105   5.976  11.051   3.422
37360SOL    HW112106   5.885  11.092   3.420
37360SOL    HW212107   5.969  10.957   3.454
37361SOL     OW12108   7.260  10.193   3.116
37361SOL    HW112109   7.233  10.104   3.079
37361SOL    HW212110   7.261  10.261   3.043
37362SOL     OW12111   6.811   9.635   2.311
37362SOL    HW112112   6.876   9.561   2.300
37362SOL    HW212113   6.831   9.685   2.395
37363SOL     OW12114   6.180  10.055   2.514
37363SOL    HW112115   6.230  10.140   2.495
37363SOL    HW212116   6.092  10.057   2.466
37364SOL     OW12117   7.363   9.652   3.504
37364SOL    HW112118   7.346   9.683   3.410
37364SOL    HW212119   7.279   9.615   3.542
37365SOL     OW12120   7.316  10.244   3.379
37365SOL    HW112121   7.354  10.335   3.394
37365SOL    HW212122   7.308  10.227   3.280
37366SOL     OW12123   6.445  10.684   1.878
37366SOL    HW112124   6.399  10.699   1.966
37366SOL    HW212125   6.489  10.769   1.848
37367SOL     OW12126   6.247  11.100   2.815
37367SOL    HW112127   6.201  11.188   2.802
37367SOL    HW212128   6.346  11.112   2.808
37368SOL     OW12129   6.445  10.266   2.723
37368SOL    HW112130   6.499  10.197   2.771
37368SOL    HW212131   6.413  10.335   2.789
37369SOL     OW12132   6.669  10.294   1.949
37369SOL    HW112133   6.646  10.347   1.867
37369SOL    HW212134   6.750  10.238   1.930
37370SOL     OW12135   7.447  10.879   2.713
37370SOL    HW112136   7.376  10.867   2.643
37370SOL    HW212137   7.448  10.800   2.773
37371SOL     OW12138   5.807  10.624   3.706
37371SOL    HW112139   5.742  10.551   3.685
37371SOL    HW212140   5.811  10.638   3.804
37372SOL     OW12141   5.665  10.550   2.515
37372SOL    HW112142   5.664  10.503   2.603
37372SOL    HW212143   5.747  10.522   2.464
37373SOL     OW12144   6.258  10.701   3.486
37373SOL    HW112145   6.180  10.651   3.524
37373SOL    HW212146   6.255  10.796   3.517
37374SOL     OW12147   7.410   9.502   3.089
37374SOL    HW112148   7.406   9.412   3.133
37374SOL    HW212149   7.413   9.491   2.990
37375SOL     OW12150   6.014   9.734   2.382
37375SOL    HW112151   6.044   9.662   2.320
37375SOL    HW212152   5.975   9.694   2.465
37376SOL     OW12153   7.291  10.797   2.966
37376SOL    HW112154   7.198  10.772   2.939
37376SOL    HW212155   7.317  10.747   3.048
37377SOL     OW12156   5.903   9.857   3.142
37377SOL    HW112157   5.941   9.798   3.214
37377SOL    HW212158   5.943   9.831   3.054
37378SOL     OW12159   6.398  10.896   2.549
37378SOL    HW112160   6.430  10.906   2.455
37378SOL    HW212161   6.319  10.834   2.551
37379SOL     OW12162   7.010   9.524   2.974
37379SOL    HW112163   7.062   9.459   3.029
37379SOL    HW212164   6.961   9.587   3.035
37380SOL     OW12165   6.587   9.344   3.016
37380SOL    HW112166   6.524   9.272   2.985
37380SOL    HW212167   6.680   9.308   3.016
37381SOL     OW12168   6.356  10.640   2.163
37381SOL    HW112169   6.310  10.553   2.180
37381SOL    HW212170   6.447  10.637   2.204
37382SOL     OW12171   6.204  10.877   3.146
37382SOL    HW112172   6.199  10.959   3.203
37382SOL    HW212173   6.293  10.874   3.101
37383SOL     OW12174   6.938   9.362   2.030
37383SOL    HW112175   6.973   9.321   1.946
37383SOL    HW212176   6.848   9.324   2.050
37384SOL     OW12177   6.886   9.763   2.553
37384SOL    HW112178   6.827   9.843   2.557
37384SOL    HW212179   6.901   9.728   2.646
37385SOL     OW12180   7.179   9.531   2.744
37385SOL    HW112181   7.095   9.530   2.798
37385SOL    HW212182   7.181   9.614   2.688
37386SOL     OW12183   5.625  10.387   2.162
37386SOL    HW112184   5.724  10.376   2.153
37386SOL    HW212185   5.585  10.301   2.194
37387SOL     OW12186   6.461  10.956   2.199
37387SOL    HW112187   6.384  10.921   2.145
37387SOL    HW212188   6.429  11.027   2.261
37388SOL     OW12189   5.816   9.938   3.837
37388SOL    HW112190   5.723   9.936   3.874
37388SOL    HW212191   5.817   9.899   3.745
37389SOL     OW12192   5.811   9.585   4.720
37389SOL    HW112193   5.846   9.568   4.812
37389SOL    HW212194   5.723   9.540   4.708
37390SOL     OW12195   5.605   9.678   4.371
37390SOL    HW112196   5.523   9.721   4.410
37390SOL    HW212197   5.577   9.605   4.308
37391SOL     OW12198   6.155  10.585   4.889
37391SOL    HW112199   6.062  10.578   4.852
37391SOL    HW212200   6.166  10.674   4.933
37392SOL     OW12201   7.141  10.821   4.427
37392SOL    HW112202   7.084  10.805   4.508
37392SOL    HW212203   7.082  10.831   4.347
37393SOL     OW12204   6.721  10.013   4.441
37393SOL    HW112205   6.778  10.091   4.416
37393SOL    HW212206   6.661  10.039   4.517
37394SOL     OW12207   7.341   9.917   3.955
37394SOL    HW112208   7.329   9.904   3.856
37394SOL    HW212209   7.311   9.836   4.004
37395SOL     OW12210   6.354  10.454   4.747
37395SOL    HW112211   6.276  10.471   4.807
37395SOL    HW212212   6.388  10.541   4.711
37396SOL     OW12213   6.436  10.108   5.547
37396SOL    HW112214   6.432  10.184   5.612
37396SOL    HW212215   6.458  10.144   5.456
37397SOL     OW12216   6.271  10.322   4.389
37397SOL    HW112217   6.340  10.306   4.459
37397SOL    HW212218   6.198  10.379   4.427
37398SOL     OW12219   6.272  10.471   5.527
37398SOL    HW112220   6.332  10.550   5.541
37398SOL    HW212221   6.186  10.502   5.486
37399SOL     OW12222   5.921  10.745   4.785
37399SOL    HW112223   5.843  10.714   4.732
37399SOL    HW212224   5.979  10.803   4.728
37400SOL     OW12225   7.046  10.815   5.063
37400SOL    HW112226   7.070  10.909   5.089
37400SOL    HW212227   7.030  10.761   5.145
37401SOL     OW12228   6.024   9.702   5.223
37401SOL    HW112229   6.106   9.646   5.232
37401SOL    HW212230   5.943   9.644   5.227
37402SOL     OW12231   7.189   9.757   4.461
37402SOL    HW112232   7.115   9.803   4.411
37402SOL    HW212233   7.240   9.825   4.514
37403SOL     OW12234   5.817  11.023   4.207
37403SOL    HW112235   5.851  11.100   4.261
37403SOL    HW212236   5.861  11.023   4.117
37404SOL     OW12237   6.713  10.651   5.414
37404SOL    HW112238   6.760  10.651   5.502
37404SOL    HW212239   6.665  10.564   5.403
37405SOL     OW12240   5.816  10.744   4.262
37405SOL    HW112241   5.790  10.840   4.262
37405SOL    HW212242   5.745  10.690   4.307
37406SOL     OW12243   5.826  10.401   4.610
37406SOL    HW112244   5.840  10.317   4.662
37406SOL    HW212245   5.771  10.465   4.665
37407SOL     OW12246   6.206  11.096   5.163
37407SOL    HW112247   6.114  11.079   5.198
37407SOL    HW212248   6.234  11.188   5.189
37408SOL     OW12249   6.192  10.274   3.847
37408SOL    HW112250   6.199  10.358   3.793
37408SOL    HW212251   6.238  10.287   3.935
37409SOL     OW12252   7.180   9.424   5.204
37409SOL    HW112253   7.162   9.491   5.132
37409SOL    HW212254   7.177   9.470   5.293
37410SOL     OW12255   5.708   9.953   4.287
37410SOL    HW112256   5.663   9.865   4.304
37410SOL    HW212257   5.707  10.007   4.371
37411SOL     OW12258   7.428  11.077   4.083
37411SOL    HW112259   7.482  11.048   4.163
37411SOL    HW212260   7.458  11.167   4.054
37412SOL     OW12261   5.613  10.906   3.841
37412SOL    HW112262   5.594  10.810   3.862
37412SOL    HW212263   5.580  10.964   3.916
37413SOL     OW12264   7.275  10.232   4.336
37413SOL    HW112265   7.370  10.203   4.344
37413SOL    HW212266   7.267  10.297   4.261
37414SOL     OW12267   7.227  10.418   4.156
37414SOL    HW112268   7.313  10.420   4.104
37414SOL    HW212269   7.241  10.465   4.244
37415SOL     OW12270   5.699  10.047   5.321
37415SOL    HW112271   5.787  10.034   5.366
37415SOL    HW212272   5.686  10.144   5.299
37416SOL     OW12273   6.199  10.675   4.450
37416SOL    HW112274   6.150  10.588   4.459
37416SOL    HW212275   6.176  10.718   4.363
37417SOL     OW12276   6.879  10.538   5.147
37417SOL    HW112277   6.916  10.465   5.089
37417SOL    HW212278   6.931  10.543   5.232
37418SOL     OW12279   6.395   9.314   4.226
37418SOL    HW112280   6.435   9.405   4.217
37418SOL    HW212281   6.295   9.322   4.232
37419SOL     OW12282   5.783  10.286   4.988
37419SOL    HW112283   5.872  10.241   4.974
37419SOL    HW212284   5.710  10.221   4.969
37420SOL     OW12285   7.111  10.309   3.914
37420SOL    HW112286   7.048  10.233   3.927
37420SOL    HW212287   7.159  10.327   4.000
37421SOL     OW12288   6.773  11.102   5.340
37421SOL    HW112289   6.797  11.162   5.264
37421SOL    HW212290   6.780  11.007   5.310
37422SOL     OW12291   5.903   9.561   5.525
37422SOL    HW112292   5.974   9.632   5.531
37422SOL    HW212293   5.815   9.600   5.553
37423SOL     OW12294   7.052  10.727   4.677
37423SOL    HW112295   6.993  10.733   4.757
37423SOL    HW212296   7.037  10.639   4.631
37424SOL     OW12297   7.253  11.024   4.296
37424SOL    HW112298   7.212  11.001   4.208
37424SOL    HW212299   7.235  10.950   4.361
37425SOL     OW12300   6.184  10.039   3.994
37425SOL    HW112301   6.208  10.108   3.926
37425SOL    HW212302   6.106  10.072   4.048
37426SOL     OW12303   6.867   9.655   4.668
37426SOL    HW112304   6.781   9.605   4.655
37426SOL    HW212305   6.929   9.601   4.724
37427SOL     OW12306   7.162  10.972   4.031
37427SOL    HW112307   7.251  11.018   4.034
37427SOL    HW212308   7.141  10.948   3.936
37428SOL     OW12309   6.393   9.915   5.189
37428SOL    HW112310   6.346   9.912   5.278
37428SOL    HW212311   6.342   9.860   5.123
37429SOL     OW12312   6.980   9.779   5.398
37429SOL    HW112313   6.960   9.822   5.486
37429SOL    HW212314   7.058   9.717   5.407
37430SOL     OW12315   6.559  10.200   5.296
37430SOL    HW112316   6.605  10.116   5.267
37430SOL    HW212317   6.503  10.234   5.221
37431SOL     OW12318   6.577   9.720   4.966
37431SOL    HW112319   6.500   9.754   5.020
37431SOL    HW212320   6.543   9.669   4.887
37432SOL     OW12321   6.627  10.011   4.153
37432SOL    HW112322   6.653  10.007   4.249
37432SOL    HW212323   6.542   9.960   4.139
37433SOL     OW12324   5.662  10.121   4.513
37433SOL    HW112325   5.761  10.109   4.522
37433SOL    HW212326   5.638  10.216   4.534
37434SOL     OW12327   5.716  11.131   5.295
37434SOL    HW112328   5.706  11.116   5.394
37434SOL    HW212329   5.630  11.167   5.259
37435SOL     OW12330   6.451   9.658   3.919
37435SOL    HW112331   6.510   9.721   3.870
37435SOL    HW212332   6.470   9.564   3.890
37436SOL     OW12333   7.305   9.895   5.555
37436SOL    HW112334   7.279   9.984   5.519
37436SOL    HW212335   7.303   9.827   5.482
37437SOL     OW12336   6.948  10.454   4.269
37437SOL    HW112337   7.031  10.425   4.221
37437SOL    HW212338   6.899  10.521   4.213
37438SOL     OW12339   6.136   9.506   4.609
37438SOL    HW112340   6.131   9.501   4.709
37438SOL    HW212341   6.138   9.602   4.580
37439SOL     OW12342   6.594  10.766   4.201
37439SOL    HW112343   6.548  10.838   4.149
37439SOL    HW212344   6.590  10.786   4.299
37440SOL     OW12345   5.937  11.111   4.577
37440SOL    HW112346   5.987  11.025   4.583
37440SOL    HW212347   6.002  11.188   4.574
37441SOL     OW12348   7.381  10.376   4.597
37441SOL    HW112349   7.319  10.361   4.521
37441SOL    HW212350   7.329  10.387   4.682
37442SOL     OW12351   6.813  10.860   5.230
37442SOL    HW112352   6.819  10.783   5.294
37442SOL    HW212353   6.761  10.834   5.150
37443SOL     OW12354   5.907  10.253   3.966
37443SOL    HW112355   5.989  10.292   3.924
37443SOL    HW212356   5.880  10.171   3.917
37444SOL     OW12357   7.044  10.045   4.452
37444SOL    HW112358   7.039   9.980   4.527
37444SOL    HW212359   7.124  10.104   4.465
37445SOL     OW12360   6.047  10.576   5.451
37445SOL    HW112361   5.997  10.577   5.365
37445SOL    HW212362   5.984  10.558   5.527
37446SOL     OW12363   6.697  11.086   3.961
37446SOL    HW112364   6.637  11.024   4.011
37446SOL    HW212365   6.728  11.042   3.876
37447SOL     OW12366   5.788   9.595   5.222
37447SOL    HW112367   5.708   9.655   5.209
37447SOL    HW212368   5.778   9.546   5.308
37448SOL     OW12369   7.218  10.687   3.805
37448SOL    HW112370   7.186  10.781   3.795
37448SOL    HW212371   7.142  10.624   3.793
37449SOL     OW12372   6.050  11.053   4.047
37449SOL    HW112373   6.083  11.092   4.133
37449SOL    HW212374   6.126  11.046   3.982
37450SOL     OW12375   6.986   9.417   4.150
37450SOL    HW112376   6.962   9.380   4.060
37450SOL    HW212377   7.085   9.433   4.154
37451SOL     OW12378   5.835  11.095   4.965
37451SOL    HW112379   5.892  11.030   5.015
37451SOL    HW212380   5.819  11.062   4.872
37452SOL     OW12381   6.526  11.008   4.628
37452SOL    HW112382   6.606  10.951   4.649
37452SOL    HW212383   6.477  10.968   4.551
37453SOL     OW12384   5.968  10.010   4.204
37453SOL    HW112385   6.013   9.920   4.201
37453SOL    HW212386   5.874   9.999   4.237
37454SOL     OW12387   7.133   9.532   5.453
37454SOL    HW112388   7.128   9.569   5.545
37454SOL    HW212389   7.061   9.463   5.441
37455SOL     OW12390   6.200   9.432   3.841
37455SOL    HW112391   6.298   9.410   3.848
37455SOL    HW212392   6.169   9.415   3.748
37456SOL     OW12393   6.367   9.574   5.473
37456SOL    HW112394   6.434   9.513   5.516
37456SOL    HW212395   6.294   9.593   5.538
37457SOL     OW12396   6.474  10.824   4.919
37457SOL    HW112397   6.451  10.799   4.825
37457SOL    HW212398   6.535  10.755   4.958
37458SOL     OW12399   6.937   9.900   5.157
37458SOL    HW112400   6.965   9.857   5.242
37458SOL    HW212401   6.962   9.996   5.158
37459SOL     OW12402   6.389  10.712   4.648
37459SOL    HW112403   6.479  10.726   4.606
37459SOL    HW212404   6.318  10.714   4.577
37460SOL     OW12405   6.508   9.813   4.623
37460SOL    HW112406   6.483   9.804   4.527
37460SOL    HW212407   6.556   9.731   4.654
37461SOL     OW12408   6.125   9.374   4.236
37461SOL    HW112409   6.044   9.375   4.294
37461SOL    HW212410   6.128   9.457   4.181
37462SOL     OW12411   7.020  10.498   3.765
37462SOL    HW112412   7.052  10.422   3.822
37462SOL    HW212413   6.928  10.525   3.795
37463SOL     OW12414   5.883   9.345   3.895
37463SOL    HW112415   5.932   9.429   3.874
37463SOL    HW212416   5.945   9.280   3.940
37464SOL     OW12417   6.521   9.546   4.204
37464SOL    HW112418   6.473   9.587   4.126
37464SOL    HW212419   6.620   9.544   4.185
37465SOL     OW12420   6.662   9.993   5.188
37465SOL    HW112421   6.582   9.932   5.191
37465SOL    HW212422   6.743   9.940   5.164
37466SOL     OW12423   6.813  10.880   4.517
37466SOL    HW112424   6.834  10.954   4.452
37466SOL    HW212425   6.881  10.880   4.590
37467SOL     OW12426   6.045  10.462   4.465
37467SOL    HW112427   5.974  10.435   4.530
37467SOL    HW212428   6.019  10.434   4.372
37468SOL     OW12429   6.857  11.107   4.315
37468SOL    HW112430   6.901  11.171   4.251
37468SOL    HW212431   6.807  11.159   4.385
37469SOL     OW12432   6.618   9.859   3.740
37469SOL    HW112433   6.577   9.941   3.701
37469SOL    HW212434   6.682   9.885   3.813
37470SOL     OW12435   5.664   9.866   5.110
37470SOL    HW112436   5.756   9.865   5.069
37470SOL    HW212437   5.658   9.940   5.177
37471SOL     OW12438   6.147   9.532   4.871
37471SOL    HW112439   6.185   9.448   4.908
37471SOL    HW212440   6.059   9.551   4.915
37472SOL     OW12441   6.452   9.764   4.366
37472SOL    HW112442   6.420   9.836   4.304
37472SOL    HW212443   6.476   9.683   4.313
37473SOL     OW12444   6.603   9.349   4.477
37473SOL    HW112445   6.531   9.354   4.408
37473SOL    HW212446   6.579   9.280   4.546
37474SOL     OW12447   7.015  10.483   4.591
37474SOL    HW112448   6.960  10.399   4.584
37474SOL    HW212449   7.041  10.512   4.499
37475SOL     OW12450   7.052   9.900   4.716
37475SOL    HW112451   7.022   9.805   4.723
37475SOL    HW212452   7.125   9.916   4.782
37476SOL     OW12453   7.443  10.143   4.101
37476SOL    HW112454   7.485  10.079   4.165
37476SOL    HW212455   7.405  10.092   4.023
37477SOL     OW12456   6.074  10.695   3.898
37477SOL    HW112457   5.987  10.680   3.945
37477SOL    HW212458   6.057  10.721   3.803
37478SOL     OW12459   7.250  10.590   4.381
37478SOL    HW112460   7.349  10.598   4.395
37478SOL    HW212461   7.205  10.674   4.412
37479SOL     OW12462   6.976   9.885   3.802
37479SOL    HW112463   6.922   9.864   3.883
37479SOL    HW212464   7.067   9.844   3.811
37480SOL     OW12465   6.113   9.566   4.052
37480SOL    HW112466   6.140   9.507   3.977
37480SOL    HW212467   6.113   9.661   4.021
37481SOL     OW12468   7.340  10.533   5.312
37481SOL    HW112469   7.431  10.494   5.299
37481SOL    HW212470   7.348  10.629   5.336
37482SOL     OW12471   6.650  10.657   5.064
37482SOL    HW112472   6.570  10.634   5.119
37482SOL    HW212473   6.733  10.631   5.113
37483SOL     OW12474   7.178  10.939   5.349
37483SOL    HW112475   7.205  10.973   5.259
37483SOL    HW212476   7.257  10.901   5.395
37484SOL     OW12477   6.697  10.505   4.824
37484SOL    HW112478   6.657  10.549   4.905
37484SOL    HW212479   6.656  10.542   4.741
37485SOL     OW12480   7.224  10.409   4.803
37485SOL    HW112481   7.229  10.490   4.862
37485SOL    HW212482   7.138  10.411   4.752
37486SOL     OW12483   6.501   9.399   5.126
37486SOL    HW112484   6.526   9.379   5.031
37486SOL    HW212485   6.573   9.455   5.168
37487SOL     OW12486   6.566  10.426   5.443
37487SOL    HW112487   6.467  10.432   5.453
37487SOL    HW212488   6.589  10.346   5.387
37488SOL     OW12489   6.291  10.360   4.092
37488SOL    HW112490   6.277  10.367   4.191
37488SOL    HW212491   6.375  10.309   4.074
37489SOL     OW12492   5.996  10.123   4.975
37489SOL    HW112493   6.082  10.135   5.025
37489SOL    HW212494   5.954  10.036   5.002
37490SOL     OW12495   6.860   9.696   4.986
37490SOL    HW112496   6.881   9.770   5.050
37490SOL    HW212497   6.771   9.713   4.943
37491SOL     OW12498   5.650  10.874   5.055
37491SOL    HW112499   5.604  10.956   5.021
37491SOL    HW212500   5.748  10.893   5.064
37492SOL     OW12501   5.953  10.410   4.225
37492SOL    HW112502   5.946  10.493   4.169
37492SOL    HW212503   5.957  10.330   4.165
37493SOL     OW12504   6.152   9.847   4.589
37493SOL    HW112505   6.164   9.913   4.515
37493SOL    HW212506   6.198   9.881   4.672
37494SOL     OW12507   6.838  10.658   4.112
37494SOL    HW112508   6.888  10.735   4.152
37494SOL    HW212509   6.743  10.660   4.144
37495SOL     OW12510   6.858  10.755   4.866
37495SOL    HW112511   6.905  10.768   4.953
37495SOL    HW212512   6.792  10.681   4.875
37496SOL     OW12513   7.168   9.949   4.196
37496SOL    HW112514   7.137  10.010   4.269
37496SOL    HW212515   7.218  10.001   4.127
37497SOL     OW12516   5.940  10.820   5.053
37497SOL    HW112517   5.919  10.776   4.966
37497SOL    HW212518   6.037  10.846   5.056
37498SOL     OW12519   5.988  10.061   5.322
37498SOL    HW112520   6.056  10.116   5.275
37498SOL    HW212521   6.028   9.973   5.349
37499SOL     OW12522   7.173  10.089   5.394
37499SOL    HW112523   7.081  10.127   5.389
37499SOL    HW212524   7.233  10.136   5.329
37500SOL     OW12525   6.599   9.415   5.494
37500SOL    HW112526   6.605   9.500   5.442
37500SOL    HW212527   6.631   9.339   5.437
37501SOL     OW12528   6.090   9.360   5.464
37501SOL    HW112529   6.048   9.303   5.394
37501SOL    HW212530   6.024   9.429   5.496
37502SOL     OW12531   6.159  10.180   4.753
37502SOL    HW112532   6.203  10.269   4.744
37502SOL    HW212533   6.096  10.180   4.830
37503SOL     OW12534   6.946  10.172   4.769
37503SOL    HW112535   6.871  10.172   4.703
37503SOL    HW212536   6.983  10.080   4.778
37504SOL     OW12537   6.795   9.835   3.999
37504SOL    HW112538   6.808   9.751   4.053
37504SOL    HW212539   6.766   9.909   4.059
37505SOL     OW12540   5.893   9.523   4.955
37505SOL    HW112541   5.870   9.560   5.045
37505SOL    HW212542   5.863   9.428   4.949
37506SOL     OW12543   5.623  10.620   5.006
37506SOL    HW112544   5.676  10.571   5.074
37506SOL    HW212545   5.645  10.718   5.011
37507SOL     OW12546   6.318   9.944   4.788
37507SOL    HW112547   6.377   9.918   4.712
37507SOL    HW212548   6.290  10.040   4.777
37508SOL     OW12549   7.314  10.245   5.578
37508SOL    HW112550   7.268  10.238   5.489
37508SOL    HW212551   7.252  10.289   5.644
37509SOL     OW12552   5.893   9.373   4.342
37509SOL    HW112553   5.882   9.467   4.375
37509SOL    HW212554   5.888   9.310   4.419
37510SOL     OW12555   7.208   9.677   4.098
37510SOL    HW112556   7.210   9.601   4.162
37510SOL    HW212557   7.160   9.754   4.138
37511SOL     OW12558   6.609  10.076   4.690
37511SOL    HW112559   6.624  10.097   4.786
37511SOL    HW212560   6.579   9.981   4.681
37512SOL     OW12561   6.566  10.883   5.424
37512SOL    HW112562   6.546  10.927   5.336
37512SOL    HW212563   6.605  10.792   5.408
37513SOL     OW12564   7.445  10.828   5.329
37513SOL    HW112565   7.459  10.855   5.234
37513SOL    HW212566   7.528  10.850   5.382
37514SOL     OW12567   5.936  10.208   5.528
37514SOL    HW112568   6.012  10.252   5.576
37514SOL    HW212569   5.971  10.161   5.446
37515SOL     OW12570   7.126   9.584   3.849
37515SOL    HW112571   7.065   9.509   3.872
37515SOL    HW212572   7.148   9.636   3.932
37516SOL     OW12573   6.889  10.148   3.766
37516SOL    HW112574   6.923  10.055   3.781
37516SOL    HW212575   6.907  10.175   3.671
37517SOL     OW12576   6.654  10.643   4.573
37517SOL    HW112577   6.661  10.559   4.518
37517SOL    HW212578   6.716  10.712   4.537
37518SOL     OW12579   5.905  10.120   4.673
37518SOL    HW112580   5.998  10.156   4.678
37518SOL    HW212581   5.899  10.035   4.725
37519SOL     OW12582   5.925   9.819   4.730
37519SOL    HW112583   5.873   9.736   4.713
37519SOL    HW212584   6.002   9.824   4.666
37520SOL     OW12585   6.724   9.690   5.402
37520SOL    HW112586   6.679   9.753   5.466
37520SOL    HW212587   6.817   9.721   5.385
37521SOL     OW12588   6.746   9.517   5.201
37521SOL    HW112589   6.746   9.581   5.278
37521SOL    HW212590   6.774   9.565   5.118
37522SOL     OW12591   5.594  10.636   3.924
37522SOL    HW112592   5.501  10.657   3.893
37522SOL    HW212593   5.604  10.537   3.937
37523SOL     OW12594   5.674  11.111   4.651
37523SOL    HW112595   5.632  11.025   4.624
37523SOL    HW212596   5.768  11.114   4.617
37524SOL     OW12597   6.090  10.878   4.634
37524SOL    HW112598   6.156  10.952   4.643
37524SOL    HW212599   6.134  10.799   4.592
37525SOL     OW12600   6.588  10.106   4.962
37525SOL    HW112601   6.629  10.074   5.048
37525SOL    HW212602   6.492  10.079   4.959
37526SOL     OW12603   5.626   9.854   4.838
37526SOL    HW112604   5.711   9.821   4.797
37526SOL    HW212605   5.639   9.869   4.936
37527SOL     OW12606   5.775   9.830   5.446
37527SOL    HW112607   5.834   9.790   5.376
37527SOL    HW212608   5.717   9.901   5.405
37528SOL     OW12609   6.955  10.260   5.384
37528SOL    HW112610   6.994  10.349   5.404
37528SOL    HW212611   6.965  10.240   5.287
37529SOL     OW12612   6.401   9.882   4.049
37529SOL    HW112613   6.408   9.793   4.003
37529SOL    HW212614   6.307   9.916   4.041
37530SOL     OW12615   7.243   9.914   4.930
37530SOL    HW112616   7.205   9.845   4.992
37530SOL    HW212617   7.325   9.878   4.886
37531SOL     OW12618   5.838  10.874   5.468
37531SOL    HW112619   5.808  10.931   5.544
37531SOL    HW212620   5.831  10.777   5.494
37532SOL     OW12621   6.257   9.774   4.993
37532SOL    HW112622   6.223   9.685   4.963
37532SOL    HW212623   6.283   9.828   4.913
37533SOL     OW12624   6.516  10.988   5.189
37533SOL    HW112625   6.492  10.970   5.094
37533SOL    HW212626   6.546  11.082   5.199
37534SOL     OW12627   6.059   9.810   3.915
37534SOL    HW112628   6.120   9.890   3.919
37534SOL    HW212629   5.964   9.841   3.922
37535SOL     OW12630   5.745  10.447   5.190
37535SOL    HW112631   5.767  10.386   5.266
37535SOL    HW212632   5.755  10.398   5.104
37536SOL     OW12633   6.933  10.369   4.958
37536SOL    HW112634   6.957  10.306   4.884
37536SOL    HW212635   6.843  10.409   4.940
37537SOL     OW12636   6.888  10.165   4.033
37537SOL    HW112637   6.802  10.134   4.075
37537SOL    HW212638   6.884  10.151   3.934
37538SOL     OW12639   7.345  11.057   4.878
37538SOL    HW112640   7.406  11.087   4.805
37538SOL    HW212641   7.307  10.968   4.856
37539SOL     OW12642   6.838  11.041   4.852
37539SOL    HW112643   6.922  11.046   4.798
37539SOL    HW212644   6.815  10.945   4.870
37540SOL     OW12645   5.669  10.568   4.746
37540SOL    HW112646   5.664  10.567   4.846
37540SOL    HW212647   5.586  10.527   4.708
37541SOL     OW12648   6.274  10.972   5.440
37541SOL    HW112649   6.218  11.053   5.449
37541SOL    HW212650   6.326  10.976   5.354
37542SOL     OW12651   7.312   9.445   4.247
37542SOL    HW112652   7.385   9.428   4.180
37542SOL    HW212653   7.281   9.358   4.285
37543SOL     OW12654   6.974  10.883   4.201
37543SOL    HW112655   7.041  10.895   4.127
37543SOL    HW212656   6.934  10.972   4.224
37544SOL     OW12657   5.716  11.104   5.575
37544SOL    HW112658   5.675  11.030   5.628
37544SOL    HW212659   5.780  11.155   5.633
37545SOL     OW12660   6.866  10.237   4.396
37545SOL    HW112661   6.926  10.156   4.398
37545SOL    HW212662   6.906  10.306   4.336
37546SOL     OW12663   6.416  10.583   5.146
37546SOL    HW112664   6.411  10.616   5.241
37546SOL    HW212665   6.330  10.602   5.100
37547SOL     OW12666   6.258  10.926   3.878
37547SOL    HW112667   6.267  10.936   3.779
37547SOL    HW212668   6.218  10.837   3.899
37548SOL     OW12669   7.236  11.030   5.118
37548SOL    HW112670   7.289  11.040   5.034
37548SOL    HW212671   7.209  11.120   5.152
37549SOL     OW12672   7.427   9.485   4.687
37549SOL    HW112673   7.466   9.400   4.651
37549SOL    HW212674   7.329   9.487   4.668
37550SOL     OW12675   5.849   9.636   4.444
37550SOL    HW112676   5.770   9.687   4.410
37550SOL    HW212677   5.840   9.621   4.542
37551SOL     OW12678   6.780  10.922   3.755
37551SOL    HW112679   6.786  10.829   3.792
37551SOL    HW212680   6.721  10.922   3.675
37552SOL     OW12681   6.408  10.312   5.096
37552SOL    HW112682   6.448  10.311   5.004
37552SOL    HW212683   6.418  10.404   5.136
37553SOL     OW12684   6.502  10.220   4.015
37553SOL    HW112685   6.565  10.258   3.947
37553SOL    HW212686   6.542  10.137   4.054
37554SOL     OW12687   7.090  10.917   3.768
37554SOL    HW112688   6.998  10.954   3.775
37554SOL    HW212689   7.128  10.937   3.678
37555SOL     OW12690   5.958  10.598   5.214
37555SOL    HW112691   5.945  10.691   5.180
37555SOL    HW212692   5.874  10.546   5.201
37556SOL     OW12693   7.200  10.602   5.013
37556SOL    HW112694   7.260  10.605   5.093
37556SOL    HW212695   7.125  10.666   5.026
37557SOL     OW12696   6.625  10.408   4.420
37557SOL    HW112697   6.555  10.361   4.474
37557SOL    HW212698   6.684  10.340   4.377
37558SOL     OW12699   6.600   9.546   4.695
37558SOL    HW112700   6.592   9.510   4.602
37558SOL    HW212701   6.598   9.470   4.760
37559SOL     OW12702   6.176  10.797   4.215
37559SOL    HW112703   6.218  10.739   4.145
37559SOL    HW212704   6.132  10.876   4.171
37560SOL     OW12705   7.295   9.695   5.105
37560SOL    HW112706   7.368   9.764   5.109
37560SOL    HW212707   7.323   9.620   5.046
37561SOL     OW12708   5.841  10.658   4.014
37561SOL    HW112709   5.745  10.659   3.987
37561SOL    HW212710   5.853  10.711   4.098
37562SOL     OW12711   5.691  10.323   5.450
37562SOL    HW112712   5.614  10.290   5.504
37562SOL    HW212713   5.776  10.293   5.492
37563SOL     OW12714   6.258   9.513   5.213
37563SOL    HW112715   6.348   9.497   5.173
37563SOL    HW212716   6.266   9.518   5.312
37564SOL     OW12717   5.661   9.655   3.757
37564SOL    HW112718   5.569   9.627   3.728
37564SOL    HW212719   5.692   9.732   3.701
37565SOL     OW12720   7.026  10.166   5.122
37565SOL    HW112721   6.969  10.218   5.059
37565SOL    HW212722   7.122  10.178   5.098
37566SOL     OW12723   5.658   9.476   4.042
37566SOL    HW112724   5.641   9.559   3.988
37566SOL    HW212725   5.748   9.439   4.020
37567SOL     OW12726   6.769  10.645   3.843
37567SOL    HW112727   6.670  10.634   3.845
37567SOL    HW212728   6.803  10.660   3.936
37568SOL     OW12729   6.199  10.152   5.155
37568SOL    HW112730   6.255  10.233   5.138
37568SOL    HW212731   6.258  10.072   5.158
37569SOL     OW12732   7.079  11.077   4.683
37569SOL    HW112733   7.112  11.141   4.614
37569SOL    HW212734   7.145  11.071   4.758
37570SOL     OW12735   6.302   9.875   5.432
37570SOL    HW112736   6.321   9.940   5.506
37570SOL    HW212737   6.362   9.795   5.441
37571SOL     OW12738   7.036  10.530   5.357
37571SOL    HW112739   7.027  10.520   5.456
37571SOL    HW212740   7.132  10.523   5.331
37572SOL     OW12741   5.976  11.051   5.284
37572SOL    HW112742   5.885  11.092   5.282
37572SOL    HW212743   5.969  10.957   5.316
37573SOL     OW12744   7.260  10.193   4.978
37573SOL    HW112745   7.233  10.104   4.941
37573SOL    HW212746   7.261  10.261   4.905
37574SOL     OW12747   6.811   9.635   4.173
37574SOL    HW112748   6.876   9.561   4.162
37574SOL    HW212749   6.831   9.685   4.257
37575SOL     OW12750   6.180  10.055   4.376
37575SOL    HW112751   6.230  10.140   4.357
37575SOL    HW212752   6.092  10.057   4.328
37576SOL     OW12753   7.363   9.652   5.366
37576SOL    HW112754   7.346   9.683   5.272
37576SOL    HW212755   7.279   9.615   5.404
37577SOL     OW12756   7.316  10.244   5.241
37577SOL    HW112757   7.354  10.335   5.256
37577SOL    HW212758   7.308  10.227   5.142
37578SOL     OW12759   6.445  10.684   3.740
37578SOL    HW112760   6.399  10.699   3.828
37578SOL    HW212761   6.489  10.769   3.710
37579SOL     OW12762   6.247  11.100   4.677
37579SOL    HW112763   6.201  11.188   4.664
37579SOL    HW212764   6.346  11.112   4.670
37580SOL     OW12765   6.445  10.266   4.585
37580SOL    HW112766   6.499  10.197   4.633
37580SOL    HW212767   6.413  10.335   4.651
37581SOL     OW12768   6.669  10.294   3.811
37581SOL    HW112769   6.646  10.347   3.729
37581SOL    HW212770   6.750  10.238   3.792
37582SOL     OW12771   7.447  10.879   4.575
37582SOL    HW112772   7.376  10.867   4.505
37582SOL    HW212773   7.448  10.800   4.635
37583SOL     OW12774   5.807  10.624   5.568
37583SOL    HW112775   5.742  10.551   5.547
37583SOL    HW212776   5.811  10.638   5.666
37584SOL     OW12777   5.665  10.550   4.377
37584SOL    HW112778   5.664  10.503   4.465
37584SOL    HW212779   5.747  10.522   4.326
37585SOL     OW12780   6.258  10.701   5.348
37585SOL    HW112781   6.180  10.651   5.386
37585SOL    HW212782   6.255  10.796   5.379
37586SOL     OW12783   7.410   9.502   4.951
37586SOL    HW112784   7.406   9.412   4.995
37586SOL    HW212785   7.413   9.491   4.852
37587SOL     OW12786   6.014   9.734   4.244
37587SOL    HW112787   6.044   9.662   4.182
37587SOL    HW212788   5.975   9.694   4.327
37588SOL     OW12789   7.291  10.797   4.828
37588SOL    HW112790   7.198  10.772   4.801
37588SOL    HW212791   7.317  10.747   4.910
37589SOL     OW12792   5.903   9.857   5.004
37589SOL    HW112793   5.941   9.798   5.076
37589SOL    HW212794   5.943   9.831   4.916
37590SOL     OW12795   6.398  10.896   4.411
37590SOL    HW112796   6.430  10.906   4.317
37590SOL    HW212797   6.319  10.834   4.413
37591SOL     OW12798   7.010   9.524   4.836
37591SOL    HW112799   7.062   9.459   4.891
37591SOL    HW212800   6.961   9.587   4.897
37592SOL     OW12801   6.587   9.344   4.878
37592SOL    HW112802   6.524   9.272   4.847
37592SOL    HW212803   6.680   9.308   4.878
37593SOL     OW12804   6.356  10.640   4.025
37593SOL    HW112805   6.310  10.553   4.042
37593SOL    HW212806   6.447  10.637   4.066
37594SOL     OW12807   6.204  10.877   5.008
37594SOL    HW112808   6.199  10.959   5.065
37594SOL    HW212809   6.293  10.874   4.963
37595SOL     OW12810   6.938   9.362   3.892
37595SOL    HW112811   6.973   9.321   3.808
37595SOL    HW212812   6.848   9.324   3.912
37596SOL     OW12813   6.886   9.763   4.415
37596SOL    HW112814   6.827   9.843   4.419
37596SOL    HW212815   6.901   9.728   4.508
37597SOL     OW12816   7.179   9.531   4.606
37597SOL    HW112817   7.095   9.530   4.660
37597SOL    HW212818   7.181   9.614   4.550
37598SOL     OW12819   5.625  10.387   4.024
37598SOL    HW112820   5.724  10.376   4.015
37598SOL    HW212821   5.585  10.301   4.056
37599SOL     OW12822   6.461  10.956   4.061
37599SOL    HW112823   6.384  10.921   4.007
37599SOL    HW212824   6.429  11.027   4.123
37600SOL     OW12825   5.816   9.938   5.699
37600SOL    HW112826   5.723   9.936   5.736
37600SOL    HW212827   5.817   9.899   5.607
37601SOL     OW12828   5.811   9.585   6.582
37601SOL    HW112829   5.846   9.568   6.674
37601SOL    HW212830   5.723   9.540   6.570
37602SOL     OW12831   5.605   9.678   6.233
37602SOL    HW112832   5.523   9.721   6.272
37602SOL    HW212833   5.577   9.605   6.170
37603SOL     OW12834   6.155  10.585   6.751
37603SOL    HW112835   6.062  10.578   6.714
37603SOL    HW212836   6.166  10.674   6.795
37604SOL     OW12837   7.141  10.821   6.289
37604SOL    HW112838   7.084  10.805   6.370
37604SOL    HW212839   7.082  10.831   6.209
37605SOL     OW12840   6.721  10.013   6.303
37605SOL    HW112841   6.778  10.091   6.278
37605SOL    HW212842   6.661  10.039   6.379
37606SOL     OW12843   7.341   9.917   5.817
37606SOL    HW112844   7.329   9.904   5.718
37606SOL    HW212845   7.311   9.836   5.866
37607SOL     OW12846   6.354  10.454   6.609
37607SOL    HW112847   6.276  10.471   6.669
37607SOL    HW212848   6.388  10.541   6.573
37608SOL     OW12849   6.436  10.108   7.409
37608SOL    HW112850   6.432  10.184   7.474
37608SOL    HW212851   6.458  10.144   7.318
37609SOL     OW12852   6.271  10.322   6.251
37609SOL    HW112853   6.340  10.306   6.321
37609SOL    HW212854   6.198  10.379   6.289
37610SOL     OW12855   6.272  10.471   7.389
37610SOL    HW112856   6.332  10.550   7.403
37610SOL    HW212857   6.186  10.502   7.348
37611SOL     OW12858   5.921  10.745   6.647
37611SOL    HW112859   5.843  10.714   6.594
37611SOL    HW212860   5.979  10.803   6.590
37612SOL     OW12861   7.046  10.815   6.925
37612SOL    HW112862   7.070  10.909   6.951
37612SOL    HW212863   7.030  10.761   7.007
37613SOL     OW12864   6.024   9.702   7.085
37613SOL    HW112865   6.106   9.646   7.094
37613SOL    HW212866   5.943   9.644   7.089
37614SOL     OW12867   7.189   9.757   6.323
37614SOL    HW112868   7.115   9.803   6.273
37614SOL    HW212869   7.240   9.825   6.376
37615SOL     OW12870   5.817  11.023   6.069
37615SOL    HW112871   5.851  11.100   6.123
37615SOL    HW212872   5.861  11.023   5.979
37616SOL     OW12873   6.713  10.651   7.276
37616SOL    HW112874   6.760  10.651   7.364
37616SOL    HW212875   6.665  10.564   7.265
37617SOL     OW12876   5.816  10.744   6.124
37617SOL    HW112877   5.790  10.840   6.124
37617SOL    HW212878   5.745  10.690   6.169
37618SOL     OW12879   5.826  10.401   6.472
37618SOL    HW112880   5.840  10.317   6.524
37618SOL    HW212881   5.771  10.465   6.527
37619SOL     OW12882   6.206  11.096   7.025
37619SOL    HW112883   6.114  11.079   7.060
37619SOL    HW212884   6.234  11.188   7.051
37620SOL     OW12885   6.192  10.274   5.709
37620SOL    HW112886   6.199  10.358   5.655
37620SOL    HW212887   6.238  10.287   5.797
37621SOL     OW12888   7.180   9.424   7.066
37621SOL    HW112889   7.162   9.491   6.994
37621SOL    HW212890   7.177   9.470   7.155
37622SOL     OW12891   5.708   9.953   6.149
37622SOL    HW112892   5.663   9.865   6.166
37622SOL    HW212893   5.707  10.007   6.233
37623SOL     OW12894   7.428  11.077   5.945
37623SOL    HW112895   7.482  11.048   6.025
37623SOL    HW212896   7.458  11.167   5.916
37624SOL     OW12897   5.613  10.906   5.703
37624SOL    HW112898   5.594  10.810   5.724
37624SOL    HW212899   5.580  10.964   5.778
37625SOL     OW12900   7.275  10.232   6.198
37625SOL    HW112901   7.370  10.203   6.206
37625SOL    HW212902   7.267  10.297   6.123
37626SOL     OW12903   7.227  10.418   6.018
37626SOL    HW112904   7.313  10.420   5.966
37626SOL    HW212905   7.241  10.465   6.106
37627SOL     OW12906   5.699  10.047   7.183
37627SOL    HW112907   5.787  10.034   7.228
37627SOL    HW212908   5.686  10.144   7.161
37628SOL     OW12909   6.199  10.675   6.312
37628SOL    HW112910   6.150  10.588   6.321
37628SOL    HW212911   6.176  10.718   6.225
37629SOL     OW12912   6.879  10.538   7.009
37629SOL    HW112913   6.916  10.465   6.951
37629SOL    HW212914   6.931  10.543   7.094
37630SOL     OW12915   6.395   9.314   6.088
37630SOL    HW112916   6.435   9.405   6.079
37630SOL    HW212917   6.295   9.322   6.094
37631SOL     OW12918   5.783  10.286   6.850
37631SOL    HW112919   5.872  10.241   6.836
37631SOL    HW212920   5.710  10.221   6.831
37632SOL     OW12921   7.111  10.309   5.776
37632SOL    HW112922   7.048  10.233   5.789
37632SOL    HW212923   7.159  10.327   5.862
37633SOL     OW12924   6.773  11.102   7.202
37633SOL    HW112925   6.797  11.162   7.126
37633SOL    HW212926   6.780  11.007   7.172
37634SOL     OW12927   5.903   9.561   7.387
37634SOL    HW112928   5.974   9.632   7.393
37634SOL    HW212929   5.815   9.600   7.415
37635SOL     OW12930   7.052  10.727   6.539
37635SOL    HW112931   6.993  10.733   6.619
37635SOL    HW212932   7.037  10.639   6.493
37636SOL     OW12933   7.253  11.024   6.158
37636SOL    HW112934   7.212  11.001   6.070
37636SOL    HW212935   7.235  10.950   6.223
37637SOL     OW12936   6.184  10.039   5.856
37637SOL    HW112937   6.208  10.108   5.788
37637SOL    HW212938   6.106  10.072   5.910
37638SOL     OW12939   6.867   9.655   6.530
37638SOL    HW112940   6.781   9.605   6.517
37638SOL    HW212941   6.929   9.601   6.586
37639SOL     OW12942   7.162  10.972   5.893
37639SOL    HW112943   7.251  11.018   5.896
37639SOL    HW212944   7.141  10.948   5.798
37640SOL     OW12945   6.393   9.915   7.051
37640SOL    HW112946   6.346   9.912   7.140
37640SOL    HW212947   6.342   9.860   6.985
37641SOL     OW12948   6.980   9.779   7.260
37641SOL    HW112949   6.960   9.822   7.348
37641SOL    HW212950   7.058   9.717   7.269
37642SOL     OW12951   6.559  10.200   7.158
37642SOL    HW112952   6.605  10.116   7.129
37642SOL    HW212953   6.503  10.234   7.083
37643SOL     OW12954   6.577   9.720   6.828
37643SOL    HW112955   6.500   9.754   6.882
37643SOL    HW212956   6.543   9.669   6.749
37644SOL     OW12957   6.627  10.011   6.015
37644SOL    HW112958   6.653  10.007   6.111
37644SOL    HW212959   6.542   9.960   6.001
37645SOL     OW12960   5.662  10.121   6.375
37645SOL    HW112961   5.761  10.109   6.384
37645SOL    HW212962   5.638  10.216   6.396
37646SOL     OW12963   5.716  11.131   7.157
37646SOL    HW112964   5.706  11.116   7.256
37646SOL    HW212965   5.630  11.167   7.121
37647SOL     OW12966   6.451   9.658   5.781
37647SOL    HW112967   6.510   9.721   5.732
37647SOL    HW212968   6.470   9.564   5.752
37648SOL     OW12969   7.305   9.895   7.417
37648SOL    HW112970   7.279   9.984   7.381
37648SOL    HW212971   7.303   9.827   7.344
37649SOL     OW12972   6.948  10.454   6.131
37649SOL    HW112973   7.031  10.425   6.083
37649SOL    HW212974   6.899  10.521   6.075
37650SOL     OW12975   6.136   9.506   6.471
37650SOL    HW112976   6.131   9.501   6.571
37650SOL    HW212977   6.138   9.602   6.442
37651SOL     OW12978   6.594  10.766   6.063
37651SOL    HW112979   6.548  10.838   6.011
37651SOL    HW212980   6.590  10.786   6.161
37652SOL     OW12981   5.937  11.111   6.439
37652SOL    HW112982   5.987  11.025   6.445
37652SOL    HW212983   6.002  11.188   6.436
37653SOL     OW12984   7.381  10.376   6.459
37653SOL    HW112985   7.319  10.361   6.383
37653SOL    HW212986   7.329  10.387   6.544
37654SOL     OW12987   6.813  10.860   7.092
37654SOL    HW112988   6.819  10.783   7.156
37654SOL    HW212989   6.761  10.834   7.012
37655SOL     OW12990   5.907  10.253   5.828
37655SOL    HW112991   5.989  10.292   5.786
37655SOL    HW212992   5.880  10.171   5.779
37656SOL     OW12993   7.044  10.045   6.314
37656SOL    HW112994   7.039   9.980   6.389
37656SOL    HW212995   7.124  10.104   6.327
37657SOL     OW12996   6.047  10.576   7.313
37657SOL    HW112997   5.997  10.577   7.227
37657SOL    HW212998   5.984  10.558   7.389
37658SOL     OW12999   6.697  11.086   5.823
37658SOL    HW113000   6.637  11.024   5.873
37658SOL    HW213001   6.728  11.042   5.738
37659SOL     OW13002   5.788   9.595   7.084
37659SOL    HW113003   5.708   9.655   7.071
37659SOL    HW213004   5.778   9.546   7.170
37660SOL     OW13005   7.218  10.687   5.667
37660SOL    HW113006   7.186  10.781   5.657
37660SOL    HW213007   7.142  10.624   5.655
37661SOL     OW13008   6.050  11.053   5.909
37661SOL    HW113009   6.083  11.092   5.995
37661SOL    HW213010   6.126  11.046   5.844
37662SOL     OW13011   6.986   9.417   6.012
37662SOL    HW113012   6.962   9.380   5.922
37662SOL    HW213013   7.085   9.433   6.016
37663SOL     OW13014   5.835  11.095   6.827
37663SOL    HW113015   5.892  11.030   6.877
37663SOL    HW213016   5.819  11.062   6.734
37664SOL     OW13017   6.526  11.008   6.490
37664SOL    HW113018   6.606  10.951   6.511
37664SOL    HW213019   6.477  10.968   6.413
37665SOL     OW13020   5.968  10.010   6.066
37665SOL    HW113021   6.013   9.920   6.063
37665SOL    HW213022   5.874   9.999   6.099
37666SOL     OW13023   7.133   9.532   7.315
37666SOL    HW113024   7.128   9.569   7.407
37666SOL    HW213025   7.061   9.463   7.303
37667SOL     OW13026   6.200   9.432   5.703
37667SOL    HW113027   6.298   9.410   5.710
37667SOL    HW213028   6.169   9.415   5.610
37668SOL     OW13029   6.367   9.574   7.335
37668SOL    HW113030   6.434   9.513   7.378
37668SOL    HW213031   6.294   9.593   7.400
37669SOL     OW13032   6.474  10.824   6.781
37669SOL    HW113033   6.451  10.799   6.687
37669SOL    HW213034   6.535  10.755   6.820
37670SOL     OW13035   6.937   9.900   7.019
37670SOL    HW113036   6.965   9.857   7.104
37670SOL    HW213037   6.962   9.996   7.020
37671SOL     OW13038   6.389  10.712   6.510
37671SOL    HW113039   6.479  10.726   6.468
37671SOL    HW213040   6.318  10.714   6.439
37672SOL     OW13041   6.508   9.813   6.485
37672SOL    HW113042   6.483   9.804   6.389
37672SOL    HW213043   6.556   9.731   6.516
37673SOL     OW13044   6.125   9.374   6.098
37673SOL    HW113045   6.044   9.375   6.156
37673SOL    HW213046   6.128   9.457   6.043
37674SOL     OW13047   7.020  10.498   5.627
37674SOL    HW113048   7.052  10.422   5.684
37674SOL    HW213049   6.928  10.525   5.657
37675SOL     OW13050   5.883   9.345   5.757
37675SOL    HW113051   5.932   9.429   5.736
37675SOL    HW213052   5.945   9.280   5.802
37676SOL     OW13053   6.521   9.546   6.066
37676SOL    HW113054   6.473   9.587   5.988
37676SOL    HW213055   6.620   9.544   6.047
37677SOL     OW13056   6.662   9.993   7.050
37677SOL    HW113057   6.582   9.932   7.053
37677SOL    HW213058   6.743   9.940   7.026
37678SOL     OW13059   6.813  10.880   6.379
37678SOL    HW113060   6.834  10.954   6.314
37678SOL    HW213061   6.881  10.880   6.452
37679SOL     OW13062   6.045  10.462   6.327
37679SOL    HW113063   5.974  10.435   6.392
37679SOL    HW213064   6.019  10.434   6.234
37680SOL     OW13065   6.857  11.107   6.177
37680SOL    HW113066   6.901  11.171   6.113
37680SOL    HW213067   6.807  11.159   6.247
37681SOL     OW13068   6.618   9.859   5.602
37681SOL    HW113069   6.577   9.941   5.563
37681SOL    HW213070   6.682   9.885   5.675
37682SOL     OW13071   5.664   9.866   6.972
37682SOL    HW113072   5.756   9.865   6.931
37682SOL    HW213073   5.658   9.940   7.039
37683SOL     OW13074   6.147   9.532   6.733
37683SOL    HW113075   6.185   9.448   6.770
37683SOL    HW213076   6.059   9.551   6.777
37684SOL     OW13077   6.452   9.764   6.228
37684SOL    HW113078   6.420   9.836   6.166
37684SOL    HW213079   6.476   9.683   6.175
37685SOL     OW13080   6.603   9.349   6.339
37685SOL    HW113081   6.531   9.354   6.270
37685SOL    HW213082   6.579   9.280   6.408
37686SOL     OW13083   7.015  10.483   6.453
37686SOL    HW113084   6.960  10.399   6.446
37686SOL    HW213085   7.041  10.512   6.361
37687SOL     OW13086   7.052   9.900   6.578
37687SOL    HW113087   7.022   9.805   6.585
37687SOL    HW213088   7.125   9.916   6.644
37688SOL     OW13089   7.443  10.143   5.963
37688SOL    HW113090   7.485  10.079   6.027
37688SOL    HW213091   7.405  10.092   5.885
37689SOL     OW13092   6.074  10.695   5.760
37689SOL    HW113093   5.987  10.680   5.807
37689SOL    HW213094   6.057  10.721   5.665
37690SOL     OW13095   7.250  10.590   6.243
37690SOL    HW113096   7.349  10.598   6.257
37690SOL    HW213097   7.205  10.674   6.274
37691SOL     OW13098   6.976   9.885   5.664
37691SOL    HW113099   6.922   9.864   5.745
37691SOL    HW213100   7.067   9.844   5.673
37692SOL     OW13101   6.113   9.566   5.914
37692SOL    HW113102   6.140   9.507   5.839
37692SOL    HW213103   6.113   9.661   5.883
37693SOL     OW13104   7.340  10.533   7.174
37693SOL    HW113105   7.431  10.494   7.161
37693SOL    HW213106   7.348  10.629   7.198
37694SOL     OW13107   6.650  10.657   6.926
37694SOL    HW113108   6.570  10.634   6.981
37694SOL    HW213109   6.733  10.631   6.975
37695SOL     OW13110   7.178  10.939   7.211
37695SOL    HW113111   7.205  10.973   7.121
37695SOL    HW213112   7.257  10.901   7.257
37696SOL     OW13113   6.697  10.505   6.686
37696SOL    HW113114   6.657  10.549   6.767
37696SOL    HW213115   6.656  10.542   6.603
37697SOL     OW13116   7.224  10.409   6.665
37697SOL    HW113117   7.229  10.490   6.724
37697SOL    HW213118   7.138  10.411   6.614
37698SOL     OW13119   6.501   9.399   6.988
37698SOL    HW113120   6.526   9.379   6.893
37698SOL    HW213121   6.573   9.455   7.030
37699SOL     OW13122   6.566  10.426   7.305
37699SOL    HW113123   6.467  10.432   7.315
37699SOL    HW213124   6.589  10.346   7.249
37700SOL     OW13125   6.291  10.360   5.954
37700SOL    HW113126   6.277  10.367   6.053
37700SOL    HW213127   6.375  10.309   5.936
37701SOL     OW13128   5.996  10.123   6.837
37701SOL    HW113129   6.082  10.135   6.887
37701SOL    HW213130   5.954  10.036   6.864
37702SOL     OW13131   6.860   9.696   6.848
37702SOL    HW113132   6.881   9.770   6.912
37702SOL    HW213133   6.771   9.713   6.805
37703SOL     OW13134   5.650  10.874   6.917
37703SOL    HW113135   5.604  10.956   6.883
37703SOL    HW213136   5.748  10.893   6.926
37704SOL     OW13137   5.953  10.410   6.087
37704SOL    HW113138   5.946  10.493   6.031
37704SOL    HW213139   5.957  10.330   6.027
37705SOL     OW13140   6.152   9.847   6.451
37705SOL    HW113141   6.164   9.913   6.377
37705SOL    HW213142   6.198   9.881   6.534
37706SOL     OW13143   6.838  10.658   5.974
37706SOL    HW113144   6.888  10.735   6.014
37706SOL    HW213145   6.743  10.660   6.006
37707SOL     OW13146   6.858  10.755   6.728
37707SOL    HW113147   6.905  10.768   6.815
37707SOL    HW213148   6.792  10.681   6.737
37708SOL     OW13149   7.168   9.949   6.058
37708SOL    HW113150   7.137  10.010   6.131
37708SOL    HW213151   7.218  10.001   5.989
37709SOL     OW13152   5.940  10.820   6.915
37709SOL    HW113153   5.919  10.776   6.828
37709SOL    HW213154   6.037  10.846   6.918
37710SOL     OW13155   5.988  10.061   7.184
37710SOL    HW113156   6.056  10.116   7.137
37710SOL    HW213157   6.028   9.973   7.211
37711SOL     OW13158   7.173  10.089   7.256
37711SOL    HW113159   7.081  10.127   7.251
37711SOL    HW213160   7.233  10.136   7.191
37712SOL     OW13161   6.599   9.415   7.356
37712SOL    HW113162   6.605   9.500   7.304
37712SOL    HW213163   6.631   9.339   7.299
37713SOL     OW13164   6.090   9.360   7.326
37713SOL    HW113165   6.048   9.303   7.256
37713SOL    HW213166   6.024   9.429   7.358
37714SOL     OW13167   6.159  10.180   6.615
37714SOL    HW113168   6.203  10.269   6.606
37714SOL    HW213169   6.096  10.180   6.692
37715SOL     OW13170   6.946  10.172   6.631
37715SOL    HW113171   6.871  10.172   6.565
37715SOL    HW213172   6.983  10.080   6.640
37716SOL     OW13173   6.795   9.835   5.861
37716SOL    HW113174   6.808   9.751   5.915
37716SOL    HW213175   6.766   9.909   5.921
37717SOL     OW13176   5.893   9.523   6.817
37717SOL    HW113177   5.870   9.560   6.907
37717SOL    HW213178   5.863   9.428   6.811
37718SOL     OW13179   5.623  10.620   6.868
37718SOL    HW113180   5.676  10.571   6.936
37718SOL    HW213181   5.645  10.718   6.873
37719SOL     OW13182   6.318   9.944   6.650
37719SOL    HW113183   6.377   9.918   6.574
37719SOL    HW213184   6.290  10.040   6.639
37720SOL     OW13185   7.314  10.245   7.440
37720SOL    HW113186   7.268  10.238   7.351
37720SOL    HW213187   7.252  10.289   7.506
37721SOL     OW13188   5.893   9.373   6.204
37721SOL    HW113189   5.882   9.467   6.237
37721SOL    HW213190   5.888   9.310   6.281
37722SOL     OW13191   7.208   9.677   5.960
37722SOL    HW113192   7.210   9.601   6.024
37722SOL    HW213193   7.160   9.754   6.000
37723SOL     OW13194   6.609  10.076   6.552
37723SOL    HW113195   6.624  10.097   6.648
37723SOL    HW213196   6.579   9.981   6.543
37724SOL     OW13197   6.566  10.883   7.286
37724SOL    HW113198   6.546  10.927   7.198
37724SOL    HW213199   6.605  10.792   7.270
37725SOL     OW13200   7.445  10.828   7.191
37725SOL    HW113201   7.459  10.855   7.096
37725SOL    HW213202   7.528  10.850   7.244
37726SOL     OW13203   5.936  10.208   7.390
37726SOL    HW113204   6.012  10.252   7.438
37726SOL    HW213205   5.971  10.161   7.308
37727SOL     OW13206   7.126   9.584   5.711
37727SOL    HW113207   7.065   9.509   5.734
37727SOL    HW213208   7.148   9.636   5.794
37728SOL     OW13209   6.889  10.148   5.628
37728SOL    HW113210   6.923  10.055   5.643
37728SOL    HW213211   6.907  10.175   5.533
37729SOL     OW13212   6.654  10.643   6.435
37729SOL    HW113213   6.661  10.559   6.380
37729SOL    HW213214   6.716  10.712   6.399
37730SOL     OW13215   5.905  10.120   6.535
37730SOL    HW113216   5.998  10.156   6.540
37730SOL    HW213217   5.899  10.035   6.587
37731SOL     OW13218   5.925   9.819   6.592
37731SOL    HW113219   5.873   9.736   6.575
37731SOL    HW213220   6.002   9.824   6.528
37732SOL     OW13221   6.724   9.690   7.264
37732SOL    HW113222   6.679   9.753   7.328
37732SOL    HW213223   6.817   9.721   7.247
37733SOL     OW13224   6.746   9.517   7.063
37733SOL    HW113225   6.746   9.581   7.140
37733SOL    HW213226   6.774   9.565   6.980
37734SOL     OW13227   5.594  10.636   5.786
37734SOL    HW113228   5.501  10.657   5.755
37734SOL    HW213229   5.604  10.537   5.799
37735SOL     OW13230   5.674  11.111   6.513
37735SOL    HW113231   5.632  11.025   6.486
37735SOL    HW213232   5.768  11.114   6.479
37736SOL     OW13233   6.090  10.878   6.496
37736SOL    HW113234   6.156  10.952   6.505
37736SOL    HW213235   6.134  10.799   6.454
37737SOL     OW13236   6.588  10.106   6.824
37737SOL    HW113237   6.629  10.074   6.910
37737SOL    HW213238   6.492  10.079   6.821
37738SOL     OW13239   5.626   9.854   6.700
37738SOL    HW113240   5.711   9.821   6.659
37738SOL    HW213241   5.639   9.869   6.798
37739SOL     OW13242   5.775   9.830   7.308
37739SOL    HW113243   5.834   9.790   7.238
37739SOL    HW213244   5.717   9.901   7.267
37740SOL     OW13245   6.955  10.260   7.246
37740SOL    HW113246   6.994  10.349   7.266
37740SOL    HW213247   6.965  10.240   7.149
37741SOL     OW13248   6.401   9.882   5.911
37741SOL    HW113249   6.408   9.793   5.865
37741SOL    HW213250   6.307   9.916   5.903
37742SOL     OW13251   7.243   9.914   6.792
37742SOL    HW113252   7.205   9.845   6.854
37742SOL    HW213253   7.325   9.878   6.748
37743SOL     OW13254   5.838  10.874   7.330
37743SOL    HW113255   5.808  10.931   7.406
37743SOL    HW213256   5.831  10.777   7.356
37744SOL     OW13257   6.257   9.774   6.855
37744SOL    HW113258   6.223   9.685   6.825
37744SOL    HW213259   6.283   9.828   6.775
37745SOL     OW13260   6.516  10.988   7.051
37745SOL    HW113261   6.492  10.970   6.956
37745SOL    HW213262   6.546  11.082   7.061
37746SOL     OW13263   6.059   9.810   5.777
37746SOL    HW113264   6.120   9.890   5.781
37746SOL    HW213265   5.964   9.841   5.784
37747SOL     OW13266   5.745  10.447   7.052
37747SOL    HW113267   5.767  10.386   7.128
37747SOL    HW213268   5.755  10.398   6.966
37748SOL     OW13269   6.933  10.369   6.820
37748SOL    HW113270   6.957  10.306   6.746
37748SOL    HW213271   6.843  10.409   6.802
37749SOL     OW13272   6.888  10.165   5.895
37749SOL    HW113273   6.802  10.134   5.937
37749SOL    HW213274   6.884  10.151   5.796
37750SOL     OW13275   7.345  11.057   6.740
37750SOL    HW113276   7.406  11.087   6.667
37750SOL    HW213277   7.307  10.968   6.718
37751SOL     OW13278   6.838  11.041   6.714
37751SOL    HW113279   6.922  11.046   6.660
37751SOL    HW213280   6.815  10.945   6.732
37752SOL     OW13281   5.669  10.568   6.608
37752SOL    HW113282   5.664  10.567   6.708
37752SOL    HW213283   5.586  10.527   6.570
37753SOL     OW13284   6.274  10.972   7.302
37753SOL    HW113285   6.218  11.053   7.311
37753SOL    HW213286   6.326  10.976   7.216
37754SOL     OW13287   7.312   9.445   6.109
37754SOL    HW113288   7.385   9.428   6.042
37754SOL    HW213289   7.281   9.358   6.147
37755SOL     OW13290   6.974  10.883   6.063
37755SOL    HW113291   7.041  10.895   5.989
37755SOL    HW213292   6.934  10.972   6.086
37756SOL     OW13293   5.716  11.104   7.437
37756SOL    HW113294   5.675  11.030   7.490
37756SOL    HW213295   5.780  11.155   7.495
37757SOL     OW13296   6.866  10.237   6.258
37757SOL    HW113297   6.926  10.156   6.260
37757SOL    HW213298   6.906  10.306   6.198
37758SOL     OW13299   6.416  10.583   7.008
37758SOL    HW113300   6.411  10.616   7.103
37758SOL    HW213301   6.330  10.602   6.962
37759SOL     OW13302   6.258  10.926   5.740
37759SOL    HW113303   6.267  10.936   5.641
37759SOL    HW213304   6.218  10.837   5.761
37760SOL     OW13305   7.236  11.030   6.980
37760SOL    HW113306   7.289  11.040   6.896
37760SOL    HW213307   7.209  11.120   7.014
37761SOL     OW13308   7.427   9.485   6.549
37761SOL    HW113309   7.466   9.400   6.513
37761SOL    HW213310   7.329   9.487   6.530
37762SOL     OW13311   5.849   9.636   6.306
37762SOL    HW113312   5.770   9.687   6.272
37762SOL    HW213313   5.840   9.621   6.404
37763SOL     OW13314   6.780  10.922   5.617
37763SOL    HW113315   6.786  10.829   5.654
37763SOL    HW213316   6.721  10.922   5.537
37764SOL     OW13317   6.408  10.312   6.958
37764SOL    HW113318   6.448  10.311   6.866
37764SOL    HW213319   6.418  10.404   6.998
37765SOL     OW13320   6.502  10.220   5.877
37765SOL    HW113321   6.565  10.258   5.809
37765SOL    HW213322   6.542  10.137   5.916
37766SOL     OW13323   7.090  10.917   5.630
37766SOL    HW113324   6.998  10.954   5.637
37766SOL    HW213325   7.128  10.937   5.540
37767SOL     OW13326   5.958  10.598   7.076
37767SOL    HW113327   5.945  10.691   7.042
37767SOL    HW213328   5.874  10.546   7.063
37768SOL     OW13329   7.200  10.602   6.875
37768SOL    HW113330   7.260  10.605   6.955
37768SOL    HW213331   7.125  10.666   6.888
37769SOL     OW13332   6.625  10.408   6.282
37769SOL    HW113333   6.555  10.361   6.336
37769SOL    HW213334   6.684  10.340   6.239
37770SOL     OW13335   6.600   9.546   6.557
37770SOL    HW113336   6.592   9.510   6.464
37770SOL    HW213337   6.598   9.470   6.622
37771SOL     OW13338   6.176  10.797   6.077
37771SOL    HW113339   6.218  10.739   6.007
37771SOL    HW213340   6.132  10.876   6.033
37772SOL     OW13341   7.295   9.695   6.967
37772SOL    HW113342   7.368   9.764   6.971
37772SOL    HW213343   7.323   9.620   6.908
37773SOL     OW13344   5.841  10.658   5.876
37773SOL    HW113345   5.745  10.659   5.849
37773SOL    HW213346   5.853  10.711   5.960
37774SOL     OW13347   5.691  10.323   7.312
37774SOL    HW113348   5.614  10.290   7.366
37774SOL    HW213349   5.776  10.293   7.354
37775SOL     OW13350   6.258   9.513   7.075
37775SOL    HW113351   6.348   9.497   7.035
37775SOL    HW213352   6.266   9.518   7.174
37776SOL     OW13353   5.661   9.655   5.619
37776SOL    HW113354   5.569   9.627   5.590
37776SOL    HW213355   5.692   9.732   5.563
37777SOL     OW13356   7.026  10.166   6.984
37777SOL    HW113357   6.969  10.218   6.921
37777SOL    HW213358   7.122  10.178   6.960
37778SOL     OW13359   5.658   9.476   5.904
37778SOL    HW113360   5.641   9.559   5.850
37778SOL    HW213361   5.748   9.439   5.882
37779SOL     OW13362   6.769  10.645   5.705
37779SOL    HW113363   6.670  10.634   5.707
37779SOL    HW213364   6.803  10.660   5.798
37780SOL     OW13365   6.199  10.152   7.017
37780SOL    HW113366   6.255  10.233   7.000
37780SOL    HW213367   6.258  10.072   7.020
37781SOL     OW13368   7.079  11.077   6.545
37781SOL    HW113369   7.112  11.141   6.476
37781SOL    HW213370   7.145  11.071   6.620
37782SOL     OW13371   6.302   9.875   7.294
37782SOL    HW113372   6.321   9.940   7.368
37782SOL    HW213373   6.362   9.795   7.303
37783SOL     OW13374   7.036  10.530   7.219
37783SOL    HW113375   7.027  10.520   7.318
37783SOL    HW213376   7.132  10.523   7.193
37784SOL     OW13377   5.976  11.051   7.146
37784SOL    HW113378   5.885  11.092   7.144
37784SOL    HW213379   5.969  10.957   7.178
37785SOL     OW13380   7.260  10.193   6.840
37785SOL    HW113381   7.233  10.104   6.803
37785SOL    HW213382   7.261  10.261   6.767
37786SOL     OW13383   6.811   9.635   6.035
37786SOL    HW113384   6.876   9.561   6.024
37786SOL    HW213385   6.831   9.685   6.119
37787SOL     OW13386   6.180  10.055   6.238
37787SOL    HW113387   6.230  10.140   6.219
37787SOL    HW213388   6.092  10.057   6.190
37788SOL     OW13389   7.363   9.652   7.228
37788SOL    HW113390   7.346   9.683   7.134
37788SOL    HW213391   7.279   9.615   7.266
37789SOL     OW13392   7.316  10.244   7.103
37789SOL    HW113393   7.354  10.335   7.118
37789SOL    HW213394   7.308  10.227   7.004
37790SOL     OW13395   6.445  10.684   5.602
37790SOL    HW113396   6.399  10.699   5.690
37790SOL    HW213397   6.489  10.769   5.572
37791SOL     OW13398   6.247  11.100   6.539
37791SOL    HW113399   6.201  11.188   6.526
37791SOL    HW213400   6.346  11.112   6.532
37792SOL     OW13401   6.445  10.266   6.447
37792SOL    HW113402   6.499  10.197   6.495
37792SOL    HW213403   6.413  10.335   6.513
37793SOL     OW13404   6.669  10.294   5.673
37793SOL    HW113405   6.646  10.347   5.591
37793SOL    HW213406   6.750  10.238   5.654
37794SOL     OW13407   7.447  10.879   6.437
37794SOL    HW113408   7.376  10.867   6.367
37794SOL    HW213409   7.448  10.800   6.497
37795SOL     OW13410   5.807  10.624   7.430
37795SOL    HW113411   5.742  10.551   7.409
37795SOL    HW213412   5.811  10.638   7.528
37796SOL     OW13413   5.665  10.550   6.239
37796SOL    HW113414   5.664  10.503   6.327
37796SOL    HW213415   5.747  10.522   6.188
37797SOL     OW13416   6.258  10.701   7.210
37797SOL    HW113417   6.180  10.651   7.248
37797SOL    HW213418   6.255  10.796   7.241
37798SOL     OW13419   7.410   9.502   6.813
37798SOL    HW113420   7.406   9.412   6.857
37798SOL    HW213421   7.413   9.491   6.714
37799SOL     OW13422   6.014   9.734   6.106
37799SOL    HW113423   6.044   9.662   6.044
37799SOL    HW213424   5.975   9.694   6.189
37800SOL     OW13425   7.291  10.797   6.690
37800SOL    HW113426   7.198  10.772   6.663
37800SOL    HW213427   7.317  10.747   6.772
37801SOL     OW13428   5.903   9.857   6.866
37801SOL    HW113429   5.941   9.798   6.938
37801SOL    HW213430   5.943   9.831   6.778
37802SOL     OW13431   6.398  10.896   6.273
37802SOL    HW113432   6.430  10.906   6.179
37802SOL    HW213433   6.319  10.834   6.275
37803SOL     OW13434   7.010   9.524   6.698
37803SOL    HW113435   7.062   9.459   6.753
37803SOL    HW213436   6.961   9.587   6.759
37804SOL     OW13437   6.587   9.344   6.740
37804SOL    HW113438   6.524   9.272   6.709
37804SOL    HW213439   6.680   9.308   6.740
37805SOL     OW13440   6.356  10.640   5.887
37805SOL    HW113441   6.310  10.553   5.904
37805SOL    HW213442   6.447  10.637   5.928
37806SOL     OW13443   6.204  10.877   6.870
37806SOL    HW113444   6.199  10.959   6.927
37806SOL    HW213445   6.293  10.874   6.825
37807SOL     OW13446   6.938   9.362   5.754
37807SOL    HW113447   6.973   9.321   5.670
37807SOL    HW213448   6.848   9.324   5.774
37808SOL     OW13449   6.886   9.763   6.277
37808SOL    HW113450   6.827   9.843   6.281
37808SOL    HW213451   6.901   9.728   6.370
37809SOL     OW13452   7.179   9.531   6.468
37809SOL    HW113453   7.095   9.530   6.522
37809SOL    HW213454   7.181   9.614   6.412
37810SOL     OW13455   5.625  10.387   5.886
37810SOL    HW113456   5.724  10.376   5.877
37810SOL    HW213457   5.585  10.301   5.918
37811SOL     OW13458   6.461  10.956   5.923
37811SOL    HW113459   6.384  10.921   5.869
37811SOL    HW213460   6.429  11.027   5.985
37812SOL     OW13461   5.816   9.938   7.561
37812SOL    HW113462   5.723   9.936   7.598
37812SOL    HW213463   5.817   9.899   7.469
37813SOL     OW13464   5.811   9.585   8.444
37813SOL    HW113465   5.846   9.568   8.536
37813SOL    HW213466   5.723   9.540   8.432
37814SOL     OW13467   5.605   9.678   8.095
37814SOL    HW113468   5.523   9.721   8.134
37814SOL    HW213469   5.577   9.605   8.032
37815SOL     OW13470   6.155  10.585   8.613
37815SOL    HW113471   6.062  10.578   8.576
37815SOL    HW213472   6.166  10.674   8.657
37816SOL     OW13473   7.141  10.821   8.151
37816SOL    HW113474   7.084  10.805   8.232
37816SOL    HW213475   7.082  10.831   8.071
37817SOL     OW13476   6.721  10.013   8.165
37817SOL    HW113477   6.778  10.091   8.140
37817SOL    HW213478   6.661  10.039   8.241
37818SOL     OW13479   7.341   9.917   7.679
37818SOL    HW113480   7.329   9.904   7.580
37818SOL    HW213481   7.311   9.836   7.728
37819SOL     OW13482   6.354  10.454   8.471
37819SOL    HW113483   6.276  10.471   8.531
37819SOL    HW213484   6.388  10.541   8.435
37820SOL     OW13485   6.436  10.108   9.271
37820SOL    HW113486   6.432  10.184   9.336
37820SOL    HW213487   6.458  10.144   9.180
37821SOL     OW13488   6.271  10.322   8.113
37821SOL    HW113489   6.340  10.306   8.183
37821SOL    HW213490   6.198  10.379   8.151
37822SOL     OW13491   6.272  10.471   9.251
37822SOL    HW113492   6.332  10.550   9.265
37822SOL    HW213493   6.186  10.502   9.210
37823SOL     OW13494   5.921  10.745   8.509
37823SOL    HW113495   5.843  10.714   8.456
37823SOL    HW213496   5.979  10.803   8.452
37824SOL     OW13497   7.046  10.815   8.787
37824SOL    HW113498   7.070  10.909   8.813
37824SOL    HW213499   7.030  10.761   8.869
37825SOL     OW13500   6.024   9.702   8.947
37825SOL    HW113501   6.106   9.646   8.956
37825SOL    HW213502   5.943   9.644   8.951
37826SOL     OW13503   7.189   9.757   8.185
37826SOL    HW113504   7.115   9.803   8.135
37826SOL    HW213505   7.240   9.825   8.238
37827SOL     OW13506   5.817  11.023   7.931
37827SOL    HW113507   5.851  11.100   7.985
37827SOL    HW213508   5.861  11.023   7.841
37828SOL     OW13509   6.713  10.651   9.138
37828SOL    HW113510   6.760  10.651   9.226
37828SOL    HW213511   6.665  10.564   9.127
37829SOL     OW13512   5.816  10.744   7.986
37829SOL    HW113513   5.790  10.840   7.986
37829SOL    HW213514   5.745  10.690   8.031
37830SOL     OW13515   5.826  10.401   8.334
37830SOL    HW113516   5.840  10.317   8.386
37830SOL    HW213517   5.771  10.465   8.389
37831SOL     OW13518   6.206  11.096   8.887
37831SOL    HW113519   6.114  11.079   8.922
37831SOL    HW213520   6.234  11.188   8.913
37832SOL     OW13521   6.192  10.274   7.571
37832SOL    HW113522   6.199  10.358   7.517
37832SOL    HW213523   6.238  10.287   7.659
37833SOL     OW13524   7.180   9.424   8.928
37833SOL    HW113525   7.162   9.491   8.856
37833SOL    HW213526   7.177   9.470   9.017
37834SOL     OW13527   5.708   9.953   8.011
37834SOL    HW113528   5.663   9.865   8.028
37834SOL    HW213529   5.707  10.007   8.095
37835SOL     OW13530   7.428  11.077   7.807
37835SOL    HW113531   7.482  11.048   7.887
37835SOL    HW213532   7.458  11.167   7.778
37836SOL     OW13533   5.613  10.906   7.565
37836SOL    HW113534   5.594  10.810   7.586
37836SOL    HW213535   5.580  10.964   7.640
37837SOL     OW13536   7.275  10.232   8.060
37837SOL    HW113537   7.370  10.203   8.068
37837SOL    HW213538   7.267  10.297   7.985
37838SOL     OW13539   7.227  10.418   7.880
37838SOL    HW113540   7.313  10.420   7.828
37838SOL    HW213541   7.241  10.465   7.968
37839SOL     OW13542   5.699  10.047   9.045
37839SOL    HW113543   5.787  10.034   9.090
37839SOL    HW213544   5.686  10.144   9.023
37840SOL     OW13545   6.199  10.675   8.174
37840SOL    HW113546   6.150  10.588   8.183
37840SOL    HW213547   6.176  10.718   8.087
37841SOL     OW13548   6.879  10.538   8.871
37841SOL    HW113549   6.916  10.465   8.813
37841SOL    HW213550   6.931  10.543   8.956
37842SOL     OW13551   6.395   9.314   7.950
37842SOL    HW113552   6.435   9.405   7.941
37842SOL    HW213553   6.295   9.322   7.956
37843SOL     OW13554   5.783  10.286   8.712
37843SOL    HW113555   5.872  10.241   8.698
37843SOL    HW213556   5.710  10.221   8.693
37844SOL     OW13557   7.111  10.309   7.638
37844SOL    HW113558   7.048  10.233   7.651
37844SOL    HW213559   7.159  10.327   7.724
37845SOL     OW13560   6.773  11.102   9.064
37845SOL    HW113561   6.797  11.162   8.988
37845SOL    HW213562   6.780  11.007   9.034
37846SOL     OW13563   5.903   9.561   9.249
37846SOL    HW113564   5.974   9.632   9.255
37846SOL    HW213565   5.815   9.600   9.277
37847SOL     OW13566   7.052  10.727   8.401
37847SOL    HW113567   6.993  10.733   8.481
37847SOL    HW213568   7.037  10.639   8.355
37848SOL     OW13569   7.253  11.024   8.020
37848SOL    HW113570   7.212  11.001   7.932
37848SOL    HW213571   7.235  10.950   8.085
37849SOL     OW13572   6.184  10.039   7.718
37849SOL    HW113573   6.208  10.108   7.650
37849SOL    HW213574   6.106  10.072   7.772
37850SOL     OW13575   6.867   9.655   8.392
37850SOL    HW113576   6.781   9.605   8.379
37850SOL    HW213577   6.929   9.601   8.448
37851SOL     OW13578   7.162  10.972   7.755
37851SOL    HW113579   7.251  11.018   7.758
37851SOL    HW213580   7.141  10.948   7.660
37852SOL     OW13581   6.393   9.915   8.913
37852SOL    HW113582   6.346   9.912   9.002
37852SOL    HW213583   6.342   9.860   8.847
37853SOL     OW13584   6.980   9.779   9.122
37853SOL    HW113585   6.960   9.822   9.210
37853SOL    HW213586   7.058   9.717   9.131
37854SOL     OW13587   6.559  10.200   9.020
37854SOL    HW113588   6.605  10.116   8.991
37854SOL    HW213589   6.503  10.234   8.945
37855SOL     OW13590   6.577   9.720   8.690
37855SOL    HW113591   6.500   9.754   8.744
37855SOL    HW213592   6.543   9.669   8.611
37856SOL     OW13593   6.627  10.011   7.877
37856SOL    HW113594   6.653  10.007   7.973
37856SOL    HW213595   6.542   9.960   7.863
37857SOL     OW13596   5.662  10.121   8.237
37857SOL    HW113597   5.761  10.109   8.246
37857SOL    HW213598   5.638  10.216   8.258
37858SOL     OW13599   5.716  11.131   9.019
37858SOL    HW113600   5.706  11.116   9.118
37858SOL    HW213601   5.630  11.167   8.983
37859SOL     OW13602   6.451   9.658   7.643
37859SOL    HW113603   6.510   9.721   7.594
37859SOL    HW213604   6.470   9.564   7.614
37860SOL     OW13605   7.305   9.895   9.279
37860SOL    HW113606   7.279   9.984   9.243
37860SOL    HW213607   7.303   9.827   9.206
37861SOL     OW13608   6.948  10.454   7.993
37861SOL    HW113609   7.031  10.425   7.945
37861SOL    HW213610   6.899  10.521   7.937
37862SOL     OW13611   6.136   9.506   8.333
37862SOL    HW113612   6.131   9.501   8.433
37862SOL    HW213613   6.138   9.602   8.304
37863SOL     OW13614   6.594  10.766   7.925
37863SOL    HW113615   6.548  10.838   7.873
37863SOL    HW213616   6.590  10.786   8.023
37864SOL     OW13617   5.937  11.111   8.301
37864SOL    HW113618   5.987  11.025   8.307
37864SOL    HW213619   6.002  11.188   8.298
37865SOL     OW13620   7.381  10.376   8.321
37865SOL    HW113621   7.319  10.361   8.245
37865SOL    HW213622   7.329  10.387   8.406
37866SOL     OW13623   6.813  10.860   8.954
37866SOL    HW113624   6.819  10.783   9.018
37866SOL    HW213625   6.761  10.834   8.874
37867SOL     OW13626   5.907  10.253   7.690
37867SOL    HW113627   5.989  10.292   7.648
37867SOL    HW213628   5.880  10.171   7.641
37868SOL     OW13629   7.044  10.045   8.176
37868SOL    HW113630   7.039   9.980   8.251
37868SOL    HW213631   7.124  10.104   8.189
37869SOL     OW13632   6.047  10.576   9.175
37869SOL    HW113633   5.997  10.577   9.089
37869SOL    HW213634   5.984  10.558   9.251
37870SOL     OW13635   6.697  11.086   7.685
37870SOL    HW113636   6.637  11.024   7.735
37870SOL    HW213637   6.728  11.042   7.600
37871SOL     OW13638   5.788   9.595   8.946
37871SOL    HW113639   5.708   9.655   8.933
37871SOL    HW213640   5.778   9.546   9.032
37872SOL     OW13641   7.218  10.687   7.529
37872SOL    HW113642   7.186  10.781   7.519
37872SOL    HW213643   7.142  10.624   7.517
37873SOL     OW13644   6.050  11.053   7.771
37873SOL    HW113645   6.083  11.092   7.857
37873SOL    HW213646   6.126  11.046   7.706
37874SOL     OW13647   6.986   9.417   7.874
37874SOL    HW113648   6.962   9.380   7.784
37874SOL    HW213649   7.085   9.433   7.878
37875SOL     OW13650   5.835  11.095   8.689
37875SOL    HW113651   5.892  11.030   8.739
37875SOL    HW213652   5.819  11.062   8.596
37876SOL     OW13653   6.526  11.008   8.352
37876SOL    HW113654   6.606  10.951   8.373
37876SOL    HW213655   6.477  10.968   8.275
37877SOL     OW13656   5.968  10.010   7.928
37877SOL    HW113657   6.013   9.920   7.925
37877SOL    HW213658   5.874   9.999   7.961
37878SOL     OW13659   7.133   9.532   9.177
37878SOL    HW113660   7.128   9.569   9.269
37878SOL    HW213661   7.061   9.463   9.165
37879SOL     OW13662   6.200   9.432   7.565
37879SOL    HW113663   6.298   9.410   7.572
37879SOL    HW213664   6.169   9.415   7.472
37880SOL     OW13665   6.367   9.574   9.197
37880SOL    HW113666   6.434   9.513   9.240
37880SOL    HW213667   6.294   9.593   9.262
37881SOL     OW13668   6.474  10.824   8.643
37881SOL    HW113669   6.451  10.799   8.549
37881SOL    HW213670   6.535  10.755   8.682
37882SOL     OW13671   6.937   9.900   8.881
37882SOL    HW113672   6.965   9.857   8.966
37882SOL    HW213673   6.962   9.996   8.882
37883SOL     OW13674   6.389  10.712   8.372
37883SOL    HW113675   6.479  10.726   8.330
37883SOL    HW213676   6.318  10.714   8.301
37884SOL     OW13677   6.508   9.813   8.347
37884SOL    HW113678   6.483   9.804   8.251
37884SOL    HW213679   6.556   9.731   8.378
37885SOL     OW13680   6.125   9.374   7.960
37885SOL    HW113681   6.044   9.375   8.018
37885SOL    HW213682   6.128   9.457   7.905
37886SOL     OW13683   7.020  10.498   7.489
37886SOL    HW113684   7.052  10.422   7.546
37886SOL    HW213685   6.928  10.525   7.519
37887SOL     OW13686   5.883   9.345   7.619
37887SOL    HW113687   5.932   9.429   7.598
37887SOL    HW213688   5.945   9.280   7.664
37888SOL     OW13689   6.521   9.546   7.928
37888SOL    HW113690   6.473   9.587   7.850
37888SOL    HW213691   6.620   9.544   7.909
37889SOL     OW13692   6.662   9.993   8.912
37889SOL    HW113693   6.582   9.932   8.915
37889SOL    HW213694   6.743   9.940   8.888
37890SOL     OW13695   6.813  10.880   8.241
37890SOL    HW113696   6.834  10.954   8.176
37890SOL    HW213697   6.881  10.880   8.314
37891SOL     OW13698   6.045  10.462   8.189
37891SOL    HW113699   5.974  10.435   8.254
37891SOL    HW213700   6.019  10.434   8.096
37892SOL     OW13701   6.857  11.107   8.039
37892SOL    HW113702   6.901  11.171   7.975
37892SOL    HW213703   6.807  11.159   8.109
37893SOL     OW13704   6.618   9.859   7.464
37893SOL    HW113705   6.577   9.941   7.425
37893SOL    HW213706   6.682   9.885   7.537
37894SOL     OW13707   5.664   9.866   8.834
37894SOL    HW113708   5.756   9.865   8.793
37894SOL    HW213709   5.658   9.940   8.901
37895SOL     OW13710   6.147   9.532   8.595
37895SOL    HW113711   6.185   9.448   8.632
37895SOL    HW213712   6.059   9.551   8.639
37896SOL     OW13713   6.452   9.764   8.090
37896SOL    HW113714   6.420   9.836   8.028
37896SOL    HW213715   6.476   9.683   8.037
37897SOL     OW13716   6.603   9.349   8.201
37897SOL    HW113717   6.531   9.354   8.132
37897SOL    HW213718   6.579   9.280   8.270
37898SOL     OW13719   7.015  10.483   8.315
37898SOL    HW113720   6.960  10.399   8.308
37898SOL    HW213721   7.041  10.512   8.223
37899SOL     OW13722   7.052   9.900   8.440
37899SOL    HW113723   7.022   9.805   8.447
37899SOL    HW213724   7.125   9.916   8.506
37900SOL     OW13725   7.443  10.143   7.825
37900SOL    HW113726   7.485  10.079   7.889
37900SOL    HW213727   7.405  10.092   7.747
37901SOL     OW13728   6.074  10.695   7.622
37901SOL    HW113729   5.987  10.680   7.669
37901SOL    HW213730   6.057  10.721   7.527
37902SOL     OW13731   7.250  10.590   8.105
37902SOL    HW113732   7.349  10.598   8.119
37902SOL    HW213733   7.205  10.674   8.136
37903SOL     OW13734   6.976   9.885   7.526
37903SOL    HW113735   6.922   9.864   7.607
37903SOL    HW213736   7.067   9.844   7.535
37904SOL     OW13737   6.113   9.566   7.776
37904SOL    HW113738   6.140   9.507   7.701
37904SOL    HW213739   6.113   9.661   7.745
37905SOL     OW13740   7.340  10.533   9.036
37905SOL    HW113741   7.431  10.494   9.023
37905SOL    HW213742   7.348  10.629   9.060
37906SOL     OW13743   6.650  10.657   8.788
37906SOL    HW113744   6.570  10.634   8.843
37906SOL    HW213745   6.733  10.631   8.837
37907SOL     OW13746   7.178  10.939   9.073
37907SOL    HW113747   7.205  10.973   8.983
37907SOL    HW213748   7.257  10.901   9.119
37908SOL     OW13749   6.697  10.505   8.548
37908SOL    HW113750   6.657  10.549   8.629
37908SOL    HW213751   6.656  10.542   8.465
37909SOL     OW13752   7.224  10.409   8.527
37909SOL    HW113753   7.229  10.490   8.586
37909SOL    HW213754   7.138  10.411   8.476
37910SOL     OW13755   6.501   9.399   8.850
37910SOL    HW113756   6.526   9.379   8.755
37910SOL    HW213757   6.573   9.455   8.892
37911SOL     OW13758   6.566  10.426   9.167
37911SOL    HW113759   6.467  10.432   9.177
37911SOL    HW213760   6.589  10.346   9.111
37912SOL     OW13761   6.291  10.360   7.816
37912SOL    HW113762   6.277  10.367   7.915
37912SOL    HW213763   6.375  10.309   7.798
37913SOL     OW13764   5.996  10.123   8.699
37913SOL    HW113765   6.082  10.135   8.749
37913SOL    HW213766   5.954  10.036   8.726
37914SOL     OW13767   6.860   9.696   8.710
37914SOL    HW113768   6.881   9.770   8.774
37914SOL    HW213769   6.771   9.713   8.667
37915SOL     OW13770   5.650  10.874   8.779
37915SOL    HW113771   5.604  10.956   8.745
37915SOL    HW213772   5.748  10.893   8.788
37916SOL     OW13773   5.953  10.410   7.949
37916SOL    HW113774   5.946  10.493   7.893
37916SOL    HW213775   5.957  10.330   7.889
37917SOL     OW13776   6.152   9.847   8.313
37917SOL    HW113777   6.164   9.913   8.239
37917SOL    HW213778   6.198   9.881   8.396
37918SOL     OW13779   6.838  10.658   7.836
37918SOL    HW113780   6.888  10.735   7.876
37918SOL    HW213781   6.743  10.660   7.868
37919SOL     OW13782   6.858  10.755   8.590
37919SOL    HW113783   6.905  10.768   8.677
37919SOL    HW213784   6.792  10.681   8.599
37920SOL     OW13785   7.168   9.949   7.920
37920SOL    HW113786   7.137  10.010   7.993
37920SOL    HW213787   7.218  10.001   7.851
37921SOL     OW13788   5.940  10.820   8.777
37921SOL    HW113789   5.919  10.776   8.690
37921SOL    HW213790   6.037  10.846   8.780
37922SOL     OW13791   5.988  10.061   9.046
37922SOL    HW113792   6.056  10.116   8.999
37922SOL    HW213793   6.028   9.973   9.073
37923SOL     OW13794   7.173  10.089   9.118
37923SOL    HW113795   7.081  10.127   9.113
37923SOL    HW213796   7.233  10.136   9.053
37924SOL     OW13797   6.599   9.415   9.218
37924SOL    HW113798   6.605   9.500   9.166
37924SOL    HW213799   6.631   9.339   9.161
37925SOL     OW13800   6.090   9.360   9.188
37925SOL    HW113801   6.048   9.303   9.118
37925SOL    HW213802   6.024   9.429   9.220
37926SOL     OW13803   6.159  10.180   8.477
37926SOL    HW113804   6.203  10.269   8.468
37926SOL    HW213805   6.096  10.180   8.554
37927SOL     OW13806   6.946  10.172   8.493
37927SOL    HW113807   6.871  10.172   8.427
37927SOL    HW213808   6.983  10.080   8.502
37928SOL     OW13809   6.795   9.835   7.723
37928SOL    HW113810   6.808   9.751   7.777
37928SOL    HW213811   6.766   9.909   7.783
37929SOL     OW13812   5.893   9.523   8.679
37929SOL    HW113813   5.870   9.560   8.769
37929SOL    HW213814   5.863   9.428   8.673
37930SOL     OW13815   5.623  10.620   8.730
37930SOL    HW113816   5.676  10.571   8.798
37930SOL    HW213817   5.645  10.718   8.735
37931SOL     OW13818   6.318   9.944   8.512
37931SOL    HW113819   6.377   9.918   8.436
37931SOL    HW213820   6.290  10.040   8.501
37932SOL     OW13821   7.314  10.245   9.302
37932SOL    HW113822   7.268  10.238   9.213
37932SOL    HW213823   7.252  10.289   9.368
37933SOL     OW13824   5.893   9.373   8.066
37933SOL    HW113825   5.882   9.467   8.099
37933SOL    HW213826   5.888   9.310   8.143
37934SOL     OW13827   7.208   9.677   7.822
37934SOL    HW113828   7.210   9.601   7.886
37934SOL    HW213829   7.160   9.754   7.862
37935SOL     OW13830   6.609  10.076   8.414
37935SOL    HW113831   6.624  10.097   8.510
37935SOL    HW213832   6.579   9.981   8.405
37936SOL     OW13833   6.566  10.883   9.148
37936SOL    HW113834   6.546  10.927   9.060
37936SOL    HW213835   6.605  10.792   9.132
37937SOL     OW13836   7.445  10.828   9.053
37937SOL    HW113837   7.459  10.855   8.958
37937SOL    HW213838   7.528  10.850   9.106
37938SOL     OW13839   5.936  10.208   9.252
37938SOL    HW113840   6.012  10.252   9.300
37938SOL    HW213841   5.971  10.161   9.170
37939SOL     OW13842   7.126   9.584   7.573
37939SOL    HW113843   7.065   9.509   7.596
37939SOL    HW213844   7.148   9.636   7.656
37940SOL     OW13845   6.889  10.148   7.490
37940SOL    HW113846   6.923  10.055   7.505
37940SOL    HW213847   6.907  10.175   7.395
37941SOL     OW13848   6.654  10.643   8.297
37941SOL    HW113849   6.661  10.559   8.242
37941SOL    HW213850   6.716  10.712   8.261
37942SOL     OW13851   5.905  10.120   8.397
37942SOL    HW113852   5.998  10.156   8.402
37942SOL    HW213853   5.899  10.035   8.449
37943SOL     OW13854   5.925   9.819   8.454
37943SOL    HW113855   5.873   9.736   8.437
37943SOL    HW213856   6.002   9.824   8.390
37944SOL     OW13857   6.724   9.690   9.126
37944SOL    HW113858   6.679   9.753   9.190
37944SOL    HW213859   6.817   9.721   9.109
37945SOL     OW13860   6.746   9.517   8.925
37945SOL    HW113861   6.746   9.581   9.002
37945SOL    HW213862   6.774   9.565   8.842
37946SOL     OW13863   5.594  10.636   7.648
37946SOL    HW113864   5.501  10.657   7.617
37946SOL    HW213865   5.604  10.537   7.661
37947SOL     OW13866   5.674  11.111   8.375
37947SOL    HW113867   5.632  11.025   8.348
37947SOL    HW213868   5.768  11.114   8.341
37948SOL     OW13869   6.090  10.878   8.358
37948SOL    HW113870   6.156  10.952   8.367
37948SOL    HW213871   6.134  10.799   8.316
37949SOL     OW13872   6.588  10.106   8.686
37949SOL    HW113873   6.629  10.074   8.772
37949SOL    HW213874   6.492  10.079   8.683
37950SOL     OW13875   5.626   9.854   8.562
37950SOL    HW113876   5.711   9.821   8.521
37950SOL    HW213877   5.639   9.869   8.660
37951SOL     OW13878   5.775   9.830   9.170
37951SOL    HW113879   5.834   9.790   9.100
37951SOL    HW213880   5.717   9.901   9.129
37952SOL     OW13881   6.955  10.260   9.108
37952SOL    HW113882   6.994  10.349   9.128
37952SOL    HW213883   6.965  10.240   9.011
37953SOL     OW13884   6.401   9.882   7.773
37953SOL    HW113885   6.408   9.793   7.727
37953SOL    HW213886   6.307   9.916   7.765
37954SOL     OW13887   7.243   9.914   8.654
37954SOL    HW113888   7.205   9.845   8.716
37954SOL    HW213889   7.325   9.878   8.610
37955SOL     OW13890   5.838  10.874   9.192
37955SOL    HW113891   5.808  10.931   9.268
37955SOL    HW213892   5.831  10.777   9.218
37956SOL     OW13893   6.257   9.774   8.717
37956SOL    HW113894   6.223   9.685   8.687
37956SOL    HW213895   6.283   9.828   8.637
37957SOL     OW13896   6.516  10.988   8.913
37957SOL    HW113897   6.492  10.970   8.818
37957SOL    HW213898   6.546  11.082   8.923
37958SOL     OW13899   6.059   9.810   7.639
37958SOL    HW113900   6.120   9.890   7.643
37958SOL    HW213901   5.964   9.841   7.646
37959SOL     OW13902   5.745  10.447   8.914
37959SOL    HW113903   5.767  10.386   8.990
37959SOL    HW213904   5.755  10.398   8.828
37960SOL     OW13905   6.933  10.369   8.682
37960SOL    HW113906   6.957  10.306   8.608
37960SOL    HW213907   6.843  10.409   8.664
37961SOL     OW13908   6.888  10.165   7.757
37961SOL    HW113909   6.802  10.134   7.799
37961SOL    HW213910   6.884  10.151   7.658
37962SOL     OW13911   7.345  11.057   8.602
37962SOL    HW113912   7.406  11.087   8.529
37962SOL    HW213913   7.307  10.968   8.580
37963SOL     OW13914   6.838  11.041   8.576
37963SOL    HW113915   6.922  11.046   8.522
37963SOL    HW213916   6.815  10.945   8.594
37964SOL     OW13917   5.669  10.568   8.470
37964SOL    HW113918   5.664  10.567   8.570
37964SOL    HW213919   5.586  10.527   8.432
37965SOL     OW13920   6.274  10.972   9.164
37965SOL    HW113921   6.218  11.053   9.173
37965SOL    HW213922   6.326  10.976   9.078
37966SOL     OW13923   7.312   9.445   7.971
37966SOL    HW113924   7.385   9.428   7.904
37966SOL    HW213925   7.281   9.358   8.009
37967SOL     OW13926   6.974  10.883   7.925
37967SOL    HW113927   7.041  10.895   7.851
37967SOL    HW213928   6.934  10.972   7.948
37968SOL     OW13929   5.716  11.104   9.299
37968SOL    HW113930   5.675  11.030   9.352
37968SOL    HW213931   5.780  11.155   9.357
37969SOL     OW13932   6.866  10.237   8.120
37969SOL    HW113933   6.926  10.156   8.122
37969SOL    HW213934   6.906  10.306   8.060
37970SOL     OW13935   6.416  10.583   8.870
37970SOL    HW113936   6.411  10.616   8.965
37970SOL    HW213937   6.330  10.602   8.824
37971SOL     OW13938   6.258  10.926   7.602
37971SOL    HW113939   6.267  10.936   7.503
37971SOL    HW213940   6.218  10.837   7.623
37972SOL     OW13941   7.236  11.030   8.842
37972SOL    HW113942   7.289  11.040   8.758
37972SOL    HW213943   7.209  11.120   8.876
37973SOL     OW13944   7.427   9.485   8.411
37973SOL    HW113945   7.466   9.400   8.375
37973SOL    HW213946   7.329   9.487   8.392
37974SOL     OW13947   5.849   9.636   8.168
37974SOL    HW113948   5.770   9.687   8.134
37974SOL    HW213949   5.840   9.621   8.266
37975SOL     OW13950   6.780  10.922   7.479
37975SOL    HW113951   6.786  10.829   7.516
37975SOL    HW213952   6.721  10.922   7.399
37976SOL     OW13953   6.408  10.312   8.820
37976SOL    HW113954   6.448  10.311   8.728
37976SOL    HW213955   6.418  10.404   8.860
37977SOL     OW13956   6.502  10.220   7.739
37977SOL    HW113957   6.565  10.258   7.671
37977SOL    HW213958   6.542  10.137   7.778
37978SOL     OW13959   7.090  10.917   7.492
37978SOL    HW113960   6.998  10.954   7.499
37978SOL    HW213961   7.128  10.937   7.402
37979SOL     OW13962   5.958  10.598   8.938
37979SOL    HW113963   5.945  10.691   8.904
37979SOL    HW213964   5.874  10.546   8.925
37980SOL     OW13965   7.200  10.602   8.737
37980SOL    HW113966   7.260  10.605   8.817
37980SOL    HW213967   7.125  10.666   8.750
37981SOL     OW13968   6.625  10.408   8.144
37981SOL    HW113969   6.555  10.361   8.198
37981SOL    HW213970   6.684  10.340   8.101
37982SOL     OW13971   6.600   9.546   8.419
37982SOL    HW113972   6.592   9.510   8.326
37982SOL    HW213973   6.598   9.470   8.484
37983SOL     OW13974   6.176  10.797   7.939
37983SOL    HW113975   6.218  10.739   7.869
37983SOL    HW213976   6.132  10.876   7.895
37984SOL     OW13977   7.295   9.695   8.829
37984SOL    HW113978   7.368   9.764   8.833
37984SOL    HW213979   7.323   9.620   8.770
37985SOL     OW13980   5.841  10.658   7.738
37985SOL    HW113981   5.745  10.659   7.711
37985SOL    HW213982   5.853  10.711   7.822
37986SOL     OW13983   5.691  10.323   9.174
37986SOL    HW113984   5.614  10.290   9.228
37986SOL    HW213985   5.776  10.293   9.216
37987SOL     OW13986   6.258   9.513   8.937
37987SOL    HW113987   6.348   9.497   8.897
37987SOL    HW213988   6.266   9.518   9.036
37988SOL     OW13989   5.661   9.655   7.481
37988SOL    HW113990   5.569   9.627   7.452
37988SOL    HW213991   5.692   9.732   7.425
37989SOL     OW13992   7.026  10.166   8.846
37989SOL    HW113993   6.969  10.218   8.783
37989SOL    HW213994   7.122  10.178   8.822
37990SOL     OW13995   5.658   9.476   7.766
37990SOL    HW113996   5.641   9.559   7.712
37990SOL    HW213997   5.748   9.439   7.744
37991SOL     OW13998   6.769  10.645   7.567
37991SOL    HW113999   6.670  10.634   7.569
37991SOL    HW214000   6.803  10.660   7.660
37992SOL     OW14001   6.199  10.152   8.879
37992SOL    HW114002   6.255  10.233   8.862
37992SOL    HW214003   6.258  10.072   8.882
37993SOL     OW14004   7.079  11.077   8.407
37993SOL    HW114005   7.112  11.141   8.338
37993SOL    HW214006   7.145  11.071   8.482
37994SOL     OW14007   6.302   9.875   9.156
37994SOL    HW114008   6.321   9.940   9.230
37994SOL    HW214009   6.362   9.795   9.165
37995SOL     OW14010   7.036  10.530   9.081
37995SOL    HW114011   7.027  10.520   9.180
37995SOL    HW214012   7.132  10.523   9.055
37996SOL     OW14013   5.976  11.051   9.008
37996SOL    HW114014   5.885  11.092   9.006
37996SOL    HW214015   5.969  10.957   9.040
37997SOL     OW14016   7.260  10.193   8.702
37997SOL    HW114017   7.233  10.104   8.665
37997SOL    HW214018   7.261  10.261   8.629
37998SOL     OW14019   6.811   9.635   7.897
37998SOL    HW114020   6.876   9.561   7.886
37998SOL    HW214021   6.831   9.685   7.981
37999SOL     OW14022   6.180  10.055   8.100
37999SOL    HW114023   6.230  10.140   8.081
37999SOL    HW214024   6.092  10.057   8.052
38000SOL     OW14025   7.363   9.652   9.090
38000SOL    HW114026   7.346   9.683   8.996
38000SOL    HW214027   7.279   9.615   9.128
38001SOL     OW14028   7.316  10.244   8.965
38001SOL    HW114029   7.354  10.335   8.980
38001SOL    HW214030   7.308  10.227   8.866
38002SOL     OW14031   6.445  10.684   7.464
38002SOL    HW114032   6.399  10.699   7.552
38002SOL    HW214033   6.489  10.769   7.434
38003SOL     OW14034   6.247  11.100   8.401
38003SOL    HW114035   6.201  11.188   8.388
38003SOL    HW214036   6.346  11.112   8.394
38004SOL     OW14037   6.445  10.266   8.309
38004SOL    HW114038   6.499  10.197   8.357
38004SOL    HW214039   6.413  10.335   8.375
38005SOL     OW14040   6.669  10.294   7.535
38005SOL    HW114041   6.646  10.347   7.453
38005SOL    HW214042   6.750  10.238   7.516
38006SOL     OW14043   7.447  10.879   8.299
38006SOL    HW114044   7.376  10.867   8.229
38006SOL    HW214045   7.448  10.800   8.359
38007SOL     OW14046   5.807  10.624   9.292
38007SOL    HW114047   5.742  10.551   9.271
38007SOL    HW214048   5.811  10.638   9.390
38008SOL     OW14049   5.665  10.550   8.101
38008SOL    HW114050   5.664  10.503   8.189
38008SOL    HW214051   5.747  10.522   8.050
38009SOL     OW14052   6.258  10.701   9.072
38009SOL    HW114053   6.180  10.651   9.110
38009SOL    HW214054   6.255  10.796   9.103
38010SOL     OW14055   7.410   9.502   8.675
38010SOL    HW114056   7.406   9.412   8.719
38010SOL    HW214057   7.413   9.491   8.576
38011SOL     OW14058   6.014   9.734   7.968
38011SOL    HW114059   6.044   9.662   7.906
38011SOL    HW214060   5.975   9.694   8.051
38012SOL     OW14061   7.291  10.797   8.552
38012SOL    HW114062   7.198  10.772   8.525
38012SOL    HW214063   7.317  10.747   8.634
38013SOL     OW14064   5.903   9.857   8.728
38013SOL    HW114065   5.941   9.798   8.800
38013SOL    HW214066   5.943   9.831   8.640
38014SOL     OW14067   6.398  10.896   8.135
38014SOL    HW114068   6.430  10.906   8.041
38014SOL    HW214069   6.319  10.834   8.137
38015SOL     OW14070   7.010   9.524   8.560
38015SOL    HW114071   7.062   9.459   8.615
38015SOL    HW214072   6.961   9.587   8.621
38016SOL     OW14073   6.587   9.344   8.602
38016SOL    HW114074   6.524   9.272   8.571
38016SOL    HW214075   6.680   9.308   8.602
38017SOL     OW14076   6.356  10.640   7.749
38017SOL    HW114077   6.310  10.553   7.766
38017SOL    HW214078   6.447  10.637   7.790
38018SOL     OW14079   6.204  10.877   8.732
38018SOL    HW114080   6.199  10.959   8.789
38018SOL    HW214081   6.293  10.874   8.687
38019SOL     OW14082   6.938   9.362   7.616
38019SOL    HW114083   6.973   9.321   7.532
38019SOL    HW214084   6.848   9.324   7.636
38020SOL     OW14085   6.886   9.763   8.139
38020SOL    HW114086   6.827   9.843   8.143
38020SOL    HW214087   6.901   9.728   8.232
38021SOL     OW14088   7.179   9.531   8.330
38021SOL    HW114089   7.095   9.530   8.384
38021SOL    HW214090   7.181   9.614   8.274
38022SOL     OW14091   5.625  10.387   7.748
38022SOL    HW114092   5.724  10.376   7.739
38022SOL    HW214093   5.585  10.301   7.780
38023SOL     OW14094   6.461  10.956   7.785
38023SOL    HW114095   6.384  10.921   7.731
38023SOL    HW214096   6.429  11.027   7.847
38024SOL     OW14097   5.816   9.938   9.423
38024SOL    HW114098   5.723   9.936   9.460
38024SOL    HW214099   5.817   9.899   9.331
38025SOL     OW14100   5.811   9.585  10.306
38025SOL    HW114101   5.846   9.568  10.398
38025SOL    HW214102   5.723   9.540  10.294
38026SOL     OW14103   5.605   9.678   9.957
38026SOL    HW114104   5.523   9.721   9.996
38026SOL    HW214105   5.577   9.605   9.894
38027SOL     OW14106   6.155  10.585  10.475
38027SOL    HW114107   6.062  10.578  10.438
38027SOL    HW214108   6.166  10.674  10.519
38028SOL     OW14109   7.141  10.821  10.013
38028SOL    HW114110   7.084  10.805  10.094
38028SOL    HW214111   7.082  10.831   9.933
38029SOL     OW14112   6.721  10.013  10.027
38029SOL    HW114113   6.778  10.091  10.002
38029SOL    HW214114   6.661  10.039  10.103
38030SOL     OW14115   7.341   9.917   9.541
38030SOL    HW114116   7.329   9.904   9.442
38030SOL    HW214117   7.311   9.836   9.590
38031SOL     OW14118   6.354  10.454  10.333
38031SOL    HW114119   6.276  10.471  10.393
38031SOL    HW214120   6.388  10.541  10.297
38032SOL     OW14121   6.436  10.108  11.133
38032SOL    HW114122   6.432  10.184  11.198
38032SOL    HW214123   6.458  10.144  11.042
38033SOL     OW14124   6.271  10.322   9.975
38033SOL    HW114125   6.340  10.306  10.045
38033SOL    HW214126   6.198  10.379  10.013
38034SOL     OW14127   6.272  10.471  11.113
38034SOL    HW114128   6.332  10.550  11.127
38034SOL    HW214129   6.186  10.502  11.072
38035SOL     OW14130   5.921  10.745  10.371
38035SOL    HW114131   5.843  10.714  10.318
38035SOL    HW214132   5.979  10.803  10.314
38036SOL     OW14133   7.046  10.815  10.649
38036SOL    HW114134   7.070  10.909  10.675
38036SOL    HW214135   7.030  10.761  10.731
38037SOL     OW14136   6.024   9.702  10.809
38037SOL    HW114137   6.106   9.646  10.818
38037SOL    HW214138   5.943   9.644  10.813
38038SOL     OW14139   7.189   9.757  10.047
38038SOL    HW114140   7.115   9.803   9.997
38038SOL    HW214141   7.240   9.825  10.100
38039SOL     OW14142   5.817  11.023   9.793
38039SOL    HW114143   5.851  11.100   9.847
38039SOL    HW214144   5.861  11.023   9.703
38040SOL     OW14145   6.713  10.651  11.000
38040SOL    HW114146   6.760  10.651  11.088
38040SOL    HW214147   6.665  10.564  10.989
38041SOL     OW14148   5.816  10.744   9.848
38041SOL    HW114149   5.790  10.840   9.848
38041SOL    HW214150   5.745  10.690   9.893
38042SOL     OW14151   5.826  10.401  10.196
38042SOL    HW114152   5.840  10.317  10.248
38042SOL    HW214153   5.771  10.465  10.251
38043SOL     OW14154   6.206  11.096  10.749
38043SOL    HW114155   6.114  11.079  10.784
38043SOL    HW214156   6.234  11.188  10.775
38044SOL     OW14157   6.192  10.274   9.433
38044SOL    HW114158   6.199  10.358   9.379
38044SOL    HW214159   6.238  10.287   9.521
38045SOL     OW14160   7.180   9.424  10.790
38045SOL    HW114161   7.162   9.491  10.718
38045SOL    HW214162   7.177   9.470  10.879
38046SOL     OW14163   5.708   9.953   9.873
38046SOL    HW114164   5.663   9.865   9.890
38046SOL    HW214165   5.707  10.007   9.957
38047SOL     OW14166   7.428  11.077   9.669
38047SOL    HW114167   7.482  11.048   9.749
38047SOL    HW214168   7.458  11.167   9.640
38048SOL     OW14169   5.613  10.906   9.427
38048SOL    HW114170   5.594  10.810   9.448
38048SOL    HW214171   5.580  10.964   9.502
38049SOL     OW14172   7.275  10.232   9.922
38049SOL    HW114173   7.370  10.203   9.930
38049SOL    HW214174   7.267  10.297   9.847
38050SOL     OW14175   7.227  10.418   9.742
38050SOL    HW114176   7.313  10.420   9.690
38050SOL    HW214177   7.241  10.465   9.830
38051SOL     OW14178   5.699  10.047  10.907
38051SOL    HW114179   5.787  10.034  10.952
38051SOL    HW214180   5.686  10.144  10.885
38052SOL     OW14181   6.199  10.675  10.036
38052SOL    HW114182   6.150  10.588  10.045
38052SOL    HW214183   6.176  10.718   9.949
38053SOL     OW14184   6.879  10.538  10.733
38053SOL    HW114185   6.916  10.465  10.675
38053SOL    HW214186   6.931  10.543  10.818
38054SOL     OW14187   6.395   9.314   9.812
38054SOL    HW114188   6.435   9.405   9.803
38054SOL    HW214189   6.295   9.322   9.818
38055SOL     OW14190   5.783  10.286  10.574
38055SOL    HW114191   5.872  10.241  10.560
38055SOL    HW214192   5.710  10.221  10.555
38056SOL     OW14193   7.111  10.309   9.500
38056SOL    HW114194   7.048  10.233   9.513
38056SOL    HW214195   7.159  10.327   9.586
38057SOL     OW14196   6.773  11.102  10.926
38057SOL    HW114197   6.797  11.162  10.850
38057SOL    HW214198   6.780  11.007  10.896
38058SOL     OW14199   5.903   9.561  11.111
38058SOL    HW114200   5.974   9.632  11.117
38058SOL    HW214201   5.815   9.600  11.139
38059SOL     OW14202   7.052  10.727  10.263
38059SOL    HW114203   6.993  10.733  10.343
38059SOL    HW214204   7.037  10.639  10.217
38060SOL     OW14205   7.253  11.024   9.882
38060SOL    HW114206   7.212  11.001   9.794
38060SOL    HW214207   7.235  10.950   9.947
38061SOL     OW14208   6.184  10.039   9.580
38061SOL    HW114209   6.208  10.108   9.512
38061SOL    HW214210   6.106  10.072   9.634
38062SOL     OW14211   6.867   9.655  10.254
38062SOL    HW114212   6.781   9.605  10.241
38062SOL    HW214213   6.929   9.601  10.310
38063SOL     OW14214   7.162  10.972   9.617
38063SOL    HW114215   7.251  11.018   9.620
38063SOL    HW214216   7.141  10.948   9.522
38064SOL     OW14217   6.393   9.915  10.775
38064SOL    HW114218   6.346   9.912  10.864
38064SOL    HW214219   6.342   9.860  10.709
38065SOL     OW14220   6.980   9.779  10.984
38065SOL    HW114221   6.960   9.822  11.072
38065SOL    HW214222   7.058   9.717  10.993
38066SOL     OW14223   6.559  10.200  10.882
38066SOL    HW114224   6.605  10.116  10.853
38066SOL    HW214225   6.503  10.234  10.807
38067SOL     OW14226   6.577   9.720  10.552
38067SOL    HW114227   6.500   9.754  10.606
38067SOL    HW214228   6.543   9.669  10.473
38068SOL     OW14229   6.627  10.011   9.739
38068SOL    HW114230   6.653  10.007   9.835
38068SOL    HW214231   6.542   9.960   9.725
38069SOL     OW14232   5.662  10.121  10.099
38069SOL    HW114233   5.761  10.109  10.108
38069SOL    HW214234   5.638  10.216  10.120
38070SOL     OW14235   5.716  11.131  10.881
38070SOL    HW114236   5.706  11.116  10.980
38070SOL    HW214237   5.630  11.167  10.845
38071SOL     OW14238   6.451   9.658   9.505
38071SOL    HW114239   6.510   9.721   9.456
38071SOL    HW214240   6.470   9.564   9.476
38072SOL     OW14241   7.305   9.895  11.141
38072SOL    HW114242   7.279   9.984  11.105
38072SOL    HW214243   7.303   9.827  11.068
38073SOL     OW14244   6.948  10.454   9.855
38073SOL    HW114245   7.031  10.425   9.807
38073SOL    HW214246   6.899  10.521   9.799
38074SOL     OW14247   6.136   9.506  10.195
38074SOL    HW114248   6.131   9.501  10.295
38074SOL    HW214249   6.138   9.602  10.166
38075SOL     OW14250   6.594  10.766   9.787
38075SOL    HW114251   6.548  10.838   9.735
38075SOL    HW214252   6.590  10.786   9.885
38076SOL     OW14253   5.937  11.111  10.163
38076SOL    HW114254   5.987  11.025  10.169
38076SOL    HW214255   6.002  11.188  10.160
38077SOL     OW14256   7.381  10.376  10.183
38077SOL    HW114257   7.319  10.361  10.107
38077SOL    HW214258   7.329  10.387  10.268
38078SOL     OW14259   6.813  10.860  10.816
38078SOL    HW114260   6.819  10.783  10.880
38078SOL    HW214261   6.761  10.834  10.736
38079SOL     OW14262   5.907  10.253   9.552
38079SOL    HW114263   5.989  10.292   9.510
38079SOL    HW214264   5.880  10.171   9.503
38080SOL     OW14265   7.044  10.045  10.038
38080SOL    HW114266   7.039   9.980  10.113
38080SOL    HW214267   7.124  10.104  10.051
38081SOL     OW14268   6.047  10.576  11.037
38081SOL    HW114269   5.997  10.577  10.951
38081SOL    HW214270   5.984  10.558  11.113
38082SOL     OW14271   6.697  11.086   9.547
38082SOL    HW114272   6.637  11.024   9.597
38082SOL    HW214273   6.728  11.042   9.462
38083SOL     OW14274   5.788   9.595  10.808
38083SOL    HW114275   5.708   9.655  10.795
38083SOL    HW214276   5.778   9.546  10.894
38084SOL     OW14277   7.218  10.687   9.391
38084SOL    HW114278   7.186  10.781   9.381
38084SOL    HW214279   7.142  10.624   9.379
38085SOL     OW14280   6.050  11.053   9.633
38085SOL    HW114281   6.083  11.092   9.719
38085SOL    HW214282   6.126  11.046   9.568
38086SOL     OW14283   6.986   9.417   9.736
38086SOL    HW114284   6.962   9.380   9.646
38086SOL    HW214285   7.085   9.433   9.740
38087SOL     OW14286   5.835  11.095  10.551
38087SOL    HW114287   5.892  11.030  10.601
38087SOL    HW214288   5.819  11.062  10.458
38088SOL     OW14289   6.526  11.008  10.214
38088SOL    HW114290   6.606  10.951  10.235
38088SOL    HW214291   6.477  10.968  10.137
38089SOL     OW14292   5.968  10.010   9.790
38089SOL    HW114293   6.013   9.920   9.787
38089SOL    HW214294   5.874   9.999   9.823
38090SOL     OW14295   7.133   9.532  11.039
38090SOL    HW114296   7.128   9.569  11.131
38090SOL    HW214297   7.061   9.463  11.027
38091SOL     OW14298   6.200   9.432   9.427
38091SOL    HW114299   6.298   9.410   9.434
38091SOL    HW214300   6.169   9.415   9.334
38092SOL     OW14301   6.367   9.574  11.059
38092SOL    HW114302   6.434   9.513  11.102
38092SOL    HW214303   6.294   9.593  11.124
38093SOL     OW14304   6.474  10.824  10.505
38093SOL    HW114305   6.451  10.799  10.411
38093SOL    HW214306   6.535  10.755  10.544
38094SOL     OW14307   6.937   9.900  10.743
38094SOL    HW114308   6.965   9.857  10.828
38094SOL    HW214309   6.962   9.996  10.744
38095SOL     OW14310   6.389  10.712  10.234
38095SOL    HW114311   6.479  10.726  10.192
38095SOL    HW214312   6.318  10.714  10.163
38096SOL     OW14313   6.508   9.813  10.209
38096SOL    HW114314   6.483   9.804  10.113
38096SOL    HW214315   6.556   9.731  10.240
38097SOL     OW14316   6.125   9.374   9.822
38097SOL    HW114317   6.044   9.375   9.880
38097SOL    HW214318   6.128   9.457   9.767
38098SOL     OW14319   7.020  10.498   9.351
38098SOL    HW114320   7.052  10.422   9.408
38098SOL    HW214321   6.928  10.525   9.381
38099SOL     OW14322   5.883   9.345   9.481
38099SOL    HW114323   5.932   9.429   9.460
38099SOL    HW214324   5.945   9.280   9.526
38100SOL     OW14325   6.521   9.546   9.790
38100SOL    HW114326   6.473   9.587   9.712
38100SOL    HW214327   6.620   9.544   9.771
38101SOL     OW14328   6.662   9.993  10.774
38101SOL    HW114329   6.582   9.932  10.777
38101SOL    HW214330   6.743   9.940  10.750
38102SOL     OW14331   6.813  10.880  10.103
38102SOL    HW114332   6.834  10.954  10.038
38102SOL    HW214333   6.881  10.880  10.176
38103SOL     OW14334   6.045  10.462  10.051
38103SOL    HW114335   5.974  10.435  10.116
38103SOL    HW214336   6.019  10.434   9.958
38104SOL     OW14337   6.857  11.107   9.901
38104SOL    HW114338   6.901  11.171   9.837
38104SOL    HW214339   6.807  11.159   9.971
38105SOL     OW14340   6.618   9.859   9.326
38105SOL    HW114341   6.577   9.941   9.287
38105SOL    HW214342   6.682   9.885   9.399
38106SOL     OW14343   5.664   9.866  10.696
38106SOL    HW114344   5.756   9.865  10.655
38106SOL    HW214345   5.658   9.940  10.763
38107SOL     OW14346   6.147   9.532  10.457
38107SOL    HW114347   6.185   9.448  10.494
38107SOL    HW214348   6.059   9.551  10.501
38108SOL     OW14349   6.452   9.764   9.952
38108SOL    HW114350   6.420   9.836   9.890
38108SOL    HW214351   6.476   9.683   9.899
38109SOL     OW14352   6.603   9.349  10.063
38109SOL    HW114353   6.531   9.354   9.994
38109SOL    HW214354   6.579   9.280  10.132
38110SOL     OW14355   7.015  10.483  10.177
38110SOL    HW114356   6.960  10.399  10.170
38110SOL    HW214357   7.041  10.512  10.085
38111SOL     OW14358   7.052   9.900  10.302
38111SOL    HW114359   7.022   9.805  10.309
38111SOL    HW214360   7.125   9.916  10.368
38112SOL     OW14361   7.443  10.143   9.687
38112SOL    HW114362   7.485  10.079   9.751
38112SOL    HW214363   7.405  10.092   9.609
38113SOL     OW14364   6.074  10.695   9.484
38113SOL    HW114365   5.987  10.680   9.531
38113SOL    HW214366   6.057  10.721   9.389
38114SOL     OW14367   7.250  10.590   9.967
38114SOL    HW114368   7.349  10.598   9.981
38114SOL    HW214369   7.205  10.674   9.998
38115SOL     OW14370   6.976   9.885   9.388
38115SOL    HW114371   6.922   9.864   9.469
38115SOL    HW214372   7.067   9.844   9.397
38116SOL     OW14373   6.113   9.566   9.638
38116SOL    HW114374   6.140   9.507   9.563
38116SOL    HW214375   6.113   9.661   9.607
38117SOL     OW14376   7.340  10.533  10.898
38117SOL    HW114377   7.431  10.494  10.885
38117SOL    HW214378   7.348  10.629  10.922
38118SOL     OW14379   6.650  10.657  10.650
38118SOL    HW114380   6.570  10.634  10.705
38118SOL    HW214381   6.733  10.631  10.699
38119SOL     OW14382   7.178  10.939  10.935
38119SOL    HW114383   7.205  10.973  10.845
38119SOL    HW214384   7.257  10.901  10.981
38120SOL     OW14385   6.697  10.505  10.410
38120SOL    HW114386   6.657  10.549  10.491
38120SOL    HW214387   6.656  10.542  10.327
38121SOL     OW14388   7.224  10.409  10.389
38121SOL    HW114389   7.229  10.490  10.448
38121SOL    HW214390   7.138  10.411  10.338
38122SOL     OW14391   6.501   9.399  10.712
38122SOL    HW114392   6.526   9.379  10.617
38122SOL    HW214393   6.573   9.455  10.754
38123SOL     OW14394   6.566  10.426  11.029
38123SOL    HW114395   6.467  10.432  11.039
38123SOL    HW214396   6.589  10.346  10.973
38124SOL     OW14397   6.291  10.360   9.678
38124SOL    HW114398   6.277  10.367   9.777
38124SOL    HW214399   6.375  10.309   9.660
38125SOL     OW14400   5.996  10.123  10.561
38125SOL    HW114401   6.082  10.135  10.611
38125SOL    HW214402   5.954  10.036  10.588
38126SOL     OW14403   6.860   9.696  10.572
38126SOL    HW114404   6.881   9.770  10.636
38126SOL    HW214405   6.771   9.713  10.529
38127SOL     OW14406   5.650  10.874  10.641
38127SOL    HW114407   5.604  10.956  10.607
38127SOL    HW214408   5.748  10.893  10.650
38128SOL     OW14409   5.953  10.410   9.811
38128SOL    HW114410   5.946  10.493   9.755
38128SOL    HW214411   5.957  10.330   9.751
38129SOL     OW14412   6.152   9.847  10.175
38129SOL    HW114413   6.164   9.913  10.101
38129SOL    HW214414   6.198   9.881  10.258
38130SOL     OW14415   6.838  10.658   9.698
38130SOL    HW114416   6.888  10.735   9.738
38130SOL    HW214417   6.743  10.660   9.730
38131SOL     OW14418   6.858  10.755  10.452
38131SOL    HW114419   6.905  10.768  10.539
38131SOL    HW214420   6.792  10.681  10.461
38132SOL     OW14421   7.168   9.949   9.782
38132SOL    HW114422   7.137  10.010   9.855
38132SOL    HW214423   7.218  10.001   9.713
38133SOL     OW14424   5.940  10.820  10.639
38133SOL    HW114425   5.919  10.776  10.552
38133SOL    HW214426   6.037  10.846  10.642
38134SOL     OW14427   5.988  10.061  10.908
38134SOL    HW114428   6.056  10.116  10.861
38134SOL    HW214429   6.028   9.973  10.935
38135SOL     OW14430   7.173  10.089  10.980
38135SOL    HW114431   7.081  10.127  10.975
38135SOL    HW214432   7.233  10.136  10.915
38136SOL     OW14433   6.599   9.415  11.080
38136SOL    HW114434   6.605   9.500  11.028
38136SOL    HW214435   6.631   9.339  11.023
38137SOL     OW14436   6.090   9.360  11.050
38137SOL    HW114437   6.048   9.303  10.980
38137SOL    HW214438   6.024   9.429  11.082
38138SOL     OW14439   6.159  10.180  10.339
38138SOL    HW114440   6.203  10.269  10.330
38138SOL    HW214441   6.096  10.180  10.416
38139SOL     OW14442   6.946  10.172  10.355
38139SOL    HW114443   6.871  10.172  10.289
38139SOL    HW214444   6.983  10.080  10.364
38140SOL     OW14445   6.795   9.835   9.585
38140SOL    HW114446   6.808   9.751   9.639
38140SOL    HW214447   6.766   9.909   9.645
38141SOL     OW14448   5.893   9.523  10.541
38141SOL    HW114449   5.870   9.560  10.631
38141SOL    HW214450   5.863   9.428  10.535
38142SOL     OW14451   5.623  10.620  10.592
38142SOL    HW114452   5.676  10.571  10.660
38142SOL    HW214453   5.645  10.718  10.597
38143SOL     OW14454   6.318   9.944  10.374
38143SOL    HW114455   6.377   9.918  10.298
38143SOL    HW214456   6.290  10.040  10.363
38144SOL     OW14457   7.314  10.245  11.164
38144SOL    HW114458   7.268  10.238  11.075
38144SOL    HW214459   7.252  10.289  11.230
38145SOL     OW14460   5.893   9.373   9.928
38145SOL    HW114461   5.882   9.467   9.961
38145SOL    HW214462   5.888   9.310  10.005
38146SOL     OW14463   7.208   9.677   9.684
38146SOL    HW114464   7.210   9.601   9.748
38146SOL    HW214465   7.160   9.754   9.724
38147SOL     OW14466   6.609  10.076  10.276
38147SOL    HW114467   6.624  10.097  10.372
38147SOL    HW214468   6.579   9.981  10.267
38148SOL     OW14469   6.566  10.883  11.010
38148SOL    HW114470   6.546  10.927  10.922
38148SOL    HW214471   6.605  10.792  10.994
38149SOL     OW14472   7.445  10.828  10.915
38149SOL    HW114473   7.459  10.855  10.820
38149SOL    HW214474   7.528  10.850  10.968
38150SOL     OW14475   5.936  10.208  11.114
38150SOL    HW114476   6.012  10.252  11.162
38150SOL    HW214477   5.971  10.161  11.032
38151SOL     OW14478   7.126   9.584   9.435
38151SOL    HW114479   7.065   9.509   9.458
38151SOL    HW214480   7.148   9.636   9.518
38152SOL     OW14481   6.889  10.148   9.352
38152SOL    HW114482   6.923  10.055   9.367
38152SOL    HW214483   6.907  10.175   9.257
38153SOL     OW14484   6.654  10.643  10.159
38153SOL    HW114485   6.661  10.559  10.104
38153SOL    HW214486   6.716  10.712  10.123
38154SOL     OW14487   5.905  10.120  10.259
38154SOL    HW114488   5.998  10.156  10.264
38154SOL    HW214489   5.899  10.035  10.311
38155SOL     OW14490   5.925   9.819  10.316
38155SOL    HW114491   5.873   9.736  10.299
38155SOL    HW214492   6.002   9.824  10.252
38156SOL     OW14493   6.724   9.690  10.988
38156SOL    HW114494   6.679   9.753  11.052
38156SOL    HW214495   6.817   9.721  10.971
38157SOL     OW14496   6.746   9.517  10.787
38157SOL    HW114497   6.746   9.581  10.864
38157SOL    HW214498   6.774   9.565  10.704
38158SOL     OW14499   5.594  10.636   9.510
38158SOL    HW114500   5.501  10.657   9.479
38158SOL    HW214501   5.604  10.537   9.523
38159SOL     OW14502   5.674  11.111  10.237
38159SOL    HW114503   5.632  11.025  10.210
38159SOL    HW214504   5.768  11.114  10.203
38160SOL     OW14505   6.090  10.878  10.220
38160SOL    HW114506   6.156  10.952  10.229
38160SOL    HW214507   6.134  10.799  10.178
38161SOL     OW14508   6.588  10.106  10.548
38161SOL    HW114509   6.629  10.074  10.634
38161SOL    HW214510   6.492  10.079  10.545
38162SOL     OW14511   5.626   9.854  10.424
38162SOL    HW114512   5.711   9.821  10.383
38162SOL    HW214513   5.639   9.869  10.522
38163SOL     OW14514   5.775   9.830  11.032
38163SOL    HW114515   5.834   9.790  10.962
38163SOL    HW214516   5.717   9.901  10.991
38164SOL     OW14517   6.955  10.260  10.970
38164SOL    HW114518   6.994  10.349  10.990
38164SOL    HW214519   6.965  10.240  10.873
38165SOL     OW14520   6.401   9.882   9.635
38165SOL    HW114521   6.408   9.793   9.589
38165SOL    HW214522   6.307   9.916   9.627
38166SOL     OW14523   7.243   9.914  10.516
38166SOL    HW114524   7.205   9.845  10.578
38166SOL    HW214525   7.325   9.878  10.472
38167SOL     OW14526   5.838  10.874  11.054
38167SOL    HW114527   5.808  10.931  11.130
38167SOL    HW214528   5.831  10.777  11.080
38168SOL     OW14529   6.257   9.774  10.579
38168SOL    HW114530   6.223   9.685  10.549
38168SOL    HW214531   6.283   9.828  10.499
38169SOL     OW14532   6.516  10.988  10.775
38169SOL    HW114533   6.492  10.970  10.680
38169SOL    HW214534   6.546  11.082  10.785
38170SOL     OW14535   6.059   9.810   9.501
38170SOL    HW114536   6.120   9.890   9.505
38170SOL    HW214537   5.964   9.841   9.508
38171SOL     OW14538   5.745  10.447  10.776
38171SOL    HW114539   5.767  10.386  10.852
38171SOL    HW214540   5.755  10.398  10.690
38172SOL     OW14541   6.933  10.369  10.544
38172SOL    HW114542   6.957  10.306  10.470
38172SOL    HW214543   6.843  10.409  10.526
38173SOL     OW14544   6.888  10.165   9.619
38173SOL    HW114545   6.802  10.134   9.661
38173SOL    HW214546   6.884  10.151   9.520
38174SOL     OW14547   7.345  11.057  10.464
38174SOL    HW114548   7.406  11.087  10.391
38174SOL    HW214549   7.307  10.968  10.442
38175SOL     OW14550   6.838  11.041  10.438
38175SOL    HW114551   6.922  11.046  10.384
38175SOL    HW214552   6.815  10.945  10.456
38176SOL     OW14553   5.669  10.568  10.332
38176SOL    HW114554   5.664  10.567  10.432
38176SOL    HW214555   5.586  10.527  10.294
38177SOL     OW14556   6.274  10.972  11.026
38177SOL    HW114557   6.218  11.053  11.035
38177SOL    HW214558   6.326  10.976  10.940
38178SOL     OW14559   7.312   9.445   9.833
38178SOL    HW114560   7.385   9.428   9.766
38178SOL    HW214561   7.281   9.358   9.871
38179SOL     OW14562   6.974  10.883   9.787
38179SOL    HW114563   7.041  10.895   9.713
38179SOL    HW214564   6.934  10.972   9.810
38180SOL     OW14565   5.716  11.104  11.161
38180SOL    HW114566   5.675  11.030  11.214
38180SOL    HW214567   5.780  11.155  11.219
38181SOL     OW14568   6.866  10.237   9.982
38181SOL    HW114569   6.926  10.156   9.984
38181SOL    HW214570   6.906  10.306   9.922
38182SOL     OW14571   6.416  10.583  10.732
38182SOL    HW114572   6.411  10.616  10.827
38182SOL    HW214573   6.330  10.602  10.686
38183SOL     OW14574   6.258  10.926   9.464
38183SOL    HW114575   6.267  10.936   9.365
38183SOL    HW214576   6.218  10.837   9.485
38184SOL     OW14577   7.236  11.030  10.704
38184SOL    HW114578   7.289  11.040  10.620
38184SOL    HW214579   7.209  11.120  10.738
38185SOL     OW14580   7.427   9.485  10.273
38185SOL    HW114581   7.466   9.400  10.237
38185SOL    HW214582   7.329   9.487  10.254
38186SOL     OW14583   5.849   9.636  10.030
38186SOL    HW114584   5.770   9.687   9.996
38186SOL    HW214585   5.840   9.621  10.128
38187SOL     OW14586   6.780  10.922   9.341
38187SOL    HW114587   6.786  10.829   9.378
38187SOL    HW214588   6.721  10.922   9.261
38188SOL     OW14589   6.408  10.312  10.682
38188SOL    HW114590   6.448  10.311  10.590
38188SOL    HW214591   6.418  10.404  10.722
38189SOL     OW14592   6.502  10.220   9.601
38189SOL    HW114593   6.565  10.258   9.533
38189SOL    HW214594   6.542  10.137   9.640
38190SOL     OW14595   7.090  10.917   9.354
38190SOL    HW114596   6.998  10.954   9.361
38190SOL    HW214597   7.128  10.937   9.264
38191SOL     OW14598   5.958  10.598  10.800
38191SOL    HW114599   5.945  10.691  10.766
38191SOL    HW214600   5.874  10.546  10.787
38192SOL     OW14601   7.200  10.602  10.599
38192SOL    HW114602   7.260  10.605  10.679
38192SOL    HW214603   7.125  10.666  10.612
38193SOL     OW14604   6.625  10.408  10.006
38193SOL    HW114605   6.555  10.361  10.060
38193SOL    HW214606   6.684  10.340   9.963
38194SOL     OW14607   6.600   9.546  10.281
38194SOL    HW114608   6.592   9.510  10.188
38194SOL    HW214609   6.598   9.470  10.346
38195SOL     OW14610   6.176  10.797   9.801
38195SOL    HW114611   6.218  10.739   9.731
38195SOL    HW214612   6.132  10.876   9.757
38196SOL     OW14613   7.295   9.695  10.691
38196SOL    HW114614   7.368   9.764  10.695
38196SOL    HW214615   7.323   9.620  10.632
38197SOL     OW14616   5.841  10.658   9.600
38197SOL    HW114617   5.745  10.659   9.573
38197SOL    HW214618   5.853  10.711   9.684
38198SOL     OW14619   5.691  10.323  11.036
38198SOL    HW114620   5.614  10.290  11.090
38198SOL    HW214621   5.776  10.293  11.078
38199SOL     OW14622   6.258   9.513  10.799
38199SOL    HW114623   6.348   9.497  10.759
38199SOL    HW214624   6.266   9.518  10.898
38200SOL     OW14625   5.661   9.655   9.343
38200SOL    HW114626   5.569   9.627   9.314
38200SOL    HW214627   5.692   9.732   9.287
38201SOL     OW14628   7.026  10.166  10.708
38201SOL    HW114629   6.969  10.218  10.645
38201SOL    HW214630   7.122  10.178  10.684
38202SOL     OW14631   5.658   9.476   9.628
38202SOL    HW114632   5.641   9.559   9.574
38202SOL    HW214633   5.748   9.439   9.606
38203SOL     OW14634   6.769  10.645   9.429
38203SOL    HW114635   6.670  10.634   9.431
38203SOL    HW214636   6.803  10.660   9.522
38204SOL     OW14637   6.199  10.152  10.741
38204SOL    HW114638   6.255  10.233  10.724
38204SOL    HW214639   6.258  10.072  10.744
38205SOL     OW14640   7.079  11.077  10.269
38205SOL    HW114641   7.112  11.141  10.200
38205SOL    HW214642   7.145  11.071  10.344
38206SOL     OW14643   6.302   9.875  11.018
38206SOL    HW114644   6.321   9.940  11.092
38206SOL    HW214645   6.362   9.795  11.027
38207SOL     OW14646   7.036  10.530  10.943
38207SOL    HW114647   7.027  10.520  11.042
38207SOL    HW214648   7.132  10.523  10.917
38208SOL     OW14649   5.976  11.051  10.870
38208SOL    HW114650   5.885  11.092  10.868
38208SOL    HW214651   5.969  10.957  10.902
38209SOL     OW14652   7.260  10.193  10.564
38209SOL    HW114653   7.233  10.104  10.527
38209SOL    HW214654   7.261  10.261  10.491
38210SOL     OW14655   6.811   9.635   9.759
38210SOL    HW114656   6.876   9.561   9.748
38210SOL    HW214657   6.831   9.685   9.843
38211SOL     OW14658   6.180  10.055   9.962
38211SOL    HW114659   6.230  10.140   9.943
38211SOL    HW214660   6.092  10.057   9.914
38212SOL     OW14661   7.363   9.652  10.952
38212SOL    HW114662   7.346   9.683  10.858
38212SOL    HW214663   7.279   9.615  10.990
38213SOL     OW14664   7.316  10.244  10.827
38213SOL    HW114665   7.354  10.335  10.842
38213SOL    HW214666   7.308  10.227  10.728
38214SOL     OW14667   6.445  10.684   9.326
38214SOL    HW114668   6.399  10.699   9.414
38214SOL    HW214669   6.489  10.769   9.296
38215SOL     OW14670   6.247  11.100  10.263
38215SOL    HW114671   6.201  11.188  10.250
38215SOL    HW214672   6.346  11.112  10.256
38216SOL     OW14673   6.445  10.266  10.171
38216SOL    HW114674   6.499  10.197  10.219
38216SOL    HW214675   6.413  10.335  10.237
38217SOL     OW14676   6.669  10.294   9.397
38217SOL    HW114677   6.646  10.347   9.315
38217SOL    HW214678   6.750  10.238   9.378
38218SOL     OW14679   7.447  10.879  10.161
38218SOL    HW114680   7.376  10.867  10.091
38218SOL    HW214681   7.448  10.800  10.221
38219SOL     OW14682   5.807  10.624  11.154
38219SOL    HW114683   5.742  10.551  11.133
38219SOL    HW214684   5.811  10.638  11.252
38220SOL     OW14685   5.665  10.550   9.963
38220SOL    HW114686   5.664  10.503  10.051
38220SOL    HW214687   5.747  10.522   9.912
38221SOL     OW14688   6.258  10.701  10.934
38221SOL    HW114689   6.180  10.651  10.972
38221SOL    HW214690   6.255  10.796  10.965
38222SOL     OW14691   7.410   9.502  10.537
38222SOL    HW114692   7.406   9.412  10.581
38222SOL    HW214693   7.413   9.491  10.438
38223SOL     OW14694   6.014   9.734   9.830
38223SOL    HW114695   6.044   9.662   9.768
38223SOL    HW214696   5.975   9.694   9.913
38224SOL     OW14697   7.291  10.797  10.414
38224SOL    HW114698   7.198  10.772  10.387
38224SOL    HW214699   7.317  10.747  10.496
38225SOL     OW14700   5.903   9.857  10.590
38225SOL    HW114701   5.941   9.798  10.662
38225SOL    HW214702   5.943   9.831  10.502
38226SOL     OW14703   6.398  10.896   9.997
38226SOL    HW114704   6.430  10.906   9.903
38226SOL    HW214705   6.319  10.834   9.999
38227SOL     OW14706   7.010   9.524  10.422
38227SOL    HW114707   7.062   9.459  10.477
38227SOL    HW214708   6.961   9.587  10.483
38228SOL     OW14709   6.587   9.344  10.464
38228SOL    HW114710   6.524   9.272  10.433
38228SOL    HW214711   6.680   9.308  10.464
38229SOL     OW14712   6.356  10.640   9.611
38229SOL    HW114713   6.310  10.553   9.628
38229SOL    HW214714   6.447  10.637   9.652
38230SOL     OW14715   6.204  10.877  10.594
38230SOL    HW114716   6.199  10.959  10.651
38230SOL    HW214717   6.293  10.874  10.549
38231SOL     OW14718   6.938   9.362   9.478
38231SOL    HW114719   6.973   9.321   9.394
38231SOL    HW214720   6.848   9.324   9.498
38232SOL     OW14721   6.886   9.763  10.001
38232SOL    HW114722   6.827   9.843  10.005
38232SOL    HW214723   6.901   9.728  10.094
38233SOL     OW14724   7.179   9.531  10.192
38233SOL    HW114725   7.095   9.530  10.246
38233SOL    HW214726   7.181   9.614  10.136
38234SOL     OW14727   5.625  10.387   9.610
38234SOL    HW114728   5.724  10.376   9.601
38234SOL    HW214729   5.585  10.301   9.642
38235SOL     OW14730   6.461  10.956   9.647
38235SOL    HW114731   6.384  10.921   9.593
38235SOL    HW214732   6.429  11.027   9.709
38236SOL     OW14733   5.816   9.938  11.285
38236SOL    HW114734   5.723   9.936  11.322
38236SOL    HW214735   5.817   9.899  11.193
38237SOL     OW14736   5.811   9.585  12.168
38237SOL    HW114737   5.846   9.568  12.260
38237SOL    HW214738   5.723   9.540  12.156
38238SOL     OW14739   5.605   9.678  11.819
38238SOL    HW114740   5.523   9.721  11.858
38238SOL    HW214741   5.577   9.605  11.756
38239SOL     OW14742   6.155  10.585  12.337
38239SOL    HW114743   6.062  10.578  12.300
38239SOL    HW214744   6.166  10.674  12.381
38240SOL     OW14745   7.141  10.821  11.875
38240SOL    HW114746   7.084  10.805  11.956
38240SOL    HW214747   7.082  10.831  11.795
38241SOL     OW14748   6.721  10.013  11.889
38241SOL    HW114749   6.778  10.091  11.864
38241SOL    HW214750   6.661  10.039  11.965
38242SOL     OW14751   7.341   9.917  11.403
38242SOL    HW114752   7.329   9.904  11.304
38242SOL    HW214753   7.311   9.836  11.452
38243SOL     OW14754   6.354  10.454  12.195
38243SOL    HW114755   6.276  10.471  12.255
38243SOL    HW214756   6.388  10.541  12.159
38244SOL     OW14757   6.271  10.322  11.837
38244SOL    HW114758   6.340  10.306  11.907
38244SOL    HW214759   6.198  10.379  11.875
38245SOL     OW14760   5.921  10.745  12.233
38245SOL    HW114761   5.843  10.714  12.180
38245SOL    HW214762   5.979  10.803  12.176
38246SOL     OW14763   7.046  10.815  12.511
38246SOL    HW114764   7.070  10.909  12.537
38246SOL    HW214765   7.030  10.761  12.593
38247SOL     OW14766   6.024   9.702  12.671
38247SOL    HW114767   6.106   9.646  12.680
38247SOL    HW214768   5.943   9.644  12.675
38248SOL     OW14769   7.189   9.757  11.909
38248SOL    HW114770   7.115   9.803  11.859
38248SOL    HW214771   7.240   9.825  11.962
38249SOL     OW14772   5.817  11.023  11.655
38249SOL    HW114773   5.851  11.100  11.709
38249SOL    HW214774   5.861  11.023  11.565
38250SOL     OW14775   5.816  10.744  11.710
38250SOL    HW114776   5.790  10.840  11.710
38250SOL    HW214777   5.745  10.690  11.755
38251SOL     OW14778   5.826  10.401  12.058
38251SOL    HW114779   5.840  10.317  12.110
38251SOL    HW214780   5.771  10.465  12.113
38252SOL     OW14781   6.206  11.096  12.611
38252SOL    HW114782   6.114  11.079  12.646
38252SOL    HW214783   6.234  11.188  12.637
38253SOL     OW14784   6.192  10.274  11.295
38253SOL    HW114785   6.199  10.358  11.241
38253SOL    HW214786   6.238  10.287  11.383
38254SOL     OW14787   7.180   9.424  12.652
38254SOL    HW114788   7.162   9.491  12.580
38254SOL    HW214789   7.177   9.470  12.741
38255SOL     OW14790   5.708   9.953  11.735
38255SOL    HW114791   5.663   9.865  11.752
38255SOL    HW214792   5.707  10.007  11.819
38256SOL     OW14793   7.428  11.077  11.531
38256SOL    HW114794   7.482  11.048  11.611
38256SOL    HW214795   7.458  11.167  11.502
38257SOL     OW14796   5.613  10.906  11.289
38257SOL    HW114797   5.594  10.810  11.310
38257SOL    HW214798   5.580  10.964  11.364
38258SOL     OW14799   7.275  10.232  11.784
38258SOL    HW114800   7.370  10.203  11.792
38258SOL    HW214801   7.267  10.297  11.709
38259SOL     OW14802   7.227  10.418  11.604
38259SOL    HW114803   7.313  10.420  11.552
38259SOL    HW214804   7.241  10.465  11.692
38260SOL     OW14805   6.199  10.675  11.898
38260SOL    HW114806   6.150  10.588  11.907
38260SOL    HW214807   6.176  10.718  11.811
38261SOL     OW14808   6.395   9.314  11.674
38261SOL    HW114809   6.435   9.405  11.665
38261SOL    HW214810   6.295   9.322  11.680
38262SOL     OW14811   5.783  10.286  12.436
38262SOL    HW114812   5.872  10.241  12.422
38262SOL    HW214813   5.710  10.221  12.417
38263SOL     OW14814   7.111  10.309  11.362
38263SOL    HW114815   7.048  10.233  11.375
38263SOL    HW214816   7.159  10.327  11.448
38264SOL     OW14817   5.903   9.561  12.973
38264SOL    HW114818   5.974   9.632  12.979
38264SOL    HW214819   5.815   9.600  13.001
38265SOL     OW14820   7.052  10.727  12.125
38265SOL    HW114821   6.993  10.733  12.205
38265SOL    HW214822   7.037  10.639  12.079
38266SOL     OW14823   7.253  11.024  11.744
38266SOL    HW114824   7.212  11.001  11.656
38266SOL    HW214825   7.235  10.950  11.809
38267SOL     OW14826   6.184  10.039  11.442
38267SOL    HW114827   6.208  10.108  11.374
38267SOL    HW214828   6.106  10.072  11.496
38268SOL     OW14829   6.867   9.655  12.116
38268SOL    HW114830   6.781   9.605  12.103
38268SOL    HW214831   6.929   9.601  12.172
38269SOL     OW14832   7.162  10.972  11.479
38269SOL    HW114833   7.251  11.018  11.482
38269SOL    HW214834   7.141  10.948  11.384
38270SOL     OW14835   6.393   9.915  12.637
38270SOL    HW114836   6.346   9.912  12.726
38270SOL    HW214837   6.342   9.860  12.571
38271SOL     OW14838   6.577   9.720  12.414
38271SOL    HW114839   6.500   9.754  12.468
38271SOL    HW214840   6.543   9.669  12.335
38272SOL     OW14841   6.627  10.011  11.601
38272SOL    HW114842   6.653  10.007  11.697
38272SOL    HW214843   6.542   9.960  11.587
38273SOL     OW14844   5.662  10.121  11.961
38273SOL    HW114845   5.761  10.109  11.970
38273SOL    HW214846   5.638  10.216  11.982
38274SOL     OW14847   5.716  11.131  12.743
38274SOL    HW114848   5.706  11.116  12.842
38274SOL    HW214849   5.630  11.167  12.707
38275SOL     OW14850   6.451   9.658  11.367
38275SOL    HW114851   6.510   9.721  11.318
38275SOL    HW214852   6.470   9.564  11.338
38276SOL     OW14853   6.948  10.454  11.717
38276SOL    HW114854   7.031  10.425  11.669
38276SOL    HW214855   6.899  10.521  11.661
38277SOL     OW14856   6.136   9.506  12.057
38277SOL    HW114857   6.131   9.501  12.157
38277SOL    HW214858   6.138   9.602  12.028
38278SOL     OW14859   6.594  10.766  11.649
38278SOL    HW114860   6.548  10.838  11.597
38278SOL    HW214861   6.590  10.786  11.747
38279SOL     OW14862   5.937  11.111  12.025
38279SOL    HW114863   5.987  11.025  12.031
38279SOL    HW214864   6.002  11.188  12.022
38280SOL     OW14865   7.381  10.376  12.045
38280SOL    HW114866   7.319  10.361  11.969
38280SOL    HW214867   7.329  10.387  12.130
38281SOL     OW14868   5.907  10.253  11.414
38281SOL    HW114869   5.989  10.292  11.372
38281SOL    HW214870   5.880  10.171  11.365
38282SOL     OW14871   7.044  10.045  11.900
38282SOL    HW114872   7.039   9.980  11.975
38282SOL    HW214873   7.124  10.104  11.913
38283SOL     OW14874   6.697  11.086  11.409
38283SOL    HW114875   6.637  11.024  11.459
38283SOL    HW214876   6.728  11.042  11.324
38284SOL     OW14877   5.788   9.595  12.670
38284SOL    HW114878   5.708   9.655  12.657
38284SOL    HW214879   5.778   9.546  12.756
38285SOL     OW14880   7.218  10.687  11.253
38285SOL    HW114881   7.186  10.781  11.243
38285SOL    HW214882   7.142  10.624  11.241
38286SOL     OW14883   6.050  11.053  11.495
38286SOL    HW114884   6.083  11.092  11.581
38286SOL    HW214885   6.126  11.046  11.430
38287SOL     OW14886   6.986   9.417  11.598
38287SOL    HW114887   6.962   9.380  11.508
38287SOL    HW214888   7.085   9.433  11.602
38288SOL     OW14889   5.835  11.095  12.413
38288SOL    HW114890   5.892  11.030  12.463
38288SOL    HW214891   5.819  11.062  12.320
38289SOL     OW14892   6.526  11.008  12.076
38289SOL    HW114893   6.606  10.951  12.097
38289SOL    HW214894   6.477  10.968  11.999
38290SOL     OW14895   5.968  10.010  11.652
38290SOL    HW114896   6.013   9.920  11.649
38290SOL    HW214897   5.874   9.999  11.685
38291SOL     OW14898   6.200   9.432  11.289
38291SOL    HW114899   6.298   9.410  11.296
38291SOL    HW214900   6.169   9.415  11.196
38292SOL     OW14901   6.474  10.824  12.367
38292SOL    HW114902   6.451  10.799  12.273
38292SOL    HW214903   6.535  10.755  12.406
38293SOL     OW14904   6.389  10.712  12.096
38293SOL    HW114905   6.479  10.726  12.054
38293SOL    HW214906   6.318  10.714  12.025
38294SOL     OW14907   6.508   9.813  12.071
38294SOL    HW114908   6.483   9.804  11.975
38294SOL    HW214909   6.556   9.731  12.102
38295SOL     OW14910   6.125   9.374  11.684
38295SOL    HW114911   6.044   9.375  11.742
38295SOL    HW214912   6.128   9.457  11.629
38296SOL     OW14913   7.020  10.498  11.213
38296SOL    HW114914   7.052  10.422  11.270
38296SOL    HW214915   6.928  10.525  11.243
38297SOL     OW14916   5.883   9.345  11.343
38297SOL    HW114917   5.932   9.429  11.322
38297SOL    HW214918   5.945   9.280  11.388
38298SOL     OW14919   6.521   9.546  11.652
38298SOL    HW114920   6.473   9.587  11.574
38298SOL    HW214921   6.620   9.544  11.633
38299SOL     OW14922   6.813  10.880  11.965
38299SOL    HW114923   6.834  10.954  11.900
38299SOL    HW214924   6.881  10.880  12.038
38300SOL     OW14925   6.045  10.462  11.913
38300SOL    HW114926   5.974  10.435  11.978
38300SOL    HW214927   6.019  10.434  11.820
38301SOL     OW14928   6.857  11.107  11.763
38301SOL    HW114929   6.901  11.171  11.699
38301SOL    HW214930   6.807  11.159  11.833
38302SOL     OW14931   6.618   9.859  11.188
38302SOL    HW114932   6.577   9.941  11.149
38302SOL    HW214933   6.682   9.885  11.261
38303SOL     OW14934   5.664   9.866  12.558
38303SOL    HW114935   5.756   9.865  12.517
38303SOL    HW214936   5.658   9.940  12.625
38304SOL     OW14937   6.147   9.532  12.319
38304SOL    HW114938   6.185   9.448  12.356
38304SOL    HW214939   6.059   9.551  12.363
38305SOL     OW14940   6.452   9.764  11.814
38305SOL    HW114941   6.420   9.836  11.752
38305SOL    HW214942   6.476   9.683  11.761
38306SOL     OW14943   6.603   9.349  11.925
38306SOL    HW114944   6.531   9.354  11.856
38306SOL    HW214945   6.579   9.280  11.994
38307SOL     OW14946   7.015  10.483  12.039
38307SOL    HW114947   6.960  10.399  12.032
38307SOL    HW214948   7.041  10.512  11.947
38308SOL     OW14949   7.052   9.900  12.164
38308SOL    HW114950   7.022   9.805  12.171
38308SOL    HW214951   7.125   9.916  12.230
38309SOL     OW14952   7.443  10.143  11.549
38309SOL    HW114953   7.485  10.079  11.613
38309SOL    HW214954   7.405  10.092  11.471
38310SOL     OW14955   6.074  10.695  11.346
38310SOL    HW114956   5.987  10.680  11.393
38310SOL    HW214957   6.057  10.721  11.251
38311SOL     OW14958   7.250  10.590  11.829
38311SOL    HW114959   7.349  10.598  11.843
38311SOL    HW214960   7.205  10.674  11.860
38312SOL     OW14961   6.976   9.885  11.250
38312SOL    HW114962   6.922   9.864  11.331
38312SOL    HW214963   7.067   9.844  11.259
38313SOL     OW14964   6.113   9.566  11.500
38313SOL    HW114965   6.140   9.507  11.425
38313SOL    HW214966   6.113   9.661  11.469
38314SOL     OW14967   6.650  10.657  12.512
38314SOL    HW114968   6.570  10.634  12.567
38314SOL    HW214969   6.733  10.631  12.561
38315SOL     OW14970   6.697  10.505  12.272
38315SOL    HW114971   6.657  10.549  12.353
38315SOL    HW214972   6.656  10.542  12.189
38316SOL     OW14973   7.224  10.409  12.251
38316SOL    HW114974   7.229  10.490  12.310
38316SOL    HW214975   7.138  10.411  12.200
38317SOL     OW14976   6.501   9.399  12.574
38317SOL    HW114977   6.526   9.379  12.479
38317SOL    HW214978   6.573   9.455  12.616
38318SOL     OW14979   6.291  10.360  11.540
38318SOL    HW114980   6.277  10.367  11.639
38318SOL    HW214981   6.375  10.309  11.522
38319SOL     OW14982   5.996  10.123  12.423
38319SOL    HW114983   6.082  10.135  12.473
38319SOL    HW214984   5.954  10.036  12.450
38320SOL     OW14985   6.860   9.696  12.434
38320SOL    HW114986   6.881   9.770  12.498
38320SOL    HW214987   6.771   9.713  12.391
38321SOL     OW14988   5.650  10.874  12.503
38321SOL    HW114989   5.604  10.956  12.469
38321SOL    HW214990   5.748  10.893  12.512
38322SOL     OW14991   5.953  10.410  11.673
38322SOL    HW114992   5.946  10.493  11.617
38322SOL    HW214993   5.957  10.330  11.613
38323SOL     OW14994   6.152   9.847  12.037
38323SOL    HW114995   6.164   9.913  11.963
38323SOL    HW214996   6.198   9.881  12.120
38324SOL     OW14997   6.838  10.658  11.560
38324SOL    HW114998   6.888  10.735  11.600
38324SOL    HW214999   6.743  10.660  11.592
38325SOL     OW15000   6.858  10.755  12.314
38325SOL    HW115001   6.905  10.768  12.401
38325SOL    HW215002   6.792  10.681  12.323
38326SOL     OW15003   7.168   9.949  11.644
38326SOL    HW115004   7.137  10.010  11.717
38326SOL    HW215005   7.218  10.001  11.575
38327SOL     OW15006   5.940  10.820  12.501
38327SOL    HW115007   5.919  10.776  12.414
38327SOL    HW215008   6.037  10.846  12.504
38328SOL     OW15009   5.988  10.061  12.770
38328SOL    HW115010   6.056  10.116  12.723
38328SOL    HW215011   6.028   9.973  12.797
38329SOL     OW15012   7.173  10.089  12.842
38329SOL    HW115013   7.081  10.127  12.837
38329SOL    HW215014   7.233  10.136  12.777
38330SOL     OW15015   6.159  10.180  12.201
38330SOL    HW115016   6.203  10.269  12.192
38330SOL    HW215017   6.096  10.180  12.278
38331SOL     OW15018   6.946  10.172  12.217
38331SOL    HW115019   6.871  10.172  12.151
38331SOL    HW215020   6.983  10.080  12.226
38332SOL     OW15021   6.795   9.835  11.447
38332SOL    HW115022   6.808   9.751  11.501
38332SOL    HW215023   6.766   9.909  11.507
38333SOL     OW15024   5.893   9.523  12.403
38333SOL    HW115025   5.870   9.560  12.493
38333SOL    HW215026   5.863   9.428  12.397
38334SOL     OW15027   5.623  10.620  12.454
38334SOL    HW115028   5.676  10.571  12.522
38334SOL    HW215029   5.645  10.718  12.459
38335SOL     OW15030   6.318   9.944  12.236
38335SOL    HW115031   6.377   9.918  12.160
38335SOL    HW215032   6.290  10.040  12.225
38336SOL     OW15033   5.893   9.373  11.790
38336SOL    HW115034   5.882   9.467  11.823
38336SOL    HW215035   5.888   9.310  11.867
38337SOL     OW15036   7.208   9.677  11.546
38337SOL    HW115037   7.210   9.601  11.610
38337SOL    HW215038   7.160   9.754  11.586
38338SOL     OW15039   6.609  10.076  12.138
38338SOL    HW115040   6.624  10.097  12.234
38338SOL    HW215041   6.579   9.981  12.129
38339SOL     OW15042   6.566  10.883  12.872
38339SOL    HW115043   6.546  10.927  12.784
38339SOL    HW215044   6.605  10.792  12.856
38340SOL     OW15045   7.126   9.584  11.297
38340SOL    HW115046   7.065   9.509  11.320
38340SOL    HW215047   7.148   9.636  11.380
38341SOL     OW15048   6.889  10.148  11.214
38341SOL    HW115049   6.923  10.055  11.229
38341SOL    HW215050   6.907  10.175  11.119
38342SOL     OW15051   6.654  10.643  12.021
38342SOL    HW115052   6.661  10.559  11.966
38342SOL    HW215053   6.716  10.712  11.985
38343SOL     OW15054   5.905  10.120  12.121
38343SOL    HW115055   5.998  10.156  12.126
38343SOL    HW215056   5.899  10.035  12.173
38344SOL     OW15057   5.925   9.819  12.178
38344SOL    HW115058   5.873   9.736  12.161
38344SOL    HW215059   6.002   9.824  12.114
38345SOL     OW15060   6.724   9.690  12.850
38345SOL    HW115061   6.679   9.753  12.914
38345SOL    HW215062   6.817   9.721  12.833
38346SOL     OW15063   6.746   9.517  12.649
38346SOL    HW115064   6.746   9.581  12.726
38346SOL    HW215065   6.774   9.565  12.566
38347SOL     OW15066   5.594  10.636  11.372
38347SOL    HW115067   5.501  10.657  11.341
38347SOL    HW215068   5.604  10.537  11.385
38348SOL     OW15069   5.674  11.111  12.099
38348SOL    HW115070   5.632  11.025  12.072
38348SOL    HW215071   5.768  11.114  12.065
38349SOL     OW15072   6.090  10.878  12.082
38349SOL    HW115073   6.156  10.952  12.091
38349SOL    HW215074   6.134  10.799  12.040
38350SOL     OW15075   6.588  10.106  12.410
38350SOL    HW115076   6.629  10.074  12.496
38350SOL    HW215077   6.492  10.079  12.407
38351SOL     OW15078   5.626   9.854  12.286
38351SOL    HW115079   5.711   9.821  12.245
38351SOL    HW215080   5.639   9.869  12.384
38352SOL     OW15081   6.401   9.882  11.497
38352SOL    HW115082   6.408   9.793  11.451
38352SOL    HW215083   6.307   9.916  11.489
38353SOL     OW15084   7.243   9.914  12.378
38353SOL    HW115085   7.205   9.845  12.440
38353SOL    HW215086   7.325   9.878  12.334
38354SOL     OW15087   6.257   9.774  12.441
38354SOL    HW115088   6.223   9.685  12.411
38354SOL    HW215089   6.283   9.828  12.361
38355SOL     OW15090   6.516  10.988  12.637
38355SOL    HW115091   6.492  10.970  12.542
38355SOL    HW215092   6.546  11.082  12.647
38356SOL     OW15093   6.059   9.810  11.363
38356SOL    HW115094   6.120   9.890  11.367
38356SOL    HW215095   5.964   9.841  11.370
38357SOL     OW15096   5.745  10.447  12.638
38357SOL    HW115097   5.767  10.386  12.714
38357SOL    HW215098   5.755  10.398  12.552
38358SOL     OW15099   6.933  10.369  12.406
38358SOL    HW115100   6.957  10.306  12.332
38358SOL    HW215101   6.843  10.409  12.388
38359SOL     OW15102   6.888  10.165  11.481
38359SOL    HW115103   6.802  10.134  11.523
38359SOL    HW215104   6.884  10.151  11.382
38360SOL     OW15105   7.345  11.057  12.326
38360SOL    HW115106   7.406  11.087  12.253
38360SOL    HW215107   7.307  10.968  12.304
38361SOL     OW15108   6.838  11.041  12.300
38361SOL    HW115109   6.922  11.046  12.246
38361SOL    HW215110   6.815  10.945  12.318
38362SOL     OW15111   5.669  10.568  12.194
38362SOL    HW115112   5.664  10.567  12.294
38362SOL    HW215113   5.586  10.527  12.156
38363SOL     OW15114   7.312   9.445  11.695
38363SOL    HW115115   7.385   9.428  11.628
38363SOL    HW215116   7.281   9.358  11.733
38364SOL     OW15117   6.974  10.883  11.649
38364SOL    HW115118   7.041  10.895  11.575
38364SOL    HW215119   6.934  10.972  11.672
38365SOL     OW15120   6.866  10.237  11.844
38365SOL    HW115121   6.926  10.156  11.846
38365SOL    HW215122   6.906  10.306  11.784
38366SOL     OW15123   6.258  10.926  11.326
38366SOL    HW115124   6.267  10.936  11.227
38366SOL    HW215125   6.218  10.837  11.347
38367SOL     OW15126   7.236  11.030  12.566
38367SOL    HW115127   7.289  11.040  12.482
38367SOL    HW215128   7.209  11.120  12.600
38368SOL     OW15129   7.427   9.485  12.135
38368SOL    HW115130   7.466   9.400  12.099
38368SOL    HW215131   7.329   9.487  12.116
38369SOL     OW15132   5.849   9.636  11.892
38369SOL    HW115133   5.770   9.687  11.858
38369SOL    HW215134   5.840   9.621  11.990
38370SOL     OW15135   6.780  10.922  11.203
38370SOL    HW115136   6.786  10.829  11.240
38370SOL    HW215137   6.721  10.922  11.123
38371SOL     OW15138   6.408  10.312  12.544
38371SOL    HW115139   6.448  10.311  12.452
38371SOL    HW215140   6.418  10.404  12.584
38372SOL     OW15141   6.502  10.220  11.463
38372SOL    HW115142   6.565  10.258  11.395
38372SOL    HW215143   6.542  10.137  11.502
38373SOL     OW15144   7.090  10.917  11.216
38373SOL    HW115145   6.998  10.954  11.223
38373SOL    HW215146   7.128  10.937  11.126
38374SOL     OW15147   5.958  10.598  12.662
38374SOL    HW115148   5.945  10.691  12.628
38374SOL    HW215149   5.874  10.546  12.649
38375SOL     OW15150   7.200  10.602  12.461
38375SOL    HW115151   7.260  10.605  12.541
38375SOL    HW215152   7.125  10.666  12.474
38376SOL     OW15153   6.625  10.408  11.868
38376SOL    HW115154   6.555  10.361  11.922
38376SOL    HW215155   6.684  10.340  11.825
38377SOL     OW15156   6.600   9.546  12.143
38377SOL    HW115157   6.592   9.510  12.050
38377SOL    HW215158   6.598   9.470  12.208
38378SOL     OW15159   6.176  10.797  11.663
38378SOL    HW115160   6.218  10.739  11.593
38378SOL    HW215161   6.132  10.876  11.619
38379SOL     OW15162   7.295   9.695  12.553
38379SOL    HW115163   7.368   9.764  12.557
38379SOL    HW215164   7.323   9.620  12.494
38380SOL     OW15165   5.841  10.658  11.462
38380SOL    HW115166   5.745  10.659  11.435
38380SOL    HW215167   5.853  10.711  11.546
38381SOL     OW15168   5.661   9.655  11.205
38381SOL    HW115169   5.569   9.627  11.176
38381SOL    HW215170   5.692   9.732  11.149
38382SOL     OW15171   7.026  10.166  12.570
38382SOL    HW115172   6.969  10.218  12.507
38382SOL    HW215173   7.122  10.178  12.546
38383SOL     OW15174   5.658   9.476  11.490
38383SOL    HW115175   5.641   9.559  11.436
38383SOL    HW215176   5.748   9.439  11.468
38384SOL     OW15177   6.769  10.645  11.291
38384SOL    HW115178   6.670  10.634  11.293
38384SOL    HW215179   6.803  10.660  11.384
38385SOL     OW15180   6.199  10.152  12.603
38385SOL    HW115181   6.255  10.233  12.586
38385SOL    HW215182   6.258  10.072  12.606
38386SOL     OW15183   7.079  11.077  12.131
38386SOL    HW115184   7.112  11.141  12.062
38386SOL    HW215185   7.145  11.071  12.206
38387SOL     OW15186   5.976  11.051  12.732
38387SOL    HW115187   5.885  11.092  12.730
38387SOL    HW215188   5.969  10.957  12.764
38388SOL     OW15189   7.260  10.193  12.426
38388SOL    HW115190   7.233  10.104  12.389
38388SOL    HW215191   7.261  10.261  12.353
38389SOL     OW15192   6.811   9.635  11.621
38389SOL    HW115193   6.876   9.561  11.610
38389SOL    HW215194   6.831   9.685  11.705
38390SOL     OW15195   6.180  10.055  11.824
38390SOL    HW115196   6.230  10.140  11.805
38390SOL    HW215197   6.092  10.057  11.776
38391SOL     OW15198   7.363   9.652  12.814
38391SOL    HW115199   7.346   9.683  12.720
38391SOL    HW215200   7.279   9.615  12.852
38392SOL     OW15201   7.316  10.244  12.689
38392SOL    HW115202   7.354  10.335  12.704
38392SOL    HW215203   7.308  10.227  12.590
38393SOL     OW15204   6.445  10.684  11.188
38393SOL    HW115205   6.399  10.699  11.276
38393SOL    HW215206   6.489  10.769  11.158
38394SOL     OW15207   6.247  11.100  12.125
38394SOL    HW115208   6.201  11.188  12.112
38394SOL    HW215209   6.346  11.112  12.118
38395SOL     OW15210   6.445  10.266  12.033
38395SOL    HW115211   6.499  10.197  12.081
38395SOL    HW215212   6.413  10.335  12.099
38396SOL     OW15213   6.669  10.294  11.259
38396SOL    HW115214   6.646  10.347  11.177
38396SOL    HW215215   6.750  10.238  11.240
38397SOL     OW15216   7.447  10.879  12.023
38397SOL    HW115217   7.376  10.867  11.953
38397SOL    HW215218   7.448  10.800  12.083
38398SOL     OW15219   5.665  10.550  11.825
38398SOL    HW115220   5.664  10.503  11.913
38398SOL    HW215221   5.747  10.522  11.774
38399SOL     OW15222   7.410   9.502  12.399
38399SOL    HW115223   7.406   9.412  12.443
38399SOL    HW215224   7.413   9.491  12.300
38400SOL     OW15225   6.014   9.734  11.692
38400SOL    HW115226   6.044   9.662  11.630
38400SOL    HW215227   5.975   9.694  11.775
38401SOL     OW15228   7.291  10.797  12.276
38401SOL    HW115229   7.198  10.772  12.249
38401SOL    HW215230   7.317  10.747  12.358
38402SOL     OW15231   5.903   9.857  12.452
38402SOL    HW115232   5.941   9.798  12.524
38402SOL    HW215233   5.943   9.831  12.364
38403SOL     OW15234   6.398  10.896  11.859
38403SOL    HW115235   6.430  10.906  11.765
38403SOL    HW215236   6.319  10.834  11.861
38404SOL     OW15237   7.010   9.524  12.284
38404SOL    HW115238   7.062   9.459  12.339
38404SOL    HW215239   6.961   9.587  12.345
38405SOL     OW15240   6.587   9.344  12.326
38405SOL    HW115241   6.524   9.272  12.295
38405SOL    HW215242   6.680   9.308  12.326
38406SOL     OW15243   6.356  10.640  11.473
38406SOL    HW115244   6.310  10.553  11.490
38406SOL    HW215245   6.447  10.637  11.514
38407SOL     OW15246   6.204  10.877  12.456
38407SOL    HW115247   6.199  10.959  12.513
38407SOL    HW215248   6.293  10.874  12.411
38408SOL     OW15249   6.938   9.362  11.340
38408SOL    HW115250   6.973   9.321  11.256
38408SOL    HW215251   6.848   9.324  11.360
38409SOL     OW15252   6.886   9.763  11.863
38409SOL    HW115253   6.827   9.843  11.867
38409SOL    HW215254   6.901   9.728  11.956
38410SOL     OW15255   7.179   9.531  12.054
38410SOL    HW115256   7.095   9.530  12.108
38410SOL    HW215257   7.181   9.614  11.998
38411SOL     OW15258   5.625  10.387  11.472
38411SOL    HW115259   5.724  10.376  11.463
38411SOL    HW215260   5.585  10.301  11.504
38412SOL     OW15261   6.461  10.956  11.509
38412SOL    HW115262   6.384  10.921  11.455
38412SOL    HW215263   6.429  11.027  11.571
38413SOL     OW15264   5.816  11.800   0.113
38413SOL    HW115265   5.723  11.798   0.150
38413SOL    HW215266   5.817  11.761   0.021
38414SOL     OW15267   5.811  11.447   0.996
38414SOL    HW115268   5.846  11.430   1.088
38414SOL    HW215269   5.723  11.402   0.984
38415SOL     OW15270   5.605  11.540   0.647
38415SOL    HW115271   5.523  11.583   0.686
38415SOL    HW215272   5.577  11.467   0.584
38416SOL     OW15273   6.155  12.447   1.165
38416SOL    HW115274   6.062  12.440   1.128
38416SOL    HW215275   6.166  12.536   1.209
38417SOL     OW15276   7.141  12.683   0.703
38417SOL    HW115277   7.084  12.667   0.784
38417SOL    HW215278   7.082  12.693   0.623
38418SOL     OW15279   6.721  11.875   0.717
38418SOL    HW115280   6.778  11.953   0.692
38418SOL    HW215281   6.661  11.901   0.793
38419SOL     OW15282   7.341  11.779   0.231
38419SOL    HW115283   7.329  11.766   0.132
38419SOL    HW215284   7.311  11.698   0.280
38420SOL     OW15285   6.354  12.316   1.023
38420SOL    HW115286   6.276  12.333   1.083
38420SOL    HW215287   6.388  12.403   0.987
38421SOL     OW15288   6.436  11.970   1.823
38421SOL    HW115289   6.432  12.046   1.888
38421SOL    HW215290   6.458  12.006   1.732
38422SOL     OW15291   6.271  12.184   0.665
38422SOL    HW115292   6.340  12.168   0.735
38422SOL    HW215293   6.198  12.241   0.703
38423SOL     OW15294   6.272  12.333   1.803
38423SOL    HW115295   6.332  12.412   1.817
38423SOL    HW215296   6.186  12.364   1.762
38424SOL     OW15297   5.921  12.607   1.061
38424SOL    HW115298   5.843  12.576   1.008
38424SOL    HW215299   5.979  12.665   1.004
38425SOL     OW15300   7.046  12.677   1.339
38425SOL    HW115301   7.070  12.771   1.365
38425SOL    HW215302   7.030  12.623   1.421
38426SOL     OW15303   6.024  11.564   1.499
38426SOL    HW115304   6.106  11.508   1.508
38426SOL    HW215305   5.943  11.506   1.503
38427SOL     OW15306   7.189  11.619   0.737
38427SOL    HW115307   7.115  11.665   0.687
38427SOL    HW215308   7.240  11.687   0.790
38428SOL     OW15309   5.817  12.885   0.483
38428SOL    HW115310   5.851  12.962   0.537
38428SOL    HW215311   5.861  12.885   0.393
38429SOL     OW15312   6.713  12.513   1.690
38429SOL    HW115313   6.760  12.513   1.778
38429SOL    HW215314   6.665  12.426   1.679
38430SOL     OW15315   5.816  12.606   0.538
38430SOL    HW115316   5.790  12.702   0.538
38430SOL    HW215317   5.745  12.552   0.583
38431SOL     OW15318   5.826  12.263   0.886
38431SOL    HW115319   5.840  12.179   0.938
38431SOL    HW215320   5.771  12.327   0.941
38432SOL     OW15321   6.192  12.136   0.123
38432SOL    HW115322   6.199  12.220   0.069
38432SOL    HW215323   6.238  12.149   0.211
38433SOL     OW15324   7.180  11.286   1.480
38433SOL    HW115325   7.162  11.353   1.408
38433SOL    HW215326   7.177  11.332   1.569
38434SOL     OW15327   5.708  11.815   0.563
38434SOL    HW115328   5.663  11.727   0.580
38434SOL    HW215329   5.707  11.869   0.647
38435SOL     OW15330   5.613  12.768   0.117
38435SOL    HW115331   5.594  12.672   0.138
38435SOL    HW215332   5.580  12.826   0.192
38436SOL     OW15333   7.275  12.094   0.612
38436SOL    HW115334   7.370  12.065   0.620
38436SOL    HW215335   7.267  12.159   0.537
38437SOL     OW15336   7.227  12.280   0.432
38437SOL    HW115337   7.313  12.282   0.380
38437SOL    HW215338   7.241  12.327   0.520
38438SOL     OW15339   5.699  11.909   1.597
38438SOL    HW115340   5.787  11.896   1.642
38438SOL    HW215341   5.686  12.006   1.575
38439SOL     OW15342   6.199  12.537   0.726
38439SOL    HW115343   6.150  12.450   0.735
38439SOL    HW215344   6.176  12.580   0.639
38440SOL     OW15345   6.879  12.400   1.423
38440SOL    HW115346   6.916  12.327   1.365
38440SOL    HW215347   6.931  12.405   1.508
38441SOL     OW15348   6.395  11.176   0.502
38441SOL    HW115349   6.435  11.267   0.493
38441SOL    HW215350   6.295  11.184   0.508
38442SOL     OW15351   5.783  12.148   1.264
38442SOL    HW115352   5.872  12.103   1.250
38442SOL    HW215353   5.710  12.083   1.245
38443SOL     OW15354   7.111  12.171   0.190
38443SOL    HW115355   7.048  12.095   0.203
38443SOL    HW215356   7.159  12.189   0.276
38444SOL     OW15357   5.903  11.423   1.801
38444SOL    HW115358   5.974  11.494   1.807
38444SOL    HW215359   5.815  11.462   1.829
38445SOL     OW15360   7.052  12.589   0.953
38445SOL    HW115361   6.993  12.595   1.033
38445SOL    HW215362   7.037  12.501   0.907
38446SOL     OW15363   6.184  11.901   0.270
38446SOL    HW115364   6.208  11.970   0.202
38446SOL    HW215365   6.106  11.934   0.324
38447SOL     OW15366   6.867  11.517   0.944
38447SOL    HW115367   6.781  11.467   0.931
38447SOL    HW215368   6.929  11.463   1.000
38448SOL     OW15369   6.393  11.777   1.465
38448SOL    HW115370   6.346  11.774   1.554
38448SOL    HW215371   6.342  11.722   1.399
38449SOL     OW15372   6.980  11.641   1.674
38449SOL    HW115373   6.960  11.684   1.762
38449SOL    HW215374   7.058  11.579   1.683
38450SOL     OW15375   6.559  12.062   1.572
38450SOL    HW115376   6.605  11.978   1.543
38450SOL    HW215377   6.503  12.096   1.497
38451SOL     OW15378   6.577  11.582   1.242
38451SOL    HW115379   6.500  11.616   1.296
38451SOL    HW215380   6.543  11.531   1.163
38452SOL     OW15381   6.627  11.873   0.429
38452SOL    HW115382   6.653  11.869   0.525
38452SOL    HW215383   6.542  11.822   0.415
38453SOL     OW15384   5.662  11.983   0.789
38453SOL    HW115385   5.761  11.971   0.798
38453SOL    HW215386   5.638  12.078   0.810
38454SOL     OW15387   6.451  11.520   0.195
38454SOL    HW115388   6.510  11.583   0.146
38454SOL    HW215389   6.470  11.426   0.166
38455SOL     OW15390   7.305  11.757   1.831
38455SOL    HW115391   7.279  11.846   1.795
38455SOL    HW215392   7.303  11.689   1.758
38456SOL     OW15393   6.948  12.316   0.545
38456SOL    HW115394   7.031  12.287   0.497
38456SOL    HW215395   6.899  12.383   0.489
38457SOL     OW15396   6.136  11.368   0.885
38457SOL    HW115397   6.131  11.363   0.985
38457SOL    HW215398   6.138  11.464   0.856
38458SOL     OW15399   6.594  12.628   0.477
38458SOL    HW115400   6.548  12.700   0.425
38458SOL    HW215401   6.590  12.648   0.575
38459SOL     OW15402   7.381  12.238   0.873
38459SOL    HW115403   7.319  12.223   0.797
38459SOL    HW215404   7.329  12.249   0.958
38460SOL     OW15405   6.813  12.722   1.506
38460SOL    HW115406   6.819  12.645   1.570
38460SOL    HW215407   6.761  12.696   1.426
38461SOL     OW15408   5.907  12.115   0.242
38461SOL    HW115409   5.989  12.154   0.200
38461SOL    HW215410   5.880  12.033   0.193
38462SOL     OW15411   7.044  11.907   0.728
38462SOL    HW115412   7.039  11.842   0.803
38462SOL    HW215413   7.124  11.966   0.741
38463SOL     OW15414   6.047  12.438   1.727
38463SOL    HW115415   5.997  12.439   1.641
38463SOL    HW215416   5.984  12.420   1.803
38464SOL     OW15417   6.697  12.948   0.237
38464SOL    HW115418   6.637  12.886   0.287
38464SOL    HW215419   6.728  12.904   0.152
38465SOL     OW15420   5.788  11.457   1.498
38465SOL    HW115421   5.708  11.517   1.485
38465SOL    HW215422   5.778  11.408   1.584
38466SOL     OW15423   7.218  12.549   0.081
38466SOL    HW115424   7.186  12.643   0.071
38466SOL    HW215425   7.142  12.486   0.069
38467SOL     OW15426   6.986  11.279   0.426
38467SOL    HW115427   6.962  11.242   0.336
38467SOL    HW215428   7.085  11.295   0.430
38468SOL     OW15429   5.968  11.872   0.480
38468SOL    HW115430   6.013  11.782   0.477
38468SOL    HW215431   5.874  11.861   0.513
38469SOL     OW15432   7.133  11.394   1.729
38469SOL    HW115433   7.128  11.431   1.821
38469SOL    HW215434   7.061  11.325   1.717
38470SOL     OW15435   6.200  11.294   0.117
38470SOL    HW115436   6.298  11.272   0.124
38470SOL    HW215437   6.169  11.277   0.024
38471SOL     OW15438   6.367  11.436   1.749
38471SOL    HW115439   6.434  11.375   1.792
38471SOL    HW215440   6.294  11.455   1.814
38472SOL     OW15441   6.937  11.762   1.433
38472SOL    HW115442   6.965  11.719   1.518
38472SOL    HW215443   6.962  11.858   1.434
38473SOL     OW15444   6.389  12.574   0.924
38473SOL    HW115445   6.479  12.588   0.882
38473SOL    HW215446   6.318  12.576   0.853
38474SOL     OW15447   6.508  11.675   0.899
38474SOL    HW115448   6.483  11.666   0.803
38474SOL    HW215449   6.556  11.593   0.930
38475SOL     OW15450   6.125  11.236   0.512
38475SOL    HW115451   6.044  11.237   0.570
38475SOL    HW215452   6.128  11.319   0.457
38476SOL     OW15453   7.020  12.360   0.041
38476SOL    HW115454   7.052  12.284   0.098
38476SOL    HW215455   6.928  12.387   0.071
38477SOL     OW15456   5.883  11.207   0.171
38477SOL    HW115457   5.932  11.291   0.150
38477SOL    HW215458   5.945  11.142   0.216
38478SOL     OW15459   6.521  11.408   0.480
38478SOL    HW115460   6.473  11.449   0.402
38478SOL    HW215461   6.620  11.406   0.461
38479SOL     OW15462   6.662  11.855   1.464
38479SOL    HW115463   6.582  11.794   1.467
38479SOL    HW215464   6.743  11.802   1.440
38480SOL     OW15465   6.813  12.742   0.793
38480SOL    HW115466   6.834  12.816   0.728
38480SOL    HW215467   6.881  12.742   0.866
38481SOL     OW15468   6.045  12.324   0.741
38481SOL    HW115469   5.974  12.297   0.806
38481SOL    HW215470   6.019  12.296   0.648
38482SOL     OW15471   6.618  11.721   0.016
38482SOL    HW115472   6.577  11.803  -0.023
38482SOL    HW215473   6.682  11.747   0.089
38483SOL     OW15474   5.664  11.728   1.386
38483SOL    HW115475   5.756  11.727   1.345
38483SOL    HW215476   5.658  11.802   1.453
38484SOL     OW15477   6.147  11.394   1.147
38484SOL    HW115478   6.185  11.310   1.184
38484SOL    HW215479   6.059  11.413   1.191
38485SOL     OW15480   6.452  11.626   0.642
38485SOL    HW115481   6.420  11.698   0.580
38485SOL    HW215482   6.476  11.545   0.589
38486SOL     OW15483   6.603  11.211   0.753
38486SOL    HW115484   6.531  11.216   0.684
38486SOL    HW215485   6.579  11.142   0.822
38487SOL     OW15486   7.015  12.345   0.867
38487SOL    HW115487   6.960  12.261   0.860
38487SOL    HW215488   7.041  12.374   0.775
38488SOL     OW15489   7.052  11.762   0.992
38488SOL    HW115490   7.022  11.667   0.999
38488SOL    HW215491   7.125  11.778   1.058
38489SOL     OW15492   7.443  12.005   0.377
38489SOL    HW115493   7.485  11.941   0.441
38489SOL    HW215494   7.405  11.954   0.299
38490SOL     OW15495   6.074  12.557   0.174
38490SOL    HW115496   5.987  12.542   0.221
38490SOL    HW215497   6.057  12.583   0.079
38491SOL     OW15498   7.250  12.452   0.657
38491SOL    HW115499   7.349  12.460   0.671
38491SOL    HW215500   7.205  12.536   0.688
38492SOL     OW15501   6.976  11.747   0.078
38492SOL    HW115502   6.922  11.726   0.159
38492SOL    HW215503   7.067  11.706   0.087
38493SOL     OW15504   6.113  11.428   0.328
38493SOL    HW115505   6.140  11.369   0.253
38493SOL    HW215506   6.113  11.523   0.297
38494SOL     OW15507   7.340  12.395   1.588
38494SOL    HW115508   7.431  12.356   1.575
38494SOL    HW215509   7.348  12.491   1.612
38495SOL     OW15510   6.650  12.519   1.340
38495SOL    HW115511   6.570  12.496   1.395
38495SOL    HW215512   6.733  12.493   1.389
38496SOL     OW15513   6.697  12.367   1.100
38496SOL    HW115514   6.657  12.411   1.181
38496SOL    HW215515   6.656  12.404   1.017
38497SOL     OW15516   7.224  12.271   1.079
38497SOL    HW115517   7.229  12.352   1.138
38497SOL    HW215518   7.138  12.273   1.028
38498SOL     OW15519   6.501  11.261   1.402
38498SOL    HW115520   6.526  11.241   1.307
38498SOL    HW215521   6.573  11.317   1.444
38499SOL     OW15522   6.566  12.288   1.719
38499SOL    HW115523   6.467  12.294   1.729
38499SOL    HW215524   6.589  12.208   1.663
38500SOL     OW15525   6.291  12.222   0.368
38500SOL    HW115526   6.277  12.229   0.467
38500SOL    HW215527   6.375  12.171   0.350
38501SOL     OW15528   5.996  11.985   1.251
38501SOL    HW115529   6.082  11.997   1.301
38501SOL    HW215530   5.954  11.898   1.278
38502SOL     OW15531   6.860  11.558   1.262
38502SOL    HW115532   6.881  11.632   1.326
38502SOL    HW215533   6.771  11.575   1.219
38503SOL     OW15534   5.953  12.272   0.501
38503SOL    HW115535   5.946  12.355   0.445
38503SOL    HW215536   5.957  12.192   0.441
38504SOL     OW15537   6.152  11.709   0.865
38504SOL    HW115538   6.164  11.775   0.791
38504SOL    HW215539   6.198  11.743   0.948
38505SOL     OW15540   6.838  12.520   0.388
38505SOL    HW115541   6.888  12.597   0.428
38505SOL    HW215542   6.743  12.522   0.420
38506SOL     OW15543   6.858  12.617   1.142
38506SOL    HW115544   6.905  12.630   1.229
38506SOL    HW215545   6.792  12.543   1.151
38507SOL     OW15546   7.168  11.811   0.472
38507SOL    HW115547   7.137  11.872   0.545
38507SOL    HW215548   7.218  11.863   0.403
38508SOL     OW15549   5.940  12.682   1.329
38508SOL    HW115550   5.919  12.638   1.242
38508SOL    HW215551   6.037  12.708   1.332
38509SOL     OW15552   5.988  11.923   1.598
38509SOL    HW115553   6.056  11.978   1.551
38509SOL    HW215554   6.028  11.835   1.625
38510SOL     OW15555   7.173  11.951   1.670
38510SOL    HW115556   7.081  11.989   1.665
38510SOL    HW215557   7.233  11.998   1.605
38511SOL     OW15558   6.599  11.277   1.770
38511SOL    HW115559   6.605  11.362   1.718
38511SOL    HW215560   6.631  11.201   1.713
38512SOL     OW15561   6.090  11.222   1.740
38512SOL    HW115562   6.048  11.165   1.670
38512SOL    HW215563   6.024  11.291   1.772
38513SOL     OW15564   6.159  12.042   1.029
38513SOL    HW115565   6.203  12.131   1.020
38513SOL    HW215566   6.096  12.042   1.106
38514SOL     OW15567   6.946  12.034   1.045
38514SOL    HW115568   6.871  12.034   0.979
38514SOL    HW215569   6.983  11.942   1.054
38515SOL     OW15570   6.795  11.697   0.275
38515SOL    HW115571   6.808  11.613   0.329
38515SOL    HW215572   6.766  11.771   0.335
38516SOL     OW15573   5.893  11.385   1.231
38516SOL    HW115574   5.870  11.422   1.321
38516SOL    HW215575   5.863  11.290   1.225
38517SOL     OW15576   5.623  12.482   1.282
38517SOL    HW115577   5.676  12.433   1.350
38517SOL    HW215578   5.645  12.580   1.287
38518SOL     OW15579   6.318  11.806   1.064
38518SOL    HW115580   6.377  11.780   0.988
38518SOL    HW215581   6.290  11.902   1.053
38519SOL     OW15582   7.314  12.107   1.854
38519SOL    HW115583   7.268  12.100   1.765
38519SOL    HW215584   7.252  12.151   1.920
38520SOL     OW15585   5.893  11.235   0.618
38520SOL    HW115586   5.882  11.329   0.651
38520SOL    HW215587   5.888  11.172   0.695
38521SOL     OW15588   7.208  11.539   0.374
38521SOL    HW115589   7.210  11.463   0.438
38521SOL    HW215590   7.160  11.616   0.414
38522SOL     OW15591   6.609  11.938   0.966
38522SOL    HW115592   6.624  11.959   1.062
38522SOL    HW215593   6.579  11.843   0.957
38523SOL     OW15594   7.445  12.690   1.605
38523SOL    HW115595   7.459  12.717   1.510
38523SOL    HW215596   7.528  12.712   1.658
38524SOL     OW15597   5.936  12.070   1.804
38524SOL    HW115598   6.012  12.114   1.852
38524SOL    HW215599   5.971  12.023   1.722
38525SOL     OW15600   7.126  11.446   0.125
38525SOL    HW115601   7.065  11.371   0.148
38525SOL    HW215602   7.148  11.498   0.208
38526SOL     OW15603   6.889  12.010   0.042
38526SOL    HW115604   6.923  11.917   0.057
38526SOL    HW215605   6.907  12.037  -0.053
38527SOL     OW15606   6.654  12.505   0.849
38527SOL    HW115607   6.661  12.421   0.794
38527SOL    HW215608   6.716  12.574   0.813
38528SOL     OW15609   5.905  11.982   0.949
38528SOL    HW115610   5.998  12.018   0.954
38528SOL    HW215611   5.899  11.897   1.001
38529SOL     OW15612   5.925  11.681   1.006
38529SOL    HW115613   5.873  11.598   0.989
38529SOL    HW215614   6.002  11.686   0.942
38530SOL     OW15615   6.724  11.552   1.678
38530SOL    HW115616   6.679  11.615   1.742
38530SOL    HW215617   6.817  11.583   1.661
38531SOL     OW15618   6.746  11.379   1.477
38531SOL    HW115619   6.746  11.443   1.554
38531SOL    HW215620   6.774  11.427   1.394
38532SOL     OW15621   5.594  12.498   0.200
38532SOL    HW115622   5.501  12.519   0.169
38532SOL    HW215623   5.604  12.399   0.213
38533SOL     OW15624   6.588  11.968   1.238
38533SOL    HW115625   6.629  11.936   1.324
38533SOL    HW215626   6.492  11.941   1.235
38534SOL     OW15627   5.626  11.716   1.114
38534SOL    HW115628   5.711  11.683   1.073
38534SOL    HW215629   5.639  11.731   1.212
38535SOL     OW15630   5.775  11.692   1.722
38535SOL    HW115631   5.834  11.652   1.652
38535SOL    HW215632   5.717  11.763   1.681
38536SOL     OW15633   6.955  12.122   1.660
38536SOL    HW115634   6.994  12.211   1.680
38536SOL    HW215635   6.965  12.102   1.563
38537SOL     OW15636   6.401  11.744   0.325
38537SOL    HW115637   6.408  11.655   0.279
38537SOL    HW215638   6.307  11.778   0.317
38538SOL     OW15639   7.243  11.776   1.206
38538SOL    HW115640   7.205  11.707   1.268
38538SOL    HW215641   7.325  11.740   1.162
38539SOL     OW15642   5.838  12.736   1.744
38539SOL    HW115643   5.808  12.793   1.820
38539SOL    HW215644   5.831  12.639   1.770
38540SOL     OW15645   6.257  11.636   1.269
38540SOL    HW115646   6.223  11.547   1.239
38540SOL    HW215647   6.283  11.690   1.189
38541SOL     OW15648   6.059  11.672   0.191
38541SOL    HW115649   6.120  11.752   0.195
38541SOL    HW215650   5.964  11.703   0.198
38542SOL     OW15651   5.745  12.309   1.466
38542SOL    HW115652   5.767  12.248   1.542
38542SOL    HW215653   5.755  12.260   1.380
38543SOL     OW15654   6.933  12.231   1.234
38543SOL    HW115655   6.957  12.168   1.160
38543SOL    HW215656   6.843  12.271   1.216
38544SOL     OW15657   6.888  12.027   0.309
38544SOL    HW115658   6.802  11.996   0.351
38544SOL    HW215659   6.884  12.013   0.210
38545SOL     OW15660   5.669  12.430   1.022
38545SOL    HW115661   5.664  12.429   1.122
38545SOL    HW215662   5.586  12.389   0.984
38546SOL     OW15663   6.489  11.258   0.133
38546SOL    HW115664   6.540  11.259   0.047
38546SOL    HW215665   6.545  11.216   0.204
38547SOL     OW15666   7.312  11.307   0.523
38547SOL    HW115667   7.385  11.290   0.456
38547SOL    HW215668   7.281  11.220   0.561
38548SOL     OW15669   6.866  12.099   0.672
38548SOL    HW115670   6.926  12.018   0.674
38548SOL    HW215671   6.906  12.168   0.612
38549SOL     OW15672   6.416  12.445   1.422
38549SOL    HW115673   6.411  12.478   1.517
38549SOL    HW215674   6.330  12.464   1.376
38550SOL     OW15675   7.427  11.347   0.963
38550SOL    HW115676   7.466  11.262   0.927
38550SOL    HW215677   7.329  11.349   0.944
38551SOL     OW15678   5.849  11.498   0.720
38551SOL    HW115679   5.770  11.549   0.686
38551SOL    HW215680   5.840  11.483   0.818
38552SOL     OW15681   6.780  12.784   0.031
38552SOL    HW115682   6.786  12.691   0.068
38552SOL    HW215683   6.721  12.784  -0.049
38553SOL     OW15684   6.408  12.174   1.372
38553SOL    HW115685   6.448  12.173   1.280
38553SOL    HW215686   6.418  12.266   1.412
38554SOL     OW15687   6.502  12.082   0.291
38554SOL    HW115688   6.565  12.120   0.223
38554SOL    HW215689   6.542  11.999   0.330
38555SOL     OW15690   5.958  12.460   1.490
38555SOL    HW115691   5.945  12.553   1.456
38555SOL    HW215692   5.874  12.408   1.477
38556SOL     OW15693   7.200  12.464   1.289
38556SOL    HW115694   7.260  12.467   1.369
38556SOL    HW215695   7.125  12.528   1.302
38557SOL     OW15696   6.625  12.270   0.696
38557SOL    HW115697   6.555  12.223   0.750
38557SOL    HW215698   6.684  12.202   0.653
38558SOL     OW15699   6.600  11.408   0.971
38558SOL    HW115700   6.592  11.372   0.878
38558SOL    HW215701   6.598  11.332   1.036
38559SOL     OW15702   7.295  11.557   1.381
38559SOL    HW115703   7.368  11.626   1.385
38559SOL    HW215704   7.323  11.482   1.322
38560SOL     OW15705   5.841  12.520   0.290
38560SOL    HW115706   5.745  12.521   0.263
38560SOL    HW215707   5.853  12.573   0.374
38561SOL     OW15708   5.691  12.185   1.726
38561SOL    HW115709   5.614  12.152   1.780
38561SOL    HW215710   5.776  12.155   1.768
38562SOL     OW15711   6.258  11.375   1.489
38562SOL    HW115712   6.348  11.359   1.449
38562SOL    HW215713   6.266  11.380   1.588
38563SOL     OW15714   7.026  12.028   1.398
38563SOL    HW115715   6.969  12.080   1.335
38563SOL    HW215716   7.122  12.040   1.374
38564SOL     OW15717   5.658  11.338   0.318
38564SOL    HW115718   5.641  11.421   0.264
38564SOL    HW215719   5.748  11.301   0.296
38565SOL     OW15720   6.769  12.507   0.119
38565SOL    HW115721   6.670  12.496   0.121
38565SOL    HW215722   6.803  12.522   0.212
38566SOL     OW15723   6.199  12.014   1.431
38566SOL    HW115724   6.255  12.095   1.414
38566SOL    HW215725   6.258  11.934   1.434
38567SOL     OW15726   6.302  11.737   1.708
38567SOL    HW115727   6.321  11.802   1.782
38567SOL    HW215728   6.362  11.657   1.717
38568SOL     OW15729   7.036  12.392   1.633
38568SOL    HW115730   7.027  12.382   1.732
38568SOL    HW215731   7.132  12.385   1.607
38569SOL     OW15732   7.260  12.055   1.254
38569SOL    HW115733   7.233  11.966   1.217
38569SOL    HW215734   7.261  12.123   1.181
38570SOL     OW15735   6.811  11.497   0.449
38570SOL    HW115736   6.876  11.423   0.438
38570SOL    HW215737   6.831  11.547   0.533
38571SOL     OW15738   6.180  11.917   0.652
38571SOL    HW115739   6.230  12.002   0.633
38571SOL    HW215740   6.092  11.919   0.604
38572SOL     OW15741   7.363  11.514   1.642
38572SOL    HW115742   7.346  11.545   1.548
38572SOL    HW215743   7.279  11.477   1.680
38573SOL     OW15744   7.316  12.106   1.517
38573SOL    HW115745   7.354  12.197   1.532
38573SOL    HW215746   7.308  12.089   1.418
38574SOL     OW15747   6.445  12.546   0.016
38574SOL    HW115748   6.399  12.561   0.104
38574SOL    HW215749   6.489  12.631  -0.014
38575SOL     OW15750   6.445  12.128   0.861
38575SOL    HW115751   6.499  12.059   0.909
38575SOL    HW215752   6.413  12.197   0.927
38576SOL     OW15753   6.669  12.156   0.087
38576SOL    HW115754   6.646  12.209   0.005
38576SOL    HW215755   6.750  12.100   0.068
38577SOL     OW15756   5.807  12.486   1.844
38577SOL    HW115757   5.742  12.413   1.823
38577SOL    HW215758   5.811  12.500   1.942
38578SOL     OW15759   5.665  12.412   0.653
38578SOL    HW115760   5.664  12.365   0.741
38578SOL    HW215761   5.747  12.384   0.602
38579SOL     OW15762   6.258  12.563   1.624
38579SOL    HW115763   6.180  12.513   1.662
38579SOL    HW215764   6.255  12.658   1.655
38580SOL     OW15765   7.410  11.364   1.227
38580SOL    HW115766   7.406  11.274   1.271
38580SOL    HW215767   7.413  11.353   1.128
38581SOL     OW15768   6.014  11.596   0.520
38581SOL    HW115769   6.044  11.524   0.458
38581SOL    HW215770   5.975  11.556   0.603
38582SOL     OW15771   7.291  12.659   1.104
38582SOL    HW115772   7.198  12.634   1.077
38582SOL    HW215773   7.317  12.609   1.186
38583SOL     OW15774   5.903  11.719   1.280
38583SOL    HW115775   5.941  11.660   1.352
38583SOL    HW215776   5.943  11.693   1.192
38584SOL     OW15777   7.010  11.386   1.112
38584SOL    HW115778   7.062  11.321   1.167
38584SOL    HW215779   6.961  11.449   1.173
38585SOL     OW15780   6.587  11.206   1.154
38585SOL    HW115781   6.524  11.134   1.123
38585SOL    HW215782   6.680  11.170   1.154
38586SOL     OW15783   6.356  12.502   0.301
38586SOL    HW115784   6.310  12.415   0.318
38586SOL    HW215785   6.447  12.499   0.342
38587SOL     OW15786   6.204  12.739   1.284
38587SOL    HW115787   6.199  12.821   1.341
38587SOL    HW215788   6.293  12.736   1.239
38588SOL     OW15789   6.938  11.224   0.168
38588SOL    HW115790   6.973  11.183   0.084
38588SOL    HW215791   6.848  11.186   0.188
38589SOL     OW15792   6.886  11.625   0.691
38589SOL    HW115793   6.827  11.705   0.695
38589SOL    HW215794   6.901  11.590   0.784
38590SOL     OW15795   7.179  11.393   0.882
38590SOL    HW115796   7.095  11.392   0.936
38590SOL    HW215797   7.181  11.476   0.826
38591SOL     OW15798   5.625  12.249   0.300
38591SOL    HW115799   5.724  12.238   0.291
38591SOL    HW215800   5.585  12.163   0.332
38592SOL     OW15801   5.816  11.800   1.975
38592SOL    HW115802   5.723  11.798   2.012
38592SOL    HW215803   5.817  11.761   1.883
38593SOL     OW15804   5.811  11.447   2.858
38593SOL    HW115805   5.846  11.430   2.950
38593SOL    HW215806   5.723  11.402   2.846
38594SOL     OW15807   5.605  11.540   2.509
38594SOL    HW115808   5.523  11.583   2.548
38594SOL    HW215809   5.577  11.467   2.446
38595SOL     OW15810   6.155  12.447   3.027
38595SOL    HW115811   6.062  12.440   2.990
38595SOL    HW215812   6.166  12.536   3.071
38596SOL     OW15813   7.141  12.683   2.565
38596SOL    HW115814   7.084  12.667   2.646
38596SOL    HW215815   7.082  12.693   2.485
38597SOL     OW15816   6.721  11.875   2.579
38597SOL    HW115817   6.778  11.953   2.554
38597SOL    HW215818   6.661  11.901   2.655
38598SOL     OW15819   7.341  11.779   2.093
38598SOL    HW115820   7.329  11.766   1.994
38598SOL    HW215821   7.311  11.698   2.142
38599SOL     OW15822   6.354  12.316   2.885
38599SOL    HW115823   6.276  12.333   2.945
38599SOL    HW215824   6.388  12.403   2.849
38600SOL     OW15825   6.436  11.970   3.685
38600SOL    HW115826   6.432  12.046   3.750
38600SOL    HW215827   6.458  12.006   3.594
38601SOL     OW15828   6.271  12.184   2.527
38601SOL    HW115829   6.340  12.168   2.597
38601SOL    HW215830   6.198  12.241   2.565
38602SOL     OW15831   6.272  12.333   3.665
38602SOL    HW115832   6.332  12.412   3.679
38602SOL    HW215833   6.186  12.364   3.624
38603SOL     OW15834   5.921  12.607   2.923
38603SOL    HW115835   5.843  12.576   2.870
38603SOL    HW215836   5.979  12.665   2.866
38604SOL     OW15837   7.046  12.677   3.201
38604SOL    HW115838   7.070  12.771   3.227
38604SOL    HW215839   7.030  12.623   3.283
38605SOL     OW15840   6.024  11.564   3.361
38605SOL    HW115841   6.106  11.508   3.370
38605SOL    HW215842   5.943  11.506   3.365
38606SOL     OW15843   7.189  11.619   2.599
38606SOL    HW115844   7.115  11.665   2.549
38606SOL    HW215845   7.240  11.687   2.652
38607SOL     OW15846   5.817  12.885   2.345
38607SOL    HW115847   5.851  12.962   2.399
38607SOL    HW215848   5.861  12.885   2.255
38608SOL     OW15849   6.713  12.513   3.552
38608SOL    HW115850   6.760  12.513   3.640
38608SOL    HW215851   6.665  12.426   3.541
38609SOL     OW15852   5.816  12.606   2.400
38609SOL    HW115853   5.790  12.702   2.400
38609SOL    HW215854   5.745  12.552   2.445
38610SOL     OW15855   5.826  12.263   2.748
38610SOL    HW115856   5.840  12.179   2.800
38610SOL    HW215857   5.771  12.327   2.803
38611SOL     OW15858   6.192  12.136   1.985
38611SOL    HW115859   6.199  12.220   1.931
38611SOL    HW215860   6.238  12.149   2.073
38612SOL     OW15861   7.180  11.286   3.342
38612SOL    HW115862   7.162  11.353   3.270
38612SOL    HW215863   7.177  11.332   3.431
38613SOL     OW15864   5.708  11.815   2.425
38613SOL    HW115865   5.663  11.727   2.442
38613SOL    HW215866   5.707  11.869   2.509
38614SOL     OW15867   5.613  12.768   1.979
38614SOL    HW115868   5.594  12.672   2.000
38614SOL    HW215869   5.580  12.826   2.054
38615SOL     OW15870   7.275  12.094   2.474
38615SOL    HW115871   7.370  12.065   2.482
38615SOL    HW215872   7.267  12.159   2.399
38616SOL     OW15873   7.227  12.280   2.294
38616SOL    HW115874   7.313  12.282   2.242
38616SOL    HW215875   7.241  12.327   2.382
38617SOL     OW15876   5.699  11.909   3.459
38617SOL    HW115877   5.787  11.896   3.504
38617SOL    HW215878   5.686  12.006   3.437
38618SOL     OW15879   6.199  12.537   2.588
38618SOL    HW115880   6.150  12.450   2.597
38618SOL    HW215881   6.176  12.580   2.501
38619SOL     OW15882   6.879  12.400   3.285
38619SOL    HW115883   6.916  12.327   3.227
38619SOL    HW215884   6.931  12.405   3.370
38620SOL     OW15885   6.395  11.176   2.364
38620SOL    HW115886   6.435  11.267   2.355
38620SOL    HW215887   6.295  11.184   2.370
38621SOL     OW15888   5.783  12.148   3.126
38621SOL    HW115889   5.872  12.103   3.112
38621SOL    HW215890   5.710  12.083   3.107
38622SOL     OW15891   7.111  12.171   2.052
38622SOL    HW115892   7.048  12.095   2.065
38622SOL    HW215893   7.159  12.189   2.138
38623SOL     OW15894   5.903  11.423   3.663
38623SOL    HW115895   5.974  11.494   3.669
38623SOL    HW215896   5.815  11.462   3.691
38624SOL     OW15897   7.052  12.589   2.815
38624SOL    HW115898   6.993  12.595   2.895
38624SOL    HW215899   7.037  12.501   2.769
38625SOL     OW15900   6.184  11.901   2.132
38625SOL    HW115901   6.208  11.970   2.064
38625SOL    HW215902   6.106  11.934   2.186
38626SOL     OW15903   6.867  11.517   2.806
38626SOL    HW115904   6.781  11.467   2.793
38626SOL    HW215905   6.929  11.463   2.862
38627SOL     OW15906   6.393  11.777   3.327
38627SOL    HW115907   6.346  11.774   3.416
38627SOL    HW215908   6.342  11.722   3.261
38628SOL     OW15909   6.980  11.641   3.536
38628SOL    HW115910   6.960  11.684   3.624
38628SOL    HW215911   7.058  11.579   3.545
38629SOL     OW15912   6.559  12.062   3.434
38629SOL    HW115913   6.605  11.978   3.405
38629SOL    HW215914   6.503  12.096   3.359
38630SOL     OW15915   6.577  11.582   3.104
38630SOL    HW115916   6.500  11.616   3.158
38630SOL    HW215917   6.543  11.531   3.025
38631SOL     OW15918   6.627  11.873   2.291
38631SOL    HW115919   6.653  11.869   2.387
38631SOL    HW215920   6.542  11.822   2.277
38632SOL     OW15921   5.662  11.983   2.651
38632SOL    HW115922   5.761  11.971   2.660
38632SOL    HW215923   5.638  12.078   2.672
38633SOL     OW15924   6.451  11.520   2.057
38633SOL    HW115925   6.510  11.583   2.008
38633SOL    HW215926   6.470  11.426   2.028
38634SOL     OW15927   7.305  11.757   3.693
38634SOL    HW115928   7.279  11.846   3.657
38634SOL    HW215929   7.303  11.689   3.620
38635SOL     OW15930   6.948  12.316   2.407
38635SOL    HW115931   7.031  12.287   2.359
38635SOL    HW215932   6.899  12.383   2.351
38636SOL     OW15933   6.136  11.368   2.747
38636SOL    HW115934   6.131  11.363   2.847
38636SOL    HW215935   6.138  11.464   2.718
38637SOL     OW15936   6.594  12.628   2.339
38637SOL    HW115937   6.548  12.700   2.287
38637SOL    HW215938   6.590  12.648   2.437
38638SOL     OW15939   7.381  12.238   2.735
38638SOL    HW115940   7.319  12.223   2.659
38638SOL    HW215941   7.329  12.249   2.820
38639SOL     OW15942   6.813  12.722   3.368
38639SOL    HW115943   6.819  12.645   3.432
38639SOL    HW215944   6.761  12.696   3.288
38640SOL     OW15945   5.907  12.115   2.104
38640SOL    HW115946   5.989  12.154   2.062
38640SOL    HW215947   5.880  12.033   2.055
38641SOL     OW15948   7.044  11.907   2.590
38641SOL    HW115949   7.039  11.842   2.665
38641SOL    HW215950   7.124  11.966   2.603
38642SOL     OW15951   6.047  12.438   3.589
38642SOL    HW115952   5.997  12.439   3.503
38642SOL    HW215953   5.984  12.420   3.665
38643SOL     OW15954   6.697  12.948   2.099
38643SOL    HW115955   6.637  12.886   2.149
38643SOL    HW215956   6.728  12.904   2.014
38644SOL     OW15957   5.788  11.457   3.360
38644SOL    HW115958   5.708  11.517   3.347
38644SOL    HW215959   5.778  11.408   3.446
38645SOL     OW15960   7.218  12.549   1.943
38645SOL    HW115961   7.186  12.643   1.933
38645SOL    HW215962   7.142  12.486   1.931
38646SOL     OW15963   6.986  11.279   2.288
38646SOL    HW115964   6.962  11.242   2.198
38646SOL    HW215965   7.085  11.295   2.292
38647SOL     OW15966   5.968  11.872   2.342
38647SOL    HW115967   6.013  11.782   2.339
38647SOL    HW215968   5.874  11.861   2.375
38648SOL     OW15969   7.133  11.394   3.591
38648SOL    HW115970   7.128  11.431   3.683
38648SOL    HW215971   7.061  11.325   3.579
38649SOL     OW15972   6.200  11.294   1.979
38649SOL    HW115973   6.298  11.272   1.986
38649SOL    HW215974   6.169  11.277   1.886
38650SOL     OW15975   6.367  11.436   3.611
38650SOL    HW115976   6.434  11.375   3.654
38650SOL    HW215977   6.294  11.455   3.676
38651SOL     OW15978   6.937  11.762   3.295
38651SOL    HW115979   6.965  11.719   3.380
38651SOL    HW215980   6.962  11.858   3.296
38652SOL     OW15981   6.389  12.574   2.786
38652SOL    HW115982   6.479  12.588   2.744
38652SOL    HW215983   6.318  12.576   2.715
38653SOL     OW15984   6.508  11.675   2.761
38653SOL    HW115985   6.483  11.666   2.665
38653SOL    HW215986   6.556  11.593   2.792
38654SOL     OW15987   6.125  11.236   2.374
38654SOL    HW115988   6.044  11.237   2.432
38654SOL    HW215989   6.128  11.319   2.319
38655SOL     OW15990   7.020  12.360   1.903
38655SOL    HW115991   7.052  12.284   1.960
38655SOL    HW215992   6.928  12.387   1.933
38656SOL     OW15993   5.883  11.207   2.033
38656SOL    HW115994   5.932  11.291   2.012
38656SOL    HW215995   5.945  11.142   2.078
38657SOL     OW15996   6.521  11.408   2.342
38657SOL    HW115997   6.473  11.449   2.264
38657SOL    HW215998   6.620  11.406   2.323
38658SOL     OW15999   6.662  11.855   3.326
38658SOL    HW116000   6.582  11.794   3.329
38658SOL    HW216001   6.743  11.802   3.302
38659SOL     OW16002   6.813  12.742   2.655
38659SOL    HW116003   6.834  12.816   2.590
38659SOL    HW216004   6.881  12.742   2.728
38660SOL     OW16005   6.045  12.324   2.603
38660SOL    HW116006   5.974  12.297   2.668
38660SOL    HW216007   6.019  12.296   2.510
38661SOL     OW16008   6.618  11.721   1.878
38661SOL    HW116009   6.577  11.803   1.839
38661SOL    HW216010   6.682  11.747   1.951
38662SOL     OW16011   5.664  11.728   3.248
38662SOL    HW116012   5.756  11.727   3.207
38662SOL    HW216013   5.658  11.802   3.315
38663SOL     OW16014   6.147  11.394   3.009
38663SOL    HW116015   6.185  11.310   3.046
38663SOL    HW216016   6.059  11.413   3.053
38664SOL     OW16017   6.452  11.626   2.504
38664SOL    HW116018   6.420  11.698   2.442
38664SOL    HW216019   6.476  11.545   2.451
38665SOL     OW16020   6.603  11.211   2.615
38665SOL    HW116021   6.531  11.216   2.546
38665SOL    HW216022   6.579  11.142   2.684
38666SOL     OW16023   7.015  12.345   2.729
38666SOL    HW116024   6.960  12.261   2.722
38666SOL    HW216025   7.041  12.374   2.637
38667SOL     OW16026   7.052  11.762   2.854
38667SOL    HW116027   7.022  11.667   2.861
38667SOL    HW216028   7.125  11.778   2.920
38668SOL     OW16029   7.443  12.005   2.239
38668SOL    HW116030   7.485  11.941   2.303
38668SOL    HW216031   7.405  11.954   2.161
38669SOL     OW16032   6.074  12.557   2.036
38669SOL    HW116033   5.987  12.542   2.083
38669SOL    HW216034   6.057  12.583   1.941
38670SOL     OW16035   7.250  12.452   2.519
38670SOL    HW116036   7.349  12.460   2.533
38670SOL    HW216037   7.205  12.536   2.550
38671SOL     OW16038   6.976  11.747   1.940
38671SOL    HW116039   6.922  11.726   2.021
38671SOL    HW216040   7.067  11.706   1.949
38672SOL     OW16041   6.113  11.428   2.190
38672SOL    HW116042   6.140  11.369   2.115
38672SOL    HW216043   6.113  11.523   2.159
38673SOL     OW16044   7.340  12.395   3.450
38673SOL    HW116045   7.431  12.356   3.437
38673SOL    HW216046   7.348  12.491   3.474
38674SOL     OW16047   6.650  12.519   3.202
38674SOL    HW116048   6.570  12.496   3.257
38674SOL    HW216049   6.733  12.493   3.251
38675SOL     OW16050   6.697  12.367   2.962
38675SOL    HW116051   6.657  12.411   3.043
38675SOL    HW216052   6.656  12.404   2.879
38676SOL     OW16053   7.224  12.271   2.941
38676SOL    HW116054   7.229  12.352   3.000
38676SOL    HW216055   7.138  12.273   2.890
38677SOL     OW16056   6.501  11.261   3.264
38677SOL    HW116057   6.526  11.241   3.169
38677SOL    HW216058   6.573  11.317   3.306
38678SOL     OW16059   6.566  12.288   3.581
38678SOL    HW116060   6.467  12.294   3.591
38678SOL    HW216061   6.589  12.208   3.525
38679SOL     OW16062   6.291  12.222   2.230
38679SOL    HW116063   6.277  12.229   2.329
38679SOL    HW216064   6.375  12.171   2.212
38680SOL     OW16065   5.996  11.985   3.113
38680SOL    HW116066   6.082  11.997   3.163
38680SOL    HW216067   5.954  11.898   3.140
38681SOL     OW16068   6.860  11.558   3.124
38681SOL    HW116069   6.881  11.632   3.188
38681SOL    HW216070   6.771  11.575   3.081
38682SOL     OW16071   5.953  12.272   2.363
38682SOL    HW116072   5.946  12.355   2.307
38682SOL    HW216073   5.957  12.192   2.303
38683SOL     OW16074   6.152  11.709   2.727
38683SOL    HW116075   6.164  11.775   2.653
38683SOL    HW216076   6.198  11.743   2.810
38684SOL     OW16077   6.838  12.520   2.250
38684SOL    HW116078   6.888  12.597   2.290
38684SOL    HW216079   6.743  12.522   2.282
38685SOL     OW16080   6.858  12.617   3.004
38685SOL    HW116081   6.905  12.630   3.091
38685SOL    HW216082   6.792  12.543   3.013
38686SOL     OW16083   7.168  11.811   2.334
38686SOL    HW116084   7.137  11.872   2.407
38686SOL    HW216085   7.218  11.863   2.265
38687SOL     OW16086   5.940  12.682   3.191
38687SOL    HW116087   5.919  12.638   3.104
38687SOL    HW216088   6.037  12.708   3.194
38688SOL     OW16089   5.988  11.923   3.460
38688SOL    HW116090   6.056  11.978   3.413
38688SOL    HW216091   6.028  11.835   3.487
38689SOL     OW16092   7.173  11.951   3.532
38689SOL    HW116093   7.081  11.989   3.527
38689SOL    HW216094   7.233  11.998   3.467
38690SOL     OW16095   6.599  11.277   3.632
38690SOL    HW116096   6.605  11.362   3.580
38690SOL    HW216097   6.631  11.201   3.575
38691SOL     OW16098   6.090  11.222   3.602
38691SOL    HW116099   6.048  11.165   3.532
38691SOL    HW216100   6.024  11.291   3.634
38692SOL     OW16101   6.159  12.042   2.891
38692SOL    HW116102   6.203  12.131   2.882
38692SOL    HW216103   6.096  12.042   2.968
38693SOL     OW16104   6.946  12.034   2.907
38693SOL    HW116105   6.871  12.034   2.841
38693SOL    HW216106   6.983  11.942   2.916
38694SOL     OW16107   6.795  11.697   2.137
38694SOL    HW116108   6.808  11.613   2.191
38694SOL    HW216109   6.766  11.771   2.197
38695SOL     OW16110   5.893  11.385   3.093
38695SOL    HW116111   5.870  11.422   3.183
38695SOL    HW216112   5.863  11.290   3.087
38696SOL     OW16113   5.623  12.482   3.144
38696SOL    HW116114   5.676  12.433   3.212
38696SOL    HW216115   5.645  12.580   3.149
38697SOL     OW16116   6.318  11.806   2.926
38697SOL    HW116117   6.377  11.780   2.850
38697SOL    HW216118   6.290  11.902   2.915
38698SOL     OW16119   7.314  12.107   3.716
38698SOL    HW116120   7.268  12.100   3.627
38698SOL    HW216121   7.252  12.151   3.782
38699SOL     OW16122   5.893  11.235   2.480
38699SOL    HW116123   5.882  11.329   2.513
38699SOL    HW216124   5.888  11.172   2.557
38700SOL     OW16125   7.208  11.539   2.236
38700SOL    HW116126   7.210  11.463   2.300
38700SOL    HW216127   7.160  11.616   2.276
38701SOL     OW16128   6.609  11.938   2.828
38701SOL    HW116129   6.624  11.959   2.924
38701SOL    HW216130   6.579  11.843   2.819
38702SOL     OW16131   7.445  12.690   3.467
38702SOL    HW116132   7.459  12.717   3.372
38702SOL    HW216133   7.528  12.712   3.520
38703SOL     OW16134   5.936  12.070   3.666
38703SOL    HW116135   6.012  12.114   3.714
38703SOL    HW216136   5.971  12.023   3.584
38704SOL     OW16137   7.126  11.446   1.987
38704SOL    HW116138   7.065  11.371   2.010
38704SOL    HW216139   7.148  11.498   2.070
38705SOL     OW16140   6.889  12.010   1.904
38705SOL    HW116141   6.923  11.917   1.919
38705SOL    HW216142   6.907  12.037   1.809
38706SOL     OW16143   6.654  12.505   2.711
38706SOL    HW116144   6.661  12.421   2.656
38706SOL    HW216145   6.716  12.574   2.675
38707SOL     OW16146   5.905  11.982   2.811
38707SOL    HW116147   5.998  12.018   2.816
38707SOL    HW216148   5.899  11.897   2.863
38708SOL     OW16149   5.925  11.681   2.868
38708SOL    HW116150   5.873  11.598   2.851
38708SOL    HW216151   6.002  11.686   2.804
38709SOL     OW16152   6.724  11.552   3.540
38709SOL    HW116153   6.679  11.615   3.604
38709SOL    HW216154   6.817  11.583   3.523
38710SOL     OW16155   6.746  11.379   3.339
38710SOL    HW116156   6.746  11.443   3.416
38710SOL    HW216157   6.774  11.427   3.256
38711SOL     OW16158   5.594  12.498   2.062
38711SOL    HW116159   5.501  12.519   2.031
38711SOL    HW216160   5.604  12.399   2.075
38712SOL     OW16161   6.588  11.968   3.100
38712SOL    HW116162   6.629  11.936   3.186
38712SOL    HW216163   6.492  11.941   3.097
38713SOL     OW16164   5.626  11.716   2.976
38713SOL    HW116165   5.711  11.683   2.935
38713SOL    HW216166   5.639  11.731   3.074
38714SOL     OW16167   5.775  11.692   3.584
38714SOL    HW116168   5.834  11.652   3.514
38714SOL    HW216169   5.717  11.763   3.543
38715SOL     OW16170   6.955  12.122   3.522
38715SOL    HW116171   6.994  12.211   3.542
38715SOL    HW216172   6.965  12.102   3.425
38716SOL     OW16173   6.401  11.744   2.187
38716SOL    HW116174   6.408  11.655   2.141
38716SOL    HW216175   6.307  11.778   2.179
38717SOL     OW16176   7.243  11.776   3.068
38717SOL    HW116177   7.205  11.707   3.130
38717SOL    HW216178   7.325  11.740   3.024
38718SOL     OW16179   5.838  12.736   3.606
38718SOL    HW116180   5.808  12.793   3.682
38718SOL    HW216181   5.831  12.639   3.632
38719SOL     OW16182   6.257  11.636   3.131
38719SOL    HW116183   6.223  11.547   3.101
38719SOL    HW216184   6.283  11.690   3.051
38720SOL     OW16185   6.059  11.672   2.053
38720SOL    HW116186   6.120  11.752   2.057
38720SOL    HW216187   5.964  11.703   2.060
38721SOL     OW16188   5.745  12.309   3.328
38721SOL    HW116189   5.767  12.248   3.404
38721SOL    HW216190   5.755  12.260   3.242
38722SOL     OW16191   6.933  12.231   3.096
38722SOL    HW116192   6.957  12.168   3.022
38722SOL    HW216193   6.843  12.271   3.078
38723SOL     OW16194   6.888  12.027   2.171
38723SOL    HW116195   6.802  11.996   2.213
38723SOL    HW216196   6.884  12.013   2.072
38724SOL     OW16197   5.669  12.430   2.884
38724SOL    HW116198   5.664  12.429   2.984
38724SOL    HW216199   5.586  12.389   2.846
38725SOL     OW16200   7.312  11.307   2.385
38725SOL    HW116201   7.385  11.290   2.318
38725SOL    HW216202   7.281  11.220   2.423
38726SOL     OW16203   6.866  12.099   2.534
38726SOL    HW116204   6.926  12.018   2.536
38726SOL    HW216205   6.906  12.168   2.474
38727SOL     OW16206   6.416  12.445   3.284
38727SOL    HW116207   6.411  12.478   3.379
38727SOL    HW216208   6.330  12.464   3.238
38728SOL     OW16209   7.427  11.347   2.825
38728SOL    HW116210   7.466  11.262   2.789
38728SOL    HW216211   7.329  11.349   2.806
38729SOL     OW16212   5.849  11.498   2.582
38729SOL    HW116213   5.770  11.549   2.548
38729SOL    HW216214   5.840  11.483   2.680
38730SOL     OW16215   6.408  12.174   3.234
38730SOL    HW116216   6.448  12.173   3.142
38730SOL    HW216217   6.418  12.266   3.274
38731SOL     OW16218   6.502  12.082   2.153
38731SOL    HW116219   6.565  12.120   2.085
38731SOL    HW216220   6.542  11.999   2.192
38732SOL     OW16221   5.958  12.460   3.352
38732SOL    HW116222   5.945  12.553   3.318
38732SOL    HW216223   5.874  12.408   3.339
38733SOL     OW16224   7.200  12.464   3.151
38733SOL    HW116225   7.260  12.467   3.231
38733SOL    HW216226   7.125  12.528   3.164
38734SOL     OW16227   6.625  12.270   2.558
38734SOL    HW116228   6.555  12.223   2.612
38734SOL    HW216229   6.684  12.202   2.515
38735SOL     OW16230   6.600  11.408   2.833
38735SOL    HW116231   6.592  11.372   2.740
38735SOL    HW216232   6.598  11.332   2.898
38736SOL     OW16233   7.295  11.557   3.243
38736SOL    HW116234   7.368  11.626   3.247
38736SOL    HW216235   7.323  11.482   3.184
38737SOL     OW16236   5.841  12.520   2.152
38737SOL    HW116237   5.745  12.521   2.125
38737SOL    HW216238   5.853  12.573   2.236
38738SOL     OW16239   5.691  12.185   3.588
38738SOL    HW116240   5.614  12.152   3.642
38738SOL    HW216241   5.776  12.155   3.630
38739SOL     OW16242   6.258  11.375   3.351
38739SOL    HW116243   6.348  11.359   3.311
38739SOL    HW216244   6.266  11.380   3.450
38740SOL     OW16245   5.661  11.517   1.895
38740SOL    HW116246   5.569  11.489   1.866
38740SOL    HW216247   5.692  11.594   1.839
38741SOL     OW16248   7.026  12.028   3.260
38741SOL    HW116249   6.969  12.080   3.197
38741SOL    HW216250   7.122  12.040   3.236
38742SOL     OW16251   5.658  11.338   2.180
38742SOL    HW116252   5.641  11.421   2.126
38742SOL    HW216253   5.748  11.301   2.158
38743SOL     OW16254   6.769  12.507   1.981
38743SOL    HW116255   6.670  12.496   1.983
38743SOL    HW216256   6.803  12.522   2.074
38744SOL     OW16257   6.199  12.014   3.293
38744SOL    HW116258   6.255  12.095   3.276
38744SOL    HW216259   6.258  11.934   3.296
38745SOL     OW16260   6.302  11.737   3.570
38745SOL    HW116261   6.321  11.802   3.644
38745SOL    HW216262   6.362  11.657   3.579
38746SOL     OW16263   7.036  12.392   3.495
38746SOL    HW116264   7.027  12.382   3.594
38746SOL    HW216265   7.132  12.385   3.469
38747SOL     OW16266   7.260  12.055   3.116
38747SOL    HW116267   7.233  11.966   3.079
38747SOL    HW216268   7.261  12.123   3.043
38748SOL     OW16269   6.811  11.497   2.311
38748SOL    HW116270   6.876  11.423   2.300
38748SOL    HW216271   6.831  11.547   2.395
38749SOL     OW16272   6.180  11.917   2.514
38749SOL    HW116273   6.230  12.002   2.495
38749SOL    HW216274   6.092  11.919   2.466
38750SOL     OW16275   7.363  11.514   3.504
38750SOL    HW116276   7.346  11.545   3.410
38750SOL    HW216277   7.279  11.477   3.542
38751SOL     OW16278   7.316  12.106   3.379
38751SOL    HW116279   7.354  12.197   3.394
38751SOL    HW216280   7.308  12.089   3.280
38752SOL     OW16281   6.445  12.546   1.878
38752SOL    HW116282   6.399  12.561   1.966
38752SOL    HW216283   6.489  12.631   1.848
38753SOL     OW16284   6.445  12.128   2.723
38753SOL    HW116285   6.499  12.059   2.771
38753SOL    HW216286   6.413  12.197   2.789
38754SOL     OW16287   6.669  12.156   1.949
38754SOL    HW116288   6.646  12.209   1.867
38754SOL    HW216289   6.750  12.100   1.930
38755SOL     OW16290   5.807  12.486   3.706
38755SOL    HW116291   5.742  12.413   3.685
38755SOL    HW216292   5.811  12.500   3.804
38756SOL     OW16293   5.665  12.412   2.515
38756SOL    HW116294   5.664  12.365   2.603
38756SOL    HW216295   5.747  12.384   2.464
38757SOL     OW16296   6.258  12.563   3.486
38757SOL    HW116297   6.180  12.513   3.524
38757SOL    HW216298   6.255  12.658   3.517
38758SOL     OW16299   7.410  11.364   3.089
38758SOL    HW116300   7.406  11.274   3.133
38758SOL    HW216301   7.413  11.353   2.990
38759SOL     OW16302   6.014  11.596   2.382
38759SOL    HW116303   6.044  11.524   2.320
38759SOL    HW216304   5.975  11.556   2.465
38760SOL     OW16305   7.291  12.659   2.966
38760SOL    HW116306   7.198  12.634   2.939
38760SOL    HW216307   7.317  12.609   3.048
38761SOL     OW16308   5.903  11.719   3.142
38761SOL    HW116309   5.941  11.660   3.214
38761SOL    HW216310   5.943  11.693   3.054
38762SOL     OW16311   7.010  11.386   2.974
38762SOL    HW116312   7.062  11.321   3.029
38762SOL    HW216313   6.961  11.449   3.035
38763SOL     OW16314   6.587  11.206   3.016
38763SOL    HW116315   6.524  11.134   2.985
38763SOL    HW216316   6.680  11.170   3.016
38764SOL     OW16317   6.356  12.502   2.163
38764SOL    HW116318   6.310  12.415   2.180
38764SOL    HW216319   6.447  12.499   2.204
38765SOL     OW16320   6.204  12.739   3.146
38765SOL    HW116321   6.199  12.821   3.203
38765SOL    HW216322   6.293  12.736   3.101
38766SOL     OW16323   6.938  11.224   2.030
38766SOL    HW116324   6.973  11.183   1.946
38766SOL    HW216325   6.848  11.186   2.050
38767SOL     OW16326   6.886  11.625   2.553
38767SOL    HW116327   6.827  11.705   2.557
38767SOL    HW216328   6.901  11.590   2.646
38768SOL     OW16329   7.179  11.393   2.744
38768SOL    HW116330   7.095  11.392   2.798
38768SOL    HW216331   7.181  11.476   2.688
38769SOL     OW16332   5.625  12.249   2.162
38769SOL    HW116333   5.724  12.238   2.153
38769SOL    HW216334   5.585  12.163   2.194
38770SOL     OW16335   5.816  11.800   3.837
38770SOL    HW116336   5.723  11.798   3.874
38770SOL    HW216337   5.817  11.761   3.745
38771SOL     OW16338   5.811  11.447   4.720
38771SOL    HW116339   5.846  11.430   4.812
38771SOL    HW216340   5.723  11.402   4.708
38772SOL     OW16341   5.605  11.540   4.371
38772SOL    HW116342   5.523  11.583   4.410
38772SOL    HW216343   5.577  11.467   4.308
38773SOL     OW16344   6.155  12.447   4.889
38773SOL    HW116345   6.062  12.440   4.852
38773SOL    HW216346   6.166  12.536   4.933
38774SOL     OW16347   7.141  12.683   4.427
38774SOL    HW116348   7.084  12.667   4.508
38774SOL    HW216349   7.082  12.693   4.347
38775SOL     OW16350   6.721  11.875   4.441
38775SOL    HW116351   6.778  11.953   4.416
38775SOL    HW216352   6.661  11.901   4.517
38776SOL     OW16353   7.341  11.779   3.955
38776SOL    HW116354   7.329  11.766   3.856
38776SOL    HW216355   7.311  11.698   4.004
38777SOL     OW16356   6.354  12.316   4.747
38777SOL    HW116357   6.276  12.333   4.807
38777SOL    HW216358   6.388  12.403   4.711
38778SOL     OW16359   6.436  11.970   5.547
38778SOL    HW116360   6.432  12.046   5.612
38778SOL    HW216361   6.458  12.006   5.456
38779SOL     OW16362   6.271  12.184   4.389
38779SOL    HW116363   6.340  12.168   4.459
38779SOL    HW216364   6.198  12.241   4.427
38780SOL     OW16365   6.272  12.333   5.527
38780SOL    HW116366   6.332  12.412   5.541
38780SOL    HW216367   6.186  12.364   5.486
38781SOL     OW16368   5.921  12.607   4.785
38781SOL    HW116369   5.843  12.576   4.732
38781SOL    HW216370   5.979  12.665   4.728
38782SOL     OW16371   7.046  12.677   5.063
38782SOL    HW116372   7.070  12.771   5.089
38782SOL    HW216373   7.030  12.623   5.145
38783SOL     OW16374   6.024  11.564   5.223
38783SOL    HW116375   6.106  11.508   5.232
38783SOL    HW216376   5.943  11.506   5.227
38784SOL     OW16377   7.189  11.619   4.461
38784SOL    HW116378   7.115  11.665   4.411
38784SOL    HW216379   7.240  11.687   4.514
38785SOL     OW16380   5.817  12.885   4.207
38785SOL    HW116381   5.851  12.962   4.261
38785SOL    HW216382   5.861  12.885   4.117
38786SOL     OW16383   6.713  12.513   5.414
38786SOL    HW116384   6.760  12.513   5.502
38786SOL    HW216385   6.665  12.426   5.403
38787SOL     OW16386   5.816  12.606   4.262
38787SOL    HW116387   5.790  12.702   4.262
38787SOL    HW216388   5.745  12.552   4.307
38788SOL     OW16389   5.826  12.263   4.610
38788SOL    HW116390   5.840  12.179   4.662
38788SOL    HW216391   5.771  12.327   4.665
38789SOL     OW16392   6.192  12.136   3.847
38789SOL    HW116393   6.199  12.220   3.793
38789SOL    HW216394   6.238  12.149   3.935
38790SOL     OW16395   7.180  11.286   5.204
38790SOL    HW116396   7.162  11.353   5.132
38790SOL    HW216397   7.177  11.332   5.293
38791SOL     OW16398   5.708  11.815   4.287
38791SOL    HW116399   5.663  11.727   4.304
38791SOL    HW216400   5.707  11.869   4.371
38792SOL     OW16401   5.613  12.768   3.841
38792SOL    HW116402   5.594  12.672   3.862
38792SOL    HW216403   5.580  12.826   3.916
38793SOL     OW16404   7.275  12.094   4.336
38793SOL    HW116405   7.370  12.065   4.344
38793SOL    HW216406   7.267  12.159   4.261
38794SOL     OW16407   7.227  12.280   4.156
38794SOL    HW116408   7.313  12.282   4.104
38794SOL    HW216409   7.241  12.327   4.244
38795SOL     OW16410   5.699  11.909   5.321
38795SOL    HW116411   5.787  11.896   5.366
38795SOL    HW216412   5.686  12.006   5.299
38796SOL     OW16413   6.199  12.537   4.450
38796SOL    HW116414   6.150  12.450   4.459
38796SOL    HW216415   6.176  12.580   4.363
38797SOL     OW16416   6.879  12.400   5.147
38797SOL    HW116417   6.916  12.327   5.089
38797SOL    HW216418   6.931  12.405   5.232
38798SOL     OW16419   6.395  11.176   4.226
38798SOL    HW116420   6.435  11.267   4.217
38798SOL    HW216421   6.295  11.184   4.232
38799SOL     OW16422   5.783  12.148   4.988
38799SOL    HW116423   5.872  12.103   4.974
38799SOL    HW216424   5.710  12.083   4.969
38800SOL     OW16425   7.111  12.171   3.914
38800SOL    HW116426   7.048  12.095   3.927
38800SOL    HW216427   7.159  12.189   4.000
38801SOL     OW16428   5.903  11.423   5.525
38801SOL    HW116429   5.974  11.494   5.531
38801SOL    HW216430   5.815  11.462   5.553
38802SOL     OW16431   7.052  12.589   4.677
38802SOL    HW116432   6.993  12.595   4.757
38802SOL    HW216433   7.037  12.501   4.631
38803SOL     OW16434   6.184  11.901   3.994
38803SOL    HW116435   6.208  11.970   3.926
38803SOL    HW216436   6.106  11.934   4.048
38804SOL     OW16437   6.867  11.517   4.668
38804SOL    HW116438   6.781  11.467   4.655
38804SOL    HW216439   6.929  11.463   4.724
38805SOL     OW16440   6.393  11.777   5.189
38805SOL    HW116441   6.346  11.774   5.278
38805SOL    HW216442   6.342  11.722   5.123
38806SOL     OW16443   6.980  11.641   5.398
38806SOL    HW116444   6.960  11.684   5.486
38806SOL    HW216445   7.058  11.579   5.407
38807SOL     OW16446   6.559  12.062   5.296
38807SOL    HW116447   6.605  11.978   5.267
38807SOL    HW216448   6.503  12.096   5.221
38808SOL     OW16449   6.577  11.582   4.966
38808SOL    HW116450   6.500  11.616   5.020
38808SOL    HW216451   6.543  11.531   4.887
38809SOL     OW16452   6.627  11.873   4.153
38809SOL    HW116453   6.653  11.869   4.249
38809SOL    HW216454   6.542  11.822   4.139
38810SOL     OW16455   5.662  11.983   4.513
38810SOL    HW116456   5.761  11.971   4.522
38810SOL    HW216457   5.638  12.078   4.534
38811SOL     OW16458   6.451  11.520   3.919
38811SOL    HW116459   6.510  11.583   3.870
38811SOL    HW216460   6.470  11.426   3.890
38812SOL     OW16461   7.305  11.757   5.555
38812SOL    HW116462   7.279  11.846   5.519
38812SOL    HW216463   7.303  11.689   5.482
38813SOL     OW16464   6.948  12.316   4.269
38813SOL    HW116465   7.031  12.287   4.221
38813SOL    HW216466   6.899  12.383   4.213
38814SOL     OW16467   6.136  11.368   4.609
38814SOL    HW116468   6.131  11.363   4.709
38814SOL    HW216469   6.138  11.464   4.580
38815SOL     OW16470   6.594  12.628   4.201
38815SOL    HW116471   6.548  12.700   4.149
38815SOL    HW216472   6.590  12.648   4.299
38816SOL     OW16473   7.381  12.238   4.597
38816SOL    HW116474   7.319  12.223   4.521
38816SOL    HW216475   7.329  12.249   4.682
38817SOL     OW16476   6.813  12.722   5.230
38817SOL    HW116477   6.819  12.645   5.294
38817SOL    HW216478   6.761  12.696   5.150
38818SOL     OW16479   5.907  12.115   3.966
38818SOL    HW116480   5.989  12.154   3.924
38818SOL    HW216481   5.880  12.033   3.917
38819SOL     OW16482   7.044  11.907   4.452
38819SOL    HW116483   7.039  11.842   4.527
38819SOL    HW216484   7.124  11.966   4.465
38820SOL     OW16485   6.047  12.438   5.451
38820SOL    HW116486   5.997  12.439   5.365
38820SOL    HW216487   5.984  12.420   5.527
38821SOL     OW16488   6.697  12.948   3.961
38821SOL    HW116489   6.637  12.886   4.011
38821SOL    HW216490   6.728  12.904   3.876
38822SOL     OW16491   5.788  11.457   5.222
38822SOL    HW116492   5.708  11.517   5.209
38822SOL    HW216493   5.778  11.408   5.308
38823SOL     OW16494   7.218  12.549   3.805
38823SOL    HW116495   7.186  12.643   3.795
38823SOL    HW216496   7.142  12.486   3.793
38824SOL     OW16497   6.986  11.279   4.150
38824SOL    HW116498   6.962  11.242   4.060
38824SOL    HW216499   7.085  11.295   4.154
38825SOL     OW16500   5.968  11.872   4.204
38825SOL    HW116501   6.013  11.782   4.201
38825SOL    HW216502   5.874  11.861   4.237
38826SOL     OW16503   7.133  11.394   5.453
38826SOL    HW116504   7.128  11.431   5.545
38826SOL    HW216505   7.061  11.325   5.441
38827SOL     OW16506   6.200  11.294   3.841
38827SOL    HW116507   6.298  11.272   3.848
38827SOL    HW216508   6.169  11.277   3.748
38828SOL     OW16509   6.367  11.436   5.473
38828SOL    HW116510   6.434  11.375   5.516
38828SOL    HW216511   6.294  11.455   5.538
38829SOL     OW16512   6.937  11.762   5.157
38829SOL    HW116513   6.965  11.719   5.242
38829SOL    HW216514   6.962  11.858   5.158
38830SOL     OW16515   6.389  12.574   4.648
38830SOL    HW116516   6.479  12.588   4.606
38830SOL    HW216517   6.318  12.576   4.577
38831SOL     OW16518   6.508  11.675   4.623
38831SOL    HW116519   6.483  11.666   4.527
38831SOL    HW216520   6.556  11.593   4.654
38832SOL     OW16521   6.125  11.236   4.236
38832SOL    HW116522   6.044  11.237   4.294
38832SOL    HW216523   6.128  11.319   4.181
38833SOL     OW16524   7.020  12.360   3.765
38833SOL    HW116525   7.052  12.284   3.822
38833SOL    HW216526   6.928  12.387   3.795
38834SOL     OW16527   5.883  11.207   3.895
38834SOL    HW116528   5.932  11.291   3.874
38834SOL    HW216529   5.945  11.142   3.940
38835SOL     OW16530   6.521  11.408   4.204
38835SOL    HW116531   6.473  11.449   4.126
38835SOL    HW216532   6.620  11.406   4.185
38836SOL     OW16533   6.662  11.855   5.188
38836SOL    HW116534   6.582  11.794   5.191
38836SOL    HW216535   6.743  11.802   5.164
38837SOL     OW16536   6.813  12.742   4.517
38837SOL    HW116537   6.834  12.816   4.452
38837SOL    HW216538   6.881  12.742   4.590
38838SOL     OW16539   6.045  12.324   4.465
38838SOL    HW116540   5.974  12.297   4.530
38838SOL    HW216541   6.019  12.296   4.372
38839SOL     OW16542   6.618  11.721   3.740
38839SOL    HW116543   6.577  11.803   3.701
38839SOL    HW216544   6.682  11.747   3.813
38840SOL     OW16545   5.664  11.728   5.110
38840SOL    HW116546   5.756  11.727   5.069
38840SOL    HW216547   5.658  11.802   5.177
38841SOL     OW16548   6.147  11.394   4.871
38841SOL    HW116549   6.185  11.310   4.908
38841SOL    HW216550   6.059  11.413   4.915
38842SOL     OW16551   6.452  11.626   4.366
38842SOL    HW116552   6.420  11.698   4.304
38842SOL    HW216553   6.476  11.545   4.313
38843SOL     OW16554   6.603  11.211   4.477
38843SOL    HW116555   6.531  11.216   4.408
38843SOL    HW216556   6.579  11.142   4.546
38844SOL     OW16557   7.015  12.345   4.591
38844SOL    HW116558   6.960  12.261   4.584
38844SOL    HW216559   7.041  12.374   4.499
38845SOL     OW16560   7.052  11.762   4.716
38845SOL    HW116561   7.022  11.667   4.723
38845SOL    HW216562   7.125  11.778   4.782
38846SOL     OW16563   7.443  12.005   4.101
38846SOL    HW116564   7.485  11.941   4.165
38846SOL    HW216565   7.405  11.954   4.023
38847SOL     OW16566   6.074  12.557   3.898
38847SOL    HW116567   5.987  12.542   3.945
38847SOL    HW216568   6.057  12.583   3.803
38848SOL     OW16569   7.250  12.452   4.381
38848SOL    HW116570   7.349  12.460   4.395
38848SOL    HW216571   7.205  12.536   4.412
38849SOL     OW16572   6.976  11.747   3.802
38849SOL    HW116573   6.922  11.726   3.883
38849SOL    HW216574   7.067  11.706   3.811
38850SOL     OW16575   6.113  11.428   4.052
38850SOL    HW116576   6.140  11.369   3.977
38850SOL    HW216577   6.113  11.523   4.021
38851SOL     OW16578   7.340  12.395   5.312
38851SOL    HW116579   7.431  12.356   5.299
38851SOL    HW216580   7.348  12.491   5.336
38852SOL     OW16581   6.650  12.519   5.064
38852SOL    HW116582   6.570  12.496   5.119
38852SOL    HW216583   6.733  12.493   5.113
38853SOL     OW16584   6.697  12.367   4.824
38853SOL    HW116585   6.657  12.411   4.905
38853SOL    HW216586   6.656  12.404   4.741
38854SOL     OW16587   7.224  12.271   4.803
38854SOL    HW116588   7.229  12.352   4.862
38854SOL    HW216589   7.138  12.273   4.752
38855SOL     OW16590   6.501  11.261   5.126
38855SOL    HW116591   6.526  11.241   5.031
38855SOL    HW216592   6.573  11.317   5.168
38856SOL     OW16593   6.566  12.288   5.443
38856SOL    HW116594   6.467  12.294   5.453
38856SOL    HW216595   6.589  12.208   5.387
38857SOL     OW16596   6.291  12.222   4.092
38857SOL    HW116597   6.277  12.229   4.191
38857SOL    HW216598   6.375  12.171   4.074
38858SOL     OW16599   5.996  11.985   4.975
38858SOL    HW116600   6.082  11.997   5.025
38858SOL    HW216601   5.954  11.898   5.002
38859SOL     OW16602   6.860  11.558   4.986
38859SOL    HW116603   6.881  11.632   5.050
38859SOL    HW216604   6.771  11.575   4.943
38860SOL     OW16605   5.953  12.272   4.225
38860SOL    HW116606   5.946  12.355   4.169
38860SOL    HW216607   5.957  12.192   4.165
38861SOL     OW16608   6.152  11.709   4.589
38861SOL    HW116609   6.164  11.775   4.515
38861SOL    HW216610   6.198  11.743   4.672
38862SOL     OW16611   6.838  12.520   4.112
38862SOL    HW116612   6.888  12.597   4.152
38862SOL    HW216613   6.743  12.522   4.144
38863SOL     OW16614   6.858  12.617   4.866
38863SOL    HW116615   6.905  12.630   4.953
38863SOL    HW216616   6.792  12.543   4.875
38864SOL     OW16617   7.168  11.811   4.196
38864SOL    HW116618   7.137  11.872   4.269
38864SOL    HW216619   7.218  11.863   4.127
38865SOL     OW16620   5.940  12.682   5.053
38865SOL    HW116621   5.919  12.638   4.966
38865SOL    HW216622   6.037  12.708   5.056
38866SOL     OW16623   5.988  11.923   5.322
38866SOL    HW116624   6.056  11.978   5.275
38866SOL    HW216625   6.028  11.835   5.349
38867SOL     OW16626   7.173  11.951   5.394
38867SOL    HW116627   7.081  11.989   5.389
38867SOL    HW216628   7.233  11.998   5.329
38868SOL     OW16629   6.599  11.277   5.494
38868SOL    HW116630   6.605  11.362   5.442
38868SOL    HW216631   6.631  11.201   5.437
38869SOL     OW16632   6.090  11.222   5.464
38869SOL    HW116633   6.048  11.165   5.394
38869SOL    HW216634   6.024  11.291   5.496
38870SOL     OW16635   6.159  12.042   4.753
38870SOL    HW116636   6.203  12.131   4.744
38870SOL    HW216637   6.096  12.042   4.830
38871SOL     OW16638   6.946  12.034   4.769
38871SOL    HW116639   6.871  12.034   4.703
38871SOL    HW216640   6.983  11.942   4.778
38872SOL     OW16641   6.795  11.697   3.999
38872SOL    HW116642   6.808  11.613   4.053
38872SOL    HW216643   6.766  11.771   4.059
38873SOL     OW16644   5.893  11.385   4.955
38873SOL    HW116645   5.870  11.422   5.045
38873SOL    HW216646   5.863  11.290   4.949
38874SOL     OW16647   5.623  12.482   5.006
38874SOL    HW116648   5.676  12.433   5.074
38874SOL    HW216649   5.645  12.580   5.011
38875SOL     OW16650   6.318  11.806   4.788
38875SOL    HW116651   6.377  11.780   4.712
38875SOL    HW216652   6.290  11.902   4.777
38876SOL     OW16653   7.314  12.107   5.578
38876SOL    HW116654   7.268  12.100   5.489
38876SOL    HW216655   7.252  12.151   5.644
38877SOL     OW16656   5.893  11.235   4.342
38877SOL    HW116657   5.882  11.329   4.375
38877SOL    HW216658   5.888  11.172   4.419
38878SOL     OW16659   7.208  11.539   4.098
38878SOL    HW116660   7.210  11.463   4.162
38878SOL    HW216661   7.160  11.616   4.138
38879SOL     OW16662   6.609  11.938   4.690
38879SOL    HW116663   6.624  11.959   4.786
38879SOL    HW216664   6.579  11.843   4.681
38880SOL     OW16665   7.445  12.690   5.329
38880SOL    HW116666   7.459  12.717   5.234
38880SOL    HW216667   7.528  12.712   5.382
38881SOL     OW16668   5.936  12.070   5.528
38881SOL    HW116669   6.012  12.114   5.576
38881SOL    HW216670   5.971  12.023   5.446
38882SOL     OW16671   7.126  11.446   3.849
38882SOL    HW116672   7.065  11.371   3.872
38882SOL    HW216673   7.148  11.498   3.932
38883SOL     OW16674   6.889  12.010   3.766
38883SOL    HW116675   6.923  11.917   3.781
38883SOL    HW216676   6.907  12.037   3.671
38884SOL     OW16677   6.654  12.505   4.573
38884SOL    HW116678   6.661  12.421   4.518
38884SOL    HW216679   6.716  12.574   4.537
38885SOL     OW16680   5.905  11.982   4.673
38885SOL    HW116681   5.998  12.018   4.678
38885SOL    HW216682   5.899  11.897   4.725
38886SOL     OW16683   5.925  11.681   4.730
38886SOL    HW116684   5.873  11.598   4.713
38886SOL    HW216685   6.002  11.686   4.666
38887SOL     OW16686   6.724  11.552   5.402
38887SOL    HW116687   6.679  11.615   5.466
38887SOL    HW216688   6.817  11.583   5.385
38888SOL     OW16689   6.746  11.379   5.201
38888SOL    HW116690   6.746  11.443   5.278
38888SOL    HW216691   6.774  11.427   5.118
38889SOL     OW16692   5.594  12.498   3.924
38889SOL    HW116693   5.501  12.519   3.893
38889SOL    HW216694   5.604  12.399   3.937
38890SOL     OW16695   6.588  11.968   4.962
38890SOL    HW116696   6.629  11.936   5.048
38890SOL    HW216697   6.492  11.941   4.959
38891SOL     OW16698   5.626  11.716   4.838
38891SOL    HW116699   5.711  11.683   4.797
38891SOL    HW216700   5.639  11.731   4.936
38892SOL     OW16701   5.775  11.692   5.446
38892SOL    HW116702   5.834  11.652   5.376
38892SOL    HW216703   5.717  11.763   5.405
38893SOL     OW16704   6.955  12.122   5.384
38893SOL    HW116705   6.994  12.211   5.404
38893SOL    HW216706   6.965  12.102   5.287
38894SOL     OW16707   6.401  11.744   4.049
38894SOL    HW116708   6.408  11.655   4.003
38894SOL    HW216709   6.307  11.778   4.041
38895SOL     OW16710   7.243  11.776   4.930
38895SOL    HW116711   7.205  11.707   4.992
38895SOL    HW216712   7.325  11.740   4.886
38896SOL     OW16713   5.838  12.736   5.468
38896SOL    HW116714   5.808  12.793   5.544
38896SOL    HW216715   5.831  12.639   5.494
38897SOL     OW16716   6.257  11.636   4.993
38897SOL    HW116717   6.223  11.547   4.963
38897SOL    HW216718   6.283  11.690   4.913
38898SOL     OW16719   6.059  11.672   3.915
38898SOL    HW116720   6.120  11.752   3.919
38898SOL    HW216721   5.964  11.703   3.922
38899SOL     OW16722   5.745  12.309   5.190
38899SOL    HW116723   5.767  12.248   5.266
38899SOL    HW216724   5.755  12.260   5.104
38900SOL     OW16725   6.933  12.231   4.958
38900SOL    HW116726   6.957  12.168   4.884
38900SOL    HW216727   6.843  12.271   4.940
38901SOL     OW16728   6.888  12.027   4.033
38901SOL    HW116729   6.802  11.996   4.075
38901SOL    HW216730   6.884  12.013   3.934
38902SOL     OW16731   5.669  12.430   4.746
38902SOL    HW116732   5.664  12.429   4.846
38902SOL    HW216733   5.586  12.389   4.708
38903SOL     OW16734   7.312  11.307   4.247
38903SOL    HW116735   7.385  11.290   4.180
38903SOL    HW216736   7.281  11.220   4.285
38904SOL     OW16737   6.866  12.099   4.396
38904SOL    HW116738   6.926  12.018   4.398
38904SOL    HW216739   6.906  12.168   4.336
38905SOL     OW16740   6.416  12.445   5.146
38905SOL    HW116741   6.411  12.478   5.241
38905SOL    HW216742   6.330  12.464   5.100
38906SOL     OW16743   7.427  11.347   4.687
38906SOL    HW116744   7.466  11.262   4.651
38906SOL    HW216745   7.329  11.349   4.668
38907SOL     OW16746   5.849  11.498   4.444
38907SOL    HW116747   5.770  11.549   4.410
38907SOL    HW216748   5.840  11.483   4.542
38908SOL     OW16749   6.408  12.174   5.096
38908SOL    HW116750   6.448  12.173   5.004
38908SOL    HW216751   6.418  12.266   5.136
38909SOL     OW16752   6.502  12.082   4.015
38909SOL    HW116753   6.565  12.120   3.947
38909SOL    HW216754   6.542  11.999   4.054
38910SOL     OW16755   5.958  12.460   5.214
38910SOL    HW116756   5.945  12.553   5.180
38910SOL    HW216757   5.874  12.408   5.201
38911SOL     OW16758   7.200  12.464   5.013
38911SOL    HW116759   7.260  12.467   5.093
38911SOL    HW216760   7.125  12.528   5.026
38912SOL     OW16761   6.625  12.270   4.420
38912SOL    HW116762   6.555  12.223   4.474
38912SOL    HW216763   6.684  12.202   4.377
38913SOL     OW16764   6.600  11.408   4.695
38913SOL    HW116765   6.592  11.372   4.602
38913SOL    HW216766   6.598  11.332   4.760
38914SOL     OW16767   7.295  11.557   5.105
38914SOL    HW116768   7.368  11.626   5.109
38914SOL    HW216769   7.323  11.482   5.046
38915SOL     OW16770   5.841  12.520   4.014
38915SOL    HW116771   5.745  12.521   3.987
38915SOL    HW216772   5.853  12.573   4.098
38916SOL     OW16773   5.691  12.185   5.450
38916SOL    HW116774   5.614  12.152   5.504
38916SOL    HW216775   5.776  12.155   5.492
38917SOL     OW16776   6.258  11.375   5.213
38917SOL    HW116777   6.348  11.359   5.173
38917SOL    HW216778   6.266  11.380   5.312
38918SOL     OW16779   5.661  11.517   3.757
38918SOL    HW116780   5.569  11.489   3.728
38918SOL    HW216781   5.692  11.594   3.701
38919SOL     OW16782   7.026  12.028   5.122
38919SOL    HW116783   6.969  12.080   5.059
38919SOL    HW216784   7.122  12.040   5.098
38920SOL     OW16785   5.658  11.338   4.042
38920SOL    HW116786   5.641  11.421   3.988
38920SOL    HW216787   5.748  11.301   4.020
38921SOL     OW16788   6.769  12.507   3.843
38921SOL    HW116789   6.670  12.496   3.845
38921SOL    HW216790   6.803  12.522   3.936
38922SOL     OW16791   6.199  12.014   5.155
38922SOL    HW116792   6.255  12.095   5.138
38922SOL    HW216793   6.258  11.934   5.158
38923SOL     OW16794   6.302  11.737   5.432
38923SOL    HW116795   6.321  11.802   5.506
38923SOL    HW216796   6.362  11.657   5.441
38924SOL     OW16797   7.036  12.392   5.357
38924SOL    HW116798   7.027  12.382   5.456
38924SOL    HW216799   7.132  12.385   5.331
38925SOL     OW16800   7.260  12.055   4.978
38925SOL    HW116801   7.233  11.966   4.941
38925SOL    HW216802   7.261  12.123   4.905
38926SOL     OW16803   6.811  11.497   4.173
38926SOL    HW116804   6.876  11.423   4.162
38926SOL    HW216805   6.831  11.547   4.257
38927SOL     OW16806   6.180  11.917   4.376
38927SOL    HW116807   6.230  12.002   4.357
38927SOL    HW216808   6.092  11.919   4.328
38928SOL     OW16809   7.363  11.514   5.366
38928SOL    HW116810   7.346  11.545   5.272
38928SOL    HW216811   7.279  11.477   5.404
38929SOL     OW16812   7.316  12.106   5.241
38929SOL    HW116813   7.354  12.197   5.256
38929SOL    HW216814   7.308  12.089   5.142
38930SOL     OW16815   6.445  12.546   3.740
38930SOL    HW116816   6.399  12.561   3.828
38930SOL    HW216817   6.489  12.631   3.710
38931SOL     OW16818   6.445  12.128   4.585
38931SOL    HW116819   6.499  12.059   4.633
38931SOL    HW216820   6.413  12.197   4.651
38932SOL     OW16821   6.669  12.156   3.811
38932SOL    HW116822   6.646  12.209   3.729
38932SOL    HW216823   6.750  12.100   3.792
38933SOL     OW16824   5.807  12.486   5.568
38933SOL    HW116825   5.742  12.413   5.547
38933SOL    HW216826   5.811  12.500   5.666
38934SOL     OW16827   5.665  12.412   4.377
38934SOL    HW116828   5.664  12.365   4.465
38934SOL    HW216829   5.747  12.384   4.326
38935SOL     OW16830   6.258  12.563   5.348
38935SOL    HW116831   6.180  12.513   5.386
38935SOL    HW216832   6.255  12.658   5.379
38936SOL     OW16833   7.410  11.364   4.951
38936SOL    HW116834   7.406  11.274   4.995
38936SOL    HW216835   7.413  11.353   4.852
38937SOL     OW16836   6.014  11.596   4.244
38937SOL    HW116837   6.044  11.524   4.182
38937SOL    HW216838   5.975  11.556   4.327
38938SOL     OW16839   7.291  12.659   4.828
38938SOL    HW116840   7.198  12.634   4.801
38938SOL    HW216841   7.317  12.609   4.910
38939SOL     OW16842   5.903  11.719   5.004
38939SOL    HW116843   5.941  11.660   5.076
38939SOL    HW216844   5.943  11.693   4.916
38940SOL     OW16845   7.010  11.386   4.836
38940SOL    HW116846   7.062  11.321   4.891
38940SOL    HW216847   6.961  11.449   4.897
38941SOL     OW16848   6.587  11.206   4.878
38941SOL    HW116849   6.524  11.134   4.847
38941SOL    HW216850   6.680  11.170   4.878
38942SOL     OW16851   6.356  12.502   4.025
38942SOL    HW116852   6.310  12.415   4.042
38942SOL    HW216853   6.447  12.499   4.066
38943SOL     OW16854   6.204  12.739   5.008
38943SOL    HW116855   6.199  12.821   5.065
38943SOL    HW216856   6.293  12.736   4.963
38944SOL     OW16857   6.938  11.224   3.892
38944SOL    HW116858   6.973  11.183   3.808
38944SOL    HW216859   6.848  11.186   3.912
38945SOL     OW16860   6.886  11.625   4.415
38945SOL    HW116861   6.827  11.705   4.419
38945SOL    HW216862   6.901  11.590   4.508
38946SOL     OW16863   7.179  11.393   4.606
38946SOL    HW116864   7.095  11.392   4.660
38946SOL    HW216865   7.181  11.476   4.550
38947SOL     OW16866   5.625  12.249   4.024
38947SOL    HW116867   5.724  12.238   4.015
38947SOL    HW216868   5.585  12.163   4.056
38948SOL     OW16869   5.816  11.800   5.699
38948SOL    HW116870   5.723  11.798   5.736
38948SOL    HW216871   5.817  11.761   5.607
38949SOL     OW16872   5.811  11.447   6.582
38949SOL    HW116873   5.846  11.430   6.674
38949SOL    HW216874   5.723  11.402   6.570
38950SOL     OW16875   5.605  11.540   6.233
38950SOL    HW116876   5.523  11.583   6.272
38950SOL    HW216877   5.577  11.467   6.170
38951SOL     OW16878   6.155  12.447   6.751
38951SOL    HW116879   6.062  12.440   6.714
38951SOL    HW216880   6.166  12.536   6.795
38952SOL     OW16881   7.141  12.683   6.289
38952SOL    HW116882   7.084  12.667   6.370
38952SOL    HW216883   7.082  12.693   6.209
38953SOL     OW16884   6.721  11.875   6.303
38953SOL    HW116885   6.778  11.953   6.278
38953SOL    HW216886   6.661  11.901   6.379
38954SOL     OW16887   7.341  11.779   5.817
38954SOL    HW116888   7.329  11.766   5.718
38954SOL    HW216889   7.311  11.698   5.866
38955SOL     OW16890   6.354  12.316   6.609
38955SOL    HW116891   6.276  12.333   6.669
38955SOL    HW216892   6.388  12.403   6.573
38956SOL     OW16893   6.436  11.970   7.409
38956SOL    HW116894   6.432  12.046   7.474
38956SOL    HW216895   6.458  12.006   7.318
38957SOL     OW16896   6.271  12.184   6.251
38957SOL    HW116897   6.340  12.168   6.321
38957SOL    HW216898   6.198  12.241   6.289
38958SOL     OW16899   6.272  12.333   7.389
38958SOL    HW116900   6.332  12.412   7.403
38958SOL    HW216901   6.186  12.364   7.348
38959SOL     OW16902   5.921  12.607   6.647
38959SOL    HW116903   5.843  12.576   6.594
38959SOL    HW216904   5.979  12.665   6.590
38960SOL     OW16905   7.046  12.677   6.925
38960SOL    HW116906   7.070  12.771   6.951
38960SOL    HW216907   7.030  12.623   7.007
38961SOL     OW16908   6.024  11.564   7.085
38961SOL    HW116909   6.106  11.508   7.094
38961SOL    HW216910   5.943  11.506   7.089
38962SOL     OW16911   7.189  11.619   6.323
38962SOL    HW116912   7.115  11.665   6.273
38962SOL    HW216913   7.240  11.687   6.376
38963SOL     OW16914   5.817  12.885   6.069
38963SOL    HW116915   5.851  12.962   6.123
38963SOL    HW216916   5.861  12.885   5.979
38964SOL     OW16917   6.713  12.513   7.276
38964SOL    HW116918   6.760  12.513   7.364
38964SOL    HW216919   6.665  12.426   7.265
38965SOL     OW16920   5.816  12.606   6.124
38965SOL    HW116921   5.790  12.702   6.124
38965SOL    HW216922   5.745  12.552   6.169
38966SOL     OW16923   5.826  12.263   6.472
38966SOL    HW116924   5.840  12.179   6.524
38966SOL    HW216925   5.771  12.327   6.527
38967SOL     OW16926   6.192  12.136   5.709
38967SOL    HW116927   6.199  12.220   5.655
38967SOL    HW216928   6.238  12.149   5.797
38968SOL     OW16929   7.180  11.286   7.066
38968SOL    HW116930   7.162  11.353   6.994
38968SOL    HW216931   7.177  11.332   7.155
38969SOL     OW16932   5.708  11.815   6.149
38969SOL    HW116933   5.663  11.727   6.166
38969SOL    HW216934   5.707  11.869   6.233
38970SOL     OW16935   5.613  12.768   5.703
38970SOL    HW116936   5.594  12.672   5.724
38970SOL    HW216937   5.580  12.826   5.778
38971SOL     OW16938   7.275  12.094   6.198
38971SOL    HW116939   7.370  12.065   6.206
38971SOL    HW216940   7.267  12.159   6.123
38972SOL     OW16941   7.227  12.280   6.018
38972SOL    HW116942   7.313  12.282   5.966
38972SOL    HW216943   7.241  12.327   6.106
38973SOL     OW16944   5.699  11.909   7.183
38973SOL    HW116945   5.787  11.896   7.228
38973SOL    HW216946   5.686  12.006   7.161
38974SOL     OW16947   6.199  12.537   6.312
38974SOL    HW116948   6.150  12.450   6.321
38974SOL    HW216949   6.176  12.580   6.225
38975SOL     OW16950   6.879  12.400   7.009
38975SOL    HW116951   6.916  12.327   6.951
38975SOL    HW216952   6.931  12.405   7.094
38976SOL     OW16953   6.395  11.176   6.088
38976SOL    HW116954   6.435  11.267   6.079
38976SOL    HW216955   6.295  11.184   6.094
38977SOL     OW16956   5.783  12.148   6.850
38977SOL    HW116957   5.872  12.103   6.836
38977SOL    HW216958   5.710  12.083   6.831
38978SOL     OW16959   7.111  12.171   5.776
38978SOL    HW116960   7.048  12.095   5.789
38978SOL    HW216961   7.159  12.189   5.862
38979SOL     OW16962   5.903  11.423   7.387
38979SOL    HW116963   5.974  11.494   7.393
38979SOL    HW216964   5.815  11.462   7.415
38980SOL     OW16965   7.052  12.589   6.539
38980SOL    HW116966   6.993  12.595   6.619
38980SOL    HW216967   7.037  12.501   6.493
38981SOL     OW16968   6.184  11.901   5.856
38981SOL    HW116969   6.208  11.970   5.788
38981SOL    HW216970   6.106  11.934   5.910
38982SOL     OW16971   6.867  11.517   6.530
38982SOL    HW116972   6.781  11.467   6.517
38982SOL    HW216973   6.929  11.463   6.586
38983SOL     OW16974   6.393  11.777   7.051
38983SOL    HW116975   6.346  11.774   7.140
38983SOL    HW216976   6.342  11.722   6.985
38984SOL     OW16977   6.980  11.641   7.260
38984SOL    HW116978   6.960  11.684   7.348
38984SOL    HW216979   7.058  11.579   7.269
38985SOL     OW16980   6.559  12.062   7.158
38985SOL    HW116981   6.605  11.978   7.129
38985SOL    HW216982   6.503  12.096   7.083
38986SOL     OW16983   6.577  11.582   6.828
38986SOL    HW116984   6.500  11.616   6.882
38986SOL    HW216985   6.543  11.531   6.749
38987SOL     OW16986   6.627  11.873   6.015
38987SOL    HW116987   6.653  11.869   6.111
38987SOL    HW216988   6.542  11.822   6.001
38988SOL     OW16989   5.662  11.983   6.375
38988SOL    HW116990   5.761  11.971   6.384
38988SOL    HW216991   5.638  12.078   6.396
38989SOL     OW16992   6.451  11.520   5.781
38989SOL    HW116993   6.510  11.583   5.732
38989SOL    HW216994   6.470  11.426   5.752
38990SOL     OW16995   7.305  11.757   7.417
38990SOL    HW116996   7.279  11.846   7.381
38990SOL    HW216997   7.303  11.689   7.344
38991SOL     OW16998   6.948  12.316   6.131
38991SOL    HW116999   7.031  12.287   6.083
38991SOL    HW217000   6.899  12.383   6.075
38992SOL     OW17001   6.136  11.368   6.471
38992SOL    HW117002   6.131  11.363   6.571
38992SOL    HW217003   6.138  11.464   6.442
38993SOL     OW17004   6.594  12.628   6.063
38993SOL    HW117005   6.548  12.700   6.011
38993SOL    HW217006   6.590  12.648   6.161
38994SOL     OW17007   7.381  12.238   6.459
38994SOL    HW117008   7.319  12.223   6.383
38994SOL    HW217009   7.329  12.249   6.544
38995SOL     OW17010   6.813  12.722   7.092
38995SOL    HW117011   6.819  12.645   7.156
38995SOL    HW217012   6.761  12.696   7.012
38996SOL     OW17013   5.907  12.115   5.828
38996SOL    HW117014   5.989  12.154   5.786
38996SOL    HW217015   5.880  12.033   5.779
38997SOL     OW17016   7.044  11.907   6.314
38997SOL    HW117017   7.039  11.842   6.389
38997SOL    HW217018   7.124  11.966   6.327
38998SOL     OW17019   6.047  12.438   7.313
38998SOL    HW117020   5.997  12.439   7.227
38998SOL    HW217021   5.984  12.420   7.389
38999SOL     OW17022   6.697  12.948   5.823
38999SOL    HW117023   6.637  12.886   5.873
38999SOL    HW217024   6.728  12.904   5.738
39000SOL     OW17025   5.788  11.457   7.084
39000SOL    HW117026   5.708  11.517   7.071
39000SOL    HW217027   5.778  11.408   7.170
39001SOL     OW17028   7.218  12.549   5.667
39001SOL    HW117029   7.186  12.643   5.657
39001SOL    HW217030   7.142  12.486   5.655
39002SOL     OW17031   6.986  11.279   6.012
39002SOL    HW117032   6.962  11.242   5.922
39002SOL    HW217033   7.085  11.295   6.016
39003SOL     OW17034   5.968  11.872   6.066
39003SOL    HW117035   6.013  11.782   6.063
39003SOL    HW217036   5.874  11.861   6.099
39004SOL     OW17037   7.133  11.394   7.315
39004SOL    HW117038   7.128  11.431   7.407
39004SOL    HW217039   7.061  11.325   7.303
39005SOL     OW17040   6.200  11.294   5.703
39005SOL    HW117041   6.298  11.272   5.710
39005SOL    HW217042   6.169  11.277   5.610
39006SOL     OW17043   6.367  11.436   7.335
39006SOL    HW117044   6.434  11.375   7.378
39006SOL    HW217045   6.294  11.455   7.400
39007SOL     OW17046   6.937  11.762   7.019
39007SOL    HW117047   6.965  11.719   7.104
39007SOL    HW217048   6.962  11.858   7.020
39008SOL     OW17049   6.389  12.574   6.510
39008SOL    HW117050   6.479  12.588   6.468
39008SOL    HW217051   6.318  12.576   6.439
39009SOL     OW17052   6.508  11.675   6.485
39009SOL    HW117053   6.483  11.666   6.389
39009SOL    HW217054   6.556  11.593   6.516
39010SOL     OW17055   6.125  11.236   6.098
39010SOL    HW117056   6.044  11.237   6.156
39010SOL    HW217057   6.128  11.319   6.043
39011SOL     OW17058   7.020  12.360   5.627
39011SOL    HW117059   7.052  12.284   5.684
39011SOL    HW217060   6.928  12.387   5.657
39012SOL     OW17061   5.883  11.207   5.757
39012SOL    HW117062   5.932  11.291   5.736
39012SOL    HW217063   5.945  11.142   5.802
39013SOL     OW17064   6.521  11.408   6.066
39013SOL    HW117065   6.473  11.449   5.988
39013SOL    HW217066   6.620  11.406   6.047
39014SOL     OW17067   6.662  11.855   7.050
39014SOL    HW117068   6.582  11.794   7.053
39014SOL    HW217069   6.743  11.802   7.026
39015SOL     OW17070   6.813  12.742   6.379
39015SOL    HW117071   6.834  12.816   6.314
39015SOL    HW217072   6.881  12.742   6.452
39016SOL     OW17073   6.045  12.324   6.327
39016SOL    HW117074   5.974  12.297   6.392
39016SOL    HW217075   6.019  12.296   6.234
39017SOL     OW17076   6.618  11.721   5.602
39017SOL    HW117077   6.577  11.803   5.563
39017SOL    HW217078   6.682  11.747   5.675
39018SOL     OW17079   5.664  11.728   6.972
39018SOL    HW117080   5.756  11.727   6.931
39018SOL    HW217081   5.658  11.802   7.039
39019SOL     OW17082   6.147  11.394   6.733
39019SOL    HW117083   6.185  11.310   6.770
39019SOL    HW217084   6.059  11.413   6.777
39020SOL     OW17085   6.452  11.626   6.228
39020SOL    HW117086   6.420  11.698   6.166
39020SOL    HW217087   6.476  11.545   6.175
39021SOL     OW17088   6.603  11.211   6.339
39021SOL    HW117089   6.531  11.216   6.270
39021SOL    HW217090   6.579  11.142   6.408
39022SOL     OW17091   7.015  12.345   6.453
39022SOL    HW117092   6.960  12.261   6.446
39022SOL    HW217093   7.041  12.374   6.361
39023SOL     OW17094   7.052  11.762   6.578
39023SOL    HW117095   7.022  11.667   6.585
39023SOL    HW217096   7.125  11.778   6.644
39024SOL     OW17097   7.443  12.005   5.963
39024SOL    HW117098   7.485  11.941   6.027
39024SOL    HW217099   7.405  11.954   5.885
39025SOL     OW17100   6.074  12.557   5.760
39025SOL    HW117101   5.987  12.542   5.807
39025SOL    HW217102   6.057  12.583   5.665
39026SOL     OW17103   7.250  12.452   6.243
39026SOL    HW117104   7.349  12.460   6.257
39026SOL    HW217105   7.205  12.536   6.274
39027SOL     OW17106   6.976  11.747   5.664
39027SOL    HW117107   6.922  11.726   5.745
39027SOL    HW217108   7.067  11.706   5.673
39028SOL     OW17109   6.113  11.428   5.914
39028SOL    HW117110   6.140  11.369   5.839
39028SOL    HW217111   6.113  11.523   5.883
39029SOL     OW17112   7.340  12.395   7.174
39029SOL    HW117113   7.431  12.356   7.161
39029SOL    HW217114   7.348  12.491   7.198
39030SOL     OW17115   6.650  12.519   6.926
39030SOL    HW117116   6.570  12.496   6.981
39030SOL    HW217117   6.733  12.493   6.975
39031SOL     OW17118   6.697  12.367   6.686
39031SOL    HW117119   6.657  12.411   6.767
39031SOL    HW217120   6.656  12.404   6.603
39032SOL     OW17121   7.224  12.271   6.665
39032SOL    HW117122   7.229  12.352   6.724
39032SOL    HW217123   7.138  12.273   6.614
39033SOL     OW17124   6.501  11.261   6.988
39033SOL    HW117125   6.526  11.241   6.893
39033SOL    HW217126   6.573  11.317   7.030
39034SOL     OW17127   6.566  12.288   7.305
39034SOL    HW117128   6.467  12.294   7.315
39034SOL    HW217129   6.589  12.208   7.249
39035SOL     OW17130   6.291  12.222   5.954
39035SOL    HW117131   6.277  12.229   6.053
39035SOL    HW217132   6.375  12.171   5.936
39036SOL     OW17133   5.996  11.985   6.837
39036SOL    HW117134   6.082  11.997   6.887
39036SOL    HW217135   5.954  11.898   6.864
39037SOL     OW17136   6.860  11.558   6.848
39037SOL    HW117137   6.881  11.632   6.912
39037SOL    HW217138   6.771  11.575   6.805
39038SOL     OW17139   5.953  12.272   6.087
39038SOL    HW117140   5.946  12.355   6.031
39038SOL    HW217141   5.957  12.192   6.027
39039SOL     OW17142   6.152  11.709   6.451
39039SOL    HW117143   6.164  11.775   6.377
39039SOL    HW217144   6.198  11.743   6.534
39040SOL     OW17145   6.838  12.520   5.974
39040SOL    HW117146   6.888  12.597   6.014
39040SOL    HW217147   6.743  12.522   6.006
39041SOL     OW17148   6.858  12.617   6.728
39041SOL    HW117149   6.905  12.630   6.815
39041SOL    HW217150   6.792  12.543   6.737
39042SOL     OW17151   7.168  11.811   6.058
39042SOL    HW117152   7.137  11.872   6.131
39042SOL    HW217153   7.218  11.863   5.989
39043SOL     OW17154   5.940  12.682   6.915
39043SOL    HW117155   5.919  12.638   6.828
39043SOL    HW217156   6.037  12.708   6.918
39044SOL     OW17157   5.988  11.923   7.184
39044SOL    HW117158   6.056  11.978   7.137
39044SOL    HW217159   6.028  11.835   7.211
39045SOL     OW17160   7.173  11.951   7.256
39045SOL    HW117161   7.081  11.989   7.251
39045SOL    HW217162   7.233  11.998   7.191
39046SOL     OW17163   6.599  11.277   7.356
39046SOL    HW117164   6.605  11.362   7.304
39046SOL    HW217165   6.631  11.201   7.299
39047SOL     OW17166   6.090  11.222   7.326
39047SOL    HW117167   6.048  11.165   7.256
39047SOL    HW217168   6.024  11.291   7.358
39048SOL     OW17169   6.159  12.042   6.615
39048SOL    HW117170   6.203  12.131   6.606
39048SOL    HW217171   6.096  12.042   6.692
39049SOL     OW17172   6.946  12.034   6.631
39049SOL    HW117173   6.871  12.034   6.565
39049SOL    HW217174   6.983  11.942   6.640
39050SOL     OW17175   6.795  11.697   5.861
39050SOL    HW117176   6.808  11.613   5.915
39050SOL    HW217177   6.766  11.771   5.921
39051SOL     OW17178   5.893  11.385   6.817
39051SOL    HW117179   5.870  11.422   6.907
39051SOL    HW217180   5.863  11.290   6.811
39052SOL     OW17181   5.623  12.482   6.868
39052SOL    HW117182   5.676  12.433   6.936
39052SOL    HW217183   5.645  12.580   6.873
39053SOL     OW17184   6.318  11.806   6.650
39053SOL    HW117185   6.377  11.780   6.574
39053SOL    HW217186   6.290  11.902   6.639
39054SOL     OW17187   7.314  12.107   7.440
39054SOL    HW117188   7.268  12.100   7.351
39054SOL    HW217189   7.252  12.151   7.506
39055SOL     OW17190   5.893  11.235   6.204
39055SOL    HW117191   5.882  11.329   6.237
39055SOL    HW217192   5.888  11.172   6.281
39056SOL     OW17193   7.208  11.539   5.960
39056SOL    HW117194   7.210  11.463   6.024
39056SOL    HW217195   7.160  11.616   6.000
39057SOL     OW17196   6.609  11.938   6.552
39057SOL    HW117197   6.624  11.959   6.648
39057SOL    HW217198   6.579  11.843   6.543
39058SOL     OW17199   7.445  12.690   7.191
39058SOL    HW117200   7.459  12.717   7.096
39058SOL    HW217201   7.528  12.712   7.244
39059SOL     OW17202   5.936  12.070   7.390
39059SOL    HW117203   6.012  12.114   7.438
39059SOL    HW217204   5.971  12.023   7.308
39060SOL     OW17205   7.126  11.446   5.711
39060SOL    HW117206   7.065  11.371   5.734
39060SOL    HW217207   7.148  11.498   5.794
39061SOL     OW17208   6.889  12.010   5.628
39061SOL    HW117209   6.923  11.917   5.643
39061SOL    HW217210   6.907  12.037   5.533
39062SOL     OW17211   6.654  12.505   6.435
39062SOL    HW117212   6.661  12.421   6.380
39062SOL    HW217213   6.716  12.574   6.399
39063SOL     OW17214   5.905  11.982   6.535
39063SOL    HW117215   5.998  12.018   6.540
39063SOL    HW217216   5.899  11.897   6.587
39064SOL     OW17217   5.925  11.681   6.592
39064SOL    HW117218   5.873  11.598   6.575
39064SOL    HW217219   6.002  11.686   6.528
39065SOL     OW17220   6.724  11.552   7.264
39065SOL    HW117221   6.679  11.615   7.328
39065SOL    HW217222   6.817  11.583   7.247
39066SOL     OW17223   6.746  11.379   7.063
39066SOL    HW117224   6.746  11.443   7.140
39066SOL    HW217225   6.774  11.427   6.980
39067SOL     OW17226   5.594  12.498   5.786
39067SOL    HW117227   5.501  12.519   5.755
39067SOL    HW217228   5.604  12.399   5.799
39068SOL     OW17229   6.588  11.968   6.824
39068SOL    HW117230   6.629  11.936   6.910
39068SOL    HW217231   6.492  11.941   6.821
39069SOL     OW17232   5.626  11.716   6.700
39069SOL    HW117233   5.711  11.683   6.659
39069SOL    HW217234   5.639  11.731   6.798
39070SOL     OW17235   5.775  11.692   7.308
39070SOL    HW117236   5.834  11.652   7.238
39070SOL    HW217237   5.717  11.763   7.267
39071SOL     OW17238   6.955  12.122   7.246
39071SOL    HW117239   6.994  12.211   7.266
39071SOL    HW217240   6.965  12.102   7.149
39072SOL     OW17241   6.401  11.744   5.911
39072SOL    HW117242   6.408  11.655   5.865
39072SOL    HW217243   6.307  11.778   5.903
39073SOL     OW17244   7.243  11.776   6.792
39073SOL    HW117245   7.205  11.707   6.854
39073SOL    HW217246   7.325  11.740   6.748
39074SOL     OW17247   5.838  12.736   7.330
39074SOL    HW117248   5.808  12.793   7.406
39074SOL    HW217249   5.831  12.639   7.356
39075SOL     OW17250   6.257  11.636   6.855
39075SOL    HW117251   6.223  11.547   6.825
39075SOL    HW217252   6.283  11.690   6.775
39076SOL     OW17253   6.059  11.672   5.777
39076SOL    HW117254   6.120  11.752   5.781
39076SOL    HW217255   5.964  11.703   5.784
39077SOL     OW17256   5.745  12.309   7.052
39077SOL    HW117257   5.767  12.248   7.128
39077SOL    HW217258   5.755  12.260   6.966
39078SOL     OW17259   6.933  12.231   6.820
39078SOL    HW117260   6.957  12.168   6.746
39078SOL    HW217261   6.843  12.271   6.802
39079SOL     OW17262   6.888  12.027   5.895
39079SOL    HW117263   6.802  11.996   5.937
39079SOL    HW217264   6.884  12.013   5.796
39080SOL     OW17265   5.669  12.430   6.608
39080SOL    HW117266   5.664  12.429   6.708
39080SOL    HW217267   5.586  12.389   6.570
39081SOL     OW17268   7.312  11.307   6.109
39081SOL    HW117269   7.385  11.290   6.042
39081SOL    HW217270   7.281  11.220   6.147
39082SOL     OW17271   6.866  12.099   6.258
39082SOL    HW117272   6.926  12.018   6.260
39082SOL    HW217273   6.906  12.168   6.198
39083SOL     OW17274   6.416  12.445   7.008
39083SOL    HW117275   6.411  12.478   7.103
39083SOL    HW217276   6.330  12.464   6.962
39084SOL     OW17277   7.427  11.347   6.549
39084SOL    HW117278   7.466  11.262   6.513
39084SOL    HW217279   7.329  11.349   6.530
39085SOL     OW17280   5.849  11.498   6.306
39085SOL    HW117281   5.770  11.549   6.272
39085SOL    HW217282   5.840  11.483   6.404
39086SOL     OW17283   6.408  12.174   6.958
39086SOL    HW117284   6.448  12.173   6.866
39086SOL    HW217285   6.418  12.266   6.998
39087SOL     OW17286   6.502  12.082   5.877
39087SOL    HW117287   6.565  12.120   5.809
39087SOL    HW217288   6.542  11.999   5.916
39088SOL     OW17289   5.958  12.460   7.076
39088SOL    HW117290   5.945  12.553   7.042
39088SOL    HW217291   5.874  12.408   7.063
39089SOL     OW17292   7.200  12.464   6.875
39089SOL    HW117293   7.260  12.467   6.955
39089SOL    HW217294   7.125  12.528   6.888
39090SOL     OW17295   6.625  12.270   6.282
39090SOL    HW117296   6.555  12.223   6.336
39090SOL    HW217297   6.684  12.202   6.239
39091SOL     OW17298   6.600  11.408   6.557
39091SOL    HW117299   6.592  11.372   6.464
39091SOL    HW217300   6.598  11.332   6.622
39092SOL     OW17301   7.295  11.557   6.967
39092SOL    HW117302   7.368  11.626   6.971
39092SOL    HW217303   7.323  11.482   6.908
39093SOL     OW17304   5.841  12.520   5.876
39093SOL    HW117305   5.745  12.521   5.849
39093SOL    HW217306   5.853  12.573   5.960
39094SOL     OW17307   5.691  12.185   7.312
39094SOL    HW117308   5.614  12.152   7.366
39094SOL    HW217309   5.776  12.155   7.354
39095SOL     OW17310   6.258  11.375   7.075
39095SOL    HW117311   6.348  11.359   7.035
39095SOL    HW217312   6.266  11.380   7.174
39096SOL     OW17313   5.661  11.517   5.619
39096SOL    HW117314   5.569  11.489   5.590
39096SOL    HW217315   5.692  11.594   5.563
39097SOL     OW17316   7.026  12.028   6.984
39097SOL    HW117317   6.969  12.080   6.921
39097SOL    HW217318   7.122  12.040   6.960
39098SOL     OW17319   5.658  11.338   5.904
39098SOL    HW117320   5.641  11.421   5.850
39098SOL    HW217321   5.748  11.301   5.882
39099SOL     OW17322   6.769  12.507   5.705
39099SOL    HW117323   6.670  12.496   5.707
39099SOL    HW217324   6.803  12.522   5.798
39100SOL     OW17325   6.199  12.014   7.017
39100SOL    HW117326   6.255  12.095   7.000
39100SOL    HW217327   6.258  11.934   7.020
39101SOL     OW17328   6.302  11.737   7.294
39101SOL    HW117329   6.321  11.802   7.368
39101SOL    HW217330   6.362  11.657   7.303
39102SOL     OW17331   7.036  12.392   7.219
39102SOL    HW117332   7.027  12.382   7.318
39102SOL    HW217333   7.132  12.385   7.193
39103SOL     OW17334   7.260  12.055   6.840
39103SOL    HW117335   7.233  11.966   6.803
39103SOL    HW217336   7.261  12.123   6.767
39104SOL     OW17337   6.811  11.497   6.035
39104SOL    HW117338   6.876  11.423   6.024
39104SOL    HW217339   6.831  11.547   6.119
39105SOL     OW17340   6.180  11.917   6.238
39105SOL    HW117341   6.230  12.002   6.219
39105SOL    HW217342   6.092  11.919   6.190
39106SOL     OW17343   7.363  11.514   7.228
39106SOL    HW117344   7.346  11.545   7.134
39106SOL    HW217345   7.279  11.477   7.266
39107SOL     OW17346   7.316  12.106   7.103
39107SOL    HW117347   7.354  12.197   7.118
39107SOL    HW217348   7.308  12.089   7.004
39108SOL     OW17349   6.445  12.546   5.602
39108SOL    HW117350   6.399  12.561   5.690
39108SOL    HW217351   6.489  12.631   5.572
39109SOL     OW17352   6.445  12.128   6.447
39109SOL    HW117353   6.499  12.059   6.495
39109SOL    HW217354   6.413  12.197   6.513
39110SOL     OW17355   6.669  12.156   5.673
39110SOL    HW117356   6.646  12.209   5.591
39110SOL    HW217357   6.750  12.100   5.654
39111SOL     OW17358   5.807  12.486   7.430
39111SOL    HW117359   5.742  12.413   7.409
39111SOL    HW217360   5.811  12.500   7.528
39112SOL     OW17361   5.665  12.412   6.239
39112SOL    HW117362   5.664  12.365   6.327
39112SOL    HW217363   5.747  12.384   6.188
39113SOL     OW17364   6.258  12.563   7.210
39113SOL    HW117365   6.180  12.513   7.248
39113SOL    HW217366   6.255  12.658   7.241
39114SOL     OW17367   7.410  11.364   6.813
39114SOL    HW117368   7.406  11.274   6.857
39114SOL    HW217369   7.413  11.353   6.714
39115SOL     OW17370   6.014  11.596   6.106
39115SOL    HW117371   6.044  11.524   6.044
39115SOL    HW217372   5.975  11.556   6.189
39116SOL     OW17373   7.291  12.659   6.690
39116SOL    HW117374   7.198  12.634   6.663
39116SOL    HW217375   7.317  12.609   6.772
39117SOL     OW17376   5.903  11.719   6.866
39117SOL    HW117377   5.941  11.660   6.938
39117SOL    HW217378   5.943  11.693   6.778
39118SOL     OW17379   7.010  11.386   6.698
39118SOL    HW117380   7.062  11.321   6.753
39118SOL    HW217381   6.961  11.449   6.759
39119SOL     OW17382   6.587  11.206   6.740
39119SOL    HW117383   6.524  11.134   6.709
39119SOL    HW217384   6.680  11.170   6.740
39120SOL     OW17385   6.356  12.502   5.887
39120SOL    HW117386   6.310  12.415   5.904
39120SOL    HW217387   6.447  12.499   5.928
39121SOL     OW17388   6.204  12.739   6.870
39121SOL    HW117389   6.199  12.821   6.927
39121SOL    HW217390   6.293  12.736   6.825
39122SOL     OW17391   6.938  11.224   5.754
39122SOL    HW117392   6.973  11.183   5.670
39122SOL    HW217393   6.848  11.186   5.774
39123SOL     OW17394   6.886  11.625   6.277
39123SOL    HW117395   6.827  11.705   6.281
39123SOL    HW217396   6.901  11.590   6.370
39124SOL     OW17397   7.179  11.393   6.468
39124SOL    HW117398   7.095  11.392   6.522
39124SOL    HW217399   7.181  11.476   6.412
39125SOL     OW17400   5.625  12.249   5.886
39125SOL    HW117401   5.724  12.238   5.877
39125SOL    HW217402   5.585  12.163   5.918
39126SOL     OW17403   5.816  11.800   7.561
39126SOL    HW117404   5.723  11.798   7.598
39126SOL    HW217405   5.817  11.761   7.469
39127SOL     OW17406   5.811  11.447   8.444
39127SOL    HW117407   5.846  11.430   8.536
39127SOL    HW217408   5.723  11.402   8.432
39128SOL     OW17409   5.605  11.540   8.095
39128SOL    HW117410   5.523  11.583   8.134
39128SOL    HW217411   5.577  11.467   8.032
39129SOL     OW17412   6.155  12.447   8.613
39129SOL    HW117413   6.062  12.440   8.576
39129SOL    HW217414   6.166  12.536   8.657
39130SOL     OW17415   7.141  12.683   8.151
39130SOL    HW117416   7.084  12.667   8.232
39130SOL    HW217417   7.082  12.693   8.071
39131SOL     OW17418   6.721  11.875   8.165
39131SOL    HW117419   6.778  11.953   8.140
39131SOL    HW217420   6.661  11.901   8.241
39132SOL     OW17421   7.341  11.779   7.679
39132SOL    HW117422   7.329  11.766   7.580
39132SOL    HW217423   7.311  11.698   7.728
39133SOL     OW17424   6.354  12.316   8.471
39133SOL    HW117425   6.276  12.333   8.531
39133SOL    HW217426   6.388  12.403   8.435
39134SOL     OW17427   6.436  11.970   9.271
39134SOL    HW117428   6.432  12.046   9.336
39134SOL    HW217429   6.458  12.006   9.180
39135SOL     OW17430   6.271  12.184   8.113
39135SOL    HW117431   6.340  12.168   8.183
39135SOL    HW217432   6.198  12.241   8.151
39136SOL     OW17433   6.272  12.333   9.251
39136SOL    HW117434   6.332  12.412   9.265
39136SOL    HW217435   6.186  12.364   9.210
39137SOL     OW17436   5.921  12.607   8.509
39137SOL    HW117437   5.843  12.576   8.456
39137SOL    HW217438   5.979  12.665   8.452
39138SOL     OW17439   7.046  12.677   8.787
39138SOL    HW117440   7.070  12.771   8.813
39138SOL    HW217441   7.030  12.623   8.869
39139SOL     OW17442   6.024  11.564   8.947
39139SOL    HW117443   6.106  11.508   8.956
39139SOL    HW217444   5.943  11.506   8.951
39140SOL     OW17445   7.189  11.619   8.185
39140SOL    HW117446   7.115  11.665   8.135
39140SOL    HW217447   7.240  11.687   8.238
39141SOL     OW17448   5.817  12.885   7.931
39141SOL    HW117449   5.851  12.962   7.985
39141SOL    HW217450   5.861  12.885   7.841
39142SOL     OW17451   6.713  12.513   9.138
39142SOL    HW117452   6.760  12.513   9.226
39142SOL    HW217453   6.665  12.426   9.127
39143SOL     OW17454   5.816  12.606   7.986
39143SOL    HW117455   5.790  12.702   7.986
39143SOL    HW217456   5.745  12.552   8.031
39144SOL     OW17457   5.826  12.263   8.334
39144SOL    HW117458   5.840  12.179   8.386
39144SOL    HW217459   5.771  12.327   8.389
39145SOL     OW17460   6.192  12.136   7.571
39145SOL    HW117461   6.199  12.220   7.517
39145SOL    HW217462   6.238  12.149   7.659
39146SOL     OW17463   7.180  11.286   8.928
39146SOL    HW117464   7.162  11.353   8.856
39146SOL    HW217465   7.177  11.332   9.017
39147SOL     OW17466   5.708  11.815   8.011
39147SOL    HW117467   5.663  11.727   8.028
39147SOL    HW217468   5.707  11.869   8.095
39148SOL     OW17469   5.613  12.768   7.565
39148SOL    HW117470   5.594  12.672   7.586
39148SOL    HW217471   5.580  12.826   7.640
39149SOL     OW17472   7.275  12.094   8.060
39149SOL    HW117473   7.370  12.065   8.068
39149SOL    HW217474   7.267  12.159   7.985
39150SOL     OW17475   7.227  12.280   7.880
39150SOL    HW117476   7.313  12.282   7.828
39150SOL    HW217477   7.241  12.327   7.968
39151SOL     OW17478   5.699  11.909   9.045
39151SOL    HW117479   5.787  11.896   9.090
39151SOL    HW217480   5.686  12.006   9.023
39152SOL     OW17481   6.199  12.537   8.174
39152SOL    HW117482   6.150  12.450   8.183
39152SOL    HW217483   6.176  12.580   8.087
39153SOL     OW17484   6.879  12.400   8.871
39153SOL    HW117485   6.916  12.327   8.813
39153SOL    HW217486   6.931  12.405   8.956
39154SOL     OW17487   6.395  11.176   7.950
39154SOL    HW117488   6.435  11.267   7.941
39154SOL    HW217489   6.295  11.184   7.956
39155SOL     OW17490   5.783  12.148   8.712
39155SOL    HW117491   5.872  12.103   8.698
39155SOL    HW217492   5.710  12.083   8.693
39156SOL     OW17493   7.111  12.171   7.638
39156SOL    HW117494   7.048  12.095   7.651
39156SOL    HW217495   7.159  12.189   7.724
39157SOL     OW17496   5.903  11.423   9.249
39157SOL    HW117497   5.974  11.494   9.255
39157SOL    HW217498   5.815  11.462   9.277
39158SOL     OW17499   7.052  12.589   8.401
39158SOL    HW117500   6.993  12.595   8.481
39158SOL    HW217501   7.037  12.501   8.355
39159SOL     OW17502   6.184  11.901   7.718
39159SOL    HW117503   6.208  11.970   7.650
39159SOL    HW217504   6.106  11.934   7.772
39160SOL     OW17505   6.867  11.517   8.392
39160SOL    HW117506   6.781  11.467   8.379
39160SOL    HW217507   6.929  11.463   8.448
39161SOL     OW17508   6.393  11.777   8.913
39161SOL    HW117509   6.346  11.774   9.002
39161SOL    HW217510   6.342  11.722   8.847
39162SOL     OW17511   6.980  11.641   9.122
39162SOL    HW117512   6.960  11.684   9.210
39162SOL    HW217513   7.058  11.579   9.131
39163SOL     OW17514   6.559  12.062   9.020
39163SOL    HW117515   6.605  11.978   8.991
39163SOL    HW217516   6.503  12.096   8.945
39164SOL     OW17517   6.577  11.582   8.690
39164SOL    HW117518   6.500  11.616   8.744
39164SOL    HW217519   6.543  11.531   8.611
39165SOL     OW17520   6.627  11.873   7.877
39165SOL    HW117521   6.653  11.869   7.973
39165SOL    HW217522   6.542  11.822   7.863
39166SOL     OW17523   5.662  11.983   8.237
39166SOL    HW117524   5.761  11.971   8.246
39166SOL    HW217525   5.638  12.078   8.258
39167SOL     OW17526   6.451  11.520   7.643
39167SOL    HW117527   6.510  11.583   7.594
39167SOL    HW217528   6.470  11.426   7.614
39168SOL     OW17529   7.305  11.757   9.279
39168SOL    HW117530   7.279  11.846   9.243
39168SOL    HW217531   7.303  11.689   9.206
39169SOL     OW17532   6.948  12.316   7.993
39169SOL    HW117533   7.031  12.287   7.945
39169SOL    HW217534   6.899  12.383   7.937
39170SOL     OW17535   6.136  11.368   8.333
39170SOL    HW117536   6.131  11.363   8.433
39170SOL    HW217537   6.138  11.464   8.304
39171SOL     OW17538   6.594  12.628   7.925
39171SOL    HW117539   6.548  12.700   7.873
39171SOL    HW217540   6.590  12.648   8.023
39172SOL     OW17541   7.381  12.238   8.321
39172SOL    HW117542   7.319  12.223   8.245
39172SOL    HW217543   7.329  12.249   8.406
39173SOL     OW17544   6.813  12.722   8.954
39173SOL    HW117545   6.819  12.645   9.018
39173SOL    HW217546   6.761  12.696   8.874
39174SOL     OW17547   5.907  12.115   7.690
39174SOL    HW117548   5.989  12.154   7.648
39174SOL    HW217549   5.880  12.033   7.641
39175SOL     OW17550   7.044  11.907   8.176
39175SOL    HW117551   7.039  11.842   8.251
39175SOL    HW217552   7.124  11.966   8.189
39176SOL     OW17553   6.047  12.438   9.175
39176SOL    HW117554   5.997  12.439   9.089
39176SOL    HW217555   5.984  12.420   9.251
39177SOL     OW17556   6.697  12.948   7.685
39177SOL    HW117557   6.637  12.886   7.735
39177SOL    HW217558   6.728  12.904   7.600
39178SOL     OW17559   5.788  11.457   8.946
39178SOL    HW117560   5.708  11.517   8.933
39178SOL    HW217561   5.778  11.408   9.032
39179SOL     OW17562   7.218  12.549   7.529
39179SOL    HW117563   7.186  12.643   7.519
39179SOL    HW217564   7.142  12.486   7.517
39180SOL     OW17565   6.986  11.279   7.874
39180SOL    HW117566   6.962  11.242   7.784
39180SOL    HW217567   7.085  11.295   7.878
39181SOL     OW17568   5.968  11.872   7.928
39181SOL    HW117569   6.013  11.782   7.925
39181SOL    HW217570   5.874  11.861   7.961
39182SOL     OW17571   7.133  11.394   9.177
39182SOL    HW117572   7.128  11.431   9.269
39182SOL    HW217573   7.061  11.325   9.165
39183SOL     OW17574   6.200  11.294   7.565
39183SOL    HW117575   6.298  11.272   7.572
39183SOL    HW217576   6.169  11.277   7.472
39184SOL     OW17577   6.367  11.436   9.197
39184SOL    HW117578   6.434  11.375   9.240
39184SOL    HW217579   6.294  11.455   9.262
39185SOL     OW17580   6.937  11.762   8.881
39185SOL    HW117581   6.965  11.719   8.966
39185SOL    HW217582   6.962  11.858   8.882
39186SOL     OW17583   6.389  12.574   8.372
39186SOL    HW117584   6.479  12.588   8.330
39186SOL    HW217585   6.318  12.576   8.301
39187SOL     OW17586   6.508  11.675   8.347
39187SOL    HW117587   6.483  11.666   8.251
39187SOL    HW217588   6.556  11.593   8.378
39188SOL     OW17589   6.125  11.236   7.960
39188SOL    HW117590   6.044  11.237   8.018
39188SOL    HW217591   6.128  11.319   7.905
39189SOL     OW17592   7.020  12.360   7.489
39189SOL    HW117593   7.052  12.284   7.546
39189SOL    HW217594   6.928  12.387   7.519
39190SOL     OW17595   5.883  11.207   7.619
39190SOL    HW117596   5.932  11.291   7.598
39190SOL    HW217597   5.945  11.142   7.664
39191SOL     OW17598   6.521  11.408   7.928
39191SOL    HW117599   6.473  11.449   7.850
39191SOL    HW217600   6.620  11.406   7.909
39192SOL     OW17601   6.662  11.855   8.912
39192SOL    HW117602   6.582  11.794   8.915
39192SOL    HW217603   6.743  11.802   8.888
39193SOL     OW17604   6.813  12.742   8.241
39193SOL    HW117605   6.834  12.816   8.176
39193SOL    HW217606   6.881  12.742   8.314
39194SOL     OW17607   6.045  12.324   8.189
39194SOL    HW117608   5.974  12.297   8.254
39194SOL    HW217609   6.019  12.296   8.096
39195SOL     OW17610   6.618  11.721   7.464
39195SOL    HW117611   6.577  11.803   7.425
39195SOL    HW217612   6.682  11.747   7.537
39196SOL     OW17613   5.664  11.728   8.834
39196SOL    HW117614   5.756  11.727   8.793
39196SOL    HW217615   5.658  11.802   8.901
39197SOL     OW17616   6.147  11.394   8.595
39197SOL    HW117617   6.185  11.310   8.632
39197SOL    HW217618   6.059  11.413   8.639
39198SOL     OW17619   6.452  11.626   8.090
39198SOL    HW117620   6.420  11.698   8.028
39198SOL    HW217621   6.476  11.545   8.037
39199SOL     OW17622   6.603  11.211   8.201
39199SOL    HW117623   6.531  11.216   8.132
39199SOL    HW217624   6.579  11.142   8.270
39200SOL     OW17625   7.015  12.345   8.315
39200SOL    HW117626   6.960  12.261   8.308
39200SOL    HW217627   7.041  12.374   8.223
39201SOL     OW17628   7.052  11.762   8.440
39201SOL    HW117629   7.022  11.667   8.447
39201SOL    HW217630   7.125  11.778   8.506
39202SOL     OW17631   7.443  12.005   7.825
39202SOL    HW117632   7.485  11.941   7.889
39202SOL    HW217633   7.405  11.954   7.747
39203SOL     OW17634   6.074  12.557   7.622
39203SOL    HW117635   5.987  12.542   7.669
39203SOL    HW217636   6.057  12.583   7.527
39204SOL     OW17637   7.250  12.452   8.105
39204SOL    HW117638   7.349  12.460   8.119
39204SOL    HW217639   7.205  12.536   8.136
39205SOL     OW17640   6.976  11.747   7.526
39205SOL    HW117641   6.922  11.726   7.607
39205SOL    HW217642   7.067  11.706   7.535
39206SOL     OW17643   6.113  11.428   7.776
39206SOL    HW117644   6.140  11.369   7.701
39206SOL    HW217645   6.113  11.523   7.745
39207SOL     OW17646   7.340  12.395   9.036
39207SOL    HW117647   7.431  12.356   9.023
39207SOL    HW217648   7.348  12.491   9.060
39208SOL     OW17649   6.650  12.519   8.788
39208SOL    HW117650   6.570  12.496   8.843
39208SOL    HW217651   6.733  12.493   8.837
39209SOL     OW17652   6.697  12.367   8.548
39209SOL    HW117653   6.657  12.411   8.629
39209SOL    HW217654   6.656  12.404   8.465
39210SOL     OW17655   7.224  12.271   8.527
39210SOL    HW117656   7.229  12.352   8.586
39210SOL    HW217657   7.138  12.273   8.476
39211SOL     OW17658   6.501  11.261   8.850
39211SOL    HW117659   6.526  11.241   8.755
39211SOL    HW217660   6.573  11.317   8.892
39212SOL     OW17661   6.566  12.288   9.167
39212SOL    HW117662   6.467  12.294   9.177
39212SOL    HW217663   6.589  12.208   9.111
39213SOL     OW17664   6.291  12.222   7.816
39213SOL    HW117665   6.277  12.229   7.915
39213SOL    HW217666   6.375  12.171   7.798
39214SOL     OW17667   5.996  11.985   8.699
39214SOL    HW117668   6.082  11.997   8.749
39214SOL    HW217669   5.954  11.898   8.726
39215SOL     OW17670   6.860  11.558   8.710
39215SOL    HW117671   6.881  11.632   8.774
39215SOL    HW217672   6.771  11.575   8.667
39216SOL     OW17673   5.953  12.272   7.949
39216SOL    HW117674   5.946  12.355   7.893
39216SOL    HW217675   5.957  12.192   7.889
39217SOL     OW17676   6.152  11.709   8.313
39217SOL    HW117677   6.164  11.775   8.239
39217SOL    HW217678   6.198  11.743   8.396
39218SOL     OW17679   6.838  12.520   7.836
39218SOL    HW117680   6.888  12.597   7.876
39218SOL    HW217681   6.743  12.522   7.868
39219SOL     OW17682   6.858  12.617   8.590
39219SOL    HW117683   6.905  12.630   8.677
39219SOL    HW217684   6.792  12.543   8.599
39220SOL     OW17685   7.168  11.811   7.920
39220SOL    HW117686   7.137  11.872   7.993
39220SOL    HW217687   7.218  11.863   7.851
39221SOL     OW17688   5.940  12.682   8.777
39221SOL    HW117689   5.919  12.638   8.690
39221SOL    HW217690   6.037  12.708   8.780
39222SOL     OW17691   5.988  11.923   9.046
39222SOL    HW117692   6.056  11.978   8.999
39222SOL    HW217693   6.028  11.835   9.073
39223SOL     OW17694   7.173  11.951   9.118
39223SOL    HW117695   7.081  11.989   9.113
39223SOL    HW217696   7.233  11.998   9.053
39224SOL     OW17697   6.599  11.277   9.218
39224SOL    HW117698   6.605  11.362   9.166
39224SOL    HW217699   6.631  11.201   9.161
39225SOL     OW17700   6.090  11.222   9.188
39225SOL    HW117701   6.048  11.165   9.118
39225SOL    HW217702   6.024  11.291   9.220
39226SOL     OW17703   6.159  12.042   8.477
39226SOL    HW117704   6.203  12.131   8.468
39226SOL    HW217705   6.096  12.042   8.554
39227SOL     OW17706   6.946  12.034   8.493
39227SOL    HW117707   6.871  12.034   8.427
39227SOL    HW217708   6.983  11.942   8.502
39228SOL     OW17709   6.795  11.697   7.723
39228SOL    HW117710   6.808  11.613   7.777
39228SOL    HW217711   6.766  11.771   7.783
39229SOL     OW17712   5.893  11.385   8.679
39229SOL    HW117713   5.870  11.422   8.769
39229SOL    HW217714   5.863  11.290   8.673
39230SOL     OW17715   5.623  12.482   8.730
39230SOL    HW117716   5.676  12.433   8.798
39230SOL    HW217717   5.645  12.580   8.735
39231SOL     OW17718   6.318  11.806   8.512
39231SOL    HW117719   6.377  11.780   8.436
39231SOL    HW217720   6.290  11.902   8.501
39232SOL     OW17721   7.314  12.107   9.302
39232SOL    HW117722   7.268  12.100   9.213
39232SOL    HW217723   7.252  12.151   9.368
39233SOL     OW17724   5.893  11.235   8.066
39233SOL    HW117725   5.882  11.329   8.099
39233SOL    HW217726   5.888  11.172   8.143
39234SOL     OW17727   7.208  11.539   7.822
39234SOL    HW117728   7.210  11.463   7.886
39234SOL    HW217729   7.160  11.616   7.862
39235SOL     OW17730   6.609  11.938   8.414
39235SOL    HW117731   6.624  11.959   8.510
39235SOL    HW217732   6.579  11.843   8.405
39236SOL     OW17733   7.445  12.690   9.053
39236SOL    HW117734   7.459  12.717   8.958
39236SOL    HW217735   7.528  12.712   9.106
39237SOL     OW17736   5.936  12.070   9.252
39237SOL    HW117737   6.012  12.114   9.300
39237SOL    HW217738   5.971  12.023   9.170
39238SOL     OW17739   7.126  11.446   7.573
39238SOL    HW117740   7.065  11.371   7.596
39238SOL    HW217741   7.148  11.498   7.656
39239SOL     OW17742   6.889  12.010   7.490
39239SOL    HW117743   6.923  11.917   7.505
39239SOL    HW217744   6.907  12.037   7.395
39240SOL     OW17745   6.654  12.505   8.297
39240SOL    HW117746   6.661  12.421   8.242
39240SOL    HW217747   6.716  12.574   8.261
39241SOL     OW17748   5.905  11.982   8.397
39241SOL    HW117749   5.998  12.018   8.402
39241SOL    HW217750   5.899  11.897   8.449
39242SOL     OW17751   5.925  11.681   8.454
39242SOL    HW117752   5.873  11.598   8.437
39242SOL    HW217753   6.002  11.686   8.390
39243SOL     OW17754   6.724  11.552   9.126
39243SOL    HW117755   6.679  11.615   9.190
39243SOL    HW217756   6.817  11.583   9.109
39244SOL     OW17757   6.746  11.379   8.925
39244SOL    HW117758   6.746  11.443   9.002
39244SOL    HW217759   6.774  11.427   8.842
39245SOL     OW17760   5.594  12.498   7.648
39245SOL    HW117761   5.501  12.519   7.617
39245SOL    HW217762   5.604  12.399   7.661
39246SOL     OW17763   6.588  11.968   8.686
39246SOL    HW117764   6.629  11.936   8.772
39246SOL    HW217765   6.492  11.941   8.683
39247SOL     OW17766   5.626  11.716   8.562
39247SOL    HW117767   5.711  11.683   8.521
39247SOL    HW217768   5.639  11.731   8.660
39248SOL     OW17769   5.775  11.692   9.170
39248SOL    HW117770   5.834  11.652   9.100
39248SOL    HW217771   5.717  11.763   9.129
39249SOL     OW17772   6.955  12.122   9.108
39249SOL    HW117773   6.994  12.211   9.128
39249SOL    HW217774   6.965  12.102   9.011
39250SOL     OW17775   6.401  11.744   7.773
39250SOL    HW117776   6.408  11.655   7.727
39250SOL    HW217777   6.307  11.778   7.765
39251SOL     OW17778   7.243  11.776   8.654
39251SOL    HW117779   7.205  11.707   8.716
39251SOL    HW217780   7.325  11.740   8.610
39252SOL     OW17781   5.838  12.736   9.192
39252SOL    HW117782   5.808  12.793   9.268
39252SOL    HW217783   5.831  12.639   9.218
39253SOL     OW17784   6.257  11.636   8.717
39253SOL    HW117785   6.223  11.547   8.687
39253SOL    HW217786   6.283  11.690   8.637
39254SOL     OW17787   6.059  11.672   7.639
39254SOL    HW117788   6.120  11.752   7.643
39254SOL    HW217789   5.964  11.703   7.646
39255SOL     OW17790   5.745  12.309   8.914
39255SOL    HW117791   5.767  12.248   8.990
39255SOL    HW217792   5.755  12.260   8.828
39256SOL     OW17793   6.933  12.231   8.682
39256SOL    HW117794   6.957  12.168   8.608
39256SOL    HW217795   6.843  12.271   8.664
39257SOL     OW17796   6.888  12.027   7.757
39257SOL    HW117797   6.802  11.996   7.799
39257SOL    HW217798   6.884  12.013   7.658
39258SOL     OW17799   5.669  12.430   8.470
39258SOL    HW117800   5.664  12.429   8.570
39258SOL    HW217801   5.586  12.389   8.432
39259SOL     OW17802   7.312  11.307   7.971
39259SOL    HW117803   7.385  11.290   7.904
39259SOL    HW217804   7.281  11.220   8.009
39260SOL     OW17805   6.866  12.099   8.120
39260SOL    HW117806   6.926  12.018   8.122
39260SOL    HW217807   6.906  12.168   8.060
39261SOL     OW17808   6.416  12.445   8.870
39261SOL    HW117809   6.411  12.478   8.965
39261SOL    HW217810   6.330  12.464   8.824
39262SOL     OW17811   7.427  11.347   8.411
39262SOL    HW117812   7.466  11.262   8.375
39262SOL    HW217813   7.329  11.349   8.392
39263SOL     OW17814   5.849  11.498   8.168
39263SOL    HW117815   5.770  11.549   8.134
39263SOL    HW217816   5.840  11.483   8.266
39264SOL     OW17817   6.408  12.174   8.820
39264SOL    HW117818   6.448  12.173   8.728
39264SOL    HW217819   6.418  12.266   8.860
39265SOL     OW17820   6.502  12.082   7.739
39265SOL    HW117821   6.565  12.120   7.671
39265SOL    HW217822   6.542  11.999   7.778
39266SOL     OW17823   5.958  12.460   8.938
39266SOL    HW117824   5.945  12.553   8.904
39266SOL    HW217825   5.874  12.408   8.925
39267SOL     OW17826   7.200  12.464   8.737
39267SOL    HW117827   7.260  12.467   8.817
39267SOL    HW217828   7.125  12.528   8.750
39268SOL     OW17829   6.625  12.270   8.144
39268SOL    HW117830   6.555  12.223   8.198
39268SOL    HW217831   6.684  12.202   8.101
39269SOL     OW17832   6.600  11.408   8.419
39269SOL    HW117833   6.592  11.372   8.326
39269SOL    HW217834   6.598  11.332   8.484
39270SOL     OW17835   7.295  11.557   8.829
39270SOL    HW117836   7.368  11.626   8.833
39270SOL    HW217837   7.323  11.482   8.770
39271SOL     OW17838   5.841  12.520   7.738
39271SOL    HW117839   5.745  12.521   7.711
39271SOL    HW217840   5.853  12.573   7.822
39272SOL     OW17841   5.691  12.185   9.174
39272SOL    HW117842   5.614  12.152   9.228
39272SOL    HW217843   5.776  12.155   9.216
39273SOL     OW17844   6.258  11.375   8.937
39273SOL    HW117845   6.348  11.359   8.897
39273SOL    HW217846   6.266  11.380   9.036
39274SOL     OW17847   5.661  11.517   7.481
39274SOL    HW117848   5.569  11.489   7.452
39274SOL    HW217849   5.692  11.594   7.425
39275SOL     OW17850   7.026  12.028   8.846
39275SOL    HW117851   6.969  12.080   8.783
39275SOL    HW217852   7.122  12.040   8.822
39276SOL     OW17853   5.658  11.338   7.766
39276SOL    HW117854   5.641  11.421   7.712
39276SOL    HW217855   5.748  11.301   7.744
39277SOL     OW17856   6.769  12.507   7.567
39277SOL    HW117857   6.670  12.496   7.569
39277SOL    HW217858   6.803  12.522   7.660
39278SOL     OW17859   6.199  12.014   8.879
39278SOL    HW117860   6.255  12.095   8.862
39278SOL    HW217861   6.258  11.934   8.882
39279SOL     OW17862   6.302  11.737   9.156
39279SOL    HW117863   6.321  11.802   9.230
39279SOL    HW217864   6.362  11.657   9.165
39280SOL     OW17865   7.036  12.392   9.081
39280SOL    HW117866   7.027  12.382   9.180
39280SOL    HW217867   7.132  12.385   9.055
39281SOL     OW17868   7.260  12.055   8.702
39281SOL    HW117869   7.233  11.966   8.665
39281SOL    HW217870   7.261  12.123   8.629
39282SOL     OW17871   6.811  11.497   7.897
39282SOL    HW117872   6.876  11.423   7.886
39282SOL    HW217873   6.831  11.547   7.981
39283SOL     OW17874   6.180  11.917   8.100
39283SOL    HW117875   6.230  12.002   8.081
39283SOL    HW217876   6.092  11.919   8.052
39284SOL     OW17877   7.363  11.514   9.090
39284SOL    HW117878   7.346  11.545   8.996
39284SOL    HW217879   7.279  11.477   9.128
39285SOL     OW17880   7.316  12.106   8.965
39285SOL    HW117881   7.354  12.197   8.980
39285SOL    HW217882   7.308  12.089   8.866
39286SOL     OW17883   6.445  12.546   7.464
39286SOL    HW117884   6.399  12.561   7.552
39286SOL    HW217885   6.489  12.631   7.434
39287SOL     OW17886   6.445  12.128   8.309
39287SOL    HW117887   6.499  12.059   8.357
39287SOL    HW217888   6.413  12.197   8.375
39288SOL     OW17889   6.669  12.156   7.535
39288SOL    HW117890   6.646  12.209   7.453
39288SOL    HW217891   6.750  12.100   7.516
39289SOL     OW17892   5.807  12.486   9.292
39289SOL    HW117893   5.742  12.413   9.271
39289SOL    HW217894   5.811  12.500   9.390
39290SOL     OW17895   5.665  12.412   8.101
39290SOL    HW117896   5.664  12.365   8.189
39290SOL    HW217897   5.747  12.384   8.050
39291SOL     OW17898   6.258  12.563   9.072
39291SOL    HW117899   6.180  12.513   9.110
39291SOL    HW217900   6.255  12.658   9.103
39292SOL     OW17901   7.410  11.364   8.675
39292SOL    HW117902   7.406  11.274   8.719
39292SOL    HW217903   7.413  11.353   8.576
39293SOL     OW17904   6.014  11.596   7.968
39293SOL    HW117905   6.044  11.524   7.906
39293SOL    HW217906   5.975  11.556   8.051
39294SOL     OW17907   7.291  12.659   8.552
39294SOL    HW117908   7.198  12.634   8.525
39294SOL    HW217909   7.317  12.609   8.634
39295SOL     OW17910   5.903  11.719   8.728
39295SOL    HW117911   5.941  11.660   8.800
39295SOL    HW217912   5.943  11.693   8.640
39296SOL     OW17913   7.010  11.386   8.560
39296SOL    HW117914   7.062  11.321   8.615
39296SOL    HW217915   6.961  11.449   8.621
39297SOL     OW17916   6.587  11.206   8.602
39297SOL    HW117917   6.524  11.134   8.571
39297SOL    HW217918   6.680  11.170   8.602
39298SOL     OW17919   6.356  12.502   7.749
39298SOL    HW117920   6.310  12.415   7.766
39298SOL    HW217921   6.447  12.499   7.790
39299SOL     OW17922   6.204  12.739   8.732
39299SOL    HW117923   6.199  12.821   8.789
39299SOL    HW217924   6.293  12.736   8.687
39300SOL     OW17925   6.938  11.224   7.616
39300SOL    HW117926   6.973  11.183   7.532
39300SOL    HW217927   6.848  11.186   7.636
39301SOL     OW17928   6.886  11.625   8.139
39301SOL    HW117929   6.827  11.705   8.143
39301SOL    HW217930   6.901  11.590   8.232
39302SOL     OW17931   7.179  11.393   8.330
39302SOL    HW117932   7.095  11.392   8.384
39302SOL    HW217933   7.181  11.476   8.274
39303SOL     OW17934   5.625  12.249   7.748
39303SOL    HW117935   5.724  12.238   7.739
39303SOL    HW217936   5.585  12.163   7.780
39304SOL     OW17937   5.816  11.800   9.423
39304SOL    HW117938   5.723  11.798   9.460
39304SOL    HW217939   5.817  11.761   9.331
39305SOL     OW17940   5.811  11.447  10.306
39305SOL    HW117941   5.846  11.430  10.398
39305SOL    HW217942   5.723  11.402  10.294
39306SOL     OW17943   5.605  11.540   9.957
39306SOL    HW117944   5.523  11.583   9.996
39306SOL    HW217945   5.577  11.467   9.894
39307SOL     OW17946   6.155  12.447  10.475
39307SOL    HW117947   6.062  12.440  10.438
39307SOL    HW217948   6.166  12.536  10.519
39308SOL     OW17949   7.141  12.683  10.013
39308SOL    HW117950   7.084  12.667  10.094
39308SOL    HW217951   7.082  12.693   9.933
39309SOL     OW17952   6.721  11.875  10.027
39309SOL    HW117953   6.778  11.953  10.002
39309SOL    HW217954   6.661  11.901  10.103
39310SOL     OW17955   7.341  11.779   9.541
39310SOL    HW117956   7.329  11.766   9.442
39310SOL    HW217957   7.311  11.698   9.590
39311SOL     OW17958   6.354  12.316  10.333
39311SOL    HW117959   6.276  12.333  10.393
39311SOL    HW217960   6.388  12.403  10.297
39312SOL     OW17961   6.436  11.970  11.133
39312SOL    HW117962   6.432  12.046  11.198
39312SOL    HW217963   6.458  12.006  11.042
39313SOL     OW17964   6.271  12.184   9.975
39313SOL    HW117965   6.340  12.168  10.045
39313SOL    HW217966   6.198  12.241  10.013
39314SOL     OW17967   6.272  12.333  11.113
39314SOL    HW117968   6.332  12.412  11.127
39314SOL    HW217969   6.186  12.364  11.072
39315SOL     OW17970   5.921  12.607  10.371
39315SOL    HW117971   5.843  12.576  10.318
39315SOL    HW217972   5.979  12.665  10.314
39316SOL     OW17973   7.046  12.677  10.649
39316SOL    HW117974   7.070  12.771  10.675
39316SOL    HW217975   7.030  12.623  10.731
39317SOL     OW17976   6.024  11.564  10.809
39317SOL    HW117977   6.106  11.508  10.818
39317SOL    HW217978   5.943  11.506  10.813
39318SOL     OW17979   7.189  11.619  10.047
39318SOL    HW117980   7.115  11.665   9.997
39318SOL    HW217981   7.240  11.687  10.100
39319SOL     OW17982   5.817  12.885   9.793
39319SOL    HW117983   5.851  12.962   9.847
39319SOL    HW217984   5.861  12.885   9.703
39320SOL     OW17985   6.713  12.513  11.000
39320SOL    HW117986   6.760  12.513  11.088
39320SOL    HW217987   6.665  12.426  10.989
39321SOL     OW17988   5.816  12.606   9.848
39321SOL    HW117989   5.790  12.702   9.848
39321SOL    HW217990   5.745  12.552   9.893
39322SOL     OW17991   5.826  12.263  10.196
39322SOL    HW117992   5.840  12.179  10.248
39322SOL    HW217993   5.771  12.327  10.251
39323SOL     OW17994   6.192  12.136   9.433
39323SOL    HW117995   6.199  12.220   9.379
39323SOL    HW217996   6.238  12.149   9.521
39324SOL     OW17997   7.180  11.286  10.790
39324SOL    HW117998   7.162  11.353  10.718
39324SOL    HW217999   7.177  11.332  10.879
39325SOL     OW18000   5.708  11.815   9.873
39325SOL    HW118001   5.663  11.727   9.890
39325SOL    HW218002   5.707  11.869   9.957
39326SOL     OW18003   5.613  12.768   9.427
39326SOL    HW118004   5.594  12.672   9.448
39326SOL    HW218005   5.580  12.826   9.502
39327SOL     OW18006   7.275  12.094   9.922
39327SOL    HW118007   7.370  12.065   9.930
39327SOL    HW218008   7.267  12.159   9.847
39328SOL     OW18009   7.227  12.280   9.742
39328SOL    HW118010   7.313  12.282   9.690
39328SOL    HW218011   7.241  12.327   9.830
39329SOL     OW18012   5.699  11.909  10.907
39329SOL    HW118013   5.787  11.896  10.952
39329SOL    HW218014   5.686  12.006  10.885
39330SOL     OW18015   6.199  12.537  10.036
39330SOL    HW118016   6.150  12.450  10.045
39330SOL    HW218017   6.176  12.580   9.949
39331SOL     OW18018   6.879  12.400  10.733
39331SOL    HW118019   6.916  12.327  10.675
39331SOL    HW218020   6.931  12.405  10.818
39332SOL     OW18021   6.395  11.176   9.812
39332SOL    HW118022   6.435  11.267   9.803
39332SOL    HW218023   6.295  11.184   9.818
39333SOL     OW18024   5.783  12.148  10.574
39333SOL    HW118025   5.872  12.103  10.560
39333SOL    HW218026   5.710  12.083  10.555
39334SOL     OW18027   7.111  12.171   9.500
39334SOL    HW118028   7.048  12.095   9.513
39334SOL    HW218029   7.159  12.189   9.586
39335SOL     OW18030   5.903  11.423  11.111
39335SOL    HW118031   5.974  11.494  11.117
39335SOL    HW218032   5.815  11.462  11.139
39336SOL     OW18033   7.052  12.589  10.263
39336SOL    HW118034   6.993  12.595  10.343
39336SOL    HW218035   7.037  12.501  10.217
39337SOL     OW18036   6.184  11.901   9.580
39337SOL    HW118037   6.208  11.970   9.512
39337SOL    HW218038   6.106  11.934   9.634
39338SOL     OW18039   6.867  11.517  10.254
39338SOL    HW118040   6.781  11.467  10.241
39338SOL    HW218041   6.929  11.463  10.310
39339SOL     OW18042   6.393  11.777  10.775
39339SOL    HW118043   6.346  11.774  10.864
39339SOL    HW218044   6.342  11.722  10.709
39340SOL     OW18045   6.980  11.641  10.984
39340SOL    HW118046   6.960  11.684  11.072
39340SOL    HW218047   7.058  11.579  10.993
39341SOL     OW18048   6.559  12.062  10.882
39341SOL    HW118049   6.605  11.978  10.853
39341SOL    HW218050   6.503  12.096  10.807
39342SOL     OW18051   6.577  11.582  10.552
39342SOL    HW118052   6.500  11.616  10.606
39342SOL    HW218053   6.543  11.531  10.473
39343SOL     OW18054   6.627  11.873   9.739
39343SOL    HW118055   6.653  11.869   9.835
39343SOL    HW218056   6.542  11.822   9.725
39344SOL     OW18057   5.662  11.983  10.099
39344SOL    HW118058   5.761  11.971  10.108
39344SOL    HW218059   5.638  12.078  10.120
39345SOL     OW18060   6.451  11.520   9.505
39345SOL    HW118061   6.510  11.583   9.456
39345SOL    HW218062   6.470  11.426   9.476
39346SOL     OW18063   7.305  11.757  11.141
39346SOL    HW118064   7.279  11.846  11.105
39346SOL    HW218065   7.303  11.689  11.068
39347SOL     OW18066   6.948  12.316   9.855
39347SOL    HW118067   7.031  12.287   9.807
39347SOL    HW218068   6.899  12.383   9.799
39348SOL     OW18069   6.136  11.368  10.195
39348SOL    HW118070   6.131  11.363  10.295
39348SOL    HW218071   6.138  11.464  10.166
39349SOL     OW18072   6.594  12.628   9.787
39349SOL    HW118073   6.548  12.700   9.735
39349SOL    HW218074   6.590  12.648   9.885
39350SOL     OW18075   7.381  12.238  10.183
39350SOL    HW118076   7.319  12.223  10.107
39350SOL    HW218077   7.329  12.249  10.268
39351SOL     OW18078   6.813  12.722  10.816
39351SOL    HW118079   6.819  12.645  10.880
39351SOL    HW218080   6.761  12.696  10.736
39352SOL     OW18081   5.907  12.115   9.552
39352SOL    HW118082   5.989  12.154   9.510
39352SOL    HW218083   5.880  12.033   9.503
39353SOL     OW18084   7.044  11.907  10.038
39353SOL    HW118085   7.039  11.842  10.113
39353SOL    HW218086   7.124  11.966  10.051
39354SOL     OW18087   6.047  12.438  11.037
39354SOL    HW118088   5.997  12.439  10.951
39354SOL    HW218089   5.984  12.420  11.113
39355SOL     OW18090   6.697  12.948   9.547
39355SOL    HW118091   6.637  12.886   9.597
39355SOL    HW218092   6.728  12.904   9.462
39356SOL     OW18093   5.788  11.457  10.808
39356SOL    HW118094   5.708  11.517  10.795
39356SOL    HW218095   5.778  11.408  10.894
39357SOL     OW18096   7.218  12.549   9.391
39357SOL    HW118097   7.186  12.643   9.381
39357SOL    HW218098   7.142  12.486   9.379
39358SOL     OW18099   6.986  11.279   9.736
39358SOL    HW118100   6.962  11.242   9.646
39358SOL    HW218101   7.085  11.295   9.740
39359SOL     OW18102   5.968  11.872   9.790
39359SOL    HW118103   6.013  11.782   9.787
39359SOL    HW218104   5.874  11.861   9.823
39360SOL     OW18105   7.133  11.394  11.039
39360SOL    HW118106   7.128  11.431  11.131
39360SOL    HW218107   7.061  11.325  11.027
39361SOL     OW18108   6.200  11.294   9.427
39361SOL    HW118109   6.298  11.272   9.434
39361SOL    HW218110   6.169  11.277   9.334
39362SOL     OW18111   6.367  11.436  11.059
39362SOL    HW118112   6.434  11.375  11.102
39362SOL    HW218113   6.294  11.455  11.124
39363SOL     OW18114   6.937  11.762  10.743
39363SOL    HW118115   6.965  11.719  10.828
39363SOL    HW218116   6.962  11.858  10.744
39364SOL     OW18117   6.389  12.574  10.234
39364SOL    HW118118   6.479  12.588  10.192
39364SOL    HW218119   6.318  12.576  10.163
39365SOL     OW18120   6.508  11.675  10.209
39365SOL    HW118121   6.483  11.666  10.113
39365SOL    HW218122   6.556  11.593  10.240
39366SOL     OW18123   6.125  11.236   9.822
39366SOL    HW118124   6.044  11.237   9.880
39366SOL    HW218125   6.128  11.319   9.767
39367SOL     OW18126   7.020  12.360   9.351
39367SOL    HW118127   7.052  12.284   9.408
39367SOL    HW218128   6.928  12.387   9.381
39368SOL     OW18129   5.883  11.207   9.481
39368SOL    HW118130   5.932  11.291   9.460
39368SOL    HW218131   5.945  11.142   9.526
39369SOL     OW18132   6.521  11.408   9.790
39369SOL    HW118133   6.473  11.449   9.712
39369SOL    HW218134   6.620  11.406   9.771
39370SOL     OW18135   6.662  11.855  10.774
39370SOL    HW118136   6.582  11.794  10.777
39370SOL    HW218137   6.743  11.802  10.750
39371SOL     OW18138   6.813  12.742  10.103
39371SOL    HW118139   6.834  12.816  10.038
39371SOL    HW218140   6.881  12.742  10.176
39372SOL     OW18141   6.045  12.324  10.051
39372SOL    HW118142   5.974  12.297  10.116
39372SOL    HW218143   6.019  12.296   9.958
39373SOL     OW18144   6.618  11.721   9.326
39373SOL    HW118145   6.577  11.803   9.287
39373SOL    HW218146   6.682  11.747   9.399
39374SOL     OW18147   5.664  11.728  10.696
39374SOL    HW118148   5.756  11.727  10.655
39374SOL    HW218149   5.658  11.802  10.763
39375SOL     OW18150   6.147  11.394  10.457
39375SOL    HW118151   6.185  11.310  10.494
39375SOL    HW218152   6.059  11.413  10.501
39376SOL     OW18153   6.452  11.626   9.952
39376SOL    HW118154   6.420  11.698   9.890
39376SOL    HW218155   6.476  11.545   9.899
39377SOL     OW18156   6.603  11.211  10.063
39377SOL    HW118157   6.531  11.216   9.994
39377SOL    HW218158   6.579  11.142  10.132
39378SOL     OW18159   7.015  12.345  10.177
39378SOL    HW118160   6.960  12.261  10.170
39378SOL    HW218161   7.041  12.374  10.085
39379SOL     OW18162   7.052  11.762  10.302
39379SOL    HW118163   7.022  11.667  10.309
39379SOL    HW218164   7.125  11.778  10.368
39380SOL     OW18165   7.443  12.005   9.687
39380SOL    HW118166   7.485  11.941   9.751
39380SOL    HW218167   7.405  11.954   9.609
39381SOL     OW18168   6.074  12.557   9.484
39381SOL    HW118169   5.987  12.542   9.531
39381SOL    HW218170   6.057  12.583   9.389
39382SOL     OW18171   7.250  12.452   9.967
39382SOL    HW118172   7.349  12.460   9.981
39382SOL    HW218173   7.205  12.536   9.998
39383SOL     OW18174   6.976  11.747   9.388
39383SOL    HW118175   6.922  11.726   9.469
39383SOL    HW218176   7.067  11.706   9.397
39384SOL     OW18177   6.113  11.428   9.638
39384SOL    HW118178   6.140  11.369   9.563
39384SOL    HW218179   6.113  11.523   9.607
39385SOL     OW18180   7.340  12.395  10.898
39385SOL    HW118181   7.431  12.356  10.885
39385SOL    HW218182   7.348  12.491  10.922
39386SOL     OW18183   6.650  12.519  10.650
39386SOL    HW118184   6.570  12.496  10.705
39386SOL    HW218185   6.733  12.493  10.699
39387SOL     OW18186   6.697  12.367  10.410
39387SOL    HW118187   6.657  12.411  10.491
39387SOL    HW218188   6.656  12.404  10.327
39388SOL     OW18189   7.224  12.271  10.389
39388SOL    HW118190   7.229  12.352  10.448
39388SOL    HW218191   7.138  12.273  10.338
39389SOL     OW18192   6.501  11.261  10.712
39389SOL    HW118193   6.526  11.241  10.617
39389SOL    HW218194   6.573  11.317  10.754
39390SOL     OW18195   6.566  12.288  11.029
39390SOL    HW118196   6.467  12.294  11.039
39390SOL    HW218197   6.589  12.208  10.973
39391SOL     OW18198   6.291  12.222   9.678
39391SOL    HW118199   6.277  12.229   9.777
39391SOL    HW218200   6.375  12.171   9.660
39392SOL     OW18201   5.996  11.985  10.561
39392SOL    HW118202   6.082  11.997  10.611
39392SOL    HW218203   5.954  11.898  10.588
39393SOL     OW18204   6.860  11.558  10.572
39393SOL    HW118205   6.881  11.632  10.636
39393SOL    HW218206   6.771  11.575  10.529
39394SOL     OW18207   5.953  12.272   9.811
39394SOL    HW118208   5.946  12.355   9.755
39394SOL    HW218209   5.957  12.192   9.751
39395SOL     OW18210   6.152  11.709  10.175
39395SOL    HW118211   6.164  11.775  10.101
39395SOL    HW218212   6.198  11.743  10.258
39396SOL     OW18213   6.838  12.520   9.698
39396SOL    HW118214   6.888  12.597   9.738
39396SOL    HW218215   6.743  12.522   9.730
39397SOL     OW18216   6.858  12.617  10.452
39397SOL    HW118217   6.905  12.630  10.539
39397SOL    HW218218   6.792  12.543  10.461
39398SOL     OW18219   7.168  11.811   9.782
39398SOL    HW118220   7.137  11.872   9.855
39398SOL    HW218221   7.218  11.863   9.713
39399SOL     OW18222   5.940  12.682  10.639
39399SOL    HW118223   5.919  12.638  10.552
39399SOL    HW218224   6.037  12.708  10.642
39400SOL     OW18225   5.988  11.923  10.908
39400SOL    HW118226   6.056  11.978  10.861
39400SOL    HW218227   6.028  11.835  10.935
39401SOL     OW18228   7.173  11.951  10.980
39401SOL    HW118229   7.081  11.989  10.975
39401SOL    HW218230   7.233  11.998  10.915
39402SOL     OW18231   6.599  11.277  11.080
39402SOL    HW118232   6.605  11.362  11.028
39402SOL    HW218233   6.631  11.201  11.023
39403SOL     OW18234   6.090  11.222  11.050
39403SOL    HW118235   6.048  11.165  10.980
39403SOL    HW218236   6.024  11.291  11.082
39404SOL     OW18237   6.159  12.042  10.339
39404SOL    HW118238   6.203  12.131  10.330
39404SOL    HW218239   6.096  12.042  10.416
39405SOL     OW18240   6.946  12.034  10.355
39405SOL    HW118241   6.871  12.034  10.289
39405SOL    HW218242   6.983  11.942  10.364
39406SOL     OW18243   6.795  11.697   9.585
39406SOL    HW118244   6.808  11.613   9.639
39406SOL    HW218245   6.766  11.771   9.645
39407SOL     OW18246   5.893  11.385  10.541
39407SOL    HW118247   5.870  11.422  10.631
39407SOL    HW218248   5.863  11.290  10.535
39408SOL     OW18249   5.623  12.482  10.592
39408SOL    HW118250   5.676  12.433  10.660
39408SOL    HW218251   5.645  12.580  10.597
39409SOL     OW18252   6.318  11.806  10.374
39409SOL    HW118253   6.377  11.780  10.298
39409SOL    HW218254   6.290  11.902  10.363
39410SOL     OW18255   7.314  12.107  11.164
39410SOL    HW118256   7.268  12.100  11.075
39410SOL    HW218257   7.252  12.151  11.230
39411SOL     OW18258   5.893  11.235   9.928
39411SOL    HW118259   5.882  11.329   9.961
39411SOL    HW218260   5.888  11.172  10.005
39412SOL     OW18261   7.208  11.539   9.684
39412SOL    HW118262   7.210  11.463   9.748
39412SOL    HW218263   7.160  11.616   9.724
39413SOL     OW18264   6.609  11.938  10.276
39413SOL    HW118265   6.624  11.959  10.372
39413SOL    HW218266   6.579  11.843  10.267
39414SOL     OW18267   7.445  12.690  10.915
39414SOL    HW118268   7.459  12.717  10.820
39414SOL    HW218269   7.528  12.712  10.968
39415SOL     OW18270   5.936  12.070  11.114
39415SOL    HW118271   6.012  12.114  11.162
39415SOL    HW218272   5.971  12.023  11.032
39416SOL     OW18273   7.126  11.446   9.435
39416SOL    HW118274   7.065  11.371   9.458
39416SOL    HW218275   7.148  11.498   9.518
39417SOL     OW18276   6.889  12.010   9.352
39417SOL    HW118277   6.923  11.917   9.367
39417SOL    HW218278   6.907  12.037   9.257
39418SOL     OW18279   6.654  12.505  10.159
39418SOL    HW118280   6.661  12.421  10.104
39418SOL    HW218281   6.716  12.574  10.123
39419SOL     OW18282   5.905  11.982  10.259
39419SOL    HW118283   5.998  12.018  10.264
39419SOL    HW218284   5.899  11.897  10.311
39420SOL     OW18285   5.925  11.681  10.316
39420SOL    HW118286   5.873  11.598  10.299
39420SOL    HW218287   6.002  11.686  10.252
39421SOL     OW18288   6.724  11.552  10.988
39421SOL    HW118289   6.679  11.615  11.052
39421SOL    HW218290   6.817  11.583  10.971
39422SOL     OW18291   6.746  11.379  10.787
39422SOL    HW118292   6.746  11.443  10.864
39422SOL    HW218293   6.774  11.427  10.704
39423SOL     OW18294   5.594  12.498   9.510
39423SOL    HW118295   5.501  12.519   9.479
39423SOL    HW218296   5.604  12.399   9.523
39424SOL     OW18297   6.588  11.968  10.548
39424SOL    HW118298   6.629  11.936  10.634
39424SOL    HW218299   6.492  11.941  10.545
39425SOL     OW18300   5.626  11.716  10.424
39425SOL    HW118301   5.711  11.683  10.383
39425SOL    HW218302   5.639  11.731  10.522
39426SOL     OW18303   5.775  11.692  11.032
39426SOL    HW118304   5.834  11.652  10.962
39426SOL    HW218305   5.717  11.763  10.991
39427SOL     OW18306   6.955  12.122  10.970
39427SOL    HW118307   6.994  12.211  10.990
39427SOL    HW218308   6.965  12.102  10.873
39428SOL     OW18309   6.401  11.744   9.635
39428SOL    HW118310   6.408  11.655   9.589
39428SOL    HW218311   6.307  11.778   9.627
39429SOL     OW18312   7.243  11.776  10.516
39429SOL    HW118313   7.205  11.707  10.578
39429SOL    HW218314   7.325  11.740  10.472
39430SOL     OW18315   5.838  12.736  11.054
39430SOL    HW118316   5.808  12.793  11.130
39430SOL    HW218317   5.831  12.639  11.080
39431SOL     OW18318   6.257  11.636  10.579
39431SOL    HW118319   6.223  11.547  10.549
39431SOL    HW218320   6.283  11.690  10.499
39432SOL     OW18321   6.059  11.672   9.501
39432SOL    HW118322   6.120  11.752   9.505
39432SOL    HW218323   5.964  11.703   9.508
39433SOL     OW18324   5.745  12.309  10.776
39433SOL    HW118325   5.767  12.248  10.852
39433SOL    HW218326   5.755  12.260  10.690
39434SOL     OW18327   6.933  12.231  10.544
39434SOL    HW118328   6.957  12.168  10.470
39434SOL    HW218329   6.843  12.271  10.526
39435SOL     OW18330   6.888  12.027   9.619
39435SOL    HW118331   6.802  11.996   9.661
39435SOL    HW218332   6.884  12.013   9.520
39436SOL     OW18333   5.669  12.430  10.332
39436SOL    HW118334   5.664  12.429  10.432
39436SOL    HW218335   5.586  12.389  10.294
39437SOL     OW18336   7.312  11.307   9.833
39437SOL    HW118337   7.385  11.290   9.766
39437SOL    HW218338   7.281  11.220   9.871
39438SOL     OW18339   6.866  12.099   9.982
39438SOL    HW118340   6.926  12.018   9.984
39438SOL    HW218341   6.906  12.168   9.922
39439SOL     OW18342   6.416  12.445  10.732
39439SOL    HW118343   6.411  12.478  10.827
39439SOL    HW218344   6.330  12.464  10.686
39440SOL     OW18345   7.427  11.347  10.273
39440SOL    HW118346   7.466  11.262  10.237
39440SOL    HW218347   7.329  11.349  10.254
39441SOL     OW18348   5.849  11.498  10.030
39441SOL    HW118349   5.770  11.549   9.996
39441SOL    HW218350   5.840  11.483  10.128
39442SOL     OW18351   6.408  12.174  10.682
39442SOL    HW118352   6.448  12.173  10.590
39442SOL    HW218353   6.418  12.266  10.722
39443SOL     OW18354   6.502  12.082   9.601
39443SOL    HW118355   6.565  12.120   9.533
39443SOL    HW218356   6.542  11.999   9.640
39444SOL     OW18357   5.958  12.460  10.800
39444SOL    HW118358   5.945  12.553  10.766
39444SOL    HW218359   5.874  12.408  10.787
39445SOL     OW18360   7.200  12.464  10.599
39445SOL    HW118361   7.260  12.467  10.679
39445SOL    HW218362   7.125  12.528  10.612
39446SOL     OW18363   6.625  12.270  10.006
39446SOL    HW118364   6.555  12.223  10.060
39446SOL    HW218365   6.684  12.202   9.963
39447SOL     OW18366   6.600  11.408  10.281
39447SOL    HW118367   6.592  11.372  10.188
39447SOL    HW218368   6.598  11.332  10.346
39448SOL     OW18369   7.295  11.557  10.691
39448SOL    HW118370   7.368  11.626  10.695
39448SOL    HW218371   7.323  11.482  10.632
39449SOL     OW18372   5.841  12.520   9.600
39449SOL    HW118373   5.745  12.521   9.573
39449SOL    HW218374   5.853  12.573   9.684
39450SOL     OW18375   5.691  12.185  11.036
39450SOL    HW118376   5.614  12.152  11.090
39450SOL    HW218377   5.776  12.155  11.078
39451SOL     OW18378   6.258  11.375  10.799
39451SOL    HW118379   6.348  11.359  10.759
39451SOL    HW218380   6.266  11.380  10.898
39452SOL     OW18381   5.661  11.517   9.343
39452SOL    HW118382   5.569  11.489   9.314
39452SOL    HW218383   5.692  11.594   9.287
39453SOL     OW18384   7.026  12.028  10.708
39453SOL    HW118385   6.969  12.080  10.645
39453SOL    HW218386   7.122  12.040  10.684
39454SOL     OW18387   5.658  11.338   9.628
39454SOL    HW118388   5.641  11.421   9.574
39454SOL    HW218389   5.748  11.301   9.606
39455SOL     OW18390   6.769  12.507   9.429
39455SOL    HW118391   6.670  12.496   9.431
39455SOL    HW218392   6.803  12.522   9.522
39456SOL     OW18393   6.199  12.014  10.741
39456SOL    HW118394   6.255  12.095  10.724
39456SOL    HW218395   6.258  11.934  10.744
39457SOL     OW18396   6.302  11.737  11.018
39457SOL    HW118397   6.321  11.802  11.092
39457SOL    HW218398   6.362  11.657  11.027
39458SOL     OW18399   7.036  12.392  10.943
39458SOL    HW118400   7.027  12.382  11.042
39458SOL    HW218401   7.132  12.385  10.917
39459SOL     OW18402   7.260  12.055  10.564
39459SOL    HW118403   7.233  11.966  10.527
39459SOL    HW218404   7.261  12.123  10.491
39460SOL     OW18405   6.811  11.497   9.759
39460SOL    HW118406   6.876  11.423   9.748
39460SOL    HW218407   6.831  11.547   9.843
39461SOL     OW18408   6.180  11.917   9.962
39461SOL    HW118409   6.230  12.002   9.943
39461SOL    HW218410   6.092  11.919   9.914
39462SOL     OW18411   7.363  11.514  10.952
39462SOL    HW118412   7.346  11.545  10.858
39462SOL    HW218413   7.279  11.477  10.990
39463SOL     OW18414   7.316  12.106  10.827
39463SOL    HW118415   7.354  12.197  10.842
39463SOL    HW218416   7.308  12.089  10.728
39464SOL     OW18417   6.445  12.546   9.326
39464SOL    HW118418   6.399  12.561   9.414
39464SOL    HW218419   6.489  12.631   9.296
39465SOL     OW18420   6.445  12.128  10.171
39465SOL    HW118421   6.499  12.059  10.219
39465SOL    HW218422   6.413  12.197  10.237
39466SOL     OW18423   6.669  12.156   9.397
39466SOL    HW118424   6.646  12.209   9.315
39466SOL    HW218425   6.750  12.100   9.378
39467SOL     OW18426   5.807  12.486  11.154
39467SOL    HW118427   5.742  12.413  11.133
39467SOL    HW218428   5.811  12.500  11.252
39468SOL     OW18429   5.665  12.412   9.963
39468SOL    HW118430   5.664  12.365  10.051
39468SOL    HW218431   5.747  12.384   9.912
39469SOL     OW18432   6.258  12.563  10.934
39469SOL    HW118433   6.180  12.513  10.972
39469SOL    HW218434   6.255  12.658  10.965
39470SOL     OW18435   7.410  11.364  10.537
39470SOL    HW118436   7.406  11.274  10.581
39470SOL    HW218437   7.413  11.353  10.438
39471SOL     OW18438   6.014  11.596   9.830
39471SOL    HW118439   6.044  11.524   9.768
39471SOL    HW218440   5.975  11.556   9.913
39472SOL     OW18441   7.291  12.659  10.414
39472SOL    HW118442   7.198  12.634  10.387
39472SOL    HW218443   7.317  12.609  10.496
39473SOL     OW18444   5.903  11.719  10.590
39473SOL    HW118445   5.941  11.660  10.662
39473SOL    HW218446   5.943  11.693  10.502
39474SOL     OW18447   7.010  11.386  10.422
39474SOL    HW118448   7.062  11.321  10.477
39474SOL    HW218449   6.961  11.449  10.483
39475SOL     OW18450   6.587  11.206  10.464
39475SOL    HW118451   6.524  11.134  10.433
39475SOL    HW218452   6.680  11.170  10.464
39476SOL     OW18453   6.356  12.502   9.611
39476SOL    HW118454   6.310  12.415   9.628
39476SOL    HW218455   6.447  12.499   9.652
39477SOL     OW18456   6.204  12.739  10.594
39477SOL    HW118457   6.199  12.821  10.651
39477SOL    HW218458   6.293  12.736  10.549
39478SOL     OW18459   6.938  11.224   9.478
39478SOL    HW118460   6.973  11.183   9.394
39478SOL    HW218461   6.848  11.186   9.498
39479SOL     OW18462   6.886  11.625  10.001
39479SOL    HW118463   6.827  11.705  10.005
39479SOL    HW218464   6.901  11.590  10.094
39480SOL     OW18465   7.179  11.393  10.192
39480SOL    HW118466   7.095  11.392  10.246
39480SOL    HW218467   7.181  11.476  10.136
39481SOL     OW18468   5.625  12.249   9.610
39481SOL    HW118469   5.724  12.238   9.601
39481SOL    HW218470   5.585  12.163   9.642
39482SOL     OW18471   5.816  11.800  11.285
39482SOL    HW118472   5.723  11.798  11.322
39482SOL    HW218473   5.817  11.761  11.193
39483SOL     OW18474   5.811  11.447  12.168
39483SOL    HW118475   5.846  11.430  12.260
39483SOL    HW218476   5.723  11.402  12.156
39484SOL     OW18477   5.605  11.540  11.819
39484SOL    HW118478   5.523  11.583  11.858
39484SOL    HW218479   5.577  11.467  11.756
39485SOL     OW18480   6.155  12.447  12.337
39485SOL    HW118481   6.062  12.440  12.300
39485SOL    HW218482   6.166  12.536  12.381
39486SOL     OW18483   7.141  12.683  11.875
39486SOL    HW118484   7.084  12.667  11.956
39486SOL    HW218485   7.082  12.693  11.795
39487SOL     OW18486   6.721  11.875  11.889
39487SOL    HW118487   6.778  11.953  11.864
39487SOL    HW218488   6.661  11.901  11.965
39488SOL     OW18489   7.341  11.779  11.403
39488SOL    HW118490   7.329  11.766  11.304
39488SOL    HW218491   7.311  11.698  11.452
39489SOL     OW18492   6.354  12.316  12.195
39489SOL    HW118493   6.276  12.333  12.255
39489SOL    HW218494   6.388  12.403  12.159
39490SOL     OW18495   6.271  12.184  11.837
39490SOL    HW118496   6.340  12.168  11.907
39490SOL    HW218497   6.198  12.241  11.875
39491SOL     OW18498   5.921  12.607  12.233
39491SOL    HW118499   5.843  12.576  12.180
39491SOL    HW218500   5.979  12.665  12.176
39492SOL     OW18501   7.046  12.677  12.511
39492SOL    HW118502   7.070  12.771  12.537
39492SOL    HW218503   7.030  12.623  12.593
39493SOL     OW18504   6.024  11.564  12.671
39493SOL    HW118505   6.106  11.508  12.680
39493SOL    HW218506   5.943  11.506  12.675
39494SOL     OW18507   7.189  11.619  11.909
39494SOL    HW118508   7.115  11.665  11.859
39494SOL    HW218509   7.240  11.687  11.962
39495SOL     OW18510   5.817  12.885  11.655
39495SOL    HW118511   5.851  12.962  11.709
39495SOL    HW218512   5.861  12.885  11.565
39496SOL     OW18513   5.816  12.606  11.710
39496SOL    HW118514   5.790  12.702  11.710
39496SOL    HW218515   5.745  12.552  11.755
39497SOL     OW18516   5.826  12.263  12.058
39497SOL    HW118517   5.840  12.179  12.110
39497SOL    HW218518   5.771  12.327  12.113
39498SOL     OW18519   6.192  12.136  11.295
39498SOL    HW118520   6.199  12.220  11.241
39498SOL    HW218521   6.238  12.149  11.383
39499SOL     OW18522   7.180  11.286  12.652
39499SOL    HW118523   7.162  11.353  12.580
39499SOL    HW218524   7.177  11.332  12.741
39500SOL     OW18525   5.708  11.815  11.735
39500SOL    HW118526   5.663  11.727  11.752
39500SOL    HW218527   5.707  11.869  11.819
39501SOL     OW18528   5.613  12.768  11.289
39501SOL    HW118529   5.594  12.672  11.310
39501SOL    HW218530   5.580  12.826  11.364
39502SOL     OW18531   7.275  12.094  11.784
39502SOL    HW118532   7.370  12.065  11.792
39502SOL    HW218533   7.267  12.159  11.709
39503SOL     OW18534   7.227  12.280  11.604
39503SOL    HW118535   7.313  12.282  11.552
39503SOL    HW218536   7.241  12.327  11.692
39504SOL     OW18537   6.199  12.537  11.898
39504SOL    HW118538   6.150  12.450  11.907
39504SOL    HW218539   6.176  12.580  11.811
39505SOL     OW18540   6.395  11.176  11.674
39505SOL    HW118541   6.435  11.267  11.665
39505SOL    HW218542   6.295  11.184  11.680
39506SOL     OW18543   5.783  12.148  12.436
39506SOL    HW118544   5.872  12.103  12.422
39506SOL    HW218545   5.710  12.083  12.417
39507SOL     OW18546   7.111  12.171  11.362
39507SOL    HW118547   7.048  12.095  11.375
39507SOL    HW218548   7.159  12.189  11.448
39508SOL     OW18549   5.903  11.423  12.973
39508SOL    HW118550   5.974  11.494  12.979
39508SOL    HW218551   5.815  11.462  13.001
39509SOL     OW18552   7.052  12.589  12.125
39509SOL    HW118553   6.993  12.595  12.205
39509SOL    HW218554   7.037  12.501  12.079
39510SOL     OW18555   6.184  11.901  11.442
39510SOL    HW118556   6.208  11.970  11.374
39510SOL    HW218557   6.106  11.934  11.496
39511SOL     OW18558   6.867  11.517  12.116
39511SOL    HW118559   6.781  11.467  12.103
39511SOL    HW218560   6.929  11.463  12.172
39512SOL     OW18561   6.393  11.777  12.637
39512SOL    HW118562   6.346  11.774  12.726
39512SOL    HW218563   6.342  11.722  12.571
39513SOL     OW18564   6.577  11.582  12.414
39513SOL    HW118565   6.500  11.616  12.468
39513SOL    HW218566   6.543  11.531  12.335
39514SOL     OW18567   6.627  11.873  11.601
39514SOL    HW118568   6.653  11.869  11.697
39514SOL    HW218569   6.542  11.822  11.587
39515SOL     OW18570   5.662  11.983  11.961
39515SOL    HW118571   5.761  11.971  11.970
39515SOL    HW218572   5.638  12.078  11.982
39516SOL     OW18573   6.451  11.520  11.367
39516SOL    HW118574   6.510  11.583  11.318
39516SOL    HW218575   6.470  11.426  11.338
39517SOL     OW18576   6.948  12.316  11.717
39517SOL    HW118577   7.031  12.287  11.669
39517SOL    HW218578   6.899  12.383  11.661
39518SOL     OW18579   6.136  11.368  12.057
39518SOL    HW118580   6.131  11.363  12.157
39518SOL    HW218581   6.138  11.464  12.028
39519SOL     OW18582   6.594  12.628  11.649
39519SOL    HW118583   6.548  12.700  11.597
39519SOL    HW218584   6.590  12.648  11.747
39520SOL     OW18585   7.381  12.238  12.045
39520SOL    HW118586   7.319  12.223  11.969
39520SOL    HW218587   7.329  12.249  12.130
39521SOL     OW18588   5.907  12.115  11.414
39521SOL    HW118589   5.989  12.154  11.372
39521SOL    HW218590   5.880  12.033  11.365
39522SOL     OW18591   7.044  11.907  11.900
39522SOL    HW118592   7.039  11.842  11.975
39522SOL    HW218593   7.124  11.966  11.913
39523SOL     OW18594   6.697  12.948  11.409
39523SOL    HW118595   6.637  12.886  11.459
39523SOL    HW218596   6.728  12.904  11.324
39524SOL     OW18597   5.788  11.457  12.670
39524SOL    HW118598   5.708  11.517  12.657
39524SOL    HW218599   5.778  11.408  12.756
39525SOL     OW18600   7.218  12.549  11.253
39525SOL    HW118601   7.186  12.643  11.243
39525SOL    HW218602   7.142  12.486  11.241
39526SOL     OW18603   6.986  11.279  11.598
39526SOL    HW118604   6.962  11.242  11.508
39526SOL    HW218605   7.085  11.295  11.602
39527SOL     OW18606   5.968  11.872  11.652
39527SOL    HW118607   6.013  11.782  11.649
39527SOL    HW218608   5.874  11.861  11.685
39528SOL     OW18609   6.200  11.294  11.289
39528SOL    HW118610   6.298  11.272  11.296
39528SOL    HW218611   6.169  11.277  11.196
39529SOL     OW18612   6.389  12.574  12.096
39529SOL    HW118613   6.479  12.588  12.054
39529SOL    HW218614   6.318  12.576  12.025
39530SOL     OW18615   6.508  11.675  12.071
39530SOL    HW118616   6.483  11.666  11.975
39530SOL    HW218617   6.556  11.593  12.102
39531SOL     OW18618   6.125  11.236  11.684
39531SOL    HW118619   6.044  11.237  11.742
39531SOL    HW218620   6.128  11.319  11.629
39532SOL     OW18621   7.020  12.360  11.213
39532SOL    HW118622   7.052  12.284  11.270
39532SOL    HW218623   6.928  12.387  11.243
39533SOL     OW18624   5.883  11.207  11.343
39533SOL    HW118625   5.932  11.291  11.322
39533SOL    HW218626   5.945  11.142  11.388
39534SOL     OW18627   6.521  11.408  11.652
39534SOL    HW118628   6.473  11.449  11.574
39534SOL    HW218629   6.620  11.406  11.633
39535SOL     OW18630   6.813  12.742  11.965
39535SOL    HW118631   6.834  12.816  11.900
39535SOL    HW218632   6.881  12.742  12.038
39536SOL     OW18633   6.045  12.324  11.913
39536SOL    HW118634   5.974  12.297  11.978
39536SOL    HW218635   6.019  12.296  11.820
39537SOL     OW18636   6.618  11.721  11.188
39537SOL    HW118637   6.577  11.803  11.149
39537SOL    HW218638   6.682  11.747  11.261
39538SOL     OW18639   5.664  11.728  12.558
39538SOL    HW118640   5.756  11.727  12.517
39538SOL    HW218641   5.658  11.802  12.625
39539SOL     OW18642   6.147  11.394  12.319
39539SOL    HW118643   6.185  11.310  12.356
39539SOL    HW218644   6.059  11.413  12.363
39540SOL     OW18645   6.452  11.626  11.814
39540SOL    HW118646   6.420  11.698  11.752
39540SOL    HW218647   6.476  11.545  11.761
39541SOL     OW18648   6.603  11.211  11.925
39541SOL    HW118649   6.531  11.216  11.856
39541SOL    HW218650   6.579  11.142  11.994
39542SOL     OW18651   7.015  12.345  12.039
39542SOL    HW118652   6.960  12.261  12.032
39542SOL    HW218653   7.041  12.374  11.947
39543SOL     OW18654   7.052  11.762  12.164
39543SOL    HW118655   7.022  11.667  12.171
39543SOL    HW218656   7.125  11.778  12.230
39544SOL     OW18657   7.443  12.005  11.549
39544SOL    HW118658   7.485  11.941  11.613
39544SOL    HW218659   7.405  11.954  11.471
39545SOL     OW18660   6.074  12.557  11.346
39545SOL    HW118661   5.987  12.542  11.393
39545SOL    HW218662   6.057  12.583  11.251
39546SOL     OW18663   7.250  12.452  11.829
39546SOL    HW118664   7.349  12.460  11.843
39546SOL    HW218665   7.205  12.536  11.860
39547SOL     OW18666   6.976  11.747  11.250
39547SOL    HW118667   6.922  11.726  11.331
39547SOL    HW218668   7.067  11.706  11.259
39548SOL     OW18669   6.113  11.428  11.500
39548SOL    HW118670   6.140  11.369  11.425
39548SOL    HW218671   6.113  11.523  11.469
39549SOL     OW18672   6.650  12.519  12.512
39549SOL    HW118673   6.570  12.496  12.567
39549SOL    HW218674   6.733  12.493  12.561
39550SOL     OW18675   6.697  12.367  12.272
39550SOL    HW118676   6.657  12.411  12.353
39550SOL    HW218677   6.656  12.404  12.189
39551SOL     OW18678   7.224  12.271  12.251
39551SOL    HW118679   7.229  12.352  12.310
39551SOL    HW218680   7.138  12.273  12.200
39552SOL     OW18681   6.501  11.261  12.574
39552SOL    HW118682   6.526  11.241  12.479
39552SOL    HW218683   6.573  11.317  12.616
39553SOL     OW18684   6.291  12.222  11.540
39553SOL    HW118685   6.277  12.229  11.639
39553SOL    HW218686   6.375  12.171  11.522
39554SOL     OW18687   5.996  11.985  12.423
39554SOL    HW118688   6.082  11.997  12.473
39554SOL    HW218689   5.954  11.898  12.450
39555SOL     OW18690   6.860  11.558  12.434
39555SOL    HW118691   6.881  11.632  12.498
39555SOL    HW218692   6.771  11.575  12.391
39556SOL     OW18693   5.953  12.272  11.673
39556SOL    HW118694   5.946  12.355  11.617
39556SOL    HW218695   5.957  12.192  11.613
39557SOL     OW18696   6.152  11.709  12.037
39557SOL    HW118697   6.164  11.775  11.963
39557SOL    HW218698   6.198  11.743  12.120
39558SOL     OW18699   6.838  12.520  11.560
39558SOL    HW118700   6.888  12.597  11.600
39558SOL    HW218701   6.743  12.522  11.592
39559SOL     OW18702   6.858  12.617  12.314
39559SOL    HW118703   6.905  12.630  12.401
39559SOL    HW218704   6.792  12.543  12.323
39560SOL     OW18705   7.168  11.811  11.644
39560SOL    HW118706   7.137  11.872  11.717
39560SOL    HW218707   7.218  11.863  11.575
39561SOL     OW18708   5.940  12.682  12.501
39561SOL    HW118709   5.919  12.638  12.414
39561SOL    HW218710   6.037  12.708  12.504
39562SOL     OW18711   5.988  11.923  12.770
39562SOL    HW118712   6.056  11.978  12.723
39562SOL    HW218713   6.028  11.835  12.797
39563SOL     OW18714   7.173  11.951  12.842
39563SOL    HW118715   7.081  11.989  12.837
39563SOL    HW218716   7.233  11.998  12.777
39564SOL     OW18717   6.159  12.042  12.201
39564SOL    HW118718   6.203  12.131  12.192
39564SOL    HW218719   6.096  12.042  12.278
39565SOL     OW18720   6.946  12.034  12.217
39565SOL    HW118721   6.871  12.034  12.151
39565SOL    HW218722   6.983  11.942  12.226
39566SOL     OW18723   6.795  11.697  11.447
39566SOL    HW118724   6.808  11.613  11.501
39566SOL    HW218725   6.766  11.771  11.507
39567SOL     OW18726   5.893  11.385  12.403
39567SOL    HW118727   5.870  11.422  12.493
39567SOL    HW218728   5.863  11.290  12.397
39568SOL     OW18729   5.623  12.482  12.454
39568SOL    HW118730   5.676  12.433  12.522
39568SOL    HW218731   5.645  12.580  12.459
39569SOL     OW18732   6.318  11.806  12.236
39569SOL    HW118733   6.377  11.780  12.160
39569SOL    HW218734   6.290  11.902  12.225
39570SOL     OW18735   5.893  11.235  11.790
39570SOL    HW118736   5.882  11.329  11.823
39570SOL    HW218737   5.888  11.172  11.867
39571SOL     OW18738   7.208  11.539  11.546
39571SOL    HW118739   7.210  11.463  11.610
39571SOL    HW218740   7.160  11.616  11.586
39572SOL     OW18741   6.609  11.938  12.138
39572SOL    HW118742   6.624  11.959  12.234
39572SOL    HW218743   6.579  11.843  12.129
39573SOL     OW18744   7.126  11.446  11.297
39573SOL    HW118745   7.065  11.371  11.320
39573SOL    HW218746   7.148  11.498  11.380
39574SOL     OW18747   6.889  12.010  11.214
39574SOL    HW118748   6.923  11.917  11.229
39574SOL    HW218749   6.907  12.037  11.119
39575SOL     OW18750   6.654  12.505  12.021
39575SOL    HW118751   6.661  12.421  11.966
39575SOL    HW218752   6.716  12.574  11.985
39576SOL     OW18753   5.905  11.982  12.121
39576SOL    HW118754   5.998  12.018  12.126
39576SOL    HW218755   5.899  11.897  12.173
39577SOL     OW18756   5.925  11.681  12.178
39577SOL    HW118757   5.873  11.598  12.161
39577SOL    HW218758   6.002  11.686  12.114
39578SOL     OW18759   6.724  11.552  12.850
39578SOL    HW118760   6.679  11.615  12.914
39578SOL    HW218761   6.817  11.583  12.833
39579SOL     OW18762   6.746  11.379  12.649
39579SOL    HW118763   6.746  11.443  12.726
39579SOL    HW218764   6.774  11.427  12.566
39580SOL     OW18765   5.594  12.498  11.372
39580SOL    HW118766   5.501  12.519  11.341
39580SOL    HW218767   5.604  12.399  11.385
39581SOL     OW18768   6.588  11.968  12.410
39581SOL    HW118769   6.629  11.936  12.496
39581SOL    HW218770   6.492  11.941  12.407
39582SOL     OW18771   5.626  11.716  12.286
39582SOL    HW118772   5.711  11.683  12.245
39582SOL    HW218773   5.639  11.731  12.384
39583SOL     OW18774   6.401  11.744  11.497
39583SOL    HW118775   6.408  11.655  11.451
39583SOL    HW218776   6.307  11.778  11.489
39584SOL     OW18777   7.243  11.776  12.378
39584SOL    HW118778   7.205  11.707  12.440
39584SOL    HW218779   7.325  11.740  12.334
39585SOL     OW18780   6.257  11.636  12.441
39585SOL    HW118781   6.223  11.547  12.411
39585SOL    HW218782   6.283  11.690  12.361
39586SOL     OW18783   6.059  11.672  11.363
39586SOL    HW118784   6.120  11.752  11.367
39586SOL    HW218785   5.964  11.703  11.370
39587SOL     OW18786   5.745  12.309  12.638
39587SOL    HW118787   5.767  12.248  12.714
39587SOL    HW218788   5.755  12.260  12.552
39588SOL     OW18789   6.933  12.231  12.406
39588SOL    HW118790   6.957  12.168  12.332
39588SOL    HW218791   6.843  12.271  12.388
39589SOL     OW18792   6.888  12.027  11.481
39589SOL    HW118793   6.802  11.996  11.523
39589SOL    HW218794   6.884  12.013  11.382
39590SOL     OW18795   5.669  12.430  12.194
39590SOL    HW118796   5.664  12.429  12.294
39590SOL    HW218797   5.586  12.389  12.156
39591SOL     OW18798   7.312  11.307  11.695
39591SOL    HW118799   7.385  11.290  11.628
39591SOL    HW218800   7.281  11.220  11.733
39592SOL     OW18801   6.866  12.099  11.844
39592SOL    HW118802   6.926  12.018  11.846
39592SOL    HW218803   6.906  12.168  11.784
39593SOL     OW18804   7.427  11.347  12.135
39593SOL    HW118805   7.466  11.262  12.099
39593SOL    HW218806   7.329  11.349  12.116
39594SOL     OW18807   5.849  11.498  11.892
39594SOL    HW118808   5.770  11.549  11.858
39594SOL    HW218809   5.840  11.483  11.990
39595SOL     OW18810   6.408  12.174  12.544
39595SOL    HW118811   6.448  12.173  12.452
39595SOL    HW218812   6.418  12.266  12.584
39596SOL     OW18813   6.502  12.082  11.463
39596SOL    HW118814   6.565  12.120  11.395
39596SOL    HW218815   6.542  11.999  11.502
39597SOL     OW18816   5.958  12.460  12.662
39597SOL    HW118817   5.945  12.553  12.628
39597SOL    HW218818   5.874  12.408  12.649
39598SOL     OW18819   7.200  12.464  12.461
39598SOL    HW118820   7.260  12.467  12.541
39598SOL    HW218821   7.125  12.528  12.474
39599SOL     OW18822   6.625  12.270  11.868
39599SOL    HW118823   6.555  12.223  11.922
39599SOL    HW218824   6.684  12.202  11.825
39600SOL     OW18825   6.600  11.408  12.143
39600SOL    HW118826   6.592  11.372  12.050
39600SOL    HW218827   6.598  11.332  12.208
39601SOL     OW18828   7.295  11.557  12.553
39601SOL    HW118829   7.368  11.626  12.557
39601SOL    HW218830   7.323  11.482  12.494
39602SOL     OW18831   5.841  12.520  11.462
39602SOL    HW118832   5.745  12.521  11.435
39602SOL    HW218833   5.853  12.573  11.546
39603SOL     OW18834   5.661  11.517  11.205
39603SOL    HW118835   5.569  11.489  11.176
39603SOL    HW218836   5.692  11.594  11.149
39604SOL     OW18837   7.026  12.028  12.570
39604SOL    HW118838   6.969  12.080  12.507
39604SOL    HW218839   7.122  12.040  12.546
39605SOL     OW18840   5.658  11.338  11.490
39605SOL    HW118841   5.641  11.421  11.436
39605SOL    HW218842   5.748  11.301  11.468
39606SOL     OW18843   6.769  12.507  11.291
39606SOL    HW118844   6.670  12.496  11.293
39606SOL    HW218845   6.803  12.522  11.384
39607SOL     OW18846   6.199  12.014  12.603
39607SOL    HW118847   6.255  12.095  12.586
39607SOL    HW218848   6.258  11.934  12.606
39608SOL     OW18849   7.260  12.055  12.426
39608SOL    HW118850   7.233  11.966  12.389
39608SOL    HW218851   7.261  12.123  12.353
39609SOL     OW18852   6.811  11.497  11.621
39609SOL    HW118853   6.876  11.423  11.610
39609SOL    HW218854   6.831  11.547  11.705
39610SOL     OW18855   6.180  11.917  11.824
39610SOL    HW118856   6.230  12.002  11.805
39610SOL    HW218857   6.092  11.919  11.776
39611SOL     OW18858   7.363  11.514  12.814
39611SOL    HW118859   7.346  11.545  12.720
39611SOL    HW218860   7.279  11.477  12.852
39612SOL     OW18861   7.316  12.106  12.689
39612SOL    HW118862   7.354  12.197  12.704
39612SOL    HW218863   7.308  12.089  12.590
39613SOL     OW18864   6.445  12.546  11.188
39613SOL    HW118865   6.399  12.561  11.276
39613SOL    HW218866   6.489  12.631  11.158
39614SOL     OW18867   6.445  12.128  12.033
39614SOL    HW118868   6.499  12.059  12.081
39614SOL    HW218869   6.413  12.197  12.099
39615SOL     OW18870   6.669  12.156  11.259
39615SOL    HW118871   6.646  12.209  11.177
39615SOL    HW218872   6.750  12.100  11.240
39616SOL     OW18873   5.665  12.412  11.825
39616SOL    HW118874   5.664  12.365  11.913
39616SOL    HW218875   5.747  12.384  11.774
39617SOL     OW18876   7.410  11.364  12.399
39617SOL    HW118877   7.406  11.274  12.443
39617SOL    HW218878   7.413  11.353  12.300
39618SOL     OW18879   6.014  11.596  11.692
39618SOL    HW118880   6.044  11.524  11.630
39618SOL    HW218881   5.975  11.556  11.775
39619SOL     OW18882   7.291  12.659  12.276
39619SOL    HW118883   7.198  12.634  12.249
39619SOL    HW218884   7.317  12.609  12.358
39620SOL     OW18885   5.903  11.719  12.452
39620SOL    HW118886   5.941  11.660  12.524
39620SOL    HW218887   5.943  11.693  12.364
39621SOL     OW18888   7.010  11.386  12.284
39621SOL    HW118889   7.062  11.321  12.339
39621SOL    HW218890   6.961  11.449  12.345
39622SOL     OW18891   6.587  11.206  12.326
39622SOL    HW118892   6.524  11.134  12.295
39622SOL    HW218893   6.680  11.170  12.326
39623SOL     OW18894   6.356  12.502  11.473
39623SOL    HW118895   6.310  12.415  11.490
39623SOL    HW218896   6.447  12.499  11.514
39624SOL     OW18897   6.204  12.739  12.456
39624SOL    HW118898   6.199  12.821  12.513
39624SOL    HW218899   6.293  12.736  12.411
39625SOL     OW18900   6.938  11.224  11.340
39625SOL    HW118901   6.973  11.183  11.256
39625SOL    HW218902   6.848  11.186  11.360
39626SOL     OW18903   6.886  11.625  11.863
39626SOL    HW118904   6.827  11.705  11.867
39626SOL    HW218905   6.901  11.590  11.956
39627SOL     OW18906   7.179  11.393  12.054
39627SOL    HW118907   7.095  11.392  12.108
39627SOL    HW218908   7.181  11.476  11.998
39628SOL     OW18909   5.625  12.249  11.472
39628SOL    HW118910   5.724  12.238  11.463
39628SOL    HW218911   5.585  12.163  11.504
39629SOL     OW18912   7.678   0.628   0.113
39629SOL    HW118913   7.585   0.626   0.150
39629SOL    HW218914   7.679   0.589   0.021
39630SOL     OW18915   7.673   0.275   0.996
39630SOL    HW118916   7.708   0.258   1.088
39630SOL    HW218917   7.585   0.230   0.984
39631SOL     OW18918   7.467   0.368   0.647
39631SOL    HW118919   7.385   0.411   0.686
39631SOL    HW218920   7.439   0.295   0.584
39632SOL     OW18921   8.017   1.275   1.165
39632SOL    HW118922   7.924   1.268   1.128
39632SOL    HW218923   8.028   1.364   1.209
39633SOL     OW18924   9.003   1.511   0.703
39633SOL    HW118925   8.946   1.495   0.784
39633SOL    HW218926   8.944   1.521   0.623
39634SOL     OW18927   8.583   0.703   0.717
39634SOL    HW118928   8.640   0.781   0.692
39634SOL    HW218929   8.523   0.729   0.793
39635SOL     OW18930   9.203   0.607   0.231
39635SOL    HW118931   9.191   0.594   0.132
39635SOL    HW218932   9.173   0.526   0.280
39636SOL     OW18933   8.216   1.144   1.023
39636SOL    HW118934   8.138   1.161   1.083
39636SOL    HW218935   8.250   1.231   0.987
39637SOL     OW18936   8.298   0.798   1.823
39637SOL    HW118937   8.294   0.874   1.888
39637SOL    HW218938   8.320   0.834   1.732
39638SOL     OW18939   8.133   1.012   0.665
39638SOL    HW118940   8.202   0.996   0.735
39638SOL    HW218941   8.060   1.069   0.703
39639SOL     OW18942   8.134   1.161   1.803
39639SOL    HW118943   8.194   1.240   1.817
39639SOL    HW218944   8.048   1.192   1.762
39640SOL     OW18945   7.783   1.435   1.061
39640SOL    HW118946   7.705   1.404   1.008
39640SOL    HW218947   7.841   1.493   1.004
39641SOL     OW18948   8.908   1.505   1.339
39641SOL    HW118949   8.932   1.599   1.365
39641SOL    HW218950   8.892   1.451   1.421
39642SOL     OW18951   7.886   0.392   1.499
39642SOL    HW118952   7.968   0.336   1.508
39642SOL    HW218953   7.805   0.334   1.503
39643SOL     OW18954   9.051   0.447   0.737
39643SOL    HW118955   8.977   0.493   0.687
39643SOL    HW218956   9.102   0.515   0.790
39644SOL     OW18957   7.679   1.713   0.483
39644SOL    HW118958   7.713   1.790   0.537
39644SOL    HW218959   7.723   1.713   0.393
39645SOL     OW18960   8.575   1.341   1.690
39645SOL    HW118961   8.622   1.341   1.778
39645SOL    HW218962   8.527   1.254   1.679
39646SOL     OW18963   7.678   1.434   0.538
39646SOL    HW118964   7.652   1.530   0.538
39646SOL    HW218965   7.607   1.380   0.583
39647SOL     OW18966   7.688   1.091   0.886
39647SOL    HW118967   7.702   1.007   0.938
39647SOL    HW218968   7.633   1.155   0.941
39648SOL     OW18969   8.068   1.786   1.439
39648SOL    HW118970   7.976   1.769   1.474
39648SOL    HW218971   8.096   1.878   1.465
39649SOL     OW18972   8.054   0.964   0.123
39649SOL    HW118973   8.061   1.048   0.069
39649SOL    HW218974   8.100   0.977   0.211
39650SOL     OW18975   9.042   0.114   1.480
39650SOL    HW118976   9.024   0.181   1.408
39650SOL    HW218977   9.039   0.160   1.569
39651SOL     OW18978   7.570   0.643   0.563
39651SOL    HW118979   7.525   0.555   0.580
39651SOL    HW218980   7.569   0.697   0.647
39652SOL     OW18981   9.290   1.767   0.359
39652SOL    HW118982   9.344   1.738   0.439
39652SOL    HW218983   9.320   1.857   0.330
39653SOL     OW18984   7.475   1.596   0.117
39653SOL    HW118985   7.456   1.500   0.138
39653SOL    HW218986   7.442   1.654   0.192
39654SOL     OW18987   9.137   0.922   0.612
39654SOL    HW118988   9.232   0.893   0.620
39654SOL    HW218989   9.129   0.987   0.537
39655SOL     OW18990   9.089   1.108   0.432
39655SOL    HW118991   9.175   1.110   0.380
39655SOL    HW218992   9.103   1.155   0.520
39656SOL     OW18993   7.561   0.737   1.597
39656SOL    HW118994   7.649   0.724   1.642
39656SOL    HW218995   7.548   0.834   1.575
39657SOL     OW18996   8.061   1.365   0.726
39657SOL    HW118997   8.012   1.278   0.735
39657SOL    HW218998   8.038   1.408   0.639
39658SOL     OW18999   8.741   1.228   1.423
39658SOL    HW119000   8.778   1.155   1.365
39658SOL    HW219001   8.793   1.233   1.508
39659SOL     OW19002   8.257   0.004   0.502
39659SOL    HW119003   8.297   0.095   0.493
39659SOL    HW219004   8.157   0.012   0.508
39660SOL     OW19005   7.645   0.976   1.264
39660SOL    HW119006   7.734   0.931   1.250
39660SOL    HW219007   7.572   0.911   1.245
39661SOL     OW19008   8.973   0.999   0.190
39661SOL    HW119009   8.910   0.923   0.203
39661SOL    HW219010   9.021   1.017   0.276
39662SOL     OW19011   8.635   1.792   1.616
39662SOL    HW119012   8.659   1.852   1.540
39662SOL    HW219013   8.642   1.697   1.586
39663SOL     OW19014   7.765   0.251   1.801
39663SOL    HW119015   7.836   0.322   1.807
39663SOL    HW219016   7.677   0.290   1.829
39664SOL     OW19017   8.914   1.417   0.953
39664SOL    HW119018   8.855   1.423   1.033
39664SOL    HW219019   8.899   1.329   0.907
39665SOL     OW19020   9.115   1.714   0.572
39665SOL    HW119021   9.074   1.691   0.484
39665SOL    HW219022   9.097   1.640   0.637
39666SOL     OW19023   8.046   0.729   0.270
39666SOL    HW119024   8.070   0.798   0.202
39666SOL    HW219025   7.968   0.762   0.324
39667SOL     OW19026   8.729   0.345   0.944
39667SOL    HW119027   8.643   0.295   0.931
39667SOL    HW219028   8.791   0.291   1.000
39668SOL     OW19029   9.024   1.662   0.307
39668SOL    HW119030   9.113   1.708   0.310
39668SOL    HW219031   9.003   1.638   0.212
39669SOL     OW19032   8.255   0.605   1.465
39669SOL    HW119033   8.208   0.602   1.554
39669SOL    HW219034   8.204   0.550   1.399
39670SOL     OW19035   8.842   0.469   1.674
39670SOL    HW119036   8.822   0.512   1.762
39670SOL    HW219037   8.920   0.407   1.683
39671SOL     OW19038   8.421   0.890   1.572
39671SOL    HW119039   8.467   0.806   1.543
39671SOL    HW219040   8.365   0.924   1.497
39672SOL     OW19041   8.439   0.410   1.242
39672SOL    HW119042   8.362   0.444   1.296
39672SOL    HW219043   8.405   0.359   1.163
39673SOL     OW19044   8.489   0.701   0.429
39673SOL    HW119045   8.515   0.697   0.525
39673SOL    HW219046   8.404   0.650   0.415
39674SOL     OW19047   7.524   0.811   0.789
39674SOL    HW119048   7.623   0.799   0.798
39674SOL    HW219049   7.500   0.906   0.810
39675SOL     OW19050   7.578   1.821   1.571
39675SOL    HW119051   7.568   1.806   1.670
39675SOL    HW219052   7.492   1.857   1.535
39676SOL     OW19053   8.313   0.348   0.195
39676SOL    HW119054   8.372   0.411   0.146
39676SOL    HW219055   8.332   0.254   0.166
39677SOL     OW19056   9.167   0.585   1.831
39677SOL    HW119057   9.141   0.674   1.795
39677SOL    HW219058   9.165   0.517   1.758
39678SOL     OW19059   8.810   1.144   0.545
39678SOL    HW119060   8.893   1.115   0.497
39678SOL    HW219061   8.761   1.211   0.489
39679SOL     OW19062   7.998   0.196   0.885
39679SOL    HW119063   7.993   0.191   0.985
39679SOL    HW219064   8.000   0.292   0.856
39680SOL     OW19065   8.456   1.456   0.477
39680SOL    HW119066   8.410   1.528   0.425
39680SOL    HW219067   8.452   1.476   0.575
39681SOL     OW19068   7.799   1.801   0.853
39681SOL    HW119069   7.849   1.715   0.859
39681SOL    HW219070   7.864   1.878   0.850
39682SOL     OW19071   9.243   1.066   0.873
39682SOL    HW119072   9.181   1.051   0.797
39682SOL    HW219073   9.191   1.077   0.958
39683SOL     OW19074   8.675   1.550   1.506
39683SOL    HW119075   8.681   1.473   1.570
39683SOL    HW219076   8.623   1.524   1.426
39684SOL     OW19077   7.769   0.943   0.242
39684SOL    HW119078   7.851   0.982   0.200
39684SOL    HW219079   7.742   0.861   0.193
39685SOL     OW19080   8.906   0.735   0.728
39685SOL    HW119081   8.901   0.670   0.803
39685SOL    HW219082   8.986   0.794   0.741
39686SOL     OW19083   7.909   1.266   1.727
39686SOL    HW119084   7.859   1.267   1.641
39686SOL    HW219085   7.846   1.248   1.803
39687SOL     OW19086   8.559   1.776   0.237
39687SOL    HW119087   8.499   1.714   0.287
39687SOL    HW219088   8.590   1.732   0.152
39688SOL     OW19089   7.650   0.285   1.498
39688SOL    HW119090   7.570   0.345   1.485
39688SOL    HW219091   7.640   0.236   1.584
39689SOL     OW19092   9.080   1.377   0.081
39689SOL    HW119093   9.048   1.471   0.071
39689SOL    HW219094   9.004   1.314   0.069
39690SOL     OW19095   7.912   1.743   0.323
39690SOL    HW119096   7.945   1.782   0.409
39690SOL    HW219097   7.988   1.736   0.258
39691SOL     OW19098   8.848   0.107   0.426
39691SOL    HW119099   8.824   0.070   0.336
39691SOL    HW219100   8.947   0.123   0.430
39692SOL     OW19101   7.697   1.785   1.241
39692SOL    HW119102   7.754   1.720   1.291
39692SOL    HW219103   7.681   1.752   1.148
39693SOL     OW19104   8.388   1.698   0.904
39693SOL    HW119105   8.468   1.641   0.925
39693SOL    HW219106   8.339   1.658   0.827
39694SOL     OW19107   7.830   0.700   0.480
39694SOL    HW119108   7.875   0.610   0.477
39694SOL    HW219109   7.736   0.689   0.513
39695SOL     OW19110   8.995   0.222   1.729
39695SOL    HW119111   8.990   0.259   1.821
39695SOL    HW219112   8.923   0.153   1.717
39696SOL     OW19113   8.062   0.122   0.117
39696SOL    HW119114   8.160   0.100   0.124
39696SOL    HW219115   8.031   0.105   0.024
39697SOL     OW19116   8.229   0.264   1.749
39697SOL    HW119117   8.296   0.203   1.792
39697SOL    HW219118   8.156   0.283   1.814
39698SOL     OW19119   8.336   1.514   1.195
39698SOL    HW119120   8.313   1.489   1.101
39698SOL    HW219121   8.397   1.445   1.234
39699SOL     OW19122   8.799   0.590   1.433
39699SOL    HW119123   8.827   0.547   1.518
39699SOL    HW219124   8.824   0.686   1.434
39700SOL     OW19125   8.251   1.402   0.924
39700SOL    HW119126   8.341   1.416   0.882
39700SOL    HW219127   8.180   1.404   0.853
39701SOL     OW19128   8.370   0.503   0.899
39701SOL    HW119129   8.345   0.494   0.803
39701SOL    HW219130   8.418   0.421   0.930
39702SOL     OW19131   7.987   0.064   0.512
39702SOL    HW119132   7.906   0.065   0.570
39702SOL    HW219133   7.990   0.147   0.457
39703SOL     OW19134   8.882   1.188   0.041
39703SOL    HW119135   8.914   1.112   0.098
39703SOL    HW219136   8.790   1.215   0.071
39704SOL     OW19137   7.745   0.035   0.171
39704SOL    HW119138   7.794   0.119   0.150
39704SOL    HW219139   7.807  -0.030   0.216
39705SOL     OW19140   8.383   0.236   0.480
39705SOL    HW119141   8.335   0.277   0.402
39705SOL    HW219142   8.482   0.234   0.461
39706SOL     OW19143   8.524   0.683   1.464
39706SOL    HW119144   8.444   0.622   1.467
39706SOL    HW219145   8.605   0.630   1.440
39707SOL     OW19146   8.675   1.570   0.793
39707SOL    HW119147   8.696   1.644   0.728
39707SOL    HW219148   8.743   1.570   0.866
39708SOL     OW19149   7.907   1.152   0.741
39708SOL    HW119150   7.836   1.125   0.806
39708SOL    HW219151   7.881   1.124   0.648
39709SOL     OW19152   8.719   1.797   0.591
39709SOL    HW119153   8.763   1.861   0.527
39709SOL    HW219154   8.669   1.849   0.661
39710SOL     OW19155   8.480   0.549   0.016
39710SOL    HW119156   8.439   0.631  -0.023
39710SOL    HW219157   8.544   0.575   0.089
39711SOL     OW19158   7.526   0.556   1.386
39711SOL    HW119159   7.618   0.555   1.345
39711SOL    HW219160   7.520   0.630   1.453
39712SOL     OW19161   8.009   0.222   1.147
39712SOL    HW119162   8.047   0.138   1.184
39712SOL    HW219163   7.921   0.241   1.191
39713SOL     OW19164   8.314   0.454   0.642
39713SOL    HW119165   8.282   0.526   0.580
39713SOL    HW219166   8.338   0.373   0.589
39714SOL     OW19167   8.465   0.039   0.753
39714SOL    HW119168   8.393   0.044   0.684
39714SOL    HW219169   8.441  -0.030   0.822
39715SOL     OW19170   8.877   1.173   0.867
39715SOL    HW119171   8.822   1.089   0.860
39715SOL    HW219172   8.903   1.202   0.775
39716SOL     OW19173   8.914   0.590   0.992
39716SOL    HW119174   8.884   0.495   0.999
39716SOL    HW219175   8.987   0.606   1.058
39717SOL     OW19176   9.305   0.833   0.377
39717SOL    HW119177   9.347   0.769   0.441
39717SOL    HW219178   9.267   0.782   0.299
39718SOL     OW19179   7.936   1.385   0.174
39718SOL    HW119180   7.849   1.370   0.221
39718SOL    HW219181   7.919   1.411   0.079
39719SOL     OW19182   9.112   1.280   0.657
39719SOL    HW119183   9.211   1.288   0.671
39719SOL    HW219184   9.067   1.364   0.688
39720SOL     OW19185   8.838   0.575   0.078
39720SOL    HW119186   8.784   0.554   0.159
39720SOL    HW219187   8.929   0.534   0.087
39721SOL     OW19188   7.975   0.256   0.328
39721SOL    HW119189   8.002   0.197   0.253
39721SOL    HW219190   7.975   0.351   0.297
39722SOL     OW19191   9.202   1.223   1.588
39722SOL    HW119192   9.293   1.184   1.575
39722SOL    HW219193   9.210   1.319   1.612
39723SOL     OW19194   8.512   1.347   1.340
39723SOL    HW119195   8.432   1.324   1.395
39723SOL    HW219196   8.595   1.321   1.389
39724SOL     OW19197   9.040   1.629   1.625
39724SOL    HW119198   9.067   1.663   1.535
39724SOL    HW219199   9.119   1.591   1.671
39725SOL     OW19200   8.559   1.195   1.100
39725SOL    HW119201   8.519   1.239   1.181
39725SOL    HW219202   8.518   1.232   1.017
39726SOL     OW19203   9.086   1.099   1.079
39726SOL    HW119204   9.091   1.180   1.138
39726SOL    HW219205   9.000   1.101   1.028
39727SOL     OW19206   8.363   0.089   1.402
39727SOL    HW119207   8.388   0.069   1.307
39727SOL    HW219208   8.435   0.145   1.444
39728SOL     OW19209   8.428   1.116   1.719
39728SOL    HW119210   8.329   1.122   1.729
39728SOL    HW219211   8.451   1.036   1.663
39729SOL     OW19212   8.153   1.050   0.368
39729SOL    HW119213   8.139   1.057   0.467
39729SOL    HW219214   8.237   0.999   0.350
39730SOL     OW19215   7.858   0.813   1.251
39730SOL    HW119216   7.944   0.825   1.301
39730SOL    HW219217   7.816   0.726   1.278
39731SOL     OW19218   8.722   0.386   1.262
39731SOL    HW119219   8.743   0.460   1.326
39731SOL    HW219220   8.633   0.403   1.219
39732SOL     OW19221   7.512   1.564   1.331
39732SOL    HW119222   7.466   1.646   1.297
39732SOL    HW219223   7.610   1.583   1.340
39733SOL     OW19224   7.815   1.100   0.501
39733SOL    HW119225   7.808   1.183   0.445
39733SOL    HW219226   7.819   1.020   0.441
39734SOL     OW19227   8.014   0.537   0.865
39734SOL    HW119228   8.026   0.603   0.791
39734SOL    HW219229   8.060   0.571   0.948
39735SOL     OW19230   8.700   1.348   0.388
39735SOL    HW119231   8.750   1.425   0.428
39735SOL    HW219232   8.605   1.350   0.420
39736SOL     OW19233   8.720   1.445   1.142
39736SOL    HW119234   8.767   1.458   1.229
39736SOL    HW219235   8.654   1.371   1.151
39737SOL     OW19236   9.030   0.639   0.472
39737SOL    HW119237   8.999   0.700   0.545
39737SOL    HW219238   9.080   0.691   0.403
39738SOL     OW19239   7.802   1.510   1.329
39738SOL    HW119240   7.781   1.466   1.242
39738SOL    HW219241   7.899   1.536   1.332
39739SOL     OW19242   7.850   0.751   1.598
39739SOL    HW119243   7.918   0.806   1.551
39739SOL    HW219244   7.890   0.663   1.625
39740SOL     OW19245   9.035   0.779   1.670
39740SOL    HW119246   8.943   0.817   1.665
39740SOL    HW219247   9.095   0.826   1.605
39741SOL     OW19248   8.461   0.105   1.770
39741SOL    HW119249   8.467   0.190   1.718
39741SOL    HW219250   8.493   0.029   1.713
39742SOL     OW19251   7.952   0.050   1.740
39742SOL    HW119252   7.910  -0.007   1.670
39742SOL    HW219253   7.886   0.119   1.772
39743SOL     OW19254   8.021   0.870   1.029
39743SOL    HW119255   8.065   0.959   1.020
39743SOL    HW219256   7.958   0.870   1.106
39744SOL     OW19257   8.808   0.862   1.045
39744SOL    HW119258   8.733   0.862   0.979
39744SOL    HW219259   8.845   0.770   1.054
39745SOL     OW19260   8.657   0.525   0.275
39745SOL    HW119261   8.670   0.441   0.329
39745SOL    HW219262   8.628   0.599   0.335
39746SOL     OW19263   7.755   0.213   1.231
39746SOL    HW119264   7.732   0.250   1.321
39746SOL    HW219265   7.725   0.118   1.225
39747SOL     OW19266   7.485   1.310   1.282
39747SOL    HW119267   7.538   1.261   1.350
39747SOL    HW219268   7.507   1.408   1.287
39748SOL     OW19269   8.180   0.634   1.064
39748SOL    HW119270   8.239   0.608   0.988
39748SOL    HW219271   8.152   0.730   1.053
39749SOL     OW19272   9.176   0.935   1.854
39749SOL    HW119273   9.130   0.928   1.765
39749SOL    HW219274   9.114   0.979   1.920
39750SOL     OW19275   7.755   0.063   0.618
39750SOL    HW119276   7.744   0.157   0.651
39750SOL    HW219277   7.750   0.000   0.695
39751SOL     OW19278   9.070   0.367   0.374
39751SOL    HW119279   9.072   0.291   0.438
39751SOL    HW219280   9.022   0.444   0.414
39752SOL     OW19281   8.471   0.766   0.966
39752SOL    HW119282   8.486   0.787   1.062
39752SOL    HW219283   8.441   0.671   0.957
39753SOL     OW19284   8.428   1.573   1.700
39753SOL    HW119285   8.408   1.617   1.612
39753SOL    HW219286   8.467   1.482   1.684
39754SOL     OW19287   9.307   1.518   1.605
39754SOL    HW119288   9.321   1.545   1.510
39754SOL    HW219289   9.390   1.540   1.658
39755SOL     OW19290   7.798   0.898   1.804
39755SOL    HW119291   7.874   0.942   1.852
39755SOL    HW219292   7.833   0.851   1.722
39756SOL     OW19293   8.988   0.274   0.125
39756SOL    HW119294   8.927   0.199   0.148
39756SOL    HW219295   9.010   0.326   0.208
39757SOL     OW19296   8.751   0.838   0.042
39757SOL    HW119297   8.785   0.745   0.057
39757SOL    HW219298   8.769   0.865  -0.053
39758SOL     OW19299   8.516   1.333   0.849
39758SOL    HW119300   8.523   1.249   0.794
39758SOL    HW219301   8.578   1.402   0.813
39759SOL     OW19302   7.767   0.810   0.949
39759SOL    HW119303   7.860   0.846   0.954
39759SOL    HW219304   7.761   0.725   1.001
39760SOL     OW19305   7.787   0.509   1.006
39760SOL    HW119306   7.735   0.426   0.989
39760SOL    HW219307   7.864   0.514   0.942
39761SOL     OW19308   8.586   0.380   1.678
39761SOL    HW119309   8.541   0.443   1.742
39761SOL    HW219310   8.679   0.411   1.661
39762SOL     OW19311   8.608   0.207   1.477
39762SOL    HW119312   8.608   0.271   1.554
39762SOL    HW219313   8.636   0.255   1.394
39763SOL     OW19314   7.456   1.326   0.200
39763SOL    HW119315   7.363   1.347   0.169
39763SOL    HW219316   7.466   1.227   0.213
39764SOL     OW19317   7.536   1.801   0.927
39764SOL    HW119318   7.494   1.715   0.900
39764SOL    HW219319   7.630   1.804   0.893
39765SOL     OW19320   7.952   1.568   0.910
39765SOL    HW119321   8.018   1.642   0.919
39765SOL    HW219322   7.996   1.489   0.868
39766SOL     OW19323   8.450   0.796   1.238
39766SOL    HW119324   8.491   0.764   1.324
39766SOL    HW219325   8.354   0.769   1.235
39767SOL     OW19326   7.488   0.544   1.114
39767SOL    HW119327   7.573   0.511   1.073
39767SOL    HW219328   7.501   0.559   1.212
39768SOL     OW19329   7.637   0.520   1.722
39768SOL    HW119330   7.696   0.480   1.652
39768SOL    HW219331   7.579   0.591   1.681
39769SOL     OW19332   8.817   0.950   1.660
39769SOL    HW119333   8.856   1.039   1.680
39769SOL    HW219334   8.827   0.930   1.563
39770SOL     OW19335   8.263   0.572   0.325
39770SOL    HW119336   8.270   0.483   0.279
39770SOL    HW219337   8.169   0.606   0.317
39771SOL     OW19338   9.105   0.604   1.206
39771SOL    HW119339   9.067   0.535   1.268
39771SOL    HW219340   9.187   0.568   1.162
39772SOL     OW19341   7.700   1.564   1.744
39772SOL    HW119342   7.670   1.621   1.820
39772SOL    HW219343   7.693   1.467   1.770
39773SOL     OW19344   8.119   0.464   1.269
39773SOL    HW119345   8.085   0.375   1.239
39773SOL    HW219346   8.145   0.518   1.189
39774SOL     OW19347   8.378   1.678   1.465
39774SOL    HW119348   8.354   1.660   1.370
39774SOL    HW219349   8.408   1.772   1.475
39775SOL     OW19350   7.921   0.500   0.191
39775SOL    HW119351   7.982   0.580   0.195
39775SOL    HW219352   7.826   0.531   0.198
39776SOL     OW19353   7.607   1.137   1.466
39776SOL    HW119354   7.629   1.076   1.542
39776SOL    HW219355   7.617   1.088   1.380
39777SOL     OW19356   8.795   1.059   1.234
39777SOL    HW119357   8.819   0.996   1.160
39777SOL    HW219358   8.705   1.099   1.216
39778SOL     OW19359   8.750   0.855   0.309
39778SOL    HW119360   8.664   0.824   0.351
39778SOL    HW219361   8.746   0.841   0.210
39779SOL     OW19362   9.207   1.747   1.154
39779SOL    HW119363   9.268   1.777   1.081
39779SOL    HW219364   9.169   1.658   1.132
39780SOL     OW19365   8.700   1.731   1.128
39780SOL    HW119366   8.784   1.736   1.074
39780SOL    HW219367   8.677   1.635   1.146
39781SOL     OW19368   7.531   1.258   1.022
39781SOL    HW119369   7.526   1.257   1.122
39781SOL    HW219370   7.448   1.217   0.984
39782SOL     OW19371   8.136   1.662   1.716
39782SOL    HW119372   8.080   1.743   1.725
39782SOL    HW219373   8.188   1.666   1.630
39783SOL     OW19374   8.351   0.086   0.133
39783SOL    HW119375   8.402   0.087   0.047
39783SOL    HW219376   8.407   0.044   0.204
39784SOL     OW19377   9.174   0.135   0.523
39784SOL    HW119378   9.247   0.118   0.456
39784SOL    HW219379   9.143   0.048   0.561
39785SOL     OW19380   8.836   1.573   0.477
39785SOL    HW119381   8.903   1.585   0.403
39785SOL    HW219382   8.796   1.662   0.500
39786SOL     OW19383   7.578   1.794   1.851
39786SOL    HW119384   7.537   1.720   1.904
39786SOL    HW219385   7.642   1.845   1.909
39787SOL     OW19386   8.728   0.927   0.672
39787SOL    HW119387   8.788   0.846   0.674
39787SOL    HW219388   8.768   0.996   0.612
39788SOL     OW19389   8.278   1.273   1.422
39788SOL    HW119390   8.273   1.306   1.517
39788SOL    HW219391   8.192   1.292   1.376
39789SOL     OW19392   8.120   1.616   0.154
39789SOL    HW119393   8.129   1.626   0.055
39789SOL    HW219394   8.080   1.527   0.175
39790SOL     OW19395   9.098   1.720   1.394
39790SOL    HW119396   9.151   1.730   1.310
39790SOL    HW219397   9.071   1.810   1.428
39791SOL     OW19398   9.289   0.175   0.963
39791SOL    HW119399   9.328   0.090   0.927
39791SOL    HW219400   9.191   0.177   0.944
39792SOL     OW19401   7.711   0.326   0.720
39792SOL    HW119402   7.632   0.377   0.686
39792SOL    HW219403   7.702   0.311   0.818
39793SOL     OW19404   8.642   1.612   0.031
39793SOL    HW119405   8.648   1.519   0.068
39793SOL    HW219406   8.583   1.612  -0.049
39794SOL     OW19407   8.270   1.002   1.372
39794SOL    HW119408   8.310   1.001   1.280
39794SOL    HW219409   8.280   1.094   1.412
39795SOL     OW19410   8.364   0.910   0.291
39795SOL    HW119411   8.427   0.948   0.223
39795SOL    HW219412   8.404   0.827   0.330
39796SOL     OW19413   8.952   1.607   0.044
39796SOL    HW119414   8.860   1.644   0.051
39796SOL    HW219415   8.990   1.627  -0.046
39797SOL     OW19416   7.820   1.288   1.490
39797SOL    HW119417   7.807   1.381   1.456
39797SOL    HW219418   7.736   1.236   1.477
39798SOL     OW19419   9.062   1.292   1.289
39798SOL    HW119420   9.122   1.295   1.369
39798SOL    HW219421   8.987   1.356   1.302
39799SOL     OW19422   8.487   1.098   0.696
39799SOL    HW119423   8.417   1.051   0.750
39799SOL    HW219424   8.546   1.030   0.653
39800SOL     OW19425   8.462   0.236   0.971
39800SOL    HW119426   8.454   0.200   0.878
39800SOL    HW219427   8.460   0.160   1.036
39801SOL     OW19428   8.038   1.487   0.491
39801SOL    HW119429   8.080   1.429   0.421
39801SOL    HW219430   7.994   1.566   0.447
39802SOL     OW19431   9.157   0.385   1.381
39802SOL    HW119432   9.230   0.454   1.385
39802SOL    HW219433   9.185   0.310   1.322
39803SOL     OW19434   7.703   1.348   0.290
39803SOL    HW119435   7.607   1.349   0.263
39803SOL    HW219436   7.715   1.401   0.374
39804SOL     OW19437   7.553   1.013   1.726
39804SOL    HW119438   7.476   0.980   1.780
39804SOL    HW219439   7.638   0.983   1.768
39805SOL     OW19440   8.120   0.203   1.489
39805SOL    HW119441   8.210   0.187   1.449
39805SOL    HW219442   8.128   0.208   1.588
39806SOL     OW19443   8.888   0.856   1.398
39806SOL    HW119444   8.831   0.908   1.335
39806SOL    HW219445   8.984   0.868   1.374
39807SOL     OW19446   7.520   0.166   0.318
39807SOL    HW119447   7.503   0.249   0.264
39807SOL    HW219448   7.610   0.129   0.296
39808SOL     OW19449   8.631   1.335   0.119
39808SOL    HW119450   8.532   1.324   0.121
39808SOL    HW219451   8.665   1.350   0.212
39809SOL     OW19452   8.061   0.842   1.431
39809SOL    HW119453   8.117   0.923   1.414
39809SOL    HW219454   8.120   0.762   1.434
39810SOL     OW19455   8.941   1.767   0.959
39810SOL    HW119456   8.974   1.831   0.890
39810SOL    HW219457   9.007   1.761   1.034
39811SOL     OW19458   8.164   0.565   1.708
39811SOL    HW119459   8.183   0.630   1.782
39811SOL    HW219460   8.224   0.485   1.717
39812SOL     OW19461   8.898   1.220   1.633
39812SOL    HW119462   8.889   1.210   1.732
39812SOL    HW219463   8.994   1.213   1.607
39813SOL     OW19464   7.838   1.741   1.560
39813SOL    HW119465   7.747   1.782   1.558
39813SOL    HW219466   7.831   1.647   1.592
39814SOL     OW19467   9.122   0.883   1.254
39814SOL    HW119468   9.095   0.794   1.217
39814SOL    HW219469   9.123   0.951   1.181
39815SOL     OW19470   8.673   0.325   0.449
39815SOL    HW119471   8.738   0.251   0.438
39815SOL    HW219472   8.693   0.375   0.533
39816SOL     OW19473   8.042   0.745   0.652
39816SOL    HW119474   8.092   0.830   0.633
39816SOL    HW219475   7.954   0.747   0.604
39817SOL     OW19476   9.225   0.342   1.642
39817SOL    HW119477   9.208   0.373   1.548
39817SOL    HW219478   9.141   0.305   1.680
39818SOL     OW19479   9.178   0.934   1.517
39818SOL    HW119480   9.216   1.025   1.532
39818SOL    HW219481   9.170   0.917   1.418
39819SOL     OW19482   8.307   1.374   0.016
39819SOL    HW119483   8.261   1.389   0.104
39819SOL    HW219484   8.351   1.459  -0.014
39820SOL     OW19485   8.109   1.790   0.953
39820SOL    HW119486   8.063   1.878   0.940
39820SOL    HW219487   8.208   1.802   0.946
39821SOL     OW19488   8.307   0.956   0.861
39821SOL    HW119489   8.361   0.887   0.909
39821SOL    HW219490   8.275   1.025   0.927
39822SOL     OW19491   8.531   0.984   0.087
39822SOL    HW119492   8.508   1.037   0.005
39822SOL    HW219493   8.612   0.928   0.068
39823SOL     OW19494   9.309   1.569   0.851
39823SOL    HW119495   9.238   1.557   0.781
39823SOL    HW219496   9.310   1.490   0.911
39824SOL     OW19497   7.669   1.314   1.844
39824SOL    HW119498   7.604   1.241   1.823
39824SOL    HW219499   7.673   1.328   1.942
39825SOL     OW19500   7.527   1.240   0.653
39825SOL    HW119501   7.526   1.193   0.741
39825SOL    HW219502   7.609   1.212   0.602
39826SOL     OW19503   8.120   1.391   1.624
39826SOL    HW119504   8.042   1.341   1.662
39826SOL    HW219505   8.117   1.486   1.655
39827SOL     OW19506   9.272   0.192   1.227
39827SOL    HW119507   9.268   0.102   1.271
39827SOL    HW219508   9.275   0.181   1.128
39828SOL     OW19509   7.876   0.424   0.520
39828SOL    HW119510   7.906   0.352   0.458
39828SOL    HW219511   7.837   0.384   0.603
39829SOL     OW19512   9.153   1.487   1.104
39829SOL    HW119513   9.060   1.462   1.077
39829SOL    HW219514   9.179   1.437   1.186
39830SOL     OW19515   7.765   0.547   1.280
39830SOL    HW119516   7.803   0.488   1.352
39830SOL    HW219517   7.805   0.521   1.192
39831SOL     OW19518   8.260   1.586   0.687
39831SOL    HW119519   8.292   1.596   0.593
39831SOL    HW219520   8.181   1.524   0.689
39832SOL     OW19521   8.872   0.214   1.112
39832SOL    HW119522   8.924   0.149   1.167
39832SOL    HW219523   8.823   0.277   1.173
39833SOL     OW19524   8.449   0.034   1.154
39833SOL    HW119525   8.386  -0.038   1.123
39833SOL    HW219526   8.542  -0.002   1.154
39834SOL     OW19527   8.218   1.330   0.301
39834SOL    HW119528   8.172   1.243   0.318
39834SOL    HW219529   8.309   1.327   0.342
39835SOL     OW19530   8.066   1.567   1.284
39835SOL    HW119531   8.061   1.649   1.341
39835SOL    HW219532   8.155   1.564   1.239
39836SOL     OW19533   8.800   0.052   0.168
39836SOL    HW119534   8.835   0.011   0.084
39836SOL    HW219535   8.710   0.014   0.188
39837SOL     OW19536   8.748   0.453   0.691
39837SOL    HW119537   8.689   0.533   0.695
39837SOL    HW219538   8.763   0.418   0.784
39838SOL     OW19539   9.041   0.221   0.882
39838SOL    HW119540   8.957   0.220   0.936
39838SOL    HW219541   9.043   0.304   0.826
39839SOL     OW19542   7.487   1.077   0.300
39839SOL    HW119543   7.586   1.066   0.291
39839SOL    HW219544   7.447   0.991   0.332
39840SOL     OW19545   8.323   1.646   0.337
39840SOL    HW119546   8.246   1.611   0.283
39840SOL    HW219547   8.291   1.717   0.399
39841SOL     OW19548   7.678   0.628   1.975
39841SOL    HW119549   7.585   0.626   2.012
39841SOL    HW219550   7.679   0.589   1.883
39842SOL     OW19551   7.673   0.275   2.858
39842SOL    HW119552   7.708   0.258   2.950
39842SOL    HW219553   7.585   0.230   2.846
39843SOL     OW19554   7.467   0.368   2.509
39843SOL    HW119555   7.385   0.411   2.548
39843SOL    HW219556   7.439   0.295   2.446
39844SOL     OW19557   8.017   1.275   3.027
39844SOL    HW119558   7.924   1.268   2.990
39844SOL    HW219559   8.028   1.364   3.071
39845SOL     OW19560   9.003   1.511   2.565
39845SOL    HW119561   8.946   1.495   2.646
39845SOL    HW219562   8.944   1.521   2.485
39846SOL     OW19563   8.583   0.703   2.579
39846SOL    HW119564   8.640   0.781   2.554
39846SOL    HW219565   8.523   0.729   2.655
39847SOL     OW19566   9.203   0.607   2.093
39847SOL    HW119567   9.191   0.594   1.994
39847SOL    HW219568   9.173   0.526   2.142
39848SOL     OW19569   8.216   1.144   2.885
39848SOL    HW119570   8.138   1.161   2.945
39848SOL    HW219571   8.250   1.231   2.849
39849SOL     OW19572   8.298   0.798   3.685
39849SOL    HW119573   8.294   0.874   3.750
39849SOL    HW219574   8.320   0.834   3.594
39850SOL     OW19575   8.133   1.012   2.527
39850SOL    HW119576   8.202   0.996   2.597
39850SOL    HW219577   8.060   1.069   2.565
39851SOL     OW19578   8.134   1.161   3.665
39851SOL    HW119579   8.194   1.240   3.679
39851SOL    HW219580   8.048   1.192   3.624
39852SOL     OW19581   7.783   1.435   2.923
39852SOL    HW119582   7.705   1.404   2.870
39852SOL    HW219583   7.841   1.493   2.866
39853SOL     OW19584   8.908   1.505   3.201
39853SOL    HW119585   8.932   1.599   3.227
39853SOL    HW219586   8.892   1.451   3.283
39854SOL     OW19587   7.886   0.392   3.361
39854SOL    HW119588   7.968   0.336   3.370
39854SOL    HW219589   7.805   0.334   3.365
39855SOL     OW19590   9.051   0.447   2.599
39855SOL    HW119591   8.977   0.493   2.549
39855SOL    HW219592   9.102   0.515   2.652
39856SOL     OW19593   7.679   1.713   2.345
39856SOL    HW119594   7.713   1.790   2.399
39856SOL    HW219595   7.723   1.713   2.255
39857SOL     OW19596   8.575   1.341   3.552
39857SOL    HW119597   8.622   1.341   3.640
39857SOL    HW219598   8.527   1.254   3.541
39858SOL     OW19599   7.678   1.434   2.400
39858SOL    HW119600   7.652   1.530   2.400
39858SOL    HW219601   7.607   1.380   2.445
39859SOL     OW19602   7.688   1.091   2.748
39859SOL    HW119603   7.702   1.007   2.800
39859SOL    HW219604   7.633   1.155   2.803
39860SOL     OW19605   8.068   1.786   3.301
39860SOL    HW119606   7.976   1.769   3.336
39860SOL    HW219607   8.096   1.878   3.327
39861SOL     OW19608   8.054   0.964   1.985
39861SOL    HW119609   8.061   1.048   1.931
39861SOL    HW219610   8.100   0.977   2.073
39862SOL     OW19611   9.042   0.114   3.342
39862SOL    HW119612   9.024   0.181   3.270
39862SOL    HW219613   9.039   0.160   3.431
39863SOL     OW19614   7.570   0.643   2.425
39863SOL    HW119615   7.525   0.555   2.442
39863SOL    HW219616   7.569   0.697   2.509
39864SOL     OW19617   9.290   1.767   2.221
39864SOL    HW119618   9.344   1.738   2.301
39864SOL    HW219619   9.320   1.857   2.192
39865SOL     OW19620   7.475   1.596   1.979
39865SOL    HW119621   7.456   1.500   2.000
39865SOL    HW219622   7.442   1.654   2.054
39866SOL     OW19623   9.137   0.922   2.474
39866SOL    HW119624   9.232   0.893   2.482
39866SOL    HW219625   9.129   0.987   2.399
39867SOL     OW19626   9.089   1.108   2.294
39867SOL    HW119627   9.175   1.110   2.242
39867SOL    HW219628   9.103   1.155   2.382
39868SOL     OW19629   7.561   0.737   3.459
39868SOL    HW119630   7.649   0.724   3.504
39868SOL    HW219631   7.548   0.834   3.437
39869SOL     OW19632   8.061   1.365   2.588
39869SOL    HW119633   8.012   1.278   2.597
39869SOL    HW219634   8.038   1.408   2.501
39870SOL     OW19635   8.741   1.228   3.285
39870SOL    HW119636   8.778   1.155   3.227
39870SOL    HW219637   8.793   1.233   3.370
39871SOL     OW19638   8.257   0.004   2.364
39871SOL    HW119639   8.297   0.095   2.355
39871SOL    HW219640   8.157   0.012   2.370
39872SOL     OW19641   7.645   0.976   3.126
39872SOL    HW119642   7.734   0.931   3.112
39872SOL    HW219643   7.572   0.911   3.107
39873SOL     OW19644   8.973   0.999   2.052
39873SOL    HW119645   8.910   0.923   2.065
39873SOL    HW219646   9.021   1.017   2.138
39874SOL     OW19647   8.635   1.792   3.478
39874SOL    HW119648   8.659   1.852   3.402
39874SOL    HW219649   8.642   1.697   3.448
39875SOL     OW19650   7.765   0.251   3.663
39875SOL    HW119651   7.836   0.322   3.669
39875SOL    HW219652   7.677   0.290   3.691
39876SOL     OW19653   8.914   1.417   2.815
39876SOL    HW119654   8.855   1.423   2.895
39876SOL    HW219655   8.899   1.329   2.769
39877SOL     OW19656   9.115   1.714   2.434
39877SOL    HW119657   9.074   1.691   2.346
39877SOL    HW219658   9.097   1.640   2.499
39878SOL     OW19659   8.046   0.729   2.132
39878SOL    HW119660   8.070   0.798   2.064
39878SOL    HW219661   7.968   0.762   2.186
39879SOL     OW19662   8.729   0.345   2.806
39879SOL    HW119663   8.643   0.295   2.793
39879SOL    HW219664   8.791   0.291   2.862
39880SOL     OW19665   9.024   1.662   2.169
39880SOL    HW119666   9.113   1.708   2.172
39880SOL    HW219667   9.003   1.638   2.074
39881SOL     OW19668   8.255   0.605   3.327
39881SOL    HW119669   8.208   0.602   3.416
39881SOL    HW219670   8.204   0.550   3.261
39882SOL     OW19671   8.842   0.469   3.536
39882SOL    HW119672   8.822   0.512   3.624
39882SOL    HW219673   8.920   0.407   3.545
39883SOL     OW19674   8.421   0.890   3.434
39883SOL    HW119675   8.467   0.806   3.405
39883SOL    HW219676   8.365   0.924   3.359
39884SOL     OW19677   8.439   0.410   3.104
39884SOL    HW119678   8.362   0.444   3.158
39884SOL    HW219679   8.405   0.359   3.025
39885SOL     OW19680   8.489   0.701   2.291
39885SOL    HW119681   8.515   0.697   2.387
39885SOL    HW219682   8.404   0.650   2.277
39886SOL     OW19683   7.524   0.811   2.651
39886SOL    HW119684   7.623   0.799   2.660
39886SOL    HW219685   7.500   0.906   2.672
39887SOL     OW19686   7.578   1.821   3.433
39887SOL    HW119687   7.568   1.806   3.532
39887SOL    HW219688   7.492   1.857   3.397
39888SOL     OW19689   8.313   0.348   2.057
39888SOL    HW119690   8.372   0.411   2.008
39888SOL    HW219691   8.332   0.254   2.028
39889SOL     OW19692   9.167   0.585   3.693
39889SOL    HW119693   9.141   0.674   3.657
39889SOL    HW219694   9.165   0.517   3.620
39890SOL     OW19695   8.810   1.144   2.407
39890SOL    HW119696   8.893   1.115   2.359
39890SOL    HW219697   8.761   1.211   2.351
39891SOL     OW19698   7.998   0.196   2.747
39891SOL    HW119699   7.993   0.191   2.847
39891SOL    HW219700   8.000   0.292   2.718
39892SOL     OW19701   8.456   1.456   2.339
39892SOL    HW119702   8.410   1.528   2.287
39892SOL    HW219703   8.452   1.476   2.437
39893SOL     OW19704   7.799   1.801   2.715
39893SOL    HW119705   7.849   1.715   2.721
39893SOL    HW219706   7.864   1.878   2.712
39894SOL     OW19707   9.243   1.066   2.735
39894SOL    HW119708   9.181   1.051   2.659
39894SOL    HW219709   9.191   1.077   2.820
39895SOL     OW19710   8.675   1.550   3.368
39895SOL    HW119711   8.681   1.473   3.432
39895SOL    HW219712   8.623   1.524   3.288
39896SOL     OW19713   7.769   0.943   2.104
39896SOL    HW119714   7.851   0.982   2.062
39896SOL    HW219715   7.742   0.861   2.055
39897SOL     OW19716   8.906   0.735   2.590
39897SOL    HW119717   8.901   0.670   2.665
39897SOL    HW219718   8.986   0.794   2.603
39898SOL     OW19719   7.909   1.266   3.589
39898SOL    HW119720   7.859   1.267   3.503
39898SOL    HW219721   7.846   1.248   3.665
39899SOL     OW19722   8.559   1.776   2.099
39899SOL    HW119723   8.499   1.714   2.149
39899SOL    HW219724   8.590   1.732   2.014
39900SOL     OW19725   7.650   0.285   3.360
39900SOL    HW119726   7.570   0.345   3.347
39900SOL    HW219727   7.640   0.236   3.446
39901SOL     OW19728   9.080   1.377   1.943
39901SOL    HW119729   9.048   1.471   1.933
39901SOL    HW219730   9.004   1.314   1.931
39902SOL     OW19731   7.912   1.743   2.185
39902SOL    HW119732   7.945   1.782   2.271
39902SOL    HW219733   7.988   1.736   2.120
39903SOL     OW19734   8.848   0.107   2.288
39903SOL    HW119735   8.824   0.070   2.198
39903SOL    HW219736   8.947   0.123   2.292
39904SOL     OW19737   7.697   1.785   3.103
39904SOL    HW119738   7.754   1.720   3.153
39904SOL    HW219739   7.681   1.752   3.010
39905SOL     OW19740   8.388   1.698   2.766
39905SOL    HW119741   8.468   1.641   2.787
39905SOL    HW219742   8.339   1.658   2.689
39906SOL     OW19743   7.830   0.700   2.342
39906SOL    HW119744   7.875   0.610   2.339
39906SOL    HW219745   7.736   0.689   2.375
39907SOL     OW19746   8.995   0.222   3.591
39907SOL    HW119747   8.990   0.259   3.683
39907SOL    HW219748   8.923   0.153   3.579
39908SOL     OW19749   8.062   0.122   1.979
39908SOL    HW119750   8.160   0.100   1.986
39908SOL    HW219751   8.031   0.105   1.886
39909SOL     OW19752   8.229   0.264   3.611
39909SOL    HW119753   8.296   0.203   3.654
39909SOL    HW219754   8.156   0.283   3.676
39910SOL     OW19755   8.336   1.514   3.057
39910SOL    HW119756   8.313   1.489   2.963
39910SOL    HW219757   8.397   1.445   3.096
39911SOL     OW19758   8.799   0.590   3.295
39911SOL    HW119759   8.827   0.547   3.380
39911SOL    HW219760   8.824   0.686   3.296
39912SOL     OW19761   8.251   1.402   2.786
39912SOL    HW119762   8.341   1.416   2.744
39912SOL    HW219763   8.180   1.404   2.715
39913SOL     OW19764   8.370   0.503   2.761
39913SOL    HW119765   8.345   0.494   2.665
39913SOL    HW219766   8.418   0.421   2.792
39914SOL     OW19767   7.987   0.064   2.374
39914SOL    HW119768   7.906   0.065   2.432
39914SOL    HW219769   7.990   0.147   2.319
39915SOL     OW19770   8.882   1.188   1.903
39915SOL    HW119771   8.914   1.112   1.960
39915SOL    HW219772   8.790   1.215   1.933
39916SOL     OW19773   7.745   0.035   2.033
39916SOL    HW119774   7.794   0.119   2.012
39916SOL    HW219775   7.807  -0.030   2.078
39917SOL     OW19776   8.383   0.236   2.342
39917SOL    HW119777   8.335   0.277   2.264
39917SOL    HW219778   8.482   0.234   2.323
39918SOL     OW19779   8.524   0.683   3.326
39918SOL    HW119780   8.444   0.622   3.329
39918SOL    HW219781   8.605   0.630   3.302
39919SOL     OW19782   8.675   1.570   2.655
39919SOL    HW119783   8.696   1.644   2.590
39919SOL    HW219784   8.743   1.570   2.728
39920SOL     OW19785   7.907   1.152   2.603
39920SOL    HW119786   7.836   1.125   2.668
39920SOL    HW219787   7.881   1.124   2.510
39921SOL     OW19788   8.719   1.797   2.453
39921SOL    HW119789   8.763   1.861   2.389
39921SOL    HW219790   8.669   1.849   2.523
39922SOL     OW19791   8.480   0.549   1.878
39922SOL    HW119792   8.439   0.631   1.839
39922SOL    HW219793   8.544   0.575   1.951
39923SOL     OW19794   7.526   0.556   3.248
39923SOL    HW119795   7.618   0.555   3.207
39923SOL    HW219796   7.520   0.630   3.315
39924SOL     OW19797   8.009   0.222   3.009
39924SOL    HW119798   8.047   0.138   3.046
39924SOL    HW219799   7.921   0.241   3.053
39925SOL     OW19800   8.314   0.454   2.504
39925SOL    HW119801   8.282   0.526   2.442
39925SOL    HW219802   8.338   0.373   2.451
39926SOL     OW19803   8.465   0.039   2.615
39926SOL    HW119804   8.393   0.044   2.546
39926SOL    HW219805   8.441  -0.030   2.684
39927SOL     OW19806   8.877   1.173   2.729
39927SOL    HW119807   8.822   1.089   2.722
39927SOL    HW219808   8.903   1.202   2.637
39928SOL     OW19809   8.914   0.590   2.854
39928SOL    HW119810   8.884   0.495   2.861
39928SOL    HW219811   8.987   0.606   2.920
39929SOL     OW19812   9.305   0.833   2.239
39929SOL    HW119813   9.347   0.769   2.303
39929SOL    HW219814   9.267   0.782   2.161
39930SOL     OW19815   7.936   1.385   2.036
39930SOL    HW119816   7.849   1.370   2.083
39930SOL    HW219817   7.919   1.411   1.941
39931SOL     OW19818   9.112   1.280   2.519
39931SOL    HW119819   9.211   1.288   2.533
39931SOL    HW219820   9.067   1.364   2.550
39932SOL     OW19821   8.838   0.575   1.940
39932SOL    HW119822   8.784   0.554   2.021
39932SOL    HW219823   8.929   0.534   1.949
39933SOL     OW19824   7.975   0.256   2.190
39933SOL    HW119825   8.002   0.197   2.115
39933SOL    HW219826   7.975   0.351   2.159
39934SOL     OW19827   9.202   1.223   3.450
39934SOL    HW119828   9.293   1.184   3.437
39934SOL    HW219829   9.210   1.319   3.474
39935SOL     OW19830   8.512   1.347   3.202
39935SOL    HW119831   8.432   1.324   3.257
39935SOL    HW219832   8.595   1.321   3.251
39936SOL     OW19833   9.040   1.629   3.487
39936SOL    HW119834   9.067   1.663   3.397
39936SOL    HW219835   9.119   1.591   3.533
39937SOL     OW19836   8.559   1.195   2.962
39937SOL    HW119837   8.519   1.239   3.043
39937SOL    HW219838   8.518   1.232   2.879
39938SOL     OW19839   9.086   1.099   2.941
39938SOL    HW119840   9.091   1.180   3.000
39938SOL    HW219841   9.000   1.101   2.890
39939SOL     OW19842   8.363   0.089   3.264
39939SOL    HW119843   8.388   0.069   3.169
39939SOL    HW219844   8.435   0.145   3.306
39940SOL     OW19845   8.428   1.116   3.581
39940SOL    HW119846   8.329   1.122   3.591
39940SOL    HW219847   8.451   1.036   3.525
39941SOL     OW19848   8.153   1.050   2.230
39941SOL    HW119849   8.139   1.057   2.329
39941SOL    HW219850   8.237   0.999   2.212
39942SOL     OW19851   7.858   0.813   3.113
39942SOL    HW119852   7.944   0.825   3.163
39942SOL    HW219853   7.816   0.726   3.140
39943SOL     OW19854   8.722   0.386   3.124
39943SOL    HW119855   8.743   0.460   3.188
39943SOL    HW219856   8.633   0.403   3.081
39944SOL     OW19857   7.512   1.564   3.193
39944SOL    HW119858   7.466   1.646   3.159
39944SOL    HW219859   7.610   1.583   3.202
39945SOL     OW19860   7.815   1.100   2.363
39945SOL    HW119861   7.808   1.183   2.307
39945SOL    HW219862   7.819   1.020   2.303
39946SOL     OW19863   8.014   0.537   2.727
39946SOL    HW119864   8.026   0.603   2.653
39946SOL    HW219865   8.060   0.571   2.810
39947SOL     OW19866   8.700   1.348   2.250
39947SOL    HW119867   8.750   1.425   2.290
39947SOL    HW219868   8.605   1.350   2.282
39948SOL     OW19869   8.720   1.445   3.004
39948SOL    HW119870   8.767   1.458   3.091
39948SOL    HW219871   8.654   1.371   3.013
39949SOL     OW19872   9.030   0.639   2.334
39949SOL    HW119873   8.999   0.700   2.407
39949SOL    HW219874   9.080   0.691   2.265
39950SOL     OW19875   7.802   1.510   3.191
39950SOL    HW119876   7.781   1.466   3.104
39950SOL    HW219877   7.899   1.536   3.194
39951SOL     OW19878   7.850   0.751   3.460
39951SOL    HW119879   7.918   0.806   3.413
39951SOL    HW219880   7.890   0.663   3.487
39952SOL     OW19881   9.035   0.779   3.532
39952SOL    HW119882   8.943   0.817   3.527
39952SOL    HW219883   9.095   0.826   3.467
39953SOL     OW19884   8.461   0.105   3.632
39953SOL    HW119885   8.467   0.190   3.580
39953SOL    HW219886   8.493   0.029   3.575
39954SOL     OW19887   7.952   0.050   3.602
39954SOL    HW119888   7.910  -0.007   3.532
39954SOL    HW219889   7.886   0.119   3.634
39955SOL     OW19890   8.021   0.870   2.891
39955SOL    HW119891   8.065   0.959   2.882
39955SOL    HW219892   7.958   0.870   2.968
39956SOL     OW19893   8.808   0.862   2.907
39956SOL    HW119894   8.733   0.862   2.841
39956SOL    HW219895   8.845   0.770   2.916
39957SOL     OW19896   8.657   0.525   2.137
39957SOL    HW119897   8.670   0.441   2.191
39957SOL    HW219898   8.628   0.599   2.197
39958SOL     OW19899   7.755   0.213   3.093
39958SOL    HW119900   7.732   0.250   3.183
39958SOL    HW219901   7.725   0.118   3.087
39959SOL     OW19902   7.485   1.310   3.144
39959SOL    HW119903   7.538   1.261   3.212
39959SOL    HW219904   7.507   1.408   3.149
39960SOL     OW19905   8.180   0.634   2.926
39960SOL    HW119906   8.239   0.608   2.850
39960SOL    HW219907   8.152   0.730   2.915
39961SOL     OW19908   9.176   0.935   3.716
39961SOL    HW119909   9.130   0.928   3.627
39961SOL    HW219910   9.114   0.979   3.782
39962SOL     OW19911   7.755   0.063   2.480
39962SOL    HW119912   7.744   0.157   2.513
39962SOL    HW219913   7.750   0.000   2.557
39963SOL     OW19914   9.070   0.367   2.236
39963SOL    HW119915   9.072   0.291   2.300
39963SOL    HW219916   9.022   0.444   2.276
39964SOL     OW19917   8.471   0.766   2.828
39964SOL    HW119918   8.486   0.787   2.924
39964SOL    HW219919   8.441   0.671   2.819
39965SOL     OW19920   8.428   1.573   3.562
39965SOL    HW119921   8.408   1.617   3.474
39965SOL    HW219922   8.467   1.482   3.546
39966SOL     OW19923   9.307   1.518   3.467
39966SOL    HW119924   9.321   1.545   3.372
39966SOL    HW219925   9.390   1.540   3.520
39967SOL     OW19926   7.798   0.898   3.666
39967SOL    HW119927   7.874   0.942   3.714
39967SOL    HW219928   7.833   0.851   3.584
39968SOL     OW19929   8.988   0.274   1.987
39968SOL    HW119930   8.927   0.199   2.010
39968SOL    HW219931   9.010   0.326   2.070
39969SOL     OW19932   8.751   0.838   1.904
39969SOL    HW119933   8.785   0.745   1.919
39969SOL    HW219934   8.769   0.865   1.809
39970SOL     OW19935   8.516   1.333   2.711
39970SOL    HW119936   8.523   1.249   2.656
39970SOL    HW219937   8.578   1.402   2.675
39971SOL     OW19938   7.767   0.810   2.811
39971SOL    HW119939   7.860   0.846   2.816
39971SOL    HW219940   7.761   0.725   2.863
39972SOL     OW19941   7.787   0.509   2.868
39972SOL    HW119942   7.735   0.426   2.851
39972SOL    HW219943   7.864   0.514   2.804
39973SOL     OW19944   8.586   0.380   3.540
39973SOL    HW119945   8.541   0.443   3.604
39973SOL    HW219946   8.679   0.411   3.523
39974SOL     OW19947   8.608   0.207   3.339
39974SOL    HW119948   8.608   0.271   3.416
39974SOL    HW219949   8.636   0.255   3.256
39975SOL     OW19950   7.456   1.326   2.062
39975SOL    HW119951   7.363   1.347   2.031
39975SOL    HW219952   7.466   1.227   2.075
39976SOL     OW19953   7.536   1.801   2.789
39976SOL    HW119954   7.494   1.715   2.762
39976SOL    HW219955   7.630   1.804   2.755
39977SOL     OW19956   7.952   1.568   2.772
39977SOL    HW119957   8.018   1.642   2.781
39977SOL    HW219958   7.996   1.489   2.730
39978SOL     OW19959   8.450   0.796   3.100
39978SOL    HW119960   8.491   0.764   3.186
39978SOL    HW219961   8.354   0.769   3.097
39979SOL     OW19962   7.488   0.544   2.976
39979SOL    HW119963   7.573   0.511   2.935
39979SOL    HW219964   7.501   0.559   3.074
39980SOL     OW19965   7.637   0.520   3.584
39980SOL    HW119966   7.696   0.480   3.514
39980SOL    HW219967   7.579   0.591   3.543
39981SOL     OW19968   8.817   0.950   3.522
39981SOL    HW119969   8.856   1.039   3.542
39981SOL    HW219970   8.827   0.930   3.425
39982SOL     OW19971   8.263   0.572   2.187
39982SOL    HW119972   8.270   0.483   2.141
39982SOL    HW219973   8.169   0.606   2.179
39983SOL     OW19974   9.105   0.604   3.068
39983SOL    HW119975   9.067   0.535   3.130
39983SOL    HW219976   9.187   0.568   3.024
39984SOL     OW19977   7.700   1.564   3.606
39984SOL    HW119978   7.670   1.621   3.682
39984SOL    HW219979   7.693   1.467   3.632
39985SOL     OW19980   8.119   0.464   3.131
39985SOL    HW119981   8.085   0.375   3.101
39985SOL    HW219982   8.145   0.518   3.051
39986SOL     OW19983   8.378   1.678   3.327
39986SOL    HW119984   8.354   1.660   3.232
39986SOL    HW219985   8.408   1.772   3.337
39987SOL     OW19986   7.921   0.500   2.053
39987SOL    HW119987   7.982   0.580   2.057
39987SOL    HW219988   7.826   0.531   2.060
39988SOL     OW19989   7.607   1.137   3.328
39988SOL    HW119990   7.629   1.076   3.404
39988SOL    HW219991   7.617   1.088   3.242
39989SOL     OW19992   8.795   1.059   3.096
39989SOL    HW119993   8.819   0.996   3.022
39989SOL    HW219994   8.705   1.099   3.078
39990SOL     OW19995   8.750   0.855   2.171
39990SOL    HW119996   8.664   0.824   2.213
39990SOL    HW219997   8.746   0.841   2.072
39991SOL     OW19998   9.207   1.747   3.016
39991SOL    HW119999   9.268   1.777   2.943
39991SOL    HW220000   9.169   1.658   2.994
39992SOL     OW20001   8.700   1.731   2.990
39992SOL    HW120002   8.784   1.736   2.936
39992SOL    HW220003   8.677   1.635   3.008
39993SOL     OW20004   7.531   1.258   2.884
39993SOL    HW120005   7.526   1.257   2.984
39993SOL    HW220006   7.448   1.217   2.846
39994SOL     OW20007   8.136   1.662   3.578
39994SOL    HW120008   8.080   1.743   3.587
39994SOL    HW220009   8.188   1.666   3.492
39995SOL     OW20010   9.174   0.135   2.385
39995SOL    HW120011   9.247   0.118   2.318
39995SOL    HW220012   9.143   0.048   2.423
39996SOL     OW20013   8.836   1.573   2.339
39996SOL    HW120014   8.903   1.585   2.265
39996SOL    HW220015   8.796   1.662   2.362
39997SOL     OW20016   7.578   1.794   3.713
39997SOL    HW120017   7.537   1.720   3.766
39997SOL    HW220018   7.642   1.845   3.771
39998SOL     OW20019   8.728   0.927   2.534
39998SOL    HW120020   8.788   0.846   2.536
39998SOL    HW220021   8.768   0.996   2.474
39999SOL     OW20022   8.278   1.273   3.284
39999SOL    HW120023   8.273   1.306   3.379
39999SOL    HW220024   8.192   1.292   3.238
40000SOL     OW20025   8.120   1.616   2.016
40000SOL    HW120026   8.129   1.626   1.917
40000SOL    HW220027   8.080   1.527   2.037
40001SOL     OW20028   9.098   1.720   3.256
40001SOL    HW120029   9.151   1.730   3.172
40001SOL    HW220030   9.071   1.810   3.290
40002SOL     OW20031   9.289   0.175   2.825
40002SOL    HW120032   9.328   0.090   2.789
40002SOL    HW220033   9.191   0.177   2.806
40003SOL     OW20034   7.711   0.326   2.582
40003SOL    HW120035   7.632   0.377   2.548
40003SOL    HW220036   7.702   0.311   2.680
40004SOL     OW20037   8.642   1.612   1.893
40004SOL    HW120038   8.648   1.519   1.930
40004SOL    HW220039   8.583   1.612   1.813
40005SOL     OW20040   8.270   1.002   3.234
40005SOL    HW120041   8.310   1.001   3.142
40005SOL    HW220042   8.280   1.094   3.274
40006SOL     OW20043   8.364   0.910   2.153
40006SOL    HW120044   8.427   0.948   2.085
40006SOL    HW220045   8.404   0.827   2.192
40007SOL     OW20046   8.952   1.607   1.906
40007SOL    HW120047   8.860   1.644   1.913
40007SOL    HW220048   8.990   1.627   1.816
40008SOL     OW20049   7.820   1.288   3.352
40008SOL    HW120050   7.807   1.381   3.318
40008SOL    HW220051   7.736   1.236   3.339
40009SOL     OW20052   9.062   1.292   3.151
40009SOL    HW120053   9.122   1.295   3.231
40009SOL    HW220054   8.987   1.356   3.164
40010SOL     OW20055   8.487   1.098   2.558
40010SOL    HW120056   8.417   1.051   2.612
40010SOL    HW220057   8.546   1.030   2.515
40011SOL     OW20058   8.462   0.236   2.833
40011SOL    HW120059   8.454   0.200   2.740
40011SOL    HW220060   8.460   0.160   2.898
40012SOL     OW20061   8.038   1.487   2.353
40012SOL    HW120062   8.080   1.429   2.283
40012SOL    HW220063   7.994   1.566   2.309
40013SOL     OW20064   9.157   0.385   3.243
40013SOL    HW120065   9.230   0.454   3.247
40013SOL    HW220066   9.185   0.310   3.184
40014SOL     OW20067   7.703   1.348   2.152
40014SOL    HW120068   7.607   1.349   2.125
40014SOL    HW220069   7.715   1.401   2.236
40015SOL     OW20070   7.553   1.013   3.588
40015SOL    HW120071   7.476   0.980   3.642
40015SOL    HW220072   7.638   0.983   3.630
40016SOL     OW20073   8.120   0.203   3.351
40016SOL    HW120074   8.210   0.187   3.311
40016SOL    HW220075   8.128   0.208   3.450
40017SOL     OW20076   7.523   0.345   1.895
40017SOL    HW120077   7.431   0.317   1.866
40017SOL    HW220078   7.554   0.422   1.839
40018SOL     OW20079   8.888   0.856   3.260
40018SOL    HW120080   8.831   0.908   3.197
40018SOL    HW220081   8.984   0.868   3.236
40019SOL     OW20082   7.520   0.166   2.180
40019SOL    HW120083   7.503   0.249   2.126
40019SOL    HW220084   7.610   0.129   2.158
40020SOL     OW20085   8.631   1.335   1.981
40020SOL    HW120086   8.532   1.324   1.983
40020SOL    HW220087   8.665   1.350   2.074
40021SOL     OW20088   8.061   0.842   3.293
40021SOL    HW120089   8.117   0.923   3.276
40021SOL    HW220090   8.120   0.762   3.296
40022SOL     OW20091   8.941   1.767   2.821
40022SOL    HW120092   8.974   1.831   2.752
40022SOL    HW220093   9.007   1.761   2.896
40023SOL     OW20094   8.164   0.565   3.570
40023SOL    HW120095   8.183   0.630   3.644
40023SOL    HW220096   8.224   0.485   3.579
40024SOL     OW20097   8.898   1.220   3.495
40024SOL    HW120098   8.889   1.210   3.594
40024SOL    HW220099   8.994   1.213   3.469
40025SOL     OW20100   7.838   1.741   3.422
40025SOL    HW120101   7.747   1.782   3.420
40025SOL    HW220102   7.831   1.647   3.454
40026SOL     OW20103   9.122   0.883   3.116
40026SOL    HW120104   9.095   0.794   3.079
40026SOL    HW220105   9.123   0.951   3.043
40027SOL     OW20106   8.673   0.325   2.311
40027SOL    HW120107   8.738   0.251   2.300
40027SOL    HW220108   8.693   0.375   2.395
40028SOL     OW20109   8.042   0.745   2.514
40028SOL    HW120110   8.092   0.830   2.495
40028SOL    HW220111   7.954   0.747   2.466
40029SOL     OW20112   9.225   0.342   3.504
40029SOL    HW120113   9.208   0.373   3.410
40029SOL    HW220114   9.141   0.305   3.542
40030SOL     OW20115   9.178   0.934   3.379
40030SOL    HW120116   9.216   1.025   3.394
40030SOL    HW220117   9.170   0.917   3.280
40031SOL     OW20118   8.307   1.374   1.878
40031SOL    HW120119   8.261   1.389   1.966
40031SOL    HW220120   8.351   1.459   1.848
40032SOL     OW20121   8.109   1.790   2.815
40032SOL    HW120122   8.063   1.878   2.802
40032SOL    HW220123   8.208   1.802   2.808
40033SOL     OW20124   8.307   0.956   2.723
40033SOL    HW120125   8.361   0.887   2.771
40033SOL    HW220126   8.275   1.025   2.789
40034SOL     OW20127   8.531   0.984   1.949
40034SOL    HW120128   8.508   1.037   1.867
40034SOL    HW220129   8.612   0.928   1.930
40035SOL     OW20130   9.309   1.569   2.713
40035SOL    HW120131   9.238   1.557   2.643
40035SOL    HW220132   9.310   1.490   2.773
40036SOL     OW20133   7.669   1.314   3.706
40036SOL    HW120134   7.604   1.241   3.685
40036SOL    HW220135   7.673   1.328   3.804
40037SOL     OW20136   7.527   1.240   2.515
40037SOL    HW120137   7.526   1.193   2.603
40037SOL    HW220138   7.609   1.212   2.464
40038SOL     OW20139   8.120   1.391   3.486
40038SOL    HW120140   8.042   1.341   3.524
40038SOL    HW220141   8.117   1.486   3.517
40039SOL     OW20142   9.272   0.192   3.089
40039SOL    HW120143   9.268   0.102   3.133
40039SOL    HW220144   9.275   0.181   2.990
40040SOL     OW20145   7.876   0.424   2.382
40040SOL    HW120146   7.906   0.352   2.320
40040SOL    HW220147   7.837   0.384   2.465
40041SOL     OW20148   9.153   1.487   2.966
40041SOL    HW120149   9.060   1.462   2.939
40041SOL    HW220150   9.179   1.437   3.048
40042SOL     OW20151   7.765   0.547   3.142
40042SOL    HW120152   7.803   0.488   3.214
40042SOL    HW220153   7.805   0.521   3.054
40043SOL     OW20154   8.260   1.586   2.549
40043SOL    HW120155   8.292   1.596   2.455
40043SOL    HW220156   8.181   1.524   2.551
40044SOL     OW20157   8.872   0.214   2.974
40044SOL    HW120158   8.924   0.149   3.029
40044SOL    HW220159   8.823   0.277   3.035
40045SOL     OW20160   8.449   0.034   3.016
40045SOL    HW120161   8.386  -0.038   2.985
40045SOL    HW220162   8.542  -0.002   3.016
40046SOL     OW20163   8.218   1.330   2.163
40046SOL    HW120164   8.172   1.243   2.180
40046SOL    HW220165   8.309   1.327   2.204
40047SOL     OW20166   8.066   1.567   3.146
40047SOL    HW120167   8.061   1.649   3.203
40047SOL    HW220168   8.155   1.564   3.101
40048SOL     OW20169   8.800   0.052   2.030
40048SOL    HW120170   8.835   0.011   1.946
40048SOL    HW220171   8.710   0.014   2.050
40049SOL     OW20172   8.748   0.453   2.553
40049SOL    HW120173   8.689   0.533   2.557
40049SOL    HW220174   8.763   0.418   2.646
40050SOL     OW20175   9.041   0.221   2.744
40050SOL    HW120176   8.957   0.220   2.798
40050SOL    HW220177   9.043   0.304   2.688
40051SOL     OW20178   7.487   1.077   2.162
40051SOL    HW120179   7.586   1.066   2.153
40051SOL    HW220180   7.447   0.991   2.194
40052SOL     OW20181   8.323   1.646   2.199
40052SOL    HW120182   8.246   1.611   2.145
40052SOL    HW220183   8.291   1.717   2.261
40053SOL     OW20184   7.678   0.628   3.837
40053SOL    HW120185   7.585   0.626   3.874
40053SOL    HW220186   7.679   0.589   3.745
40054SOL     OW20187   7.673   0.275   4.720
40054SOL    HW120188   7.708   0.258   4.812
40054SOL    HW220189   7.585   0.230   4.708
40055SOL     OW20190   7.467   0.368   4.371
40055SOL    HW120191   7.385   0.411   4.410
40055SOL    HW220192   7.439   0.295   4.308
40056SOL     OW20193   8.017   1.275   4.889
40056SOL    HW120194   7.924   1.268   4.852
40056SOL    HW220195   8.028   1.364   4.933
40057SOL     OW20196   9.003   1.511   4.427
40057SOL    HW120197   8.946   1.495   4.508
40057SOL    HW220198   8.944   1.521   4.347
40058SOL     OW20199   8.583   0.703   4.441
40058SOL    HW120200   8.640   0.781   4.416
40058SOL    HW220201   8.523   0.729   4.517
40059SOL     OW20202   9.203   0.607   3.955
40059SOL    HW120203   9.191   0.594   3.856
40059SOL    HW220204   9.173   0.526   4.004
40060SOL     OW20205   8.216   1.144   4.747
40060SOL    HW120206   8.138   1.161   4.807
40060SOL    HW220207   8.250   1.231   4.711
40061SOL     OW20208   8.298   0.798   5.547
40061SOL    HW120209   8.294   0.874   5.612
40061SOL    HW220210   8.320   0.834   5.456
40062SOL     OW20211   8.133   1.012   4.389
40062SOL    HW120212   8.202   0.996   4.459
40062SOL    HW220213   8.060   1.069   4.427
40063SOL     OW20214   8.134   1.161   5.527
40063SOL    HW120215   8.194   1.240   5.541
40063SOL    HW220216   8.048   1.192   5.486
40064SOL     OW20217   7.783   1.435   4.785
40064SOL    HW120218   7.705   1.404   4.732
40064SOL    HW220219   7.841   1.493   4.728
40065SOL     OW20220   8.908   1.505   5.063
40065SOL    HW120221   8.932   1.599   5.089
40065SOL    HW220222   8.892   1.451   5.145
40066SOL     OW20223   7.886   0.392   5.223
40066SOL    HW120224   7.968   0.336   5.232
40066SOL    HW220225   7.805   0.334   5.227
40067SOL     OW20226   9.051   0.447   4.461
40067SOL    HW120227   8.977   0.493   4.411
40067SOL    HW220228   9.102   0.515   4.514
40068SOL     OW20229   7.679   1.713   4.207
40068SOL    HW120230   7.713   1.790   4.261
40068SOL    HW220231   7.723   1.713   4.117
40069SOL     OW20232   8.575   1.341   5.414
40069SOL    HW120233   8.622   1.341   5.502
40069SOL    HW220234   8.527   1.254   5.403
40070SOL     OW20235   7.678   1.434   4.262
40070SOL    HW120236   7.652   1.530   4.262
40070SOL    HW220237   7.607   1.380   4.307
40071SOL     OW20238   7.688   1.091   4.610
40071SOL    HW120239   7.702   1.007   4.662
40071SOL    HW220240   7.633   1.155   4.665
40072SOL     OW20241   8.068   1.786   5.163
40072SOL    HW120242   7.976   1.769   5.198
40072SOL    HW220243   8.096   1.878   5.189
40073SOL     OW20244   8.054   0.964   3.847
40073SOL    HW120245   8.061   1.048   3.793
40073SOL    HW220246   8.100   0.977   3.935
40074SOL     OW20247   9.042   0.114   5.204
40074SOL    HW120248   9.024   0.181   5.132
40074SOL    HW220249   9.039   0.160   5.293
40075SOL     OW20250   7.570   0.643   4.287
40075SOL    HW120251   7.525   0.555   4.304
40075SOL    HW220252   7.569   0.697   4.371
40076SOL     OW20253   9.290   1.767   4.083
40076SOL    HW120254   9.344   1.738   4.163
40076SOL    HW220255   9.320   1.857   4.054
40077SOL     OW20256   7.475   1.596   3.841
40077SOL    HW120257   7.456   1.500   3.862
40077SOL    HW220258   7.442   1.654   3.916
40078SOL     OW20259   9.137   0.922   4.336
40078SOL    HW120260   9.232   0.893   4.344
40078SOL    HW220261   9.129   0.987   4.261
40079SOL     OW20262   9.089   1.108   4.156
40079SOL    HW120263   9.175   1.110   4.104
40079SOL    HW220264   9.103   1.155   4.244
40080SOL     OW20265   7.561   0.737   5.321
40080SOL    HW120266   7.649   0.724   5.366
40080SOL    HW220267   7.548   0.834   5.299
40081SOL     OW20268   8.061   1.365   4.450
40081SOL    HW120269   8.012   1.278   4.459
40081SOL    HW220270   8.038   1.408   4.363
40082SOL     OW20271   8.741   1.228   5.147
40082SOL    HW120272   8.778   1.155   5.089
40082SOL    HW220273   8.793   1.233   5.232
40083SOL     OW20274   8.257   0.004   4.226
40083SOL    HW120275   8.297   0.095   4.217
40083SOL    HW220276   8.157   0.012   4.232
40084SOL     OW20277   7.645   0.976   4.988
40084SOL    HW120278   7.734   0.931   4.974
40084SOL    HW220279   7.572   0.911   4.969
40085SOL     OW20280   8.973   0.999   3.914
40085SOL    HW120281   8.910   0.923   3.927
40085SOL    HW220282   9.021   1.017   4.000
40086SOL     OW20283   8.635   1.792   5.340
40086SOL    HW120284   8.659   1.852   5.264
40086SOL    HW220285   8.642   1.697   5.310
40087SOL     OW20286   7.765   0.251   5.525
40087SOL    HW120287   7.836   0.322   5.531
40087SOL    HW220288   7.677   0.290   5.553
40088SOL     OW20289   8.914   1.417   4.677
40088SOL    HW120290   8.855   1.423   4.757
40088SOL    HW220291   8.899   1.329   4.631
40089SOL     OW20292   9.115   1.714   4.296
40089SOL    HW120293   9.074   1.691   4.208
40089SOL    HW220294   9.097   1.640   4.361
40090SOL     OW20295   8.046   0.729   3.994
40090SOL    HW120296   8.070   0.798   3.926
40090SOL    HW220297   7.968   0.762   4.048
40091SOL     OW20298   8.729   0.345   4.668
40091SOL    HW120299   8.643   0.295   4.655
40091SOL    HW220300   8.791   0.291   4.724
40092SOL     OW20301   9.024   1.662   4.031
40092SOL    HW120302   9.113   1.708   4.034
40092SOL    HW220303   9.003   1.638   3.936
40093SOL     OW20304   8.255   0.605   5.189
40093SOL    HW120305   8.208   0.602   5.278
40093SOL    HW220306   8.204   0.550   5.123
40094SOL     OW20307   8.842   0.469   5.398
40094SOL    HW120308   8.822   0.512   5.486
40094SOL    HW220309   8.920   0.407   5.407
40095SOL     OW20310   8.421   0.890   5.296
40095SOL    HW120311   8.467   0.806   5.267
40095SOL    HW220312   8.365   0.924   5.221
40096SOL     OW20313   8.439   0.410   4.966
40096SOL    HW120314   8.362   0.444   5.020
40096SOL    HW220315   8.405   0.359   4.887
40097SOL     OW20316   8.489   0.701   4.153
40097SOL    HW120317   8.515   0.697   4.249
40097SOL    HW220318   8.404   0.650   4.139
40098SOL     OW20319   7.524   0.811   4.513
40098SOL    HW120320   7.623   0.799   4.522
40098SOL    HW220321   7.500   0.906   4.534
40099SOL     OW20322   7.578   1.821   5.295
40099SOL    HW120323   7.568   1.806   5.394
40099SOL    HW220324   7.492   1.857   5.259
40100SOL     OW20325   8.313   0.348   3.919
40100SOL    HW120326   8.372   0.411   3.870
40100SOL    HW220327   8.332   0.254   3.890
40101SOL     OW20328   9.167   0.585   5.555
40101SOL    HW120329   9.141   0.674   5.519
40101SOL    HW220330   9.165   0.517   5.482
40102SOL     OW20331   8.810   1.144   4.269
40102SOL    HW120332   8.893   1.115   4.221
40102SOL    HW220333   8.761   1.211   4.213
40103SOL     OW20334   7.998   0.196   4.609
40103SOL    HW120335   7.993   0.191   4.709
40103SOL    HW220336   8.000   0.292   4.580
40104SOL     OW20337   8.456   1.456   4.201
40104SOL    HW120338   8.410   1.528   4.149
40104SOL    HW220339   8.452   1.476   4.299
40105SOL     OW20340   7.799   1.801   4.577
40105SOL    HW120341   7.849   1.715   4.583
40105SOL    HW220342   7.864   1.878   4.574
40106SOL     OW20343   9.243   1.066   4.597
40106SOL    HW120344   9.181   1.051   4.521
40106SOL    HW220345   9.191   1.077   4.682
40107SOL     OW20346   8.675   1.550   5.230
40107SOL    HW120347   8.681   1.473   5.294
40107SOL    HW220348   8.623   1.524   5.150
40108SOL     OW20349   7.769   0.943   3.966
40108SOL    HW120350   7.851   0.982   3.924
40108SOL    HW220351   7.742   0.861   3.917
40109SOL     OW20352   8.906   0.735   4.452
40109SOL    HW120353   8.901   0.670   4.527
40109SOL    HW220354   8.986   0.794   4.465
40110SOL     OW20355   7.909   1.266   5.451
40110SOL    HW120356   7.859   1.267   5.365
40110SOL    HW220357   7.846   1.248   5.527
40111SOL     OW20358   8.559   1.776   3.961
40111SOL    HW120359   8.499   1.714   4.011
40111SOL    HW220360   8.590   1.732   3.876
40112SOL     OW20361   7.650   0.285   5.222
40112SOL    HW120362   7.570   0.345   5.209
40112SOL    HW220363   7.640   0.236   5.308
40113SOL     OW20364   9.080   1.377   3.805
40113SOL    HW120365   9.048   1.471   3.795
40113SOL    HW220366   9.004   1.314   3.793
40114SOL     OW20367   7.912   1.743   4.047
40114SOL    HW120368   7.945   1.782   4.133
40114SOL    HW220369   7.988   1.736   3.982
40115SOL     OW20370   8.848   0.107   4.150
40115SOL    HW120371   8.824   0.070   4.060
40115SOL    HW220372   8.947   0.123   4.154
40116SOL     OW20373   7.697   1.785   4.965
40116SOL    HW120374   7.754   1.720   5.015
40116SOL    HW220375   7.681   1.752   4.872
40117SOL     OW20376   8.388   1.698   4.628
40117SOL    HW120377   8.468   1.641   4.649
40117SOL    HW220378   8.339   1.658   4.551
40118SOL     OW20379   7.830   0.700   4.204
40118SOL    HW120380   7.875   0.610   4.201
40118SOL    HW220381   7.736   0.689   4.237
40119SOL     OW20382   8.995   0.222   5.453
40119SOL    HW120383   8.990   0.259   5.545
40119SOL    HW220384   8.923   0.153   5.441
40120SOL     OW20385   8.062   0.122   3.841
40120SOL    HW120386   8.160   0.100   3.848
40120SOL    HW220387   8.031   0.105   3.748
40121SOL     OW20388   8.229   0.264   5.473
40121SOL    HW120389   8.296   0.203   5.516
40121SOL    HW220390   8.156   0.283   5.538
40122SOL     OW20391   8.336   1.514   4.919
40122SOL    HW120392   8.313   1.489   4.825
40122SOL    HW220393   8.397   1.445   4.958
40123SOL     OW20394   8.799   0.590   5.157
40123SOL    HW120395   8.827   0.547   5.242
40123SOL    HW220396   8.824   0.686   5.158
40124SOL     OW20397   8.251   1.402   4.648
40124SOL    HW120398   8.341   1.416   4.606
40124SOL    HW220399   8.180   1.404   4.577
40125SOL     OW20400   8.370   0.503   4.623
40125SOL    HW120401   8.345   0.494   4.527
40125SOL    HW220402   8.418   0.421   4.654
40126SOL     OW20403   7.987   0.064   4.236
40126SOL    HW120404   7.906   0.065   4.294
40126SOL    HW220405   7.990   0.147   4.181
40127SOL     OW20406   8.882   1.188   3.765
40127SOL    HW120407   8.914   1.112   3.822
40127SOL    HW220408   8.790   1.215   3.795
40128SOL     OW20409   7.745   0.035   3.895
40128SOL    HW120410   7.794   0.119   3.874
40128SOL    HW220411   7.807  -0.030   3.940
40129SOL     OW20412   8.383   0.236   4.204
40129SOL    HW120413   8.335   0.277   4.126
40129SOL    HW220414   8.482   0.234   4.185
40130SOL     OW20415   8.524   0.683   5.188
40130SOL    HW120416   8.444   0.622   5.191
40130SOL    HW220417   8.605   0.630   5.164
40131SOL     OW20418   8.675   1.570   4.517
40131SOL    HW120419   8.696   1.644   4.452
40131SOL    HW220420   8.743   1.570   4.590
40132SOL     OW20421   7.907   1.152   4.465
40132SOL    HW120422   7.836   1.125   4.530
40132SOL    HW220423   7.881   1.124   4.372
40133SOL     OW20424   8.719   1.797   4.315
40133SOL    HW120425   8.763   1.861   4.251
40133SOL    HW220426   8.669   1.849   4.385
40134SOL     OW20427   8.480   0.549   3.740
40134SOL    HW120428   8.439   0.631   3.701
40134SOL    HW220429   8.544   0.575   3.813
40135SOL     OW20430   7.526   0.556   5.110
40135SOL    HW120431   7.618   0.555   5.069
40135SOL    HW220432   7.520   0.630   5.177
40136SOL     OW20433   8.009   0.222   4.871
40136SOL    HW120434   8.047   0.138   4.908
40136SOL    HW220435   7.921   0.241   4.915
40137SOL     OW20436   8.314   0.454   4.366
40137SOL    HW120437   8.282   0.526   4.304
40137SOL    HW220438   8.338   0.373   4.313
40138SOL     OW20439   8.465   0.039   4.477
40138SOL    HW120440   8.393   0.044   4.408
40138SOL    HW220441   8.441  -0.030   4.546
40139SOL     OW20442   8.877   1.173   4.591
40139SOL    HW120443   8.822   1.089   4.584
40139SOL    HW220444   8.903   1.202   4.499
40140SOL     OW20445   8.914   0.590   4.716
40140SOL    HW120446   8.884   0.495   4.723
40140SOL    HW220447   8.987   0.606   4.782
40141SOL     OW20448   9.305   0.833   4.101
40141SOL    HW120449   9.347   0.769   4.165
40141SOL    HW220450   9.267   0.782   4.023
40142SOL     OW20451   7.936   1.385   3.898
40142SOL    HW120452   7.849   1.370   3.945
40142SOL    HW220453   7.919   1.411   3.803
40143SOL     OW20454   9.112   1.280   4.381
40143SOL    HW120455   9.211   1.288   4.395
40143SOL    HW220456   9.067   1.364   4.412
40144SOL     OW20457   8.838   0.575   3.802
40144SOL    HW120458   8.784   0.554   3.883
40144SOL    HW220459   8.929   0.534   3.811
40145SOL     OW20460   7.975   0.256   4.052
40145SOL    HW120461   8.002   0.197   3.977
40145SOL    HW220462   7.975   0.351   4.021
40146SOL     OW20463   9.202   1.223   5.312
40146SOL    HW120464   9.293   1.184   5.299
40146SOL    HW220465   9.210   1.319   5.336
40147SOL     OW20466   8.512   1.347   5.064
40147SOL    HW120467   8.432   1.324   5.119
40147SOL    HW220468   8.595   1.321   5.113
40148SOL     OW20469   9.040   1.629   5.349
40148SOL    HW120470   9.067   1.663   5.259
40148SOL    HW220471   9.119   1.591   5.395
40149SOL     OW20472   8.559   1.195   4.824
40149SOL    HW120473   8.519   1.239   4.905
40149SOL    HW220474   8.518   1.232   4.741
40150SOL     OW20475   9.086   1.099   4.803
40150SOL    HW120476   9.091   1.180   4.862
40150SOL    HW220477   9.000   1.101   4.752
40151SOL     OW20478   8.363   0.089   5.126
40151SOL    HW120479   8.388   0.069   5.031
40151SOL    HW220480   8.435   0.145   5.168
40152SOL     OW20481   8.428   1.116   5.443
40152SOL    HW120482   8.329   1.122   5.453
40152SOL    HW220483   8.451   1.036   5.387
40153SOL     OW20484   8.153   1.050   4.092
40153SOL    HW120485   8.139   1.057   4.191
40153SOL    HW220486   8.237   0.999   4.074
40154SOL     OW20487   7.858   0.813   4.975
40154SOL    HW120488   7.944   0.825   5.025
40154SOL    HW220489   7.816   0.726   5.002
40155SOL     OW20490   8.722   0.386   4.986
40155SOL    HW120491   8.743   0.460   5.050
40155SOL    HW220492   8.633   0.403   4.943
40156SOL     OW20493   7.512   1.564   5.055
40156SOL    HW120494   7.466   1.646   5.021
40156SOL    HW220495   7.610   1.583   5.064
40157SOL     OW20496   7.815   1.100   4.225
40157SOL    HW120497   7.808   1.183   4.169
40157SOL    HW220498   7.819   1.020   4.165
40158SOL     OW20499   8.014   0.537   4.589
40158SOL    HW120500   8.026   0.603   4.515
40158SOL    HW220501   8.060   0.571   4.672
40159SOL     OW20502   8.700   1.348   4.112
40159SOL    HW120503   8.750   1.425   4.152
40159SOL    HW220504   8.605   1.350   4.144
40160SOL     OW20505   8.720   1.445   4.866
40160SOL    HW120506   8.767   1.458   4.953
40160SOL    HW220507   8.654   1.371   4.875
40161SOL     OW20508   9.030   0.639   4.196
40161SOL    HW120509   8.999   0.700   4.269
40161SOL    HW220510   9.080   0.691   4.127
40162SOL     OW20511   7.802   1.510   5.053
40162SOL    HW120512   7.781   1.466   4.966
40162SOL    HW220513   7.899   1.536   5.056
40163SOL     OW20514   7.850   0.751   5.322
40163SOL    HW120515   7.918   0.806   5.275
40163SOL    HW220516   7.890   0.663   5.349
40164SOL     OW20517   9.035   0.779   5.394
40164SOL    HW120518   8.943   0.817   5.389
40164SOL    HW220519   9.095   0.826   5.329
40165SOL     OW20520   8.461   0.105   5.494
40165SOL    HW120521   8.467   0.190   5.442
40165SOL    HW220522   8.493   0.029   5.437
40166SOL     OW20523   7.952   0.050   5.464
40166SOL    HW120524   7.910  -0.007   5.394
40166SOL    HW220525   7.886   0.119   5.496
40167SOL     OW20526   8.021   0.870   4.753
40167SOL    HW120527   8.065   0.959   4.744
40167SOL    HW220528   7.958   0.870   4.830
40168SOL     OW20529   8.808   0.862   4.769
40168SOL    HW120530   8.733   0.862   4.703
40168SOL    HW220531   8.845   0.770   4.778
40169SOL     OW20532   8.657   0.525   3.999
40169SOL    HW120533   8.670   0.441   4.053
40169SOL    HW220534   8.628   0.599   4.059
40170SOL     OW20535   7.755   0.213   4.955
40170SOL    HW120536   7.732   0.250   5.045
40170SOL    HW220537   7.725   0.118   4.949
40171SOL     OW20538   7.485   1.310   5.006
40171SOL    HW120539   7.538   1.261   5.074
40171SOL    HW220540   7.507   1.408   5.011
40172SOL     OW20541   8.180   0.634   4.788
40172SOL    HW120542   8.239   0.608   4.712
40172SOL    HW220543   8.152   0.730   4.777
40173SOL     OW20544   9.176   0.935   5.578
40173SOL    HW120545   9.130   0.928   5.489
40173SOL    HW220546   9.114   0.979   5.644
40174SOL     OW20547   7.755   0.063   4.342
40174SOL    HW120548   7.744   0.157   4.375
40174SOL    HW220549   7.750   0.000   4.419
40175SOL     OW20550   9.070   0.367   4.098
40175SOL    HW120551   9.072   0.291   4.162
40175SOL    HW220552   9.022   0.444   4.138
40176SOL     OW20553   8.471   0.766   4.690
40176SOL    HW120554   8.486   0.787   4.786
40176SOL    HW220555   8.441   0.671   4.681
40177SOL     OW20556   8.428   1.573   5.424
40177SOL    HW120557   8.408   1.617   5.336
40177SOL    HW220558   8.467   1.482   5.408
40178SOL     OW20559   9.307   1.518   5.329
40178SOL    HW120560   9.321   1.545   5.234
40178SOL    HW220561   9.390   1.540   5.382
40179SOL     OW20562   7.798   0.898   5.528
40179SOL    HW120563   7.874   0.942   5.576
40179SOL    HW220564   7.833   0.851   5.446
40180SOL     OW20565   8.988   0.274   3.849
40180SOL    HW120566   8.927   0.199   3.872
40180SOL    HW220567   9.010   0.326   3.932
40181SOL     OW20568   8.751   0.838   3.766
40181SOL    HW120569   8.785   0.745   3.781
40181SOL    HW220570   8.769   0.865   3.671
40182SOL     OW20571   8.516   1.333   4.573
40182SOL    HW120572   8.523   1.249   4.518
40182SOL    HW220573   8.578   1.402   4.537
40183SOL     OW20574   7.767   0.810   4.673
40183SOL    HW120575   7.860   0.846   4.678
40183SOL    HW220576   7.761   0.725   4.725
40184SOL     OW20577   7.787   0.509   4.730
40184SOL    HW120578   7.735   0.426   4.713
40184SOL    HW220579   7.864   0.514   4.666
40185SOL     OW20580   8.586   0.380   5.402
40185SOL    HW120581   8.541   0.443   5.466
40185SOL    HW220582   8.679   0.411   5.385
40186SOL     OW20583   8.608   0.207   5.201
40186SOL    HW120584   8.608   0.271   5.278
40186SOL    HW220585   8.636   0.255   5.118
40187SOL     OW20586   7.456   1.326   3.924
40187SOL    HW120587   7.363   1.347   3.893
40187SOL    HW220588   7.466   1.227   3.937
40188SOL     OW20589   7.536   1.801   4.651
40188SOL    HW120590   7.494   1.715   4.624
40188SOL    HW220591   7.630   1.804   4.617
40189SOL     OW20592   7.952   1.568   4.634
40189SOL    HW120593   8.018   1.642   4.643
40189SOL    HW220594   7.996   1.489   4.592
40190SOL     OW20595   8.450   0.796   4.962
40190SOL    HW120596   8.491   0.764   5.048
40190SOL    HW220597   8.354   0.769   4.959
40191SOL     OW20598   7.488   0.544   4.838
40191SOL    HW120599   7.573   0.511   4.797
40191SOL    HW220600   7.501   0.559   4.936
40192SOL     OW20601   7.637   0.520   5.446
40192SOL    HW120602   7.696   0.480   5.376
40192SOL    HW220603   7.579   0.591   5.405
40193SOL     OW20604   8.817   0.950   5.384
40193SOL    HW120605   8.856   1.039   5.404
40193SOL    HW220606   8.827   0.930   5.287
40194SOL     OW20607   8.263   0.572   4.049
40194SOL    HW120608   8.270   0.483   4.003
40194SOL    HW220609   8.169   0.606   4.041
40195SOL     OW20610   9.105   0.604   4.930
40195SOL    HW120611   9.067   0.535   4.992
40195SOL    HW220612   9.187   0.568   4.886
40196SOL     OW20613   7.700   1.564   5.468
40196SOL    HW120614   7.670   1.621   5.544
40196SOL    HW220615   7.693   1.467   5.494
40197SOL     OW20616   8.119   0.464   4.993
40197SOL    HW120617   8.085   0.375   4.963
40197SOL    HW220618   8.145   0.518   4.913
40198SOL     OW20619   8.378   1.678   5.189
40198SOL    HW120620   8.354   1.660   5.094
40198SOL    HW220621   8.408   1.772   5.199
40199SOL     OW20622   7.921   0.500   3.915
40199SOL    HW120623   7.982   0.580   3.919
40199SOL    HW220624   7.826   0.531   3.922
40200SOL     OW20625   7.607   1.137   5.190
40200SOL    HW120626   7.629   1.076   5.266
40200SOL    HW220627   7.617   1.088   5.104
40201SOL     OW20628   8.795   1.059   4.958
40201SOL    HW120629   8.819   0.996   4.884
40201SOL    HW220630   8.705   1.099   4.940
40202SOL     OW20631   8.750   0.855   4.033
40202SOL    HW120632   8.664   0.824   4.075
40202SOL    HW220633   8.746   0.841   3.934
40203SOL     OW20634   9.207   1.747   4.878
40203SOL    HW120635   9.268   1.777   4.805
40203SOL    HW220636   9.169   1.658   4.856
40204SOL     OW20637   8.700   1.731   4.852
40204SOL    HW120638   8.784   1.736   4.798
40204SOL    HW220639   8.677   1.635   4.870
40205SOL     OW20640   7.531   1.258   4.746
40205SOL    HW120641   7.526   1.257   4.846
40205SOL    HW220642   7.448   1.217   4.708
40206SOL     OW20643   8.136   1.662   5.440
40206SOL    HW120644   8.080   1.743   5.449
40206SOL    HW220645   8.188   1.666   5.354
40207SOL     OW20646   9.174   0.135   4.247
40207SOL    HW120647   9.247   0.118   4.180
40207SOL    HW220648   9.143   0.048   4.285
40208SOL     OW20649   8.836   1.573   4.201
40208SOL    HW120650   8.903   1.585   4.127
40208SOL    HW220651   8.796   1.662   4.224
40209SOL     OW20652   7.578   1.794   5.575
40209SOL    HW120653   7.537   1.720   5.628
40209SOL    HW220654   7.642   1.845   5.633
40210SOL     OW20655   8.728   0.927   4.396
40210SOL    HW120656   8.788   0.846   4.398
40210SOL    HW220657   8.768   0.996   4.336
40211SOL     OW20658   8.278   1.273   5.146
40211SOL    HW120659   8.273   1.306   5.241
40211SOL    HW220660   8.192   1.292   5.100
40212SOL     OW20661   8.120   1.616   3.878
40212SOL    HW120662   8.129   1.626   3.779
40212SOL    HW220663   8.080   1.527   3.899
40213SOL     OW20664   9.098   1.720   5.118
40213SOL    HW120665   9.151   1.730   5.034
40213SOL    HW220666   9.071   1.810   5.152
40214SOL     OW20667   9.289   0.175   4.687
40214SOL    HW120668   9.328   0.090   4.651
40214SOL    HW220669   9.191   0.177   4.668
40215SOL     OW20670   7.711   0.326   4.444
40215SOL    HW120671   7.632   0.377   4.410
40215SOL    HW220672   7.702   0.311   4.542
40216SOL     OW20673   8.642   1.612   3.755
40216SOL    HW120674   8.648   1.519   3.792
40216SOL    HW220675   8.583   1.612   3.675
40217SOL     OW20676   8.270   1.002   5.096
40217SOL    HW120677   8.310   1.001   5.004
40217SOL    HW220678   8.280   1.094   5.136
40218SOL     OW20679   8.364   0.910   4.015
40218SOL    HW120680   8.427   0.948   3.947
40218SOL    HW220681   8.404   0.827   4.054
40219SOL     OW20682   8.952   1.607   3.768
40219SOL    HW120683   8.860   1.644   3.775
40219SOL    HW220684   8.990   1.627   3.678
40220SOL     OW20685   7.820   1.288   5.214
40220SOL    HW120686   7.807   1.381   5.180
40220SOL    HW220687   7.736   1.236   5.201
40221SOL     OW20688   9.062   1.292   5.013
40221SOL    HW120689   9.122   1.295   5.093
40221SOL    HW220690   8.987   1.356   5.026
40222SOL     OW20691   8.487   1.098   4.420
40222SOL    HW120692   8.417   1.051   4.474
40222SOL    HW220693   8.546   1.030   4.377
40223SOL     OW20694   8.462   0.236   4.695
40223SOL    HW120695   8.454   0.200   4.602
40223SOL    HW220696   8.460   0.160   4.760
40224SOL     OW20697   8.038   1.487   4.215
40224SOL    HW120698   8.080   1.429   4.145
40224SOL    HW220699   7.994   1.566   4.171
40225SOL     OW20700   9.157   0.385   5.105
40225SOL    HW120701   9.230   0.454   5.109
40225SOL    HW220702   9.185   0.310   5.046
40226SOL     OW20703   7.703   1.348   4.014
40226SOL    HW120704   7.607   1.349   3.987
40226SOL    HW220705   7.715   1.401   4.098
40227SOL     OW20706   7.553   1.013   5.450
40227SOL    HW120707   7.476   0.980   5.504
40227SOL    HW220708   7.638   0.983   5.492
40228SOL     OW20709   8.120   0.203   5.213
40228SOL    HW120710   8.210   0.187   5.173
40228SOL    HW220711   8.128   0.208   5.312
40229SOL     OW20712   7.523   0.345   3.757
40229SOL    HW120713   7.431   0.317   3.728
40229SOL    HW220714   7.554   0.422   3.701
40230SOL     OW20715   8.888   0.856   5.122
40230SOL    HW120716   8.831   0.908   5.059
40230SOL    HW220717   8.984   0.868   5.098
40231SOL     OW20718   7.520   0.166   4.042
40231SOL    HW120719   7.503   0.249   3.988
40231SOL    HW220720   7.610   0.129   4.020
40232SOL     OW20721   8.631   1.335   3.843
40232SOL    HW120722   8.532   1.324   3.845
40232SOL    HW220723   8.665   1.350   3.936
40233SOL     OW20724   8.061   0.842   5.155
40233SOL    HW120725   8.117   0.923   5.138
40233SOL    HW220726   8.120   0.762   5.158
40234SOL     OW20727   8.941   1.767   4.683
40234SOL    HW120728   8.974   1.831   4.614
40234SOL    HW220729   9.007   1.761   4.758
40235SOL     OW20730   8.164   0.565   5.432
40235SOL    HW120731   8.183   0.630   5.506
40235SOL    HW220732   8.224   0.485   5.441
40236SOL     OW20733   8.898   1.220   5.357
40236SOL    HW120734   8.889   1.210   5.456
40236SOL    HW220735   8.994   1.213   5.331
40237SOL     OW20736   7.838   1.741   5.284
40237SOL    HW120737   7.747   1.782   5.282
40237SOL    HW220738   7.831   1.647   5.316
40238SOL     OW20739   9.122   0.883   4.978
40238SOL    HW120740   9.095   0.794   4.941
40238SOL    HW220741   9.123   0.951   4.905
40239SOL     OW20742   8.673   0.325   4.173
40239SOL    HW120743   8.738   0.251   4.162
40239SOL    HW220744   8.693   0.375   4.257
40240SOL     OW20745   8.042   0.745   4.376
40240SOL    HW120746   8.092   0.830   4.357
40240SOL    HW220747   7.954   0.747   4.328
40241SOL     OW20748   9.225   0.342   5.366
40241SOL    HW120749   9.208   0.373   5.272
40241SOL    HW220750   9.141   0.305   5.404
40242SOL     OW20751   9.178   0.934   5.241
40242SOL    HW120752   9.216   1.025   5.256
40242SOL    HW220753   9.170   0.917   5.142
40243SOL     OW20754   8.307   1.374   3.740
40243SOL    HW120755   8.261   1.389   3.828
40243SOL    HW220756   8.351   1.459   3.710
40244SOL     OW20757   8.109   1.790   4.677
40244SOL    HW120758   8.063   1.878   4.664
40244SOL    HW220759   8.208   1.802   4.670
40245SOL     OW20760   8.307   0.956   4.585
40245SOL    HW120761   8.361   0.887   4.633
40245SOL    HW220762   8.275   1.025   4.651
40246SOL     OW20763   8.531   0.984   3.811
40246SOL    HW120764   8.508   1.037   3.729
40246SOL    HW220765   8.612   0.928   3.792
40247SOL     OW20766   9.309   1.569   4.575
40247SOL    HW120767   9.238   1.557   4.505
40247SOL    HW220768   9.310   1.490   4.635
40248SOL     OW20769   7.669   1.314   5.568
40248SOL    HW120770   7.604   1.241   5.547
40248SOL    HW220771   7.673   1.328   5.666
40249SOL     OW20772   7.527   1.240   4.377
40249SOL    HW120773   7.526   1.193   4.465
40249SOL    HW220774   7.609   1.212   4.326
40250SOL     OW20775   8.120   1.391   5.348
40250SOL    HW120776   8.042   1.341   5.386
40250SOL    HW220777   8.117   1.486   5.379
40251SOL     OW20778   9.272   0.192   4.951
40251SOL    HW120779   9.268   0.102   4.995
40251SOL    HW220780   9.275   0.181   4.852
40252SOL     OW20781   7.876   0.424   4.244
40252SOL    HW120782   7.906   0.352   4.182
40252SOL    HW220783   7.837   0.384   4.327
40253SOL     OW20784   9.153   1.487   4.828
40253SOL    HW120785   9.060   1.462   4.801
40253SOL    HW220786   9.179   1.437   4.910
40254SOL     OW20787   7.765   0.547   5.004
40254SOL    HW120788   7.803   0.488   5.076
40254SOL    HW220789   7.805   0.521   4.916
40255SOL     OW20790   8.260   1.586   4.411
40255SOL    HW120791   8.292   1.596   4.317
40255SOL    HW220792   8.181   1.524   4.413
40256SOL     OW20793   8.872   0.214   4.836
40256SOL    HW120794   8.924   0.149   4.891
40256SOL    HW220795   8.823   0.277   4.897
40257SOL     OW20796   8.449   0.034   4.878
40257SOL    HW120797   8.386  -0.038   4.847
40257SOL    HW220798   8.542  -0.002   4.878
40258SOL     OW20799   8.218   1.330   4.025
40258SOL    HW120800   8.172   1.243   4.042
40258SOL    HW220801   8.309   1.327   4.066
40259SOL     OW20802   8.066   1.567   5.008
40259SOL    HW120803   8.061   1.649   5.065
40259SOL    HW220804   8.155   1.564   4.963
40260SOL     OW20805   8.800   0.052   3.892
40260SOL    HW120806   8.835   0.011   3.808
40260SOL    HW220807   8.710   0.014   3.912
40261SOL     OW20808   8.748   0.453   4.415
40261SOL    HW120809   8.689   0.533   4.419
40261SOL    HW220810   8.763   0.418   4.508
40262SOL     OW20811   9.041   0.221   4.606
40262SOL    HW120812   8.957   0.220   4.660
40262SOL    HW220813   9.043   0.304   4.550
40263SOL     OW20814   7.487   1.077   4.024
40263SOL    HW120815   7.586   1.066   4.015
40263SOL    HW220816   7.447   0.991   4.056
40264SOL     OW20817   8.323   1.646   4.061
40264SOL    HW120818   8.246   1.611   4.007
40264SOL    HW220819   8.291   1.717   4.123
40265SOL     OW20820   7.678   0.628   5.699
40265SOL    HW120821   7.585   0.626   5.736
40265SOL    HW220822   7.679   0.589   5.607
40266SOL     OW20823   7.673   0.275   6.582
40266SOL    HW120824   7.708   0.258   6.674
40266SOL    HW220825   7.585   0.230   6.570
40267SOL     OW20826   7.467   0.368   6.233
40267SOL    HW120827   7.385   0.411   6.272
40267SOL    HW220828   7.439   0.295   6.170
40268SOL     OW20829   8.017   1.275   6.751
40268SOL    HW120830   7.924   1.268   6.714
40268SOL    HW220831   8.028   1.364   6.795
40269SOL     OW20832   9.003   1.511   6.289
40269SOL    HW120833   8.946   1.495   6.370
40269SOL    HW220834   8.944   1.521   6.209
40270SOL     OW20835   8.583   0.703   6.303
40270SOL    HW120836   8.640   0.781   6.278
40270SOL    HW220837   8.523   0.729   6.379
40271SOL     OW20838   9.203   0.607   5.817
40271SOL    HW120839   9.191   0.594   5.718
40271SOL    HW220840   9.173   0.526   5.866
40272SOL     OW20841   8.216   1.144   6.609
40272SOL    HW120842   8.138   1.161   6.669
40272SOL    HW220843   8.250   1.231   6.573
40273SOL     OW20844   8.298   0.798   7.409
40273SOL    HW120845   8.294   0.874   7.474
40273SOL    HW220846   8.320   0.834   7.318
40274SOL     OW20847   8.133   1.012   6.251
40274SOL    HW120848   8.202   0.996   6.321
40274SOL    HW220849   8.060   1.069   6.289
40275SOL     OW20850   8.134   1.161   7.389
40275SOL    HW120851   8.194   1.240   7.403
40275SOL    HW220852   8.048   1.192   7.348
40276SOL     OW20853   7.783   1.435   6.647
40276SOL    HW120854   7.705   1.404   6.594
40276SOL    HW220855   7.841   1.493   6.590
40277SOL     OW20856   8.908   1.505   6.925
40277SOL    HW120857   8.932   1.599   6.951
40277SOL    HW220858   8.892   1.451   7.007
40278SOL     OW20859   7.886   0.392   7.085
40278SOL    HW120860   7.968   0.336   7.094
40278SOL    HW220861   7.805   0.334   7.089
40279SOL     OW20862   9.051   0.447   6.323
40279SOL    HW120863   8.977   0.493   6.273
40279SOL    HW220864   9.102   0.515   6.376
40280SOL     OW20865   7.679   1.713   6.069
40280SOL    HW120866   7.713   1.790   6.123
40280SOL    HW220867   7.723   1.713   5.979
40281SOL     OW20868   8.575   1.341   7.276
40281SOL    HW120869   8.622   1.341   7.364
40281SOL    HW220870   8.527   1.254   7.265
40282SOL     OW20871   7.678   1.434   6.124
40282SOL    HW120872   7.652   1.530   6.124
40282SOL    HW220873   7.607   1.380   6.169
40283SOL     OW20874   7.688   1.091   6.472
40283SOL    HW120875   7.702   1.007   6.524
40283SOL    HW220876   7.633   1.155   6.527
40284SOL     OW20877   8.068   1.786   7.025
40284SOL    HW120878   7.976   1.769   7.060
40284SOL    HW220879   8.096   1.878   7.051
40285SOL     OW20880   8.054   0.964   5.709
40285SOL    HW120881   8.061   1.048   5.655
40285SOL    HW220882   8.100   0.977   5.797
40286SOL     OW20883   9.042   0.114   7.066
40286SOL    HW120884   9.024   0.181   6.994
40286SOL    HW220885   9.039   0.160   7.155
40287SOL     OW20886   7.570   0.643   6.149
40287SOL    HW120887   7.525   0.555   6.166
40287SOL    HW220888   7.569   0.697   6.233
40288SOL     OW20889   9.290   1.767   5.945
40288SOL    HW120890   9.344   1.738   6.025
40288SOL    HW220891   9.320   1.857   5.916
40289SOL     OW20892   7.475   1.596   5.703
40289SOL    HW120893   7.456   1.500   5.724
40289SOL    HW220894   7.442   1.654   5.778
40290SOL     OW20895   9.137   0.922   6.198
40290SOL    HW120896   9.232   0.893   6.206
40290SOL    HW220897   9.129   0.987   6.123
40291SOL     OW20898   9.089   1.108   6.018
40291SOL    HW120899   9.175   1.110   5.966
40291SOL    HW220900   9.103   1.155   6.106
40292SOL     OW20901   7.561   0.737   7.183
40292SOL    HW120902   7.649   0.724   7.228
40292SOL    HW220903   7.548   0.834   7.161
40293SOL     OW20904   8.061   1.365   6.312
40293SOL    HW120905   8.012   1.278   6.321
40293SOL    HW220906   8.038   1.408   6.225
40294SOL     OW20907   8.741   1.228   7.009
40294SOL    HW120908   8.778   1.155   6.951
40294SOL    HW220909   8.793   1.233   7.094
40295SOL     OW20910   8.257   0.004   6.088
40295SOL    HW120911   8.297   0.095   6.079
40295SOL    HW220912   8.157   0.012   6.094
40296SOL     OW20913   7.645   0.976   6.850
40296SOL    HW120914   7.734   0.931   6.836
40296SOL    HW220915   7.572   0.911   6.831
40297SOL     OW20916   8.973   0.999   5.776
40297SOL    HW120917   8.910   0.923   5.789
40297SOL    HW220918   9.021   1.017   5.862
40298SOL     OW20919   8.635   1.792   7.202
40298SOL    HW120920   8.659   1.852   7.126
40298SOL    HW220921   8.642   1.697   7.172
40299SOL     OW20922   7.765   0.251   7.387
40299SOL    HW120923   7.836   0.322   7.393
40299SOL    HW220924   7.677   0.290   7.415
40300SOL     OW20925   8.914   1.417   6.539
40300SOL    HW120926   8.855   1.423   6.619
40300SOL    HW220927   8.899   1.329   6.493
40301SOL     OW20928   9.115   1.714   6.158
40301SOL    HW120929   9.074   1.691   6.070
40301SOL    HW220930   9.097   1.640   6.223
40302SOL     OW20931   8.046   0.729   5.856
40302SOL    HW120932   8.070   0.798   5.788
40302SOL    HW220933   7.968   0.762   5.910
40303SOL     OW20934   8.729   0.345   6.530
40303SOL    HW120935   8.643   0.295   6.517
40303SOL    HW220936   8.791   0.291   6.586
40304SOL     OW20937   9.024   1.662   5.893
40304SOL    HW120938   9.113   1.708   5.896
40304SOL    HW220939   9.003   1.638   5.798
40305SOL     OW20940   8.255   0.605   7.051
40305SOL    HW120941   8.208   0.602   7.140
40305SOL    HW220942   8.204   0.550   6.985
40306SOL     OW20943   8.842   0.469   7.260
40306SOL    HW120944   8.822   0.512   7.348
40306SOL    HW220945   8.920   0.407   7.269
40307SOL     OW20946   8.421   0.890   7.158
40307SOL    HW120947   8.467   0.806   7.129
40307SOL    HW220948   8.365   0.924   7.083
40308SOL     OW20949   8.439   0.410   6.828
40308SOL    HW120950   8.362   0.444   6.882
40308SOL    HW220951   8.405   0.359   6.749
40309SOL     OW20952   8.489   0.701   6.015
40309SOL    HW120953   8.515   0.697   6.111
40309SOL    HW220954   8.404   0.650   6.001
40310SOL     OW20955   7.524   0.811   6.375
40310SOL    HW120956   7.623   0.799   6.384
40310SOL    HW220957   7.500   0.906   6.396
40311SOL     OW20958   7.578   1.821   7.157
40311SOL    HW120959   7.568   1.806   7.256
40311SOL    HW220960   7.492   1.857   7.121
40312SOL     OW20961   8.313   0.348   5.781
40312SOL    HW120962   8.372   0.411   5.732
40312SOL    HW220963   8.332   0.254   5.752
40313SOL     OW20964   9.167   0.585   7.417
40313SOL    HW120965   9.141   0.674   7.381
40313SOL    HW220966   9.165   0.517   7.344
40314SOL     OW20967   8.810   1.144   6.131
40314SOL    HW120968   8.893   1.115   6.083
40314SOL    HW220969   8.761   1.211   6.075
40315SOL     OW20970   7.998   0.196   6.471
40315SOL    HW120971   7.993   0.191   6.571
40315SOL    HW220972   8.000   0.292   6.442
40316SOL     OW20973   8.456   1.456   6.063
40316SOL    HW120974   8.410   1.528   6.011
40316SOL    HW220975   8.452   1.476   6.161
40317SOL     OW20976   7.799   1.801   6.439
40317SOL    HW120977   7.849   1.715   6.445
40317SOL    HW220978   7.864   1.878   6.436
40318SOL     OW20979   9.243   1.066   6.459
40318SOL    HW120980   9.181   1.051   6.383
40318SOL    HW220981   9.191   1.077   6.544
40319SOL     OW20982   8.675   1.550   7.092
40319SOL    HW120983   8.681   1.473   7.156
40319SOL    HW220984   8.623   1.524   7.012
40320SOL     OW20985   7.769   0.943   5.828
40320SOL    HW120986   7.851   0.982   5.786
40320SOL    HW220987   7.742   0.861   5.779
40321SOL     OW20988   8.906   0.735   6.314
40321SOL    HW120989   8.901   0.670   6.389
40321SOL    HW220990   8.986   0.794   6.327
40322SOL     OW20991   7.909   1.266   7.313
40322SOL    HW120992   7.859   1.267   7.227
40322SOL    HW220993   7.846   1.248   7.389
40323SOL     OW20994   8.559   1.776   5.823
40323SOL    HW120995   8.499   1.714   5.873
40323SOL    HW220996   8.590   1.732   5.738
40324SOL     OW20997   7.650   0.285   7.084
40324SOL    HW120998   7.570   0.345   7.071
40324SOL    HW220999   7.640   0.236   7.170
40325SOL     OW21000   9.080   1.377   5.667
40325SOL    HW121001   9.048   1.471   5.657
40325SOL    HW221002   9.004   1.314   5.655
40326SOL     OW21003   7.912   1.743   5.909
40326SOL    HW121004   7.945   1.782   5.995
40326SOL    HW221005   7.988   1.736   5.844
40327SOL     OW21006   8.848   0.107   6.012
40327SOL    HW121007   8.824   0.070   5.922
40327SOL    HW221008   8.947   0.123   6.016
40328SOL     OW21009   7.697   1.785   6.827
40328SOL    HW121010   7.754   1.720   6.877
40328SOL    HW221011   7.681   1.752   6.734
40329SOL     OW21012   8.388   1.698   6.490
40329SOL    HW121013   8.468   1.641   6.511
40329SOL    HW221014   8.339   1.658   6.413
40330SOL     OW21015   7.830   0.700   6.066
40330SOL    HW121016   7.875   0.610   6.063
40330SOL    HW221017   7.736   0.689   6.099
40331SOL     OW21018   8.995   0.222   7.315
40331SOL    HW121019   8.990   0.259   7.407
40331SOL    HW221020   8.923   0.153   7.303
40332SOL     OW21021   8.062   0.122   5.703
40332SOL    HW121022   8.160   0.100   5.710
40332SOL    HW221023   8.031   0.105   5.610
40333SOL     OW21024   8.229   0.264   7.335
40333SOL    HW121025   8.296   0.203   7.378
40333SOL    HW221026   8.156   0.283   7.400
40334SOL     OW21027   8.336   1.514   6.781
40334SOL    HW121028   8.313   1.489   6.687
40334SOL    HW221029   8.397   1.445   6.820
40335SOL     OW21030   8.799   0.590   7.019
40335SOL    HW121031   8.827   0.547   7.104
40335SOL    HW221032   8.824   0.686   7.020
40336SOL     OW21033   8.251   1.402   6.510
40336SOL    HW121034   8.341   1.416   6.468
40336SOL    HW221035   8.180   1.404   6.439
40337SOL     OW21036   8.370   0.503   6.485
40337SOL    HW121037   8.345   0.494   6.389
40337SOL    HW221038   8.418   0.421   6.516
40338SOL     OW21039   7.987   0.064   6.098
40338SOL    HW121040   7.906   0.065   6.156
40338SOL    HW221041   7.990   0.147   6.043
40339SOL     OW21042   8.882   1.188   5.627
40339SOL    HW121043   8.914   1.112   5.684
40339SOL    HW221044   8.790   1.215   5.657
40340SOL     OW21045   7.745   0.035   5.757
40340SOL    HW121046   7.794   0.119   5.736
40340SOL    HW221047   7.807  -0.030   5.802
40341SOL     OW21048   8.383   0.236   6.066
40341SOL    HW121049   8.335   0.277   5.988
40341SOL    HW221050   8.482   0.234   6.047
40342SOL     OW21051   8.524   0.683   7.050
40342SOL    HW121052   8.444   0.622   7.053
40342SOL    HW221053   8.605   0.630   7.026
40343SOL     OW21054   8.675   1.570   6.379
40343SOL    HW121055   8.696   1.644   6.314
40343SOL    HW221056   8.743   1.570   6.452
40344SOL     OW21057   7.907   1.152   6.327
40344SOL    HW121058   7.836   1.125   6.392
40344SOL    HW221059   7.881   1.124   6.234
40345SOL     OW21060   8.719   1.797   6.177
40345SOL    HW121061   8.763   1.861   6.113
40345SOL    HW221062   8.669   1.849   6.247
40346SOL     OW21063   8.480   0.549   5.602
40346SOL    HW121064   8.439   0.631   5.563
40346SOL    HW221065   8.544   0.575   5.675
40347SOL     OW21066   7.526   0.556   6.972
40347SOL    HW121067   7.618   0.555   6.931
40347SOL    HW221068   7.520   0.630   7.039
40348SOL     OW21069   8.009   0.222   6.733
40348SOL    HW121070   8.047   0.138   6.770
40348SOL    HW221071   7.921   0.241   6.777
40349SOL     OW21072   8.314   0.454   6.228
40349SOL    HW121073   8.282   0.526   6.166
40349SOL    HW221074   8.338   0.373   6.175
40350SOL     OW21075   8.465   0.039   6.339
40350SOL    HW121076   8.393   0.044   6.270
40350SOL    HW221077   8.441  -0.030   6.408
40351SOL     OW21078   8.877   1.173   6.453
40351SOL    HW121079   8.822   1.089   6.446
40351SOL    HW221080   8.903   1.202   6.361
40352SOL     OW21081   8.914   0.590   6.578
40352SOL    HW121082   8.884   0.495   6.585
40352SOL    HW221083   8.987   0.606   6.644
40353SOL     OW21084   9.305   0.833   5.963
40353SOL    HW121085   9.347   0.769   6.027
40353SOL    HW221086   9.267   0.782   5.885
40354SOL     OW21087   7.936   1.385   5.760
40354SOL    HW121088   7.849   1.370   5.807
40354SOL    HW221089   7.919   1.411   5.665
40355SOL     OW21090   9.112   1.280   6.243
40355SOL    HW121091   9.211   1.288   6.257
40355SOL    HW221092   9.067   1.364   6.274
40356SOL     OW21093   8.838   0.575   5.664
40356SOL    HW121094   8.784   0.554   5.745
40356SOL    HW221095   8.929   0.534   5.673
40357SOL     OW21096   7.975   0.256   5.914
40357SOL    HW121097   8.002   0.197   5.839
40357SOL    HW221098   7.975   0.351   5.883
40358SOL     OW21099   9.202   1.223   7.174
40358SOL    HW121100   9.293   1.184   7.161
40358SOL    HW221101   9.210   1.319   7.198
40359SOL     OW21102   8.512   1.347   6.926
40359SOL    HW121103   8.432   1.324   6.981
40359SOL    HW221104   8.595   1.321   6.975
40360SOL     OW21105   9.040   1.629   7.211
40360SOL    HW121106   9.067   1.663   7.121
40360SOL    HW221107   9.119   1.591   7.257
40361SOL     OW21108   8.559   1.195   6.686
40361SOL    HW121109   8.519   1.239   6.767
40361SOL    HW221110   8.518   1.232   6.603
40362SOL     OW21111   9.086   1.099   6.665
40362SOL    HW121112   9.091   1.180   6.724
40362SOL    HW221113   9.000   1.101   6.614
40363SOL     OW21114   8.363   0.089   6.988
40363SOL    HW121115   8.388   0.069   6.893
40363SOL    HW221116   8.435   0.145   7.030
40364SOL     OW21117   8.428   1.116   7.305
40364SOL    HW121118   8.329   1.122   7.315
40364SOL    HW221119   8.451   1.036   7.249
40365SOL     OW21120   8.153   1.050   5.954
40365SOL    HW121121   8.139   1.057   6.053
40365SOL    HW221122   8.237   0.999   5.936
40366SOL     OW21123   7.858   0.813   6.837
40366SOL    HW121124   7.944   0.825   6.887
40366SOL    HW221125   7.816   0.726   6.864
40367SOL     OW21126   8.722   0.386   6.848
40367SOL    HW121127   8.743   0.460   6.912
40367SOL    HW221128   8.633   0.403   6.805
40368SOL     OW21129   7.512   1.564   6.917
40368SOL    HW121130   7.466   1.646   6.883
40368SOL    HW221131   7.610   1.583   6.926
40369SOL     OW21132   7.815   1.100   6.087
40369SOL    HW121133   7.808   1.183   6.031
40369SOL    HW221134   7.819   1.020   6.027
40370SOL     OW21135   8.014   0.537   6.451
40370SOL    HW121136   8.026   0.603   6.377
40370SOL    HW221137   8.060   0.571   6.534
40371SOL     OW21138   8.700   1.348   5.974
40371SOL    HW121139   8.750   1.425   6.014
40371SOL    HW221140   8.605   1.350   6.006
40372SOL     OW21141   8.720   1.445   6.728
40372SOL    HW121142   8.767   1.458   6.815
40372SOL    HW221143   8.654   1.371   6.737
40373SOL     OW21144   9.030   0.639   6.058
40373SOL    HW121145   8.999   0.700   6.131
40373SOL    HW221146   9.080   0.691   5.989
40374SOL     OW21147   7.802   1.510   6.915
40374SOL    HW121148   7.781   1.466   6.828
40374SOL    HW221149   7.899   1.536   6.918
40375SOL     OW21150   7.850   0.751   7.184
40375SOL    HW121151   7.918   0.806   7.137
40375SOL    HW221152   7.890   0.663   7.211
40376SOL     OW21153   9.035   0.779   7.256
40376SOL    HW121154   8.943   0.817   7.251
40376SOL    HW221155   9.095   0.826   7.191
40377SOL     OW21156   8.461   0.105   7.356
40377SOL    HW121157   8.467   0.190   7.304
40377SOL    HW221158   8.493   0.029   7.299
40378SOL     OW21159   7.952   0.050   7.326
40378SOL    HW121160   7.910  -0.007   7.256
40378SOL    HW221161   7.886   0.119   7.358
40379SOL     OW21162   8.021   0.870   6.615
40379SOL    HW121163   8.065   0.959   6.606
40379SOL    HW221164   7.958   0.870   6.692
40380SOL     OW21165   8.808   0.862   6.631
40380SOL    HW121166   8.733   0.862   6.565
40380SOL    HW221167   8.845   0.770   6.640
40381SOL     OW21168   8.657   0.525   5.861
40381SOL    HW121169   8.670   0.441   5.915
40381SOL    HW221170   8.628   0.599   5.921
40382SOL     OW21171   7.755   0.213   6.817
40382SOL    HW121172   7.732   0.250   6.907
40382SOL    HW221173   7.725   0.118   6.811
40383SOL     OW21174   7.485   1.310   6.868
40383SOL    HW121175   7.538   1.261   6.936
40383SOL    HW221176   7.507   1.408   6.873
40384SOL     OW21177   8.180   0.634   6.650
40384SOL    HW121178   8.239   0.608   6.574
40384SOL    HW221179   8.152   0.730   6.639
40385SOL     OW21180   9.176   0.935   7.440
40385SOL    HW121181   9.130   0.928   7.351
40385SOL    HW221182   9.114   0.979   7.506
40386SOL     OW21183   7.755   0.063   6.204
40386SOL    HW121184   7.744   0.157   6.237
40386SOL    HW221185   7.750   0.000   6.281
40387SOL     OW21186   9.070   0.367   5.960
40387SOL    HW121187   9.072   0.291   6.024
40387SOL    HW221188   9.022   0.444   6.000
40388SOL     OW21189   8.471   0.766   6.552
40388SOL    HW121190   8.486   0.787   6.648
40388SOL    HW221191   8.441   0.671   6.543
40389SOL     OW21192   8.428   1.573   7.286
40389SOL    HW121193   8.408   1.617   7.198
40389SOL    HW221194   8.467   1.482   7.270
40390SOL     OW21195   9.307   1.518   7.191
40390SOL    HW121196   9.321   1.545   7.096
40390SOL    HW221197   9.390   1.540   7.244
40391SOL     OW21198   7.798   0.898   7.390
40391SOL    HW121199   7.874   0.942   7.438
40391SOL    HW221200   7.833   0.851   7.308
40392SOL     OW21201   8.988   0.274   5.711
40392SOL    HW121202   8.927   0.199   5.734
40392SOL    HW221203   9.010   0.326   5.794
40393SOL     OW21204   8.751   0.838   5.628
40393SOL    HW121205   8.785   0.745   5.643
40393SOL    HW221206   8.769   0.865   5.533
40394SOL     OW21207   8.516   1.333   6.435
40394SOL    HW121208   8.523   1.249   6.380
40394SOL    HW221209   8.578   1.402   6.399
40395SOL     OW21210   7.767   0.810   6.535
40395SOL    HW121211   7.860   0.846   6.540
40395SOL    HW221212   7.761   0.725   6.587
40396SOL     OW21213   7.787   0.509   6.592
40396SOL    HW121214   7.735   0.426   6.575
40396SOL    HW221215   7.864   0.514   6.528
40397SOL     OW21216   8.586   0.380   7.264
40397SOL    HW121217   8.541   0.443   7.328
40397SOL    HW221218   8.679   0.411   7.247
40398SOL     OW21219   8.608   0.207   7.063
40398SOL    HW121220   8.608   0.271   7.140
40398SOL    HW221221   8.636   0.255   6.980
40399SOL     OW21222   7.456   1.326   5.786
40399SOL    HW121223   7.363   1.347   5.755
40399SOL    HW221224   7.466   1.227   5.799
40400SOL     OW21225   7.536   1.801   6.513
40400SOL    HW121226   7.494   1.715   6.486
40400SOL    HW221227   7.630   1.804   6.479
40401SOL     OW21228   7.952   1.568   6.496
40401SOL    HW121229   8.018   1.642   6.505
40401SOL    HW221230   7.996   1.489   6.454
40402SOL     OW21231   8.450   0.796   6.824
40402SOL    HW121232   8.491   0.764   6.910
40402SOL    HW221233   8.354   0.769   6.821
40403SOL     OW21234   7.488   0.544   6.700
40403SOL    HW121235   7.573   0.511   6.659
40403SOL    HW221236   7.501   0.559   6.798
40404SOL     OW21237   7.637   0.520   7.308
40404SOL    HW121238   7.696   0.480   7.238
40404SOL    HW221239   7.579   0.591   7.267
40405SOL     OW21240   8.817   0.950   7.246
40405SOL    HW121241   8.856   1.039   7.266
40405SOL    HW221242   8.827   0.930   7.149
40406SOL     OW21243   8.263   0.572   5.911
40406SOL    HW121244   8.270   0.483   5.865
40406SOL    HW221245   8.169   0.606   5.903
40407SOL     OW21246   9.105   0.604   6.792
40407SOL    HW121247   9.067   0.535   6.854
40407SOL    HW221248   9.187   0.568   6.748
40408SOL     OW21249   7.700   1.564   7.330
40408SOL    HW121250   7.670   1.621   7.406
40408SOL    HW221251   7.693   1.467   7.356
40409SOL     OW21252   8.119   0.464   6.855
40409SOL    HW121253   8.085   0.375   6.825
40409SOL    HW221254   8.145   0.518   6.775
40410SOL     OW21255   8.378   1.678   7.051
40410SOL    HW121256   8.354   1.660   6.956
40410SOL    HW221257   8.408   1.772   7.061
40411SOL     OW21258   7.921   0.500   5.777
40411SOL    HW121259   7.982   0.580   5.781
40411SOL    HW221260   7.826   0.531   5.784
40412SOL     OW21261   7.607   1.137   7.052
40412SOL    HW121262   7.629   1.076   7.128
40412SOL    HW221263   7.617   1.088   6.966
40413SOL     OW21264   8.795   1.059   6.820
40413SOL    HW121265   8.819   0.996   6.746
40413SOL    HW221266   8.705   1.099   6.802
40414SOL     OW21267   8.750   0.855   5.895
40414SOL    HW121268   8.664   0.824   5.937
40414SOL    HW221269   8.746   0.841   5.796
40415SOL     OW21270   9.207   1.747   6.740
40415SOL    HW121271   9.268   1.777   6.667
40415SOL    HW221272   9.169   1.658   6.718
40416SOL     OW21273   8.700   1.731   6.714
40416SOL    HW121274   8.784   1.736   6.660
40416SOL    HW221275   8.677   1.635   6.732
40417SOL     OW21276   7.531   1.258   6.608
40417SOL    HW121277   7.526   1.257   6.708
40417SOL    HW221278   7.448   1.217   6.570
40418SOL     OW21279   8.136   1.662   7.302
40418SOL    HW121280   8.080   1.743   7.311
40418SOL    HW221281   8.188   1.666   7.216
40419SOL     OW21282   9.174   0.135   6.109
40419SOL    HW121283   9.247   0.118   6.042
40419SOL    HW221284   9.143   0.048   6.147
40420SOL     OW21285   8.836   1.573   6.063
40420SOL    HW121286   8.903   1.585   5.989
40420SOL    HW221287   8.796   1.662   6.086
40421SOL     OW21288   7.578   1.794   7.437
40421SOL    HW121289   7.537   1.720   7.490
40421SOL    HW221290   7.642   1.845   7.495
40422SOL     OW21291   8.728   0.927   6.258
40422SOL    HW121292   8.788   0.846   6.260
40422SOL    HW221293   8.768   0.996   6.198
40423SOL     OW21294   8.278   1.273   7.008
40423SOL    HW121295   8.273   1.306   7.103
40423SOL    HW221296   8.192   1.292   6.962
40424SOL     OW21297   8.120   1.616   5.740
40424SOL    HW121298   8.129   1.626   5.641
40424SOL    HW221299   8.080   1.527   5.761
40425SOL     OW21300   9.098   1.720   6.980
40425SOL    HW121301   9.151   1.730   6.896
40425SOL    HW221302   9.071   1.810   7.014
40426SOL     OW21303   9.289   0.175   6.549
40426SOL    HW121304   9.328   0.090   6.513
40426SOL    HW221305   9.191   0.177   6.530
40427SOL     OW21306   7.711   0.326   6.306
40427SOL    HW121307   7.632   0.377   6.272
40427SOL    HW221308   7.702   0.311   6.404
40428SOL     OW21309   8.642   1.612   5.617
40428SOL    HW121310   8.648   1.519   5.654
40428SOL    HW221311   8.583   1.612   5.537
40429SOL     OW21312   8.270   1.002   6.958
40429SOL    HW121313   8.310   1.001   6.866
40429SOL    HW221314   8.280   1.094   6.998
40430SOL     OW21315   8.364   0.910   5.877
40430SOL    HW121316   8.427   0.948   5.809
40430SOL    HW221317   8.404   0.827   5.916
40431SOL     OW21318   8.952   1.607   5.630
40431SOL    HW121319   8.860   1.644   5.637
40431SOL    HW221320   8.990   1.627   5.540
40432SOL     OW21321   7.820   1.288   7.076
40432SOL    HW121322   7.807   1.381   7.042
40432SOL    HW221323   7.736   1.236   7.063
40433SOL     OW21324   9.062   1.292   6.875
40433SOL    HW121325   9.122   1.295   6.955
40433SOL    HW221326   8.987   1.356   6.888
40434SOL     OW21327   8.487   1.098   6.282
40434SOL    HW121328   8.417   1.051   6.336
40434SOL    HW221329   8.546   1.030   6.239
40435SOL     OW21330   8.462   0.236   6.557
40435SOL    HW121331   8.454   0.200   6.464
40435SOL    HW221332   8.460   0.160   6.622
40436SOL     OW21333   8.038   1.487   6.077
40436SOL    HW121334   8.080   1.429   6.007
40436SOL    HW221335   7.994   1.566   6.033
40437SOL     OW21336   9.157   0.385   6.967
40437SOL    HW121337   9.230   0.454   6.971
40437SOL    HW221338   9.185   0.310   6.908
40438SOL     OW21339   7.703   1.348   5.876
40438SOL    HW121340   7.607   1.349   5.849
40438SOL    HW221341   7.715   1.401   5.960
40439SOL     OW21342   7.553   1.013   7.312
40439SOL    HW121343   7.476   0.980   7.366
40439SOL    HW221344   7.638   0.983   7.354
40440SOL     OW21345   8.120   0.203   7.075
40440SOL    HW121346   8.210   0.187   7.035
40440SOL    HW221347   8.128   0.208   7.174
40441SOL     OW21348   7.523   0.345   5.619
40441SOL    HW121349   7.431   0.317   5.590
40441SOL    HW221350   7.554   0.422   5.563
40442SOL     OW21351   8.888   0.856   6.984
40442SOL    HW121352   8.831   0.908   6.921
40442SOL    HW221353   8.984   0.868   6.960
40443SOL     OW21354   7.520   0.166   5.904
40443SOL    HW121355   7.503   0.249   5.850
40443SOL    HW221356   7.610   0.129   5.882
40444SOL     OW21357   8.631   1.335   5.705
40444SOL    HW121358   8.532   1.324   5.707
40444SOL    HW221359   8.665   1.350   5.798
40445SOL     OW21360   8.061   0.842   7.017
40445SOL    HW121361   8.117   0.923   7.000
40445SOL    HW221362   8.120   0.762   7.020
40446SOL     OW21363   8.941   1.767   6.545
40446SOL    HW121364   8.974   1.831   6.476
40446SOL    HW221365   9.007   1.761   6.620
40447SOL     OW21366   8.164   0.565   7.294
40447SOL    HW121367   8.183   0.630   7.368
40447SOL    HW221368   8.224   0.485   7.303
40448SOL     OW21369   8.898   1.220   7.219
40448SOL    HW121370   8.889   1.210   7.318
40448SOL    HW221371   8.994   1.213   7.193
40449SOL     OW21372   7.838   1.741   7.146
40449SOL    HW121373   7.747   1.782   7.144
40449SOL    HW221374   7.831   1.647   7.178
40450SOL     OW21375   9.122   0.883   6.840
40450SOL    HW121376   9.095   0.794   6.803
40450SOL    HW221377   9.123   0.951   6.767
40451SOL     OW21378   8.673   0.325   6.035
40451SOL    HW121379   8.738   0.251   6.024
40451SOL    HW221380   8.693   0.375   6.119
40452SOL     OW21381   8.042   0.745   6.238
40452SOL    HW121382   8.092   0.830   6.219
40452SOL    HW221383   7.954   0.747   6.190
40453SOL     OW21384   9.225   0.342   7.228
40453SOL    HW121385   9.208   0.373   7.134
40453SOL    HW221386   9.141   0.305   7.266
40454SOL     OW21387   9.178   0.934   7.103
40454SOL    HW121388   9.216   1.025   7.118
40454SOL    HW221389   9.170   0.917   7.004
40455SOL     OW21390   8.307   1.374   5.602
40455SOL    HW121391   8.261   1.389   5.690
40455SOL    HW221392   8.351   1.459   5.572
40456SOL     OW21393   8.109   1.790   6.539
40456SOL    HW121394   8.063   1.878   6.526
40456SOL    HW221395   8.208   1.802   6.532
40457SOL     OW21396   8.307   0.956   6.447
40457SOL    HW121397   8.361   0.887   6.495
40457SOL    HW221398   8.275   1.025   6.513
40458SOL     OW21399   8.531   0.984   5.673
40458SOL    HW121400   8.508   1.037   5.591
40458SOL    HW221401   8.612   0.928   5.654
40459SOL     OW21402   9.309   1.569   6.437
40459SOL    HW121403   9.238   1.557   6.367
40459SOL    HW221404   9.310   1.490   6.497
40460SOL     OW21405   7.669   1.314   7.430
40460SOL    HW121406   7.604   1.241   7.409
40460SOL    HW221407   7.673   1.328   7.528
40461SOL     OW21408   7.527   1.240   6.239
40461SOL    HW121409   7.526   1.193   6.327
40461SOL    HW221410   7.609   1.212   6.188
40462SOL     OW21411   8.120   1.391   7.210
40462SOL    HW121412   8.042   1.341   7.248
40462SOL    HW221413   8.117   1.486   7.241
40463SOL     OW21414   9.272   0.192   6.813
40463SOL    HW121415   9.268   0.102   6.857
40463SOL    HW221416   9.275   0.181   6.714
40464SOL     OW21417   7.876   0.424   6.106
40464SOL    HW121418   7.906   0.352   6.044
40464SOL    HW221419   7.837   0.384   6.189
40465SOL     OW21420   9.153   1.487   6.690
40465SOL    HW121421   9.060   1.462   6.663
40465SOL    HW221422   9.179   1.437   6.772
40466SOL     OW21423   7.765   0.547   6.866
40466SOL    HW121424   7.803   0.488   6.938
40466SOL    HW221425   7.805   0.521   6.778
40467SOL     OW21426   8.260   1.586   6.273
40467SOL    HW121427   8.292   1.596   6.179
40467SOL    HW221428   8.181   1.524   6.275
40468SOL     OW21429   8.872   0.214   6.698
40468SOL    HW121430   8.924   0.149   6.753
40468SOL    HW221431   8.823   0.277   6.759
40469SOL     OW21432   8.449   0.034   6.740
40469SOL    HW121433   8.386  -0.038   6.709
40469SOL    HW221434   8.542  -0.002   6.740
40470SOL     OW21435   8.218   1.330   5.887
40470SOL    HW121436   8.172   1.243   5.904
40470SOL    HW221437   8.309   1.327   5.928
40471SOL     OW21438   8.066   1.567   6.870
40471SOL    HW121439   8.061   1.649   6.927
40471SOL    HW221440   8.155   1.564   6.825
40472SOL     OW21441   8.800   0.052   5.754
40472SOL    HW121442   8.835   0.011   5.670
40472SOL    HW221443   8.710   0.014   5.774
40473SOL     OW21444   8.748   0.453   6.277
40473SOL    HW121445   8.689   0.533   6.281
40473SOL    HW221446   8.763   0.418   6.370
40474SOL     OW21447   9.041   0.221   6.468
40474SOL    HW121448   8.957   0.220   6.522
40474SOL    HW221449   9.043   0.304   6.412
40475SOL     OW21450   7.487   1.077   5.886
40475SOL    HW121451   7.586   1.066   5.877
40475SOL    HW221452   7.447   0.991   5.918
40476SOL     OW21453   8.323   1.646   5.923
40476SOL    HW121454   8.246   1.611   5.869
40476SOL    HW221455   8.291   1.717   5.985
40477SOL     OW21456   7.678   0.628   7.561
40477SOL    HW121457   7.585   0.626   7.598
40477SOL    HW221458   7.679   0.589   7.469
40478SOL     OW21459   7.673   0.275   8.444
40478SOL    HW121460   7.708   0.258   8.536
40478SOL    HW221461   7.585   0.230   8.432
40479SOL     OW21462   7.467   0.368   8.095
40479SOL    HW121463   7.385   0.411   8.134
40479SOL    HW221464   7.439   0.295   8.032
40480SOL     OW21465   8.017   1.275   8.613
40480SOL    HW121466   7.924   1.268   8.576
40480SOL    HW221467   8.028   1.364   8.657
40481SOL     OW21468   9.003   1.511   8.151
40481SOL    HW121469   8.946   1.495   8.232
40481SOL    HW221470   8.944   1.521   8.071
40482SOL     OW21471   8.583   0.703   8.165
40482SOL    HW121472   8.640   0.781   8.140
40482SOL    HW221473   8.523   0.729   8.241
40483SOL     OW21474   9.203   0.607   7.679
40483SOL    HW121475   9.191   0.594   7.580
40483SOL    HW221476   9.173   0.526   7.728
40484SOL     OW21477   8.216   1.144   8.471
40484SOL    HW121478   8.138   1.161   8.531
40484SOL    HW221479   8.250   1.231   8.435
40485SOL     OW21480   8.298   0.798   9.271
40485SOL    HW121481   8.294   0.874   9.336
40485SOL    HW221482   8.320   0.834   9.180
40486SOL     OW21483   8.133   1.012   8.113
40486SOL    HW121484   8.202   0.996   8.183
40486SOL    HW221485   8.060   1.069   8.151
40487SOL     OW21486   8.134   1.161   9.251
40487SOL    HW121487   8.194   1.240   9.265
40487SOL    HW221488   8.048   1.192   9.210
40488SOL     OW21489   7.783   1.435   8.509
40488SOL    HW121490   7.705   1.404   8.456
40488SOL    HW221491   7.841   1.493   8.452
40489SOL     OW21492   8.908   1.505   8.787
40489SOL    HW121493   8.932   1.599   8.813
40489SOL    HW221494   8.892   1.451   8.869
40490SOL     OW21495   7.886   0.392   8.947
40490SOL    HW121496   7.968   0.336   8.956
40490SOL    HW221497   7.805   0.334   8.951
40491SOL     OW21498   9.051   0.447   8.185
40491SOL    HW121499   8.977   0.493   8.135
40491SOL    HW221500   9.102   0.515   8.238
40492SOL     OW21501   7.679   1.713   7.931
40492SOL    HW121502   7.713   1.790   7.985
40492SOL    HW221503   7.723   1.713   7.841
40493SOL     OW21504   8.575   1.341   9.138
40493SOL    HW121505   8.622   1.341   9.226
40493SOL    HW221506   8.527   1.254   9.127
40494SOL     OW21507   7.678   1.434   7.986
40494SOL    HW121508   7.652   1.530   7.986
40494SOL    HW221509   7.607   1.380   8.031
40495SOL     OW21510   7.688   1.091   8.334
40495SOL    HW121511   7.702   1.007   8.386
40495SOL    HW221512   7.633   1.155   8.389
40496SOL     OW21513   8.068   1.786   8.887
40496SOL    HW121514   7.976   1.769   8.922
40496SOL    HW221515   8.096   1.878   8.913
40497SOL     OW21516   8.054   0.964   7.571
40497SOL    HW121517   8.061   1.048   7.517
40497SOL    HW221518   8.100   0.977   7.659
40498SOL     OW21519   9.042   0.114   8.928
40498SOL    HW121520   9.024   0.181   8.856
40498SOL    HW221521   9.039   0.160   9.017
40499SOL     OW21522   7.570   0.643   8.011
40499SOL    HW121523   7.525   0.555   8.028
40499SOL    HW221524   7.569   0.697   8.095
40500SOL     OW21525   9.290   1.767   7.807
40500SOL    HW121526   9.344   1.738   7.887
40500SOL    HW221527   9.320   1.857   7.778
40501SOL     OW21528   7.475   1.596   7.565
40501SOL    HW121529   7.456   1.500   7.586
40501SOL    HW221530   7.442   1.654   7.640
40502SOL     OW21531   9.137   0.922   8.060
40502SOL    HW121532   9.232   0.893   8.068
40502SOL    HW221533   9.129   0.987   7.985
40503SOL     OW21534   9.089   1.108   7.880
40503SOL    HW121535   9.175   1.110   7.828
40503SOL    HW221536   9.103   1.155   7.968
40504SOL     OW21537   7.561   0.737   9.045
40504SOL    HW121538   7.649   0.724   9.090
40504SOL    HW221539   7.548   0.834   9.023
40505SOL     OW21540   8.061   1.365   8.174
40505SOL    HW121541   8.012   1.278   8.183
40505SOL    HW221542   8.038   1.408   8.087
40506SOL     OW21543   8.741   1.228   8.871
40506SOL    HW121544   8.778   1.155   8.813
40506SOL    HW221545   8.793   1.233   8.956
40507SOL     OW21546   8.257   0.004   7.950
40507SOL    HW121547   8.297   0.095   7.941
40507SOL    HW221548   8.157   0.012   7.956
40508SOL     OW21549   7.645   0.976   8.712
40508SOL    HW121550   7.734   0.931   8.698
40508SOL    HW221551   7.572   0.911   8.693
40509SOL     OW21552   8.973   0.999   7.638
40509SOL    HW121553   8.910   0.923   7.651
40509SOL    HW221554   9.021   1.017   7.724
40510SOL     OW21555   8.635   1.792   9.064
40510SOL    HW121556   8.659   1.852   8.988
40510SOL    HW221557   8.642   1.697   9.034
40511SOL     OW21558   7.765   0.251   9.249
40511SOL    HW121559   7.836   0.322   9.255
40511SOL    HW221560   7.677   0.290   9.277
40512SOL     OW21561   8.914   1.417   8.401
40512SOL    HW121562   8.855   1.423   8.481
40512SOL    HW221563   8.899   1.329   8.355
40513SOL     OW21564   9.115   1.714   8.020
40513SOL    HW121565   9.074   1.691   7.932
40513SOL    HW221566   9.097   1.640   8.085
40514SOL     OW21567   8.046   0.729   7.718
40514SOL    HW121568   8.070   0.798   7.650
40514SOL    HW221569   7.968   0.762   7.772
40515SOL     OW21570   8.729   0.345   8.392
40515SOL    HW121571   8.643   0.295   8.379
40515SOL    HW221572   8.791   0.291   8.448
40516SOL     OW21573   9.024   1.662   7.755
40516SOL    HW121574   9.113   1.708   7.758
40516SOL    HW221575   9.003   1.638   7.660
40517SOL     OW21576   8.255   0.605   8.913
40517SOL    HW121577   8.208   0.602   9.002
40517SOL    HW221578   8.204   0.550   8.847
40518SOL     OW21579   8.842   0.469   9.122
40518SOL    HW121580   8.822   0.512   9.210
40518SOL    HW221581   8.920   0.407   9.131
40519SOL     OW21582   8.421   0.890   9.020
40519SOL    HW121583   8.467   0.806   8.991
40519SOL    HW221584   8.365   0.924   8.945
40520SOL     OW21585   8.439   0.410   8.690
40520SOL    HW121586   8.362   0.444   8.744
40520SOL    HW221587   8.405   0.359   8.611
40521SOL     OW21588   8.489   0.701   7.877
40521SOL    HW121589   8.515   0.697   7.973
40521SOL    HW221590   8.404   0.650   7.863
40522SOL     OW21591   7.524   0.811   8.237
40522SOL    HW121592   7.623   0.799   8.246
40522SOL    HW221593   7.500   0.906   8.258
40523SOL     OW21594   7.578   1.821   9.019
40523SOL    HW121595   7.568   1.806   9.118
40523SOL    HW221596   7.492   1.857   8.983
40524SOL     OW21597   8.313   0.348   7.643
40524SOL    HW121598   8.372   0.411   7.594
40524SOL    HW221599   8.332   0.254   7.614
40525SOL     OW21600   9.167   0.585   9.279
40525SOL    HW121601   9.141   0.674   9.243
40525SOL    HW221602   9.165   0.517   9.206
40526SOL     OW21603   8.810   1.144   7.993
40526SOL    HW121604   8.893   1.115   7.945
40526SOL    HW221605   8.761   1.211   7.937
40527SOL     OW21606   7.998   0.196   8.333
40527SOL    HW121607   7.993   0.191   8.433
40527SOL    HW221608   8.000   0.292   8.304
40528SOL     OW21609   8.456   1.456   7.925
40528SOL    HW121610   8.410   1.528   7.873
40528SOL    HW221611   8.452   1.476   8.023
40529SOL     OW21612   7.799   1.801   8.301
40529SOL    HW121613   7.849   1.715   8.307
40529SOL    HW221614   7.864   1.878   8.298
40530SOL     OW21615   9.243   1.066   8.321
40530SOL    HW121616   9.181   1.051   8.245
40530SOL    HW221617   9.191   1.077   8.406
40531SOL     OW21618   8.675   1.550   8.954
40531SOL    HW121619   8.681   1.473   9.018
40531SOL    HW221620   8.623   1.524   8.874
40532SOL     OW21621   7.769   0.943   7.690
40532SOL    HW121622   7.851   0.982   7.648
40532SOL    HW221623   7.742   0.861   7.641
40533SOL     OW21624   8.906   0.735   8.176
40533SOL    HW121625   8.901   0.670   8.251
40533SOL    HW221626   8.986   0.794   8.189
40534SOL     OW21627   7.909   1.266   9.175
40534SOL    HW121628   7.859   1.267   9.089
40534SOL    HW221629   7.846   1.248   9.251
40535SOL     OW21630   8.559   1.776   7.685
40535SOL    HW121631   8.499   1.714   7.735
40535SOL    HW221632   8.590   1.732   7.600
40536SOL     OW21633   7.650   0.285   8.946
40536SOL    HW121634   7.570   0.345   8.933
40536SOL    HW221635   7.640   0.236   9.032
40537SOL     OW21636   9.080   1.377   7.529
40537SOL    HW121637   9.048   1.471   7.519
40537SOL    HW221638   9.004   1.314   7.517
40538SOL     OW21639   7.912   1.743   7.771
40538SOL    HW121640   7.945   1.782   7.857
40538SOL    HW221641   7.988   1.736   7.706
40539SOL     OW21642   8.848   0.107   7.874
40539SOL    HW121643   8.824   0.070   7.784
40539SOL    HW221644   8.947   0.123   7.878
40540SOL     OW21645   7.697   1.785   8.689
40540SOL    HW121646   7.754   1.720   8.739
40540SOL    HW221647   7.681   1.752   8.596
40541SOL     OW21648   8.388   1.698   8.352
40541SOL    HW121649   8.468   1.641   8.373
40541SOL    HW221650   8.339   1.658   8.275
40542SOL     OW21651   7.830   0.700   7.928
40542SOL    HW121652   7.875   0.610   7.925
40542SOL    HW221653   7.736   0.689   7.961
40543SOL     OW21654   8.995   0.222   9.177
40543SOL    HW121655   8.990   0.259   9.269
40543SOL    HW221656   8.923   0.153   9.165
40544SOL     OW21657   8.062   0.122   7.565
40544SOL    HW121658   8.160   0.100   7.572
40544SOL    HW221659   8.031   0.105   7.472
40545SOL     OW21660   8.229   0.264   9.197
40545SOL    HW121661   8.296   0.203   9.240
40545SOL    HW221662   8.156   0.283   9.262
40546SOL     OW21663   8.336   1.514   8.643
40546SOL    HW121664   8.313   1.489   8.549
40546SOL    HW221665   8.397   1.445   8.682
40547SOL     OW21666   8.799   0.590   8.881
40547SOL    HW121667   8.827   0.547   8.966
40547SOL    HW221668   8.824   0.686   8.882
40548SOL     OW21669   8.251   1.402   8.372
40548SOL    HW121670   8.341   1.416   8.330
40548SOL    HW221671   8.180   1.404   8.301
40549SOL     OW21672   8.370   0.503   8.347
40549SOL    HW121673   8.345   0.494   8.251
40549SOL    HW221674   8.418   0.421   8.378
40550SOL     OW21675   7.987   0.064   7.960
40550SOL    HW121676   7.906   0.065   8.018
40550SOL    HW221677   7.990   0.147   7.905
40551SOL     OW21678   8.882   1.188   7.489
40551SOL    HW121679   8.914   1.112   7.546
40551SOL    HW221680   8.790   1.215   7.519
40552SOL     OW21681   7.745   0.035   7.619
40552SOL    HW121682   7.794   0.119   7.598
40552SOL    HW221683   7.807  -0.030   7.664
40553SOL     OW21684   8.383   0.236   7.928
40553SOL    HW121685   8.335   0.277   7.850
40553SOL    HW221686   8.482   0.234   7.909
40554SOL     OW21687   8.524   0.683   8.912
40554SOL    HW121688   8.444   0.622   8.915
40554SOL    HW221689   8.605   0.630   8.888
40555SOL     OW21690   8.675   1.570   8.241
40555SOL    HW121691   8.696   1.644   8.176
40555SOL    HW221692   8.743   1.570   8.314
40556SOL     OW21693   7.907   1.152   8.189
40556SOL    HW121694   7.836   1.125   8.254
40556SOL    HW221695   7.881   1.124   8.096
40557SOL     OW21696   8.719   1.797   8.039
40557SOL    HW121697   8.763   1.861   7.975
40557SOL    HW221698   8.669   1.849   8.109
40558SOL     OW21699   8.480   0.549   7.464
40558SOL    HW121700   8.439   0.631   7.425
40558SOL    HW221701   8.544   0.575   7.537
40559SOL     OW21702   7.526   0.556   8.834
40559SOL    HW121703   7.618   0.555   8.793
40559SOL    HW221704   7.520   0.630   8.901
40560SOL     OW21705   8.009   0.222   8.595
40560SOL    HW121706   8.047   0.138   8.632
40560SOL    HW221707   7.921   0.241   8.639
40561SOL     OW21708   8.314   0.454   8.090
40561SOL    HW121709   8.282   0.526   8.028
40561SOL    HW221710   8.338   0.373   8.037
40562SOL     OW21711   8.465   0.039   8.201
40562SOL    HW121712   8.393   0.044   8.132
40562SOL    HW221713   8.441  -0.030   8.270
40563SOL     OW21714   8.877   1.173   8.315
40563SOL    HW121715   8.822   1.089   8.308
40563SOL    HW221716   8.903   1.202   8.223
40564SOL     OW21717   8.914   0.590   8.440
40564SOL    HW121718   8.884   0.495   8.447
40564SOL    HW221719   8.987   0.606   8.506
40565SOL     OW21720   9.305   0.833   7.825
40565SOL    HW121721   9.347   0.769   7.889
40565SOL    HW221722   9.267   0.782   7.747
40566SOL     OW21723   7.936   1.385   7.622
40566SOL    HW121724   7.849   1.370   7.669
40566SOL    HW221725   7.919   1.411   7.527
40567SOL     OW21726   9.112   1.280   8.105
40567SOL    HW121727   9.211   1.288   8.119
40567SOL    HW221728   9.067   1.364   8.136
40568SOL     OW21729   8.838   0.575   7.526
40568SOL    HW121730   8.784   0.554   7.607
40568SOL    HW221731   8.929   0.534   7.535
40569SOL     OW21732   7.975   0.256   7.776
40569SOL    HW121733   8.002   0.197   7.701
40569SOL    HW221734   7.975   0.351   7.745
40570SOL     OW21735   9.202   1.223   9.036
40570SOL    HW121736   9.293   1.184   9.023
40570SOL    HW221737   9.210   1.319   9.060
40571SOL     OW21738   8.512   1.347   8.788
40571SOL    HW121739   8.432   1.324   8.843
40571SOL    HW221740   8.595   1.321   8.837
40572SOL     OW21741   9.040   1.629   9.073
40572SOL    HW121742   9.067   1.663   8.983
40572SOL    HW221743   9.119   1.591   9.119
40573SOL     OW21744   8.559   1.195   8.548
40573SOL    HW121745   8.519   1.239   8.629
40573SOL    HW221746   8.518   1.232   8.465
40574SOL     OW21747   9.086   1.099   8.527
40574SOL    HW121748   9.091   1.180   8.586
40574SOL    HW221749   9.000   1.101   8.476
40575SOL     OW21750   8.363   0.089   8.850
40575SOL    HW121751   8.388   0.069   8.755
40575SOL    HW221752   8.435   0.145   8.892
40576SOL     OW21753   8.428   1.116   9.167
40576SOL    HW121754   8.329   1.122   9.177
40576SOL    HW221755   8.451   1.036   9.111
40577SOL     OW21756   8.153   1.050   7.816
40577SOL    HW121757   8.139   1.057   7.915
40577SOL    HW221758   8.237   0.999   7.798
40578SOL     OW21759   7.858   0.813   8.699
40578SOL    HW121760   7.944   0.825   8.749
40578SOL    HW221761   7.816   0.726   8.726
40579SOL     OW21762   8.722   0.386   8.710
40579SOL    HW121763   8.743   0.460   8.774
40579SOL    HW221764   8.633   0.403   8.667
40580SOL     OW21765   7.512   1.564   8.779
40580SOL    HW121766   7.466   1.646   8.745
40580SOL    HW221767   7.610   1.583   8.788
40581SOL     OW21768   7.815   1.100   7.949
40581SOL    HW121769   7.808   1.183   7.893
40581SOL    HW221770   7.819   1.020   7.889
40582SOL     OW21771   8.014   0.537   8.313
40582SOL    HW121772   8.026   0.603   8.239
40582SOL    HW221773   8.060   0.571   8.396
40583SOL     OW21774   8.700   1.348   7.836
40583SOL    HW121775   8.750   1.425   7.876
40583SOL    HW221776   8.605   1.350   7.868
40584SOL     OW21777   8.720   1.445   8.590
40584SOL    HW121778   8.767   1.458   8.677
40584SOL    HW221779   8.654   1.371   8.599
40585SOL     OW21780   9.030   0.639   7.920
40585SOL    HW121781   8.999   0.700   7.993
40585SOL    HW221782   9.080   0.691   7.851
40586SOL     OW21783   7.802   1.510   8.777
40586SOL    HW121784   7.781   1.466   8.690
40586SOL    HW221785   7.899   1.536   8.780
40587SOL     OW21786   7.850   0.751   9.046
40587SOL    HW121787   7.918   0.806   8.999
40587SOL    HW221788   7.890   0.663   9.073
40588SOL     OW21789   9.035   0.779   9.118
40588SOL    HW121790   8.943   0.817   9.113
40588SOL    HW221791   9.095   0.826   9.053
40589SOL     OW21792   8.461   0.105   9.218
40589SOL    HW121793   8.467   0.190   9.166
40589SOL    HW221794   8.493   0.029   9.161
40590SOL     OW21795   7.952   0.050   9.188
40590SOL    HW121796   7.910  -0.007   9.118
40590SOL    HW221797   7.886   0.119   9.220
40591SOL     OW21798   8.021   0.870   8.477
40591SOL    HW121799   8.065   0.959   8.468
40591SOL    HW221800   7.958   0.870   8.554
40592SOL     OW21801   8.808   0.862   8.493
40592SOL    HW121802   8.733   0.862   8.427
40592SOL    HW221803   8.845   0.770   8.502
40593SOL     OW21804   8.657   0.525   7.723
40593SOL    HW121805   8.670   0.441   7.777
40593SOL    HW221806   8.628   0.599   7.783
40594SOL     OW21807   7.755   0.213   8.679
40594SOL    HW121808   7.732   0.250   8.769
40594SOL    HW221809   7.725   0.118   8.673
40595SOL     OW21810   7.485   1.310   8.730
40595SOL    HW121811   7.538   1.261   8.798
40595SOL    HW221812   7.507   1.408   8.735
40596SOL     OW21813   8.180   0.634   8.512
40596SOL    HW121814   8.239   0.608   8.436
40596SOL    HW221815   8.152   0.730   8.501
40597SOL     OW21816   9.176   0.935   9.302
40597SOL    HW121817   9.130   0.928   9.213
40597SOL    HW221818   9.114   0.979   9.368
40598SOL     OW21819   7.755   0.063   8.066
40598SOL    HW121820   7.744   0.157   8.099
40598SOL    HW221821   7.750   0.000   8.143
40599SOL     OW21822   9.070   0.367   7.822
40599SOL    HW121823   9.072   0.291   7.886
40599SOL    HW221824   9.022   0.444   7.862
40600SOL     OW21825   8.471   0.766   8.414
40600SOL    HW121826   8.486   0.787   8.510
40600SOL    HW221827   8.441   0.671   8.405
40601SOL     OW21828   8.428   1.573   9.148
40601SOL    HW121829   8.408   1.617   9.060
40601SOL    HW221830   8.467   1.482   9.132
40602SOL     OW21831   9.307   1.518   9.053
40602SOL    HW121832   9.321   1.545   8.958
40602SOL    HW221833   9.390   1.540   9.106
40603SOL     OW21834   7.798   0.898   9.252
40603SOL    HW121835   7.874   0.942   9.300
40603SOL    HW221836   7.833   0.851   9.170
40604SOL     OW21837   8.988   0.274   7.573
40604SOL    HW121838   8.927   0.199   7.596
40604SOL    HW221839   9.010   0.326   7.656
40605SOL     OW21840   8.751   0.838   7.490
40605SOL    HW121841   8.785   0.745   7.505
40605SOL    HW221842   8.769   0.865   7.395
40606SOL     OW21843   8.516   1.333   8.297
40606SOL    HW121844   8.523   1.249   8.242
40606SOL    HW221845   8.578   1.402   8.261
40607SOL     OW21846   7.767   0.810   8.397
40607SOL    HW121847   7.860   0.846   8.402
40607SOL    HW221848   7.761   0.725   8.449
40608SOL     OW21849   7.787   0.509   8.454
40608SOL    HW121850   7.735   0.426   8.437
40608SOL    HW221851   7.864   0.514   8.390
40609SOL     OW21852   8.586   0.380   9.126
40609SOL    HW121853   8.541   0.443   9.190
40609SOL    HW221854   8.679   0.411   9.109
40610SOL     OW21855   8.608   0.207   8.925
40610SOL    HW121856   8.608   0.271   9.002
40610SOL    HW221857   8.636   0.255   8.842
40611SOL     OW21858   7.456   1.326   7.648
40611SOL    HW121859   7.363   1.347   7.617
40611SOL    HW221860   7.466   1.227   7.661
40612SOL     OW21861   7.536   1.801   8.375
40612SOL    HW121862   7.494   1.715   8.348
40612SOL    HW221863   7.630   1.804   8.341
40613SOL     OW21864   7.952   1.568   8.358
40613SOL    HW121865   8.018   1.642   8.367
40613SOL    HW221866   7.996   1.489   8.316
40614SOL     OW21867   8.450   0.796   8.686
40614SOL    HW121868   8.491   0.764   8.772
40614SOL    HW221869   8.354   0.769   8.683
40615SOL     OW21870   7.488   0.544   8.562
40615SOL    HW121871   7.573   0.511   8.521
40615SOL    HW221872   7.501   0.559   8.660
40616SOL     OW21873   7.637   0.520   9.170
40616SOL    HW121874   7.696   0.480   9.100
40616SOL    HW221875   7.579   0.591   9.129
40617SOL     OW21876   8.817   0.950   9.108
40617SOL    HW121877   8.856   1.039   9.128
40617SOL    HW221878   8.827   0.930   9.011
40618SOL     OW21879   8.263   0.572   7.773
40618SOL    HW121880   8.270   0.483   7.727
40618SOL    HW221881   8.169   0.606   7.765
40619SOL     OW21882   9.105   0.604   8.654
40619SOL    HW121883   9.067   0.535   8.716
40619SOL    HW221884   9.187   0.568   8.610
40620SOL     OW21885   7.700   1.564   9.192
40620SOL    HW121886   7.670   1.621   9.268
40620SOL    HW221887   7.693   1.467   9.218
40621SOL     OW21888   8.119   0.464   8.717
40621SOL    HW121889   8.085   0.375   8.687
40621SOL    HW221890   8.145   0.518   8.637
40622SOL     OW21891   8.378   1.678   8.913
40622SOL    HW121892   8.354   1.660   8.818
40622SOL    HW221893   8.408   1.772   8.923
40623SOL     OW21894   7.921   0.500   7.639
40623SOL    HW121895   7.982   0.580   7.643
40623SOL    HW221896   7.826   0.531   7.646
40624SOL     OW21897   7.607   1.137   8.914
40624SOL    HW121898   7.629   1.076   8.990
40624SOL    HW221899   7.617   1.088   8.828
40625SOL     OW21900   8.795   1.059   8.682
40625SOL    HW121901   8.819   0.996   8.608
40625SOL    HW221902   8.705   1.099   8.664
40626SOL     OW21903   8.750   0.855   7.757
40626SOL    HW121904   8.664   0.824   7.799
40626SOL    HW221905   8.746   0.841   7.658
40627SOL     OW21906   9.207   1.747   8.602
40627SOL    HW121907   9.268   1.777   8.529
40627SOL    HW221908   9.169   1.658   8.580
40628SOL     OW21909   8.700   1.731   8.576
40628SOL    HW121910   8.784   1.736   8.522
40628SOL    HW221911   8.677   1.635   8.594
40629SOL     OW21912   7.531   1.258   8.470
40629SOL    HW121913   7.526   1.257   8.570
40629SOL    HW221914   7.448   1.217   8.432
40630SOL     OW21915   8.136   1.662   9.164
40630SOL    HW121916   8.080   1.743   9.173
40630SOL    HW221917   8.188   1.666   9.078
40631SOL     OW21918   9.174   0.135   7.971
40631SOL    HW121919   9.247   0.118   7.904
40631SOL    HW221920   9.143   0.048   8.009
40632SOL     OW21921   8.836   1.573   7.925
40632SOL    HW121922   8.903   1.585   7.851
40632SOL    HW221923   8.796   1.662   7.948
40633SOL     OW21924   7.578   1.794   9.299
40633SOL    HW121925   7.537   1.720   9.352
40633SOL    HW221926   7.642   1.845   9.357
40634SOL     OW21927   8.728   0.927   8.120
40634SOL    HW121928   8.788   0.846   8.122
40634SOL    HW221929   8.768   0.996   8.060
40635SOL     OW21930   8.278   1.273   8.870
40635SOL    HW121931   8.273   1.306   8.965
40635SOL    HW221932   8.192   1.292   8.824
40636SOL     OW21933   8.120   1.616   7.602
40636SOL    HW121934   8.129   1.626   7.503
40636SOL    HW221935   8.080   1.527   7.623
40637SOL     OW21936   9.098   1.720   8.842
40637SOL    HW121937   9.151   1.730   8.758
40637SOL    HW221938   9.071   1.810   8.876
40638SOL     OW21939   9.289   0.175   8.411
40638SOL    HW121940   9.328   0.090   8.375
40638SOL    HW221941   9.191   0.177   8.392
40639SOL     OW21942   7.711   0.326   8.168
40639SOL    HW121943   7.632   0.377   8.134
40639SOL    HW221944   7.702   0.311   8.266
40640SOL     OW21945   8.642   1.612   7.479
40640SOL    HW121946   8.648   1.519   7.516
40640SOL    HW221947   8.583   1.612   7.399
40641SOL     OW21948   8.270   1.002   8.820
40641SOL    HW121949   8.310   1.001   8.728
40641SOL    HW221950   8.280   1.094   8.860
40642SOL     OW21951   8.364   0.910   7.739
40642SOL    HW121952   8.427   0.948   7.671
40642SOL    HW221953   8.404   0.827   7.778
40643SOL     OW21954   8.952   1.607   7.492
40643SOL    HW121955   8.860   1.644   7.499
40643SOL    HW221956   8.990   1.627   7.402
40644SOL     OW21957   7.820   1.288   8.938
40644SOL    HW121958   7.807   1.381   8.904
40644SOL    HW221959   7.736   1.236   8.925
40645SOL     OW21960   9.062   1.292   8.737
40645SOL    HW121961   9.122   1.295   8.817
40645SOL    HW221962   8.987   1.356   8.750
40646SOL     OW21963   8.487   1.098   8.144
40646SOL    HW121964   8.417   1.051   8.198
40646SOL    HW221965   8.546   1.030   8.101
40647SOL     OW21966   8.462   0.236   8.419
40647SOL    HW121967   8.454   0.200   8.326
40647SOL    HW221968   8.460   0.160   8.484
40648SOL     OW21969   8.038   1.487   7.939
40648SOL    HW121970   8.080   1.429   7.869
40648SOL    HW221971   7.994   1.566   7.895
40649SOL     OW21972   9.157   0.385   8.829
40649SOL    HW121973   9.230   0.454   8.833
40649SOL    HW221974   9.185   0.310   8.770
40650SOL     OW21975   7.703   1.348   7.738
40650SOL    HW121976   7.607   1.349   7.711
40650SOL    HW221977   7.715   1.401   7.822
40651SOL     OW21978   7.553   1.013   9.174
40651SOL    HW121979   7.476   0.980   9.228
40651SOL    HW221980   7.638   0.983   9.216
40652SOL     OW21981   8.120   0.203   8.937
40652SOL    HW121982   8.210   0.187   8.897
40652SOL    HW221983   8.128   0.208   9.036
40653SOL     OW21984   7.523   0.345   7.481
40653SOL    HW121985   7.431   0.317   7.452
40653SOL    HW221986   7.554   0.422   7.425
40654SOL     OW21987   8.888   0.856   8.846
40654SOL    HW121988   8.831   0.908   8.783
40654SOL    HW221989   8.984   0.868   8.822
40655SOL     OW21990   7.520   0.166   7.766
40655SOL    HW121991   7.503   0.249   7.712
40655SOL    HW221992   7.610   0.129   7.744
40656SOL     OW21993   8.631   1.335   7.567
40656SOL    HW121994   8.532   1.324   7.569
40656SOL    HW221995   8.665   1.350   7.660
40657SOL     OW21996   8.061   0.842   8.879
40657SOL    HW121997   8.117   0.923   8.862
40657SOL    HW221998   8.120   0.762   8.882
40658SOL     OW21999   8.941   1.767   8.407
40658SOL    HW122000   8.974   1.831   8.338
40658SOL    HW222001   9.007   1.761   8.482
40659SOL     OW22002   8.164   0.565   9.156
40659SOL    HW122003   8.183   0.630   9.230
40659SOL    HW222004   8.224   0.485   9.165
40660SOL     OW22005   8.898   1.220   9.081
40660SOL    HW122006   8.889   1.210   9.180
40660SOL    HW222007   8.994   1.213   9.055
40661SOL     OW22008   7.838   1.741   9.008
40661SOL    HW122009   7.747   1.782   9.006
40661SOL    HW222010   7.831   1.647   9.040
40662SOL     OW22011   9.122   0.883   8.702
40662SOL    HW122012   9.095   0.794   8.665
40662SOL    HW222013   9.123   0.951   8.629
40663SOL     OW22014   8.673   0.325   7.897
40663SOL    HW122015   8.738   0.251   7.886
40663SOL    HW222016   8.693   0.375   7.981
40664SOL     OW22017   8.042   0.745   8.100
40664SOL    HW122018   8.092   0.830   8.081
40664SOL    HW222019   7.954   0.747   8.052
40665SOL     OW22020   9.225   0.342   9.090
40665SOL    HW122021   9.208   0.373   8.996
40665SOL    HW222022   9.141   0.305   9.128
40666SOL     OW22023   9.178   0.934   8.965
40666SOL    HW122024   9.216   1.025   8.980
40666SOL    HW222025   9.170   0.917   8.866
40667SOL     OW22026   8.307   1.374   7.464
40667SOL    HW122027   8.261   1.389   7.552
40667SOL    HW222028   8.351   1.459   7.434
40668SOL     OW22029   8.109   1.790   8.401
40668SOL    HW122030   8.063   1.878   8.388
40668SOL    HW222031   8.208   1.802   8.394
40669SOL     OW22032   8.307   0.956   8.309
40669SOL    HW122033   8.361   0.887   8.357
40669SOL    HW222034   8.275   1.025   8.375
40670SOL     OW22035   8.531   0.984   7.535
40670SOL    HW122036   8.508   1.037   7.453
40670SOL    HW222037   8.612   0.928   7.516
40671SOL     OW22038   9.309   1.569   8.299
40671SOL    HW122039   9.238   1.557   8.229
40671SOL    HW222040   9.310   1.490   8.359
40672SOL     OW22041   7.669   1.314   9.292
40672SOL    HW122042   7.604   1.241   9.271
40672SOL    HW222043   7.673   1.328   9.390
40673SOL     OW22044   7.527   1.240   8.101
40673SOL    HW122045   7.526   1.193   8.189
40673SOL    HW222046   7.609   1.212   8.050
40674SOL     OW22047   8.120   1.391   9.072
40674SOL    HW122048   8.042   1.341   9.110
40674SOL    HW222049   8.117   1.486   9.103
40675SOL     OW22050   9.272   0.192   8.675
40675SOL    HW122051   9.268   0.102   8.719
40675SOL    HW222052   9.275   0.181   8.576
40676SOL     OW22053   7.876   0.424   7.968
40676SOL    HW122054   7.906   0.352   7.906
40676SOL    HW222055   7.837   0.384   8.051
40677SOL     OW22056   9.153   1.487   8.552
40677SOL    HW122057   9.060   1.462   8.525
40677SOL    HW222058   9.179   1.437   8.634
40678SOL     OW22059   7.765   0.547   8.728
40678SOL    HW122060   7.803   0.488   8.800
40678SOL    HW222061   7.805   0.521   8.640
40679SOL     OW22062   8.260   1.586   8.135
40679SOL    HW122063   8.292   1.596   8.041
40679SOL    HW222064   8.181   1.524   8.137
40680SOL     OW22065   8.872   0.214   8.560
40680SOL    HW122066   8.924   0.149   8.615
40680SOL    HW222067   8.823   0.277   8.621
40681SOL     OW22068   8.449   0.034   8.602
40681SOL    HW122069   8.386  -0.038   8.571
40681SOL    HW222070   8.542  -0.002   8.602
40682SOL     OW22071   8.218   1.330   7.749
40682SOL    HW122072   8.172   1.243   7.766
40682SOL    HW222073   8.309   1.327   7.790
40683SOL     OW22074   8.066   1.567   8.732
40683SOL    HW122075   8.061   1.649   8.789
40683SOL    HW222076   8.155   1.564   8.687
40684SOL     OW22077   8.800   0.052   7.616
40684SOL    HW122078   8.835   0.011   7.532
40684SOL    HW222079   8.710   0.014   7.636
40685SOL     OW22080   8.748   0.453   8.139
40685SOL    HW122081   8.689   0.533   8.143
40685SOL    HW222082   8.763   0.418   8.232
40686SOL     OW22083   9.041   0.221   8.330
40686SOL    HW122084   8.957   0.220   8.384
40686SOL    HW222085   9.043   0.304   8.274
40687SOL     OW22086   7.487   1.077   7.748
40687SOL    HW122087   7.586   1.066   7.739
40687SOL    HW222088   7.447   0.991   7.780
40688SOL     OW22089   8.323   1.646   7.785
40688SOL    HW122090   8.246   1.611   7.731
40688SOL    HW222091   8.291   1.717   7.847
40689SOL     OW22092   7.678   0.628   9.423
40689SOL    HW122093   7.585   0.626   9.460
40689SOL    HW222094   7.679   0.589   9.331
40690SOL     OW22095   7.673   0.275  10.306
40690SOL    HW122096   7.708   0.258  10.398
40690SOL    HW222097   7.585   0.230  10.294
40691SOL     OW22098   7.467   0.368   9.957
40691SOL    HW122099   7.385   0.411   9.996
40691SOL    HW222100   7.439   0.295   9.894
40692SOL     OW22101   8.017   1.275  10.475
40692SOL    HW122102   7.924   1.268  10.438
40692SOL    HW222103   8.028   1.364  10.519
40693SOL     OW22104   9.003   1.511  10.013
40693SOL    HW122105   8.946   1.495  10.094
40693SOL    HW222106   8.944   1.521   9.933
40694SOL     OW22107   8.583   0.703  10.027
40694SOL    HW122108   8.640   0.781  10.002
40694SOL    HW222109   8.523   0.729  10.103
40695SOL     OW22110   9.203   0.607   9.541
40695SOL    HW122111   9.191   0.594   9.442
40695SOL    HW222112   9.173   0.526   9.590
40696SOL     OW22113   8.216   1.144  10.333
40696SOL    HW122114   8.138   1.161  10.393
40696SOL    HW222115   8.250   1.231  10.297
40697SOL     OW22116   8.298   0.798  11.133
40697SOL    HW122117   8.294   0.874  11.198
40697SOL    HW222118   8.320   0.834  11.042
40698SOL     OW22119   8.133   1.012   9.975
40698SOL    HW122120   8.202   0.996  10.045
40698SOL    HW222121   8.060   1.069  10.013
40699SOL     OW22122   8.134   1.161  11.113
40699SOL    HW122123   8.194   1.240  11.127
40699SOL    HW222124   8.048   1.192  11.072
40700SOL     OW22125   7.783   1.435  10.371
40700SOL    HW122126   7.705   1.404  10.318
40700SOL    HW222127   7.841   1.493  10.314
40701SOL     OW22128   8.908   1.505  10.649
40701SOL    HW122129   8.932   1.599  10.675
40701SOL    HW222130   8.892   1.451  10.731
40702SOL     OW22131   7.886   0.392  10.809
40702SOL    HW122132   7.968   0.336  10.818
40702SOL    HW222133   7.805   0.334  10.813
40703SOL     OW22134   9.051   0.447  10.047
40703SOL    HW122135   8.977   0.493   9.997
40703SOL    HW222136   9.102   0.515  10.100
40704SOL     OW22137   7.679   1.713   9.793
40704SOL    HW122138   7.713   1.790   9.847
40704SOL    HW222139   7.723   1.713   9.703
40705SOL     OW22140   8.575   1.341  11.000
40705SOL    HW122141   8.622   1.341  11.088
40705SOL    HW222142   8.527   1.254  10.989
40706SOL     OW22143   7.678   1.434   9.848
40706SOL    HW122144   7.652   1.530   9.848
40706SOL    HW222145   7.607   1.380   9.893
40707SOL     OW22146   7.688   1.091  10.196
40707SOL    HW122147   7.702   1.007  10.248
40707SOL    HW222148   7.633   1.155  10.251
40708SOL     OW22149   8.068   1.786  10.749
40708SOL    HW122150   7.976   1.769  10.784
40708SOL    HW222151   8.096   1.878  10.775
40709SOL     OW22152   8.054   0.964   9.433
40709SOL    HW122153   8.061   1.048   9.379
40709SOL    HW222154   8.100   0.977   9.521
40710SOL     OW22155   9.042   0.114  10.790
40710SOL    HW122156   9.024   0.181  10.718
40710SOL    HW222157   9.039   0.160  10.879
40711SOL     OW22158   7.570   0.643   9.873
40711SOL    HW122159   7.525   0.555   9.890
40711SOL    HW222160   7.569   0.697   9.957
40712SOL     OW22161   9.290   1.767   9.669
40712SOL    HW122162   9.344   1.738   9.749
40712SOL    HW222163   9.320   1.857   9.640
40713SOL     OW22164   7.475   1.596   9.427
40713SOL    HW122165   7.456   1.500   9.448
40713SOL    HW222166   7.442   1.654   9.502
40714SOL     OW22167   9.137   0.922   9.922
40714SOL    HW122168   9.232   0.893   9.930
40714SOL    HW222169   9.129   0.987   9.847
40715SOL     OW22170   9.089   1.108   9.742
40715SOL    HW122171   9.175   1.110   9.690
40715SOL    HW222172   9.103   1.155   9.830
40716SOL     OW22173   7.561   0.737  10.907
40716SOL    HW122174   7.649   0.724  10.952
40716SOL    HW222175   7.548   0.834  10.885
40717SOL     OW22176   8.061   1.365  10.036
40717SOL    HW122177   8.012   1.278  10.045
40717SOL    HW222178   8.038   1.408   9.949
40718SOL     OW22179   8.741   1.228  10.733
40718SOL    HW122180   8.778   1.155  10.675
40718SOL    HW222181   8.793   1.233  10.818
40719SOL     OW22182   8.257   0.004   9.812
40719SOL    HW122183   8.297   0.095   9.803
40719SOL    HW222184   8.157   0.012   9.818
40720SOL     OW22185   7.645   0.976  10.574
40720SOL    HW122186   7.734   0.931  10.560
40720SOL    HW222187   7.572   0.911  10.555
40721SOL     OW22188   8.973   0.999   9.500
40721SOL    HW122189   8.910   0.923   9.513
40721SOL    HW222190   9.021   1.017   9.586
40722SOL     OW22191   8.635   1.792  10.926
40722SOL    HW122192   8.659   1.852  10.850
40722SOL    HW222193   8.642   1.697  10.896
40723SOL     OW22194   7.765   0.251  11.111
40723SOL    HW122195   7.836   0.322  11.117
40723SOL    HW222196   7.677   0.290  11.139
40724SOL     OW22197   8.914   1.417  10.263
40724SOL    HW122198   8.855   1.423  10.343
40724SOL    HW222199   8.899   1.329  10.217
40725SOL     OW22200   9.115   1.714   9.882
40725SOL    HW122201   9.074   1.691   9.794
40725SOL    HW222202   9.097   1.640   9.947
40726SOL     OW22203   8.046   0.729   9.580
40726SOL    HW122204   8.070   0.798   9.512
40726SOL    HW222205   7.968   0.762   9.634
40727SOL     OW22206   8.729   0.345  10.254
40727SOL    HW122207   8.643   0.295  10.241
40727SOL    HW222208   8.791   0.291  10.310
40728SOL     OW22209   9.024   1.662   9.617
40728SOL    HW122210   9.113   1.708   9.620
40728SOL    HW222211   9.003   1.638   9.522
40729SOL     OW22212   8.255   0.605  10.775
40729SOL    HW122213   8.208   0.602  10.864
40729SOL    HW222214   8.204   0.550  10.709
40730SOL     OW22215   8.842   0.469  10.984
40730SOL    HW122216   8.822   0.512  11.072
40730SOL    HW222217   8.920   0.407  10.993
40731SOL     OW22218   8.421   0.890  10.882
40731SOL    HW122219   8.467   0.806  10.853
40731SOL    HW222220   8.365   0.924  10.807
40732SOL     OW22221   8.439   0.410  10.552
40732SOL    HW122222   8.362   0.444  10.606
40732SOL    HW222223   8.405   0.359  10.473
40733SOL     OW22224   8.489   0.701   9.739
40733SOL    HW122225   8.515   0.697   9.835
40733SOL    HW222226   8.404   0.650   9.725
40734SOL     OW22227   7.524   0.811  10.099
40734SOL    HW122228   7.623   0.799  10.108
40734SOL    HW222229   7.500   0.906  10.120
40735SOL     OW22230   7.578   1.821  10.881
40735SOL    HW122231   7.568   1.806  10.980
40735SOL    HW222232   7.492   1.857  10.845
40736SOL     OW22233   8.313   0.348   9.505
40736SOL    HW122234   8.372   0.411   9.456
40736SOL    HW222235   8.332   0.254   9.476
40737SOL     OW22236   9.167   0.585  11.141
40737SOL    HW122237   9.141   0.674  11.105
40737SOL    HW222238   9.165   0.517  11.068
40738SOL     OW22239   8.810   1.144   9.855
40738SOL    HW122240   8.893   1.115   9.807
40738SOL    HW222241   8.761   1.211   9.799
40739SOL     OW22242   7.998   0.196  10.195
40739SOL    HW122243   7.993   0.191  10.295
40739SOL    HW222244   8.000   0.292  10.166
40740SOL     OW22245   8.456   1.456   9.787
40740SOL    HW122246   8.410   1.528   9.735
40740SOL    HW222247   8.452   1.476   9.885
40741SOL     OW22248   7.799   1.801  10.163
40741SOL    HW122249   7.849   1.715  10.169
40741SOL    HW222250   7.864   1.878  10.160
40742SOL     OW22251   9.243   1.066  10.183
40742SOL    HW122252   9.181   1.051  10.107
40742SOL    HW222253   9.191   1.077  10.268
40743SOL     OW22254   8.675   1.550  10.816
40743SOL    HW122255   8.681   1.473  10.880
40743SOL    HW222256   8.623   1.524  10.736
40744SOL     OW22257   7.769   0.943   9.552
40744SOL    HW122258   7.851   0.982   9.510
40744SOL    HW222259   7.742   0.861   9.503
40745SOL     OW22260   8.906   0.735  10.038
40745SOL    HW122261   8.901   0.670  10.113
40745SOL    HW222262   8.986   0.794  10.051
40746SOL     OW22263   7.909   1.266  11.037
40746SOL    HW122264   7.859   1.267  10.951
40746SOL    HW222265   7.846   1.248  11.113
40747SOL     OW22266   8.559   1.776   9.547
40747SOL    HW122267   8.499   1.714   9.597
40747SOL    HW222268   8.590   1.732   9.462
40748SOL     OW22269   7.650   0.285  10.808
40748SOL    HW122270   7.570   0.345  10.795
40748SOL    HW222271   7.640   0.236  10.894
40749SOL     OW22272   9.080   1.377   9.391
40749SOL    HW122273   9.048   1.471   9.381
40749SOL    HW222274   9.004   1.314   9.379
40750SOL     OW22275   7.912   1.743   9.633
40750SOL    HW122276   7.945   1.782   9.719
40750SOL    HW222277   7.988   1.736   9.568
40751SOL     OW22278   8.848   0.107   9.736
40751SOL    HW122279   8.824   0.070   9.646
40751SOL    HW222280   8.947   0.123   9.740
40752SOL     OW22281   7.697   1.785  10.551
40752SOL    HW122282   7.754   1.720  10.601
40752SOL    HW222283   7.681   1.752  10.458
40753SOL     OW22284   8.388   1.698  10.214
40753SOL    HW122285   8.468   1.641  10.235
40753SOL    HW222286   8.339   1.658  10.137
40754SOL     OW22287   7.830   0.700   9.790
40754SOL    HW122288   7.875   0.610   9.787
40754SOL    HW222289   7.736   0.689   9.823
40755SOL     OW22290   8.995   0.222  11.039
40755SOL    HW122291   8.990   0.259  11.131
40755SOL    HW222292   8.923   0.153  11.027
40756SOL     OW22293   8.062   0.122   9.427
40756SOL    HW122294   8.160   0.100   9.434
40756SOL    HW222295   8.031   0.105   9.334
40757SOL     OW22296   8.229   0.264  11.059
40757SOL    HW122297   8.296   0.203  11.102
40757SOL    HW222298   8.156   0.283  11.124
40758SOL     OW22299   8.336   1.514  10.505
40758SOL    HW122300   8.313   1.489  10.411
40758SOL    HW222301   8.397   1.445  10.544
40759SOL     OW22302   8.799   0.590  10.743
40759SOL    HW122303   8.827   0.547  10.828
40759SOL    HW222304   8.824   0.686  10.744
40760SOL     OW22305   8.251   1.402  10.234
40760SOL    HW122306   8.341   1.416  10.192
40760SOL    HW222307   8.180   1.404  10.163
40761SOL     OW22308   8.370   0.503  10.209
40761SOL    HW122309   8.345   0.494  10.113
40761SOL    HW222310   8.418   0.421  10.240
40762SOL     OW22311   7.987   0.064   9.822
40762SOL    HW122312   7.906   0.065   9.880
40762SOL    HW222313   7.990   0.147   9.767
40763SOL     OW22314   8.882   1.188   9.351
40763SOL    HW122315   8.914   1.112   9.408
40763SOL    HW222316   8.790   1.215   9.381
40764SOL     OW22317   7.745   0.035   9.481
40764SOL    HW122318   7.794   0.119   9.460
40764SOL    HW222319   7.807  -0.030   9.526
40765SOL     OW22320   8.383   0.236   9.790
40765SOL    HW122321   8.335   0.277   9.712
40765SOL    HW222322   8.482   0.234   9.771
40766SOL     OW22323   8.524   0.683  10.774
40766SOL    HW122324   8.444   0.622  10.777
40766SOL    HW222325   8.605   0.630  10.750
40767SOL     OW22326   8.675   1.570  10.103
40767SOL    HW122327   8.696   1.644  10.038
40767SOL    HW222328   8.743   1.570  10.176
40768SOL     OW22329   7.907   1.152  10.051
40768SOL    HW122330   7.836   1.125  10.116
40768SOL    HW222331   7.881   1.124   9.958
40769SOL     OW22332   8.719   1.797   9.901
40769SOL    HW122333   8.763   1.861   9.837
40769SOL    HW222334   8.669   1.849   9.971
40770SOL     OW22335   8.480   0.549   9.326
40770SOL    HW122336   8.439   0.631   9.287
40770SOL    HW222337   8.544   0.575   9.399
40771SOL     OW22338   7.526   0.556  10.696
40771SOL    HW122339   7.618   0.555  10.655
40771SOL    HW222340   7.520   0.630  10.763
40772SOL     OW22341   8.009   0.222  10.457
40772SOL    HW122342   8.047   0.138  10.494
40772SOL    HW222343   7.921   0.241  10.501
40773SOL     OW22344   8.314   0.454   9.952
40773SOL    HW122345   8.282   0.526   9.890
40773SOL    HW222346   8.338   0.373   9.899
40774SOL     OW22347   8.465   0.039  10.063
40774SOL    HW122348   8.393   0.044   9.994
40774SOL    HW222349   8.441  -0.030  10.132
40775SOL     OW22350   8.877   1.173  10.177
40775SOL    HW122351   8.822   1.089  10.170
40775SOL    HW222352   8.903   1.202  10.085
40776SOL     OW22353   8.914   0.590  10.302
40776SOL    HW122354   8.884   0.495  10.309
40776SOL    HW222355   8.987   0.606  10.368
40777SOL     OW22356   9.305   0.833   9.687
40777SOL    HW122357   9.347   0.769   9.751
40777SOL    HW222358   9.267   0.782   9.609
40778SOL     OW22359   7.936   1.385   9.484
40778SOL    HW122360   7.849   1.370   9.531
40778SOL    HW222361   7.919   1.411   9.389
40779SOL     OW22362   9.112   1.280   9.967
40779SOL    HW122363   9.211   1.288   9.981
40779SOL    HW222364   9.067   1.364   9.998
40780SOL     OW22365   8.838   0.575   9.388
40780SOL    HW122366   8.784   0.554   9.469
40780SOL    HW222367   8.929   0.534   9.397
40781SOL     OW22368   7.975   0.256   9.638
40781SOL    HW122369   8.002   0.197   9.563
40781SOL    HW222370   7.975   0.351   9.607
40782SOL     OW22371   9.202   1.223  10.898
40782SOL    HW122372   9.293   1.184  10.885
40782SOL    HW222373   9.210   1.319  10.922
40783SOL     OW22374   8.512   1.347  10.650
40783SOL    HW122375   8.432   1.324  10.705
40783SOL    HW222376   8.595   1.321  10.699
40784SOL     OW22377   9.040   1.629  10.935
40784SOL    HW122378   9.067   1.663  10.845
40784SOL    HW222379   9.119   1.591  10.981
40785SOL     OW22380   8.559   1.195  10.410
40785SOL    HW122381   8.519   1.239  10.491
40785SOL    HW222382   8.518   1.232  10.327
40786SOL     OW22383   9.086   1.099  10.389
40786SOL    HW122384   9.091   1.180  10.448
40786SOL    HW222385   9.000   1.101  10.338
40787SOL     OW22386   8.363   0.089  10.712
40787SOL    HW122387   8.388   0.069  10.617
40787SOL    HW222388   8.435   0.145  10.754
40788SOL     OW22389   8.428   1.116  11.029
40788SOL    HW122390   8.329   1.122  11.039
40788SOL    HW222391   8.451   1.036  10.973
40789SOL     OW22392   8.153   1.050   9.678
40789SOL    HW122393   8.139   1.057   9.777
40789SOL    HW222394   8.237   0.999   9.660
40790SOL     OW22395   7.858   0.813  10.561
40790SOL    HW122396   7.944   0.825  10.611
40790SOL    HW222397   7.816   0.726  10.588
40791SOL     OW22398   8.722   0.386  10.572
40791SOL    HW122399   8.743   0.460  10.636
40791SOL    HW222400   8.633   0.403  10.529
40792SOL     OW22401   7.512   1.564  10.641
40792SOL    HW122402   7.466   1.646  10.607
40792SOL    HW222403   7.610   1.583  10.650
40793SOL     OW22404   7.815   1.100   9.811
40793SOL    HW122405   7.808   1.183   9.755
40793SOL    HW222406   7.819   1.020   9.751
40794SOL     OW22407   8.014   0.537  10.175
40794SOL    HW122408   8.026   0.603  10.101
40794SOL    HW222409   8.060   0.571  10.258
40795SOL     OW22410   8.700   1.348   9.698
40795SOL    HW122411   8.750   1.425   9.738
40795SOL    HW222412   8.605   1.350   9.730
40796SOL     OW22413   8.720   1.445  10.452
40796SOL    HW122414   8.767   1.458  10.539
40796SOL    HW222415   8.654   1.371  10.461
40797SOL     OW22416   9.030   0.639   9.782
40797SOL    HW122417   8.999   0.700   9.855
40797SOL    HW222418   9.080   0.691   9.713
40798SOL     OW22419   7.802   1.510  10.639
40798SOL    HW122420   7.781   1.466  10.552
40798SOL    HW222421   7.899   1.536  10.642
40799SOL     OW22422   7.850   0.751  10.908
40799SOL    HW122423   7.918   0.806  10.861
40799SOL    HW222424   7.890   0.663  10.935
40800SOL     OW22425   9.035   0.779  10.980
40800SOL    HW122426   8.943   0.817  10.975
40800SOL    HW222427   9.095   0.826  10.915
40801SOL     OW22428   8.461   0.105  11.080
40801SOL    HW122429   8.467   0.190  11.028
40801SOL    HW222430   8.493   0.029  11.023
40802SOL     OW22431   7.952   0.050  11.050
40802SOL    HW122432   7.910  -0.007  10.980
40802SOL    HW222433   7.886   0.119  11.082
40803SOL     OW22434   8.021   0.870  10.339
40803SOL    HW122435   8.065   0.959  10.330
40803SOL    HW222436   7.958   0.870  10.416
40804SOL     OW22437   8.808   0.862  10.355
40804SOL    HW122438   8.733   0.862  10.289
40804SOL    HW222439   8.845   0.770  10.364
40805SOL     OW22440   8.657   0.525   9.585
40805SOL    HW122441   8.670   0.441   9.639
40805SOL    HW222442   8.628   0.599   9.645
40806SOL     OW22443   7.755   0.213  10.541
40806SOL    HW122444   7.732   0.250  10.631
40806SOL    HW222445   7.725   0.118  10.535
40807SOL     OW22446   7.485   1.310  10.592
40807SOL    HW122447   7.538   1.261  10.660
40807SOL    HW222448   7.507   1.408  10.597
40808SOL     OW22449   8.180   0.634  10.374
40808SOL    HW122450   8.239   0.608  10.298
40808SOL    HW222451   8.152   0.730  10.363
40809SOL     OW22452   9.176   0.935  11.164
40809SOL    HW122453   9.130   0.928  11.075
40809SOL    HW222454   9.114   0.979  11.230
40810SOL     OW22455   7.755   0.063   9.928
40810SOL    HW122456   7.744   0.157   9.961
40810SOL    HW222457   7.750   0.000  10.005
40811SOL     OW22458   9.070   0.367   9.684
40811SOL    HW122459   9.072   0.291   9.748
40811SOL    HW222460   9.022   0.444   9.724
40812SOL     OW22461   8.471   0.766  10.276
40812SOL    HW122462   8.486   0.787  10.372
40812SOL    HW222463   8.441   0.671  10.267
40813SOL     OW22464   8.428   1.573  11.010
40813SOL    HW122465   8.408   1.617  10.922
40813SOL    HW222466   8.467   1.482  10.994
40814SOL     OW22467   9.307   1.518  10.915
40814SOL    HW122468   9.321   1.545  10.820
40814SOL    HW222469   9.390   1.540  10.968
40815SOL     OW22470   7.798   0.898  11.114
40815SOL    HW122471   7.874   0.942  11.162
40815SOL    HW222472   7.833   0.851  11.032
40816SOL     OW22473   8.988   0.274   9.435
40816SOL    HW122474   8.927   0.199   9.458
40816SOL    HW222475   9.010   0.326   9.518
40817SOL     OW22476   8.751   0.838   9.352
40817SOL    HW122477   8.785   0.745   9.367
40817SOL    HW222478   8.769   0.865   9.257
40818SOL     OW22479   8.516   1.333  10.159
40818SOL    HW122480   8.523   1.249  10.104
40818SOL    HW222481   8.578   1.402  10.123
40819SOL     OW22482   7.767   0.810  10.259
40819SOL    HW122483   7.860   0.846  10.264
40819SOL    HW222484   7.761   0.725  10.311
40820SOL     OW22485   7.787   0.509  10.316
40820SOL    HW122486   7.735   0.426  10.299
40820SOL    HW222487   7.864   0.514  10.252
40821SOL     OW22488   8.586   0.380  10.988
40821SOL    HW122489   8.541   0.443  11.052
40821SOL    HW222490   8.679   0.411  10.971
40822SOL     OW22491   8.608   0.207  10.787
40822SOL    HW122492   8.608   0.271  10.864
40822SOL    HW222493   8.636   0.255  10.704
40823SOL     OW22494   7.456   1.326   9.510
40823SOL    HW122495   7.363   1.347   9.479
40823SOL    HW222496   7.466   1.227   9.523
40824SOL     OW22497   7.536   1.801  10.237
40824SOL    HW122498   7.494   1.715  10.210
40824SOL    HW222499   7.630   1.804  10.203
40825SOL     OW22500   7.952   1.568  10.220
40825SOL    HW122501   8.018   1.642  10.229
40825SOL    HW222502   7.996   1.489  10.178
40826SOL     OW22503   8.450   0.796  10.548
40826SOL    HW122504   8.491   0.764  10.634
40826SOL    HW222505   8.354   0.769  10.545
40827SOL     OW22506   7.488   0.544  10.424
40827SOL    HW122507   7.573   0.511  10.383
40827SOL    HW222508   7.501   0.559  10.522
40828SOL     OW22509   7.637   0.520  11.032
40828SOL    HW122510   7.696   0.480  10.962
40828SOL    HW222511   7.579   0.591  10.991
40829SOL     OW22512   8.817   0.950  10.970
40829SOL    HW122513   8.856   1.039  10.990
40829SOL    HW222514   8.827   0.930  10.873
40830SOL     OW22515   8.263   0.572   9.635
40830SOL    HW122516   8.270   0.483   9.589
40830SOL    HW222517   8.169   0.606   9.627
40831SOL     OW22518   9.105   0.604  10.516
40831SOL    HW122519   9.067   0.535  10.578
40831SOL    HW222520   9.187   0.568  10.472
40832SOL     OW22521   7.700   1.564  11.054
40832SOL    HW122522   7.670   1.621  11.130
40832SOL    HW222523   7.693   1.467  11.080
40833SOL     OW22524   8.119   0.464  10.579
40833SOL    HW122525   8.085   0.375  10.549
40833SOL    HW222526   8.145   0.518  10.499
40834SOL     OW22527   8.378   1.678  10.775
40834SOL    HW122528   8.354   1.660  10.680
40834SOL    HW222529   8.408   1.772  10.785
40835SOL     OW22530   7.921   0.500   9.501
40835SOL    HW122531   7.982   0.580   9.505
40835SOL    HW222532   7.826   0.531   9.508
40836SOL     OW22533   7.607   1.137  10.776
40836SOL    HW122534   7.629   1.076  10.852
40836SOL    HW222535   7.617   1.088  10.690
40837SOL     OW22536   8.795   1.059  10.544
40837SOL    HW122537   8.819   0.996  10.470
40837SOL    HW222538   8.705   1.099  10.526
40838SOL     OW22539   8.750   0.855   9.619
40838SOL    HW122540   8.664   0.824   9.661
40838SOL    HW222541   8.746   0.841   9.520
40839SOL     OW22542   9.207   1.747  10.464
40839SOL    HW122543   9.268   1.777  10.391
40839SOL    HW222544   9.169   1.658  10.442
40840SOL     OW22545   8.700   1.731  10.438
40840SOL    HW122546   8.784   1.736  10.384
40840SOL    HW222547   8.677   1.635  10.456
40841SOL     OW22548   7.531   1.258  10.332
40841SOL    HW122549   7.526   1.257  10.432
40841SOL    HW222550   7.448   1.217  10.294
40842SOL     OW22551   8.136   1.662  11.026
40842SOL    HW122552   8.080   1.743  11.035
40842SOL    HW222553   8.188   1.666  10.940
40843SOL     OW22554   9.174   0.135   9.833
40843SOL    HW122555   9.247   0.118   9.766
40843SOL    HW222556   9.143   0.048   9.871
40844SOL     OW22557   8.836   1.573   9.787
40844SOL    HW122558   8.903   1.585   9.713
40844SOL    HW222559   8.796   1.662   9.810
40845SOL     OW22560   7.578   1.794  11.161
40845SOL    HW122561   7.537   1.720  11.214
40845SOL    HW222562   7.642   1.845  11.219
40846SOL     OW22563   8.728   0.927   9.982
40846SOL    HW122564   8.788   0.846   9.984
40846SOL    HW222565   8.768   0.996   9.922
40847SOL     OW22566   8.278   1.273  10.732
40847SOL    HW122567   8.273   1.306  10.827
40847SOL    HW222568   8.192   1.292  10.686
40848SOL     OW22569   8.120   1.616   9.464
40848SOL    HW122570   8.129   1.626   9.365
40848SOL    HW222571   8.080   1.527   9.485
40849SOL     OW22572   9.098   1.720  10.704
40849SOL    HW122573   9.151   1.730  10.620
40849SOL    HW222574   9.071   1.810  10.738
40850SOL     OW22575   9.289   0.175  10.273
40850SOL    HW122576   9.328   0.090  10.237
40850SOL    HW222577   9.191   0.177  10.254
40851SOL     OW22578   7.711   0.326  10.030
40851SOL    HW122579   7.632   0.377   9.996
40851SOL    HW222580   7.702   0.311  10.128
40852SOL     OW22581   8.642   1.612   9.341
40852SOL    HW122582   8.648   1.519   9.378
40852SOL    HW222583   8.583   1.612   9.261
40853SOL     OW22584   8.270   1.002  10.682
40853SOL    HW122585   8.310   1.001  10.590
40853SOL    HW222586   8.280   1.094  10.722
40854SOL     OW22587   8.364   0.910   9.601
40854SOL    HW122588   8.427   0.948   9.533
40854SOL    HW222589   8.404   0.827   9.640
40855SOL     OW22590   8.952   1.607   9.354
40855SOL    HW122591   8.860   1.644   9.361
40855SOL    HW222592   8.990   1.627   9.264
40856SOL     OW22593   7.820   1.288  10.800
40856SOL    HW122594   7.807   1.381  10.766
40856SOL    HW222595   7.736   1.236  10.787
40857SOL     OW22596   9.062   1.292  10.599
40857SOL    HW122597   9.122   1.295  10.679
40857SOL    HW222598   8.987   1.356  10.612
40858SOL     OW22599   8.487   1.098  10.006
40858SOL    HW122600   8.417   1.051  10.060
40858SOL    HW222601   8.546   1.030   9.963
40859SOL     OW22602   8.462   0.236  10.281
40859SOL    HW122603   8.454   0.200  10.188
40859SOL    HW222604   8.460   0.160  10.346
40860SOL     OW22605   8.038   1.487   9.801
40860SOL    HW122606   8.080   1.429   9.731
40860SOL    HW222607   7.994   1.566   9.757
40861SOL     OW22608   9.157   0.385  10.691
40861SOL    HW122609   9.230   0.454  10.695
40861SOL    HW222610   9.185   0.310  10.632
40862SOL     OW22611   7.703   1.348   9.600
40862SOL    HW122612   7.607   1.349   9.573
40862SOL    HW222613   7.715   1.401   9.684
40863SOL     OW22614   7.553   1.013  11.036
40863SOL    HW122615   7.476   0.980  11.090
40863SOL    HW222616   7.638   0.983  11.078
40864SOL     OW22617   8.120   0.203  10.799
40864SOL    HW122618   8.210   0.187  10.759
40864SOL    HW222619   8.128   0.208  10.898
40865SOL     OW22620   7.523   0.345   9.343
40865SOL    HW122621   7.431   0.317   9.314
40865SOL    HW222622   7.554   0.422   9.287
40866SOL     OW22623   8.888   0.856  10.708
40866SOL    HW122624   8.831   0.908  10.645
40866SOL    HW222625   8.984   0.868  10.684
40867SOL     OW22626   7.520   0.166   9.628
40867SOL    HW122627   7.503   0.249   9.574
40867SOL    HW222628   7.610   0.129   9.606
40868SOL     OW22629   8.631   1.335   9.429
40868SOL    HW122630   8.532   1.324   9.431
40868SOL    HW222631   8.665   1.350   9.522
40869SOL     OW22632   8.061   0.842  10.741
40869SOL    HW122633   8.117   0.923  10.724
40869SOL    HW222634   8.120   0.762  10.744
40870SOL     OW22635   8.941   1.767  10.269
40870SOL    HW122636   8.974   1.831  10.200
40870SOL    HW222637   9.007   1.761  10.344
40871SOL     OW22638   8.164   0.565  11.018
40871SOL    HW122639   8.183   0.630  11.092
40871SOL    HW222640   8.224   0.485  11.027
40872SOL     OW22641   8.898   1.220  10.943
40872SOL    HW122642   8.889   1.210  11.042
40872SOL    HW222643   8.994   1.213  10.917
40873SOL     OW22644   7.838   1.741  10.870
40873SOL    HW122645   7.747   1.782  10.868
40873SOL    HW222646   7.831   1.647  10.902
40874SOL     OW22647   9.122   0.883  10.564
40874SOL    HW122648   9.095   0.794  10.527
40874SOL    HW222649   9.123   0.951  10.491
40875SOL     OW22650   8.673   0.325   9.759
40875SOL    HW122651   8.738   0.251   9.748
40875SOL    HW222652   8.693   0.375   9.843
40876SOL     OW22653   8.042   0.745   9.962
40876SOL    HW122654   8.092   0.830   9.943
40876SOL    HW222655   7.954   0.747   9.914
40877SOL     OW22656   9.225   0.342  10.952
40877SOL    HW122657   9.208   0.373  10.858
40877SOL    HW222658   9.141   0.305  10.990
40878SOL     OW22659   9.178   0.934  10.827
40878SOL    HW122660   9.216   1.025  10.842
40878SOL    HW222661   9.170   0.917  10.728
40879SOL     OW22662   8.307   1.374   9.326
40879SOL    HW122663   8.261   1.389   9.414
40879SOL    HW222664   8.351   1.459   9.296
40880SOL     OW22665   8.109   1.790  10.263
40880SOL    HW122666   8.063   1.878  10.250
40880SOL    HW222667   8.208   1.802  10.256
40881SOL     OW22668   8.307   0.956  10.171
40881SOL    HW122669   8.361   0.887  10.219
40881SOL    HW222670   8.275   1.025  10.237
40882SOL     OW22671   8.531   0.984   9.397
40882SOL    HW122672   8.508   1.037   9.315
40882SOL    HW222673   8.612   0.928   9.378
40883SOL     OW22674   9.309   1.569  10.161
40883SOL    HW122675   9.238   1.557  10.091
40883SOL    HW222676   9.310   1.490  10.221
40884SOL     OW22677   7.669   1.314  11.154
40884SOL    HW122678   7.604   1.241  11.133
40884SOL    HW222679   7.673   1.328  11.252
40885SOL     OW22680   7.527   1.240   9.963
40885SOL    HW122681   7.526   1.193  10.051
40885SOL    HW222682   7.609   1.212   9.912
40886SOL     OW22683   8.120   1.391  10.934
40886SOL    HW122684   8.042   1.341  10.972
40886SOL    HW222685   8.117   1.486  10.965
40887SOL     OW22686   9.272   0.192  10.537
40887SOL    HW122687   9.268   0.102  10.581
40887SOL    HW222688   9.275   0.181  10.438
40888SOL     OW22689   7.876   0.424   9.830
40888SOL    HW122690   7.906   0.352   9.768
40888SOL    HW222691   7.837   0.384   9.913
40889SOL     OW22692   9.153   1.487  10.414
40889SOL    HW122693   9.060   1.462  10.387
40889SOL    HW222694   9.179   1.437  10.496
40890SOL     OW22695   7.765   0.547  10.590
40890SOL    HW122696   7.803   0.488  10.662
40890SOL    HW222697   7.805   0.521  10.502
40891SOL     OW22698   8.260   1.586   9.997
40891SOL    HW122699   8.292   1.596   9.903
40891SOL    HW222700   8.181   1.524   9.999
40892SOL     OW22701   8.872   0.214  10.422
40892SOL    HW122702   8.924   0.149  10.477
40892SOL    HW222703   8.823   0.277  10.483
40893SOL     OW22704   8.449   0.034  10.464
40893SOL    HW122705   8.386  -0.038  10.433
40893SOL    HW222706   8.542  -0.002  10.464
40894SOL     OW22707   8.218   1.330   9.611
40894SOL    HW122708   8.172   1.243   9.628
40894SOL    HW222709   8.309   1.327   9.652
40895SOL     OW22710   8.066   1.567  10.594
40895SOL    HW122711   8.061   1.649  10.651
40895SOL    HW222712   8.155   1.564  10.549
40896SOL     OW22713   8.800   0.052   9.478
40896SOL    HW122714   8.835   0.011   9.394
40896SOL    HW222715   8.710   0.014   9.498
40897SOL     OW22716   8.748   0.453  10.001
40897SOL    HW122717   8.689   0.533  10.005
40897SOL    HW222718   8.763   0.418  10.094
40898SOL     OW22719   9.041   0.221  10.192
40898SOL    HW122720   8.957   0.220  10.246
40898SOL    HW222721   9.043   0.304  10.136
40899SOL     OW22722   7.487   1.077   9.610
40899SOL    HW122723   7.586   1.066   9.601
40899SOL    HW222724   7.447   0.991   9.642
40900SOL     OW22725   8.323   1.646   9.647
40900SOL    HW122726   8.246   1.611   9.593
40900SOL    HW222727   8.291   1.717   9.709
40901SOL     OW22728   7.678   0.628  11.285
40901SOL    HW122729   7.585   0.626  11.322
40901SOL    HW222730   7.679   0.589  11.193
40902SOL     OW22731   7.673   0.275  12.168
40902SOL    HW122732   7.708   0.258  12.260
40902SOL    HW222733   7.585   0.230  12.156
40903SOL     OW22734   7.467   0.368  11.819
40903SOL    HW122735   7.385   0.411  11.858
40903SOL    HW222736   7.439   0.295  11.756
40904SOL     OW22737   8.017   1.275  12.337
40904SOL    HW122738   7.924   1.268  12.300
40904SOL    HW222739   8.028   1.364  12.381
40905SOL     OW22740   9.003   1.511  11.875
40905SOL    HW122741   8.946   1.495  11.956
40905SOL    HW222742   8.944   1.521  11.795
40906SOL     OW22743   8.583   0.703  11.889
40906SOL    HW122744   8.640   0.781  11.864
40906SOL    HW222745   8.523   0.729  11.965
40907SOL     OW22746   9.203   0.607  11.403
40907SOL    HW122747   9.191   0.594  11.304
40907SOL    HW222748   9.173   0.526  11.452
40908SOL     OW22749   8.216   1.144  12.195
40908SOL    HW122750   8.138   1.161  12.255
40908SOL    HW222751   8.250   1.231  12.159
40909SOL     OW22752   8.133   1.012  11.837
40909SOL    HW122753   8.202   0.996  11.907
40909SOL    HW222754   8.060   1.069  11.875
40910SOL     OW22755   7.783   1.435  12.233
40910SOL    HW122756   7.705   1.404  12.180
40910SOL    HW222757   7.841   1.493  12.176
40911SOL     OW22758   8.908   1.505  12.511
40911SOL    HW122759   8.932   1.599  12.537
40911SOL    HW222760   8.892   1.451  12.593
40912SOL     OW22761   7.886   0.392  12.671
40912SOL    HW122762   7.968   0.336  12.680
40912SOL    HW222763   7.805   0.334  12.675
40913SOL     OW22764   9.051   0.447  11.909
40913SOL    HW122765   8.977   0.493  11.859
40913SOL    HW222766   9.102   0.515  11.962
40914SOL     OW22767   7.679   1.713  11.655
40914SOL    HW122768   7.713   1.790  11.709
40914SOL    HW222769   7.723   1.713  11.565
40915SOL     OW22770   7.678   1.434  11.710
40915SOL    HW122771   7.652   1.530  11.710
40915SOL    HW222772   7.607   1.380  11.755
40916SOL     OW22773   7.688   1.091  12.058
40916SOL    HW122774   7.702   1.007  12.110
40916SOL    HW222775   7.633   1.155  12.113
40917SOL     OW22776   8.068   1.786  12.611
40917SOL    HW122777   7.976   1.769  12.646
40917SOL    HW222778   8.096   1.878  12.637
40918SOL     OW22779   8.054   0.964  11.295
40918SOL    HW122780   8.061   1.048  11.241
40918SOL    HW222781   8.100   0.977  11.383
40919SOL     OW22782   9.042   0.114  12.652
40919SOL    HW122783   9.024   0.181  12.580
40919SOL    HW222784   9.039   0.160  12.741
40920SOL     OW22785   7.570   0.643  11.735
40920SOL    HW122786   7.525   0.555  11.752
40920SOL    HW222787   7.569   0.697  11.819
40921SOL     OW22788   9.290   1.767  11.531
40921SOL    HW122789   9.344   1.738  11.611
40921SOL    HW222790   9.320   1.857  11.502
40922SOL     OW22791   7.475   1.596  11.289
40922SOL    HW122792   7.456   1.500  11.310
40922SOL    HW222793   7.442   1.654  11.364
40923SOL     OW22794   9.137   0.922  11.784
40923SOL    HW122795   9.232   0.893  11.792
40923SOL    HW222796   9.129   0.987  11.709
40924SOL     OW22797   9.089   1.108  11.604
40924SOL    HW122798   9.175   1.110  11.552
40924SOL    HW222799   9.103   1.155  11.692
40925SOL     OW22800   8.061   1.365  11.898
40925SOL    HW122801   8.012   1.278  11.907
40925SOL    HW222802   8.038   1.408  11.811
40926SOL     OW22803   8.257   0.004  11.674
40926SOL    HW122804   8.297   0.095  11.665
40926SOL    HW222805   8.157   0.012  11.680
40927SOL     OW22806   7.645   0.976  12.436
40927SOL    HW122807   7.734   0.931  12.422
40927SOL    HW222808   7.572   0.911  12.417
40928SOL     OW22809   8.973   0.999  11.362
40928SOL    HW122810   8.910   0.923  11.375
40928SOL    HW222811   9.021   1.017  11.448
40929SOL     OW22812   7.765   0.251  12.973
40929SOL    HW122813   7.836   0.322  12.979
40929SOL    HW222814   7.677   0.290  13.001
40930SOL     OW22815   8.914   1.417  12.125
40930SOL    HW122816   8.855   1.423  12.205
40930SOL    HW222817   8.899   1.329  12.079
40931SOL     OW22818   9.115   1.714  11.744
40931SOL    HW122819   9.074   1.691  11.656
40931SOL    HW222820   9.097   1.640  11.809
40932SOL     OW22821   8.046   0.729  11.442
40932SOL    HW122822   8.070   0.798  11.374
40932SOL    HW222823   7.968   0.762  11.496
40933SOL     OW22824   8.729   0.345  12.116
40933SOL    HW122825   8.643   0.295  12.103
40933SOL    HW222826   8.791   0.291  12.172
40934SOL     OW22827   9.024   1.662  11.479
40934SOL    HW122828   9.113   1.708  11.482
40934SOL    HW222829   9.003   1.638  11.384
40935SOL     OW22830   8.255   0.605  12.637
40935SOL    HW122831   8.208   0.602  12.726
40935SOL    HW222832   8.204   0.550  12.571
40936SOL     OW22833   8.439   0.410  12.414
40936SOL    HW122834   8.362   0.444  12.468
40936SOL    HW222835   8.405   0.359  12.335
40937SOL     OW22836   8.489   0.701  11.601
40937SOL    HW122837   8.515   0.697  11.697
40937SOL    HW222838   8.404   0.650  11.587
40938SOL     OW22839   7.524   0.811  11.961
40938SOL    HW122840   7.623   0.799  11.970
40938SOL    HW222841   7.500   0.906  11.982
40939SOL     OW22842   7.578   1.821  12.743
40939SOL    HW122843   7.568   1.806  12.842
40939SOL    HW222844   7.492   1.857  12.707
40940SOL     OW22845   8.313   0.348  11.367
40940SOL    HW122846   8.372   0.411  11.318
40940SOL    HW222847   8.332   0.254  11.338
40941SOL     OW22848   8.810   1.144  11.717
40941SOL    HW122849   8.893   1.115  11.669
40941SOL    HW222850   8.761   1.211  11.661
40942SOL     OW22851   7.998   0.196  12.057
40942SOL    HW122852   7.993   0.191  12.157
40942SOL    HW222853   8.000   0.292  12.028
40943SOL     OW22854   8.456   1.456  11.649
40943SOL    HW122855   8.410   1.528  11.597
40943SOL    HW222856   8.452   1.476  11.747
40944SOL     OW22857   7.799   1.801  12.025
40944SOL    HW122858   7.849   1.715  12.031
40944SOL    HW222859   7.864   1.878  12.022
40945SOL     OW22860   9.243   1.066  12.045
40945SOL    HW122861   9.181   1.051  11.969
40945SOL    HW222862   9.191   1.077  12.130
40946SOL     OW22863   7.769   0.943  11.414
40946SOL    HW122864   7.851   0.982  11.372
40946SOL    HW222865   7.742   0.861  11.365
40947SOL     OW22866   8.906   0.735  11.900
40947SOL    HW122867   8.901   0.670  11.975
40947SOL    HW222868   8.986   0.794  11.913
40948SOL     OW22869   8.559   1.776  11.409
40948SOL    HW122870   8.499   1.714  11.459
40948SOL    HW222871   8.590   1.732  11.324
40949SOL     OW22872   7.650   0.285  12.670
40949SOL    HW122873   7.570   0.345  12.657
40949SOL    HW222874   7.640   0.236  12.756
40950SOL     OW22875   9.080   1.377  11.253
40950SOL    HW122876   9.048   1.471  11.243
40950SOL    HW222877   9.004   1.314  11.241
40951SOL     OW22878   7.912   1.743  11.495
40951SOL    HW122879   7.945   1.782  11.581
40951SOL    HW222880   7.988   1.736  11.430
40952SOL     OW22881   8.848   0.107  11.598
40952SOL    HW122882   8.824   0.070  11.508
40952SOL    HW222883   8.947   0.123  11.602
40953SOL     OW22884   7.697   1.785  12.413
40953SOL    HW122885   7.754   1.720  12.463
40953SOL    HW222886   7.681   1.752  12.320
40954SOL     OW22887   8.388   1.698  12.076
40954SOL    HW122888   8.468   1.641  12.097
40954SOL    HW222889   8.339   1.658  11.999
40955SOL     OW22890   7.830   0.700  11.652
40955SOL    HW122891   7.875   0.610  11.649
40955SOL    HW222892   7.736   0.689  11.685
40956SOL     OW22893   8.062   0.122  11.289
40956SOL    HW122894   8.160   0.100  11.296
40956SOL    HW222895   8.031   0.105  11.196
40957SOL     OW22896   8.336   1.514  12.367
40957SOL    HW122897   8.313   1.489  12.273
40957SOL    HW222898   8.397   1.445  12.406
40958SOL     OW22899   8.251   1.402  12.096
40958SOL    HW122900   8.341   1.416  12.054
40958SOL    HW222901   8.180   1.404  12.025
40959SOL     OW22902   8.370   0.503  12.071
40959SOL    HW122903   8.345   0.494  11.975
40959SOL    HW222904   8.418   0.421  12.102
40960SOL     OW22905   7.987   0.064  11.684
40960SOL    HW122906   7.906   0.065  11.742
40960SOL    HW222907   7.990   0.147  11.629
40961SOL     OW22908   8.882   1.188  11.213
40961SOL    HW122909   8.914   1.112  11.270
40961SOL    HW222910   8.790   1.215  11.243
40962SOL     OW22911   7.745   0.035  11.343
40962SOL    HW122912   7.794   0.119  11.322
40962SOL    HW222913   7.807  -0.030  11.388
40963SOL     OW22914   8.383   0.236  11.652
40963SOL    HW122915   8.335   0.277  11.574
40963SOL    HW222916   8.482   0.234  11.633
40964SOL     OW22917   8.675   1.570  11.965
40964SOL    HW122918   8.696   1.644  11.900
40964SOL    HW222919   8.743   1.570  12.038
40965SOL     OW22920   7.907   1.152  11.913
40965SOL    HW122921   7.836   1.125  11.978
40965SOL    HW222922   7.881   1.124  11.820
40966SOL     OW22923   8.719   1.797  11.763
40966SOL    HW122924   8.763   1.861  11.699
40966SOL    HW222925   8.669   1.849  11.833
40967SOL     OW22926   8.480   0.549  11.188
40967SOL    HW122927   8.439   0.631  11.149
40967SOL    HW222928   8.544   0.575  11.261
40968SOL     OW22929   7.526   0.556  12.558
40968SOL    HW122930   7.618   0.555  12.517
40968SOL    HW222931   7.520   0.630  12.625
40969SOL     OW22932   8.009   0.222  12.319
40969SOL    HW122933   8.047   0.138  12.356
40969SOL    HW222934   7.921   0.241  12.363
40970SOL     OW22935   8.314   0.454  11.814
40970SOL    HW122936   8.282   0.526  11.752
40970SOL    HW222937   8.338   0.373  11.761
40971SOL     OW22938   8.465   0.039  11.925
40971SOL    HW122939   8.393   0.044  11.856
40971SOL    HW222940   8.441  -0.030  11.994
40972SOL     OW22941   8.877   1.173  12.039
40972SOL    HW122942   8.822   1.089  12.032
40972SOL    HW222943   8.903   1.202  11.947
40973SOL     OW22944   8.914   0.590  12.164
40973SOL    HW122945   8.884   0.495  12.171
40973SOL    HW222946   8.987   0.606  12.230
40974SOL     OW22947   9.305   0.833  11.549
40974SOL    HW122948   9.347   0.769  11.613
40974SOL    HW222949   9.267   0.782  11.471
40975SOL     OW22950   7.936   1.385  11.346
40975SOL    HW122951   7.849   1.370  11.393
40975SOL    HW222952   7.919   1.411  11.251
40976SOL     OW22953   9.112   1.280  11.829
40976SOL    HW122954   9.211   1.288  11.843
40976SOL    HW222955   9.067   1.364  11.860
40977SOL     OW22956   8.838   0.575  11.250
40977SOL    HW122957   8.784   0.554  11.331
40977SOL    HW222958   8.929   0.534  11.259
40978SOL     OW22959   7.975   0.256  11.500
40978SOL    HW122960   8.002   0.197  11.425
40978SOL    HW222961   7.975   0.351  11.469
40979SOL     OW22962   8.512   1.347  12.512
40979SOL    HW122963   8.432   1.324  12.567
40979SOL    HW222964   8.595   1.321  12.561
40980SOL     OW22965   8.559   1.195  12.272
40980SOL    HW122966   8.519   1.239  12.353
40980SOL    HW222967   8.518   1.232  12.189
40981SOL     OW22968   9.086   1.099  12.251
40981SOL    HW122969   9.091   1.180  12.310
40981SOL    HW222970   9.000   1.101  12.200
40982SOL     OW22971   8.363   0.089  12.574
40982SOL    HW122972   8.388   0.069  12.479
40982SOL    HW222973   8.435   0.145  12.616
40983SOL     OW22974   8.153   1.050  11.540
40983SOL    HW122975   8.139   1.057  11.639
40983SOL    HW222976   8.237   0.999  11.522
40984SOL     OW22977   7.858   0.813  12.423
40984SOL    HW122978   7.944   0.825  12.473
40984SOL    HW222979   7.816   0.726  12.450
40985SOL     OW22980   8.722   0.386  12.434
40985SOL    HW122981   8.743   0.460  12.498
40985SOL    HW222982   8.633   0.403  12.391
40986SOL     OW22983   7.512   1.564  12.503
40986SOL    HW122984   7.466   1.646  12.469
40986SOL    HW222985   7.610   1.583  12.512
40987SOL     OW22986   7.815   1.100  11.673
40987SOL    HW122987   7.808   1.183  11.617
40987SOL    HW222988   7.819   1.020  11.613
40988SOL     OW22989   8.014   0.537  12.037
40988SOL    HW122990   8.026   0.603  11.963
40988SOL    HW222991   8.060   0.571  12.120
40989SOL     OW22992   8.700   1.348  11.560
40989SOL    HW122993   8.750   1.425  11.600
40989SOL    HW222994   8.605   1.350  11.592
40990SOL     OW22995   8.720   1.445  12.314
40990SOL    HW122996   8.767   1.458  12.401
40990SOL    HW222997   8.654   1.371  12.323
40991SOL     OW22998   9.030   0.639  11.644
40991SOL    HW122999   8.999   0.700  11.717
40991SOL    HW223000   9.080   0.691  11.575
40992SOL     OW23001   7.802   1.510  12.501
40992SOL    HW123002   7.781   1.466  12.414
40992SOL    HW223003   7.899   1.536  12.504
40993SOL     OW23004   7.850   0.751  12.770
40993SOL    HW123005   7.918   0.806  12.723
40993SOL    HW223006   7.890   0.663  12.797
40994SOL     OW23007   9.035   0.779  12.842
40994SOL    HW123008   8.943   0.817  12.837
40994SOL    HW223009   9.095   0.826  12.777
40995SOL     OW23010   8.021   0.870  12.201
40995SOL    HW123011   8.065   0.959  12.192
40995SOL    HW223012   7.958   0.870  12.278
40996SOL     OW23013   8.808   0.862  12.217
40996SOL    HW123014   8.733   0.862  12.151
40996SOL    HW223015   8.845   0.770  12.226
40997SOL     OW23016   8.657   0.525  11.447
40997SOL    HW123017   8.670   0.441  11.501
40997SOL    HW223018   8.628   0.599  11.507
40998SOL     OW23019   7.755   0.213  12.403
40998SOL    HW123020   7.732   0.250  12.493
40998SOL    HW223021   7.725   0.118  12.397
40999SOL     OW23022   7.485   1.310  12.454
40999SOL    HW123023   7.538   1.261  12.522
40999SOL    HW223024   7.507   1.408  12.459
41000SOL     OW23025   8.180   0.634  12.236
41000SOL    HW123026   8.239   0.608  12.160
41000SOL    HW223027   8.152   0.730  12.225
41001SOL     OW23028   7.755   0.063  11.790
41001SOL    HW123029   7.744   0.157  11.823
41001SOL    HW223030   7.750   0.000  11.867
41002SOL     OW23031   9.070   0.367  11.546
41002SOL    HW123032   9.072   0.291  11.610
41002SOL    HW223033   9.022   0.444  11.586
41003SOL     OW23034   8.471   0.766  12.138
41003SOL    HW123035   8.486   0.787  12.234
41003SOL    HW223036   8.441   0.671  12.129
41004SOL     OW23037   8.428   1.573  12.872
41004SOL    HW123038   8.408   1.617  12.784
41004SOL    HW223039   8.467   1.482  12.856
41005SOL     OW23040   8.988   0.274  11.297
41005SOL    HW123041   8.927   0.199  11.320
41005SOL    HW223042   9.010   0.326  11.380
41006SOL     OW23043   8.751   0.838  11.214
41006SOL    HW123044   8.785   0.745  11.229
41006SOL    HW223045   8.769   0.865  11.119
41007SOL     OW23046   8.516   1.333  12.021
41007SOL    HW123047   8.523   1.249  11.966
41007SOL    HW223048   8.578   1.402  11.985
41008SOL     OW23049   7.767   0.810  12.121
41008SOL    HW123050   7.860   0.846  12.126
41008SOL    HW223051   7.761   0.725  12.173
41009SOL     OW23052   7.787   0.509  12.178
41009SOL    HW123053   7.735   0.426  12.161
41009SOL    HW223054   7.864   0.514  12.114
41010SOL     OW23055   8.586   0.380  12.850
41010SOL    HW123056   8.541   0.443  12.914
41010SOL    HW223057   8.679   0.411  12.833
41011SOL     OW23058   8.608   0.207  12.649
41011SOL    HW123059   8.608   0.271  12.726
41011SOL    HW223060   8.636   0.255  12.566
41012SOL     OW23061   7.456   1.326  11.372
41012SOL    HW123062   7.363   1.347  11.341
41012SOL    HW223063   7.466   1.227  11.385
41013SOL     OW23064   7.536   1.801  12.099
41013SOL    HW123065   7.494   1.715  12.072
41013SOL    HW223066   7.630   1.804  12.065
41014SOL     OW23067   7.952   1.568  12.082
41014SOL    HW123068   8.018   1.642  12.091
41014SOL    HW223069   7.996   1.489  12.040
41015SOL     OW23070   8.450   0.796  12.410
41015SOL    HW123071   8.491   0.764  12.496
41015SOL    HW223072   8.354   0.769  12.407
41016SOL     OW23073   7.488   0.544  12.286
41016SOL    HW123074   7.573   0.511  12.245
41016SOL    HW223075   7.501   0.559  12.384
41017SOL     OW23076   8.263   0.572  11.497
41017SOL    HW123077   8.270   0.483  11.451
41017SOL    HW223078   8.169   0.606  11.489
41018SOL     OW23079   9.105   0.604  12.378
41018SOL    HW123080   9.067   0.535  12.440
41018SOL    HW223081   9.187   0.568  12.334
41019SOL     OW23082   8.119   0.464  12.441
41019SOL    HW123083   8.085   0.375  12.411
41019SOL    HW223084   8.145   0.518  12.361
41020SOL     OW23085   8.378   1.678  12.637
41020SOL    HW123086   8.354   1.660  12.542
41020SOL    HW223087   8.408   1.772  12.647
41021SOL     OW23088   7.921   0.500  11.363
41021SOL    HW123089   7.982   0.580  11.367
41021SOL    HW223090   7.826   0.531  11.370
41022SOL     OW23091   7.607   1.137  12.638
41022SOL    HW123092   7.629   1.076  12.714
41022SOL    HW223093   7.617   1.088  12.552
41023SOL     OW23094   8.795   1.059  12.406
41023SOL    HW123095   8.819   0.996  12.332
41023SOL    HW223096   8.705   1.099  12.388
41024SOL     OW23097   8.750   0.855  11.481
41024SOL    HW123098   8.664   0.824  11.523
41024SOL    HW223099   8.746   0.841  11.382
41025SOL     OW23100   9.207   1.747  12.326
41025SOL    HW123101   9.268   1.777  12.253
41025SOL    HW223102   9.169   1.658  12.304
41026SOL     OW23103   8.700   1.731  12.300
41026SOL    HW123104   8.784   1.736  12.246
41026SOL    HW223105   8.677   1.635  12.318
41027SOL     OW23106   7.531   1.258  12.194
41027SOL    HW123107   7.526   1.257  12.294
41027SOL    HW223108   7.448   1.217  12.156
41028SOL     OW23109   9.174   0.135  11.695
41028SOL    HW123110   9.247   0.118  11.628
41028SOL    HW223111   9.143   0.048  11.733
41029SOL     OW23112   8.836   1.573  11.649
41029SOL    HW123113   8.903   1.585  11.575
41029SOL    HW223114   8.796   1.662  11.672
41030SOL     OW23115   8.728   0.927  11.844
41030SOL    HW123116   8.788   0.846  11.846
41030SOL    HW223117   8.768   0.996  11.784
41031SOL     OW23118   8.120   1.616  11.326
41031SOL    HW123119   8.129   1.626  11.227
41031SOL    HW223120   8.080   1.527  11.347
41032SOL     OW23121   9.098   1.720  12.566
41032SOL    HW123122   9.151   1.730  12.482
41032SOL    HW223123   9.071   1.810  12.600
41033SOL     OW23124   9.289   0.175  12.135
41033SOL    HW123125   9.328   0.090  12.099
41033SOL    HW223126   9.191   0.177  12.116
41034SOL     OW23127   7.711   0.326  11.892
41034SOL    HW123128   7.632   0.377  11.858
41034SOL    HW223129   7.702   0.311  11.990
41035SOL     OW23130   8.642   1.612  11.203
41035SOL    HW123131   8.648   1.519  11.240
41035SOL    HW223132   8.583   1.612  11.123
41036SOL     OW23133   8.270   1.002  12.544
41036SOL    HW123134   8.310   1.001  12.452
41036SOL    HW223135   8.280   1.094  12.584
41037SOL     OW23136   8.364   0.910  11.463
41037SOL    HW123137   8.427   0.948  11.395
41037SOL    HW223138   8.404   0.827  11.502
41038SOL     OW23139   8.952   1.607  11.216
41038SOL    HW123140   8.860   1.644  11.223
41038SOL    HW223141   8.990   1.627  11.126
41039SOL     OW23142   7.820   1.288  12.662
41039SOL    HW123143   7.807   1.381  12.628
41039SOL    HW223144   7.736   1.236  12.649
41040SOL     OW23145   9.062   1.292  12.461
41040SOL    HW123146   9.122   1.295  12.541
41040SOL    HW223147   8.987   1.356  12.474
41041SOL     OW23148   8.487   1.098  11.868
41041SOL    HW123149   8.417   1.051  11.922
41041SOL    HW223150   8.546   1.030  11.825
41042SOL     OW23151   8.462   0.236  12.143
41042SOL    HW123152   8.454   0.200  12.050
41042SOL    HW223153   8.460   0.160  12.208
41043SOL     OW23154   8.038   1.487  11.663
41043SOL    HW123155   8.080   1.429  11.593
41043SOL    HW223156   7.994   1.566  11.619
41044SOL     OW23157   9.157   0.385  12.553
41044SOL    HW123158   9.230   0.454  12.557
41044SOL    HW223159   9.185   0.310  12.494
41045SOL     OW23160   7.703   1.348  11.462
41045SOL    HW123161   7.607   1.349  11.435
41045SOL    HW223162   7.715   1.401  11.546
41046SOL     OW23163   7.523   0.345  11.205
41046SOL    HW123164   7.431   0.317  11.176
41046SOL    HW223165   7.554   0.422  11.149
41047SOL     OW23166   8.888   0.856  12.570
41047SOL    HW123167   8.831   0.908  12.507
41047SOL    HW223168   8.984   0.868  12.546
41048SOL     OW23169   7.520   0.166  11.490
41048SOL    HW123170   7.503   0.249  11.436
41048SOL    HW223171   7.610   0.129  11.468
41049SOL     OW23172   8.631   1.335  11.291
41049SOL    HW123173   8.532   1.324  11.293
41049SOL    HW223174   8.665   1.350  11.384
41050SOL     OW23175   8.061   0.842  12.603
41050SOL    HW123176   8.117   0.923  12.586
41050SOL    HW223177   8.120   0.762  12.606
41051SOL     OW23178   8.941   1.767  12.131
41051SOL    HW123179   8.974   1.831  12.062
41051SOL    HW223180   9.007   1.761  12.206
41052SOL     OW23181   7.838   1.741  12.732
41052SOL    HW123182   7.747   1.782  12.730
41052SOL    HW223183   7.831   1.647  12.764
41053SOL     OW23184   9.122   0.883  12.426
41053SOL    HW123185   9.095   0.794  12.389
41053SOL    HW223186   9.123   0.951  12.353
41054SOL     OW23187   8.673   0.325  11.621
41054SOL    HW123188   8.738   0.251  11.610
41054SOL    HW223189   8.693   0.375  11.705
41055SOL     OW23190   8.042   0.745  11.824
41055SOL    HW123191   8.092   0.830  11.805
41055SOL    HW223192   7.954   0.747  11.776
41056SOL     OW23193   9.225   0.342  12.814
41056SOL    HW123194   9.208   0.373  12.720
41056SOL    HW223195   9.141   0.305  12.852
41057SOL     OW23196   9.178   0.934  12.689
41057SOL    HW123197   9.216   1.025  12.704
41057SOL    HW223198   9.170   0.917  12.590
41058SOL     OW23199   8.307   1.374  11.188
41058SOL    HW123200   8.261   1.389  11.276
41058SOL    HW223201   8.351   1.459  11.158
41059SOL     OW23202   8.109   1.790  12.125
41059SOL    HW123203   8.063   1.878  12.112
41059SOL    HW223204   8.208   1.802  12.118
41060SOL     OW23205   8.307   0.956  12.033
41060SOL    HW123206   8.361   0.887  12.081
41060SOL    HW223207   8.275   1.025  12.099
41061SOL     OW23208   8.531   0.984  11.259
41061SOL    HW123209   8.508   1.037  11.177
41061SOL    HW223210   8.612   0.928  11.240
41062SOL     OW23211   9.309   1.569  12.023
41062SOL    HW123212   9.238   1.557  11.953
41062SOL    HW223213   9.310   1.490  12.083
41063SOL     OW23214   7.527   1.240  11.825
41063SOL    HW123215   7.526   1.193  11.913
41063SOL    HW223216   7.609   1.212  11.774
41064SOL     OW23217   9.272   0.192  12.399
41064SOL    HW123218   9.268   0.102  12.443
41064SOL    HW223219   9.275   0.181  12.300
41065SOL     OW23220   7.876   0.424  11.692
41065SOL    HW123221   7.906   0.352  11.630
41065SOL    HW223222   7.837   0.384  11.775
41066SOL     OW23223   9.153   1.487  12.276
41066SOL    HW123224   9.060   1.462  12.249
41066SOL    HW223225   9.179   1.437  12.358
41067SOL     OW23226   7.765   0.547  12.452
41067SOL    HW123227   7.803   0.488  12.524
41067SOL    HW223228   7.805   0.521  12.364
41068SOL     OW23229   8.260   1.586  11.859
41068SOL    HW123230   8.292   1.596  11.765
41068SOL    HW223231   8.181   1.524  11.861
41069SOL     OW23232   8.872   0.214  12.284
41069SOL    HW123233   8.924   0.149  12.339
41069SOL    HW223234   8.823   0.277  12.345
41070SOL     OW23235   8.449   0.034  12.326
41070SOL    HW123236   8.386  -0.038  12.295
41070SOL    HW223237   8.542  -0.002  12.326
41071SOL     OW23238   8.218   1.330  11.473
41071SOL    HW123239   8.172   1.243  11.490
41071SOL    HW223240   8.309   1.327  11.514
41072SOL     OW23241   8.066   1.567  12.456
41072SOL    HW123242   8.061   1.649  12.513
41072SOL    HW223243   8.155   1.564  12.411
41073SOL     OW23244   8.800   0.052  11.340
41073SOL    HW123245   8.835   0.011  11.256
41073SOL    HW223246   8.710   0.014  11.360
41074SOL     OW23247   8.748   0.453  11.863
41074SOL    HW123248   8.689   0.533  11.867
41074SOL    HW223249   8.763   0.418  11.956
41075SOL     OW23250   9.041   0.221  12.054
41075SOL    HW123251   8.957   0.220  12.108
41075SOL    HW223252   9.043   0.304  11.998
41076SOL     OW23253   7.487   1.077  11.472
41076SOL    HW123254   7.586   1.066  11.463
41076SOL    HW223255   7.447   0.991  11.504
41077SOL     OW23256   8.323   1.646  11.509
41077SOL    HW123257   8.246   1.611  11.455
41077SOL    HW223258   8.291   1.717  11.571
41078SOL     OW23259   7.678   2.490   0.113
41078SOL    HW123260   7.585   2.488   0.150
41078SOL    HW223261   7.679   2.451   0.021
41079SOL     OW23262   7.673   2.137   0.996
41079SOL    HW123263   7.708   2.120   1.088
41079SOL    HW223264   7.585   2.092   0.984
41080SOL     OW23265   7.467   2.230   0.647
41080SOL    HW123266   7.385   2.273   0.686
41080SOL    HW223267   7.439   2.157   0.584
41081SOL     OW23268   8.017   3.137   1.165
41081SOL    HW123269   7.924   3.130   1.128
41081SOL    HW223270   8.028   3.226   1.209
41082SOL     OW23271   9.003   3.373   0.703
41082SOL    HW123272   8.946   3.357   0.784
41082SOL    HW223273   8.944   3.383   0.623
41083SOL     OW23274   8.583   2.565   0.717
41083SOL    HW123275   8.640   2.643   0.692
41083SOL    HW223276   8.523   2.591   0.793
41084SOL     OW23277   9.203   2.469   0.231
41084SOL    HW123278   9.191   2.456   0.132
41084SOL    HW223279   9.173   2.388   0.280
41085SOL     OW23280   8.216   3.006   1.023
41085SOL    HW123281   8.138   3.023   1.083
41085SOL    HW223282   8.250   3.093   0.987
41086SOL     OW23283   8.298   2.660   1.823
41086SOL    HW123284   8.294   2.736   1.888
41086SOL    HW223285   8.320   2.696   1.732
41087SOL     OW23286   8.133   2.874   0.665
41087SOL    HW123287   8.202   2.858   0.735
41087SOL    HW223288   8.060   2.931   0.703
41088SOL     OW23289   8.134   3.023   1.803
41088SOL    HW123290   8.194   3.102   1.817
41088SOL    HW223291   8.048   3.054   1.762
41089SOL     OW23292   7.783   3.297   1.061
41089SOL    HW123293   7.705   3.266   1.008
41089SOL    HW223294   7.841   3.355   1.004
41090SOL     OW23295   8.908   3.367   1.339
41090SOL    HW123296   8.932   3.461   1.365
41090SOL    HW223297   8.892   3.313   1.421
41091SOL     OW23298   7.886   2.254   1.499
41091SOL    HW123299   7.968   2.198   1.508
41091SOL    HW223300   7.805   2.196   1.503
41092SOL     OW23301   9.051   2.309   0.737
41092SOL    HW123302   8.977   2.355   0.687
41092SOL    HW223303   9.102   2.377   0.790
41093SOL     OW23304   7.679   3.575   0.483
41093SOL    HW123305   7.713   3.652   0.537
41093SOL    HW223306   7.723   3.575   0.393
41094SOL     OW23307   8.575   3.203   1.690
41094SOL    HW123308   8.622   3.203   1.778
41094SOL    HW223309   8.527   3.116   1.679
41095SOL     OW23310   7.678   3.296   0.538
41095SOL    HW123311   7.652   3.392   0.538
41095SOL    HW223312   7.607   3.242   0.583
41096SOL     OW23313   7.688   2.953   0.886
41096SOL    HW123314   7.702   2.869   0.938
41096SOL    HW223315   7.633   3.017   0.941
41097SOL     OW23316   8.068   3.648   1.439
41097SOL    HW123317   7.976   3.631   1.474
41097SOL    HW223318   8.096   3.740   1.465
41098SOL     OW23319   8.054   2.826   0.123
41098SOL    HW123320   8.061   2.910   0.069
41098SOL    HW223321   8.100   2.839   0.211
41099SOL     OW23322   9.042   1.976   1.480
41099SOL    HW123323   9.024   2.043   1.408
41099SOL    HW223324   9.039   2.022   1.569
41100SOL     OW23325   7.570   2.505   0.563
41100SOL    HW123326   7.525   2.417   0.580
41100SOL    HW223327   7.569   2.559   0.647
41101SOL     OW23328   9.290   3.629   0.359
41101SOL    HW123329   9.344   3.600   0.439
41101SOL    HW223330   9.320   3.719   0.330
41102SOL     OW23331   7.475   3.458   0.117
41102SOL    HW123332   7.456   3.362   0.138
41102SOL    HW223333   7.442   3.516   0.192
41103SOL     OW23334   9.137   2.784   0.612
41103SOL    HW123335   9.232   2.755   0.620
41103SOL    HW223336   9.129   2.849   0.537
41104SOL     OW23337   9.089   2.970   0.432
41104SOL    HW123338   9.175   2.972   0.380
41104SOL    HW223339   9.103   3.017   0.520
41105SOL     OW23340   7.561   2.599   1.597
41105SOL    HW123341   7.649   2.586   1.642
41105SOL    HW223342   7.548   2.696   1.575
41106SOL     OW23343   8.061   3.227   0.726
41106SOL    HW123344   8.012   3.140   0.735
41106SOL    HW223345   8.038   3.270   0.639
41107SOL     OW23346   8.741   3.090   1.423
41107SOL    HW123347   8.778   3.017   1.365
41107SOL    HW223348   8.793   3.095   1.508
41108SOL     OW23349   8.257   1.866   0.502
41108SOL    HW123350   8.297   1.957   0.493
41108SOL    HW223351   8.157   1.874   0.508
41109SOL     OW23352   7.645   2.838   1.264
41109SOL    HW123353   7.734   2.793   1.250
41109SOL    HW223354   7.572   2.773   1.245
41110SOL     OW23355   8.973   2.861   0.190
41110SOL    HW123356   8.910   2.785   0.203
41110SOL    HW223357   9.021   2.879   0.276
41111SOL     OW23358   8.635   3.654   1.616
41111SOL    HW123359   8.659   3.714   1.540
41111SOL    HW223360   8.642   3.559   1.586
41112SOL     OW23361   7.765   2.113   1.801
41112SOL    HW123362   7.836   2.184   1.807
41112SOL    HW223363   7.677   2.152   1.829
41113SOL     OW23364   8.914   3.279   0.953
41113SOL    HW123365   8.855   3.285   1.033
41113SOL    HW223366   8.899   3.191   0.907
41114SOL     OW23367   9.115   3.576   0.572
41114SOL    HW123368   9.074   3.553   0.484
41114SOL    HW223369   9.097   3.502   0.637
41115SOL     OW23370   8.046   2.591   0.270
41115SOL    HW123371   8.070   2.660   0.202
41115SOL    HW223372   7.968   2.624   0.324
41116SOL     OW23373   8.729   2.207   0.944
41116SOL    HW123374   8.643   2.157   0.931
41116SOL    HW223375   8.791   2.153   1.000
41117SOL     OW23376   9.024   3.524   0.307
41117SOL    HW123377   9.113   3.570   0.310
41117SOL    HW223378   9.003   3.500   0.212
41118SOL     OW23379   8.255   2.467   1.465
41118SOL    HW123380   8.208   2.464   1.554
41118SOL    HW223381   8.204   2.412   1.399
41119SOL     OW23382   8.842   2.331   1.674
41119SOL    HW123383   8.822   2.374   1.762
41119SOL    HW223384   8.920   2.269   1.683
41120SOL     OW23385   8.421   2.752   1.572
41120SOL    HW123386   8.467   2.668   1.543
41120SOL    HW223387   8.365   2.786   1.497
41121SOL     OW23388   8.439   2.272   1.242
41121SOL    HW123389   8.362   2.306   1.296
41121SOL    HW223390   8.405   2.221   1.163
41122SOL     OW23391   8.489   2.563   0.429
41122SOL    HW123392   8.515   2.559   0.525
41122SOL    HW223393   8.404   2.512   0.415
41123SOL     OW23394   7.524   2.673   0.789
41123SOL    HW123395   7.623   2.661   0.798
41123SOL    HW223396   7.500   2.768   0.810
41124SOL     OW23397   7.578   3.683   1.571
41124SOL    HW123398   7.568   3.668   1.670
41124SOL    HW223399   7.492   3.719   1.535
41125SOL     OW23400   8.313   2.210   0.195
41125SOL    HW123401   8.372   2.273   0.146
41125SOL    HW223402   8.332   2.116   0.166
41126SOL     OW23403   9.167   2.447   1.831
41126SOL    HW123404   9.141   2.536   1.795
41126SOL    HW223405   9.165   2.379   1.758
41127SOL     OW23406   8.810   3.006   0.545
41127SOL    HW123407   8.893   2.977   0.497
41127SOL    HW223408   8.761   3.073   0.489
41128SOL     OW23409   7.998   2.058   0.885
41128SOL    HW123410   7.993   2.053   0.985
41128SOL    HW223411   8.000   2.154   0.856
41129SOL     OW23412   8.456   3.318   0.477
41129SOL    HW123413   8.410   3.390   0.425
41129SOL    HW223414   8.452   3.338   0.575
41130SOL     OW23415   7.799   3.663   0.853
41130SOL    HW123416   7.849   3.577   0.859
41130SOL    HW223417   7.864   3.740   0.850
41131SOL     OW23418   9.243   2.928   0.873
41131SOL    HW123419   9.181   2.913   0.797
41131SOL    HW223420   9.191   2.939   0.958
41132SOL     OW23421   8.675   3.412   1.506
41132SOL    HW123422   8.681   3.335   1.570
41132SOL    HW223423   8.623   3.386   1.426
41133SOL     OW23424   7.769   2.805   0.242
41133SOL    HW123425   7.851   2.844   0.200
41133SOL    HW223426   7.742   2.723   0.193
41134SOL     OW23427   8.906   2.597   0.728
41134SOL    HW123428   8.901   2.532   0.803
41134SOL    HW223429   8.986   2.656   0.741
41135SOL     OW23430   7.909   3.128   1.727
41135SOL    HW123431   7.859   3.129   1.641
41135SOL    HW223432   7.846   3.110   1.803
41136SOL     OW23433   8.559   3.638   0.237
41136SOL    HW123434   8.499   3.576   0.287
41136SOL    HW223435   8.590   3.594   0.152
41137SOL     OW23436   7.650   2.147   1.498
41137SOL    HW123437   7.570   2.207   1.485
41137SOL    HW223438   7.640   2.098   1.584
41138SOL     OW23439   9.080   3.239   0.081
41138SOL    HW123440   9.048   3.333   0.071
41138SOL    HW223441   9.004   3.176   0.069
41139SOL     OW23442   7.912   3.605   0.323
41139SOL    HW123443   7.945   3.644   0.409
41139SOL    HW223444   7.988   3.598   0.258
41140SOL     OW23445   8.848   1.969   0.426
41140SOL    HW123446   8.824   1.932   0.336
41140SOL    HW223447   8.947   1.985   0.430
41141SOL     OW23448   7.697   3.647   1.241
41141SOL    HW123449   7.754   3.582   1.291
41141SOL    HW223450   7.681   3.614   1.148
41142SOL     OW23451   8.388   3.560   0.904
41142SOL    HW123452   8.468   3.503   0.925
41142SOL    HW223453   8.339   3.520   0.827
41143SOL     OW23454   7.830   2.562   0.480
41143SOL    HW123455   7.875   2.472   0.477
41143SOL    HW223456   7.736   2.551   0.513
41144SOL     OW23457   8.995   2.084   1.729
41144SOL    HW123458   8.990   2.121   1.821
41144SOL    HW223459   8.923   2.015   1.717
41145SOL     OW23460   8.062   1.984   0.117
41145SOL    HW123461   8.160   1.962   0.124
41145SOL    HW223462   8.031   1.967   0.024
41146SOL     OW23463   8.229   2.126   1.749
41146SOL    HW123464   8.296   2.065   1.792
41146SOL    HW223465   8.156   2.145   1.814
41147SOL     OW23466   8.336   3.376   1.195
41147SOL    HW123467   8.313   3.351   1.101
41147SOL    HW223468   8.397   3.307   1.234
41148SOL     OW23469   8.799   2.452   1.433
41148SOL    HW123470   8.827   2.409   1.518
41148SOL    HW223471   8.824   2.548   1.434
41149SOL     OW23472   8.251   3.264   0.924
41149SOL    HW123473   8.341   3.278   0.882
41149SOL    HW223474   8.180   3.266   0.853
41150SOL     OW23475   8.370   2.365   0.899
41150SOL    HW123476   8.345   2.356   0.803
41150SOL    HW223477   8.418   2.283   0.930
41151SOL     OW23478   7.987   1.926   0.512
41151SOL    HW123479   7.906   1.927   0.570
41151SOL    HW223480   7.990   2.009   0.457
41152SOL     OW23481   8.882   3.050   0.041
41152SOL    HW123482   8.914   2.974   0.098
41152SOL    HW223483   8.790   3.077   0.071
41153SOL     OW23484   7.745   1.897   0.171
41153SOL    HW123485   7.794   1.981   0.150
41153SOL    HW223486   7.807   1.832   0.216
41154SOL     OW23487   8.383   2.098   0.480
41154SOL    HW123488   8.335   2.139   0.402
41154SOL    HW223489   8.482   2.096   0.461
41155SOL     OW23490   8.524   2.545   1.464
41155SOL    HW123491   8.444   2.484   1.467
41155SOL    HW223492   8.605   2.492   1.440
41156SOL     OW23493   8.675   3.432   0.793
41156SOL    HW123494   8.696   3.506   0.728
41156SOL    HW223495   8.743   3.432   0.866
41157SOL     OW23496   7.907   3.014   0.741
41157SOL    HW123497   7.836   2.987   0.806
41157SOL    HW223498   7.881   2.986   0.648
41158SOL     OW23499   8.719   3.659   0.591
41158SOL    HW123500   8.763   3.723   0.527
41158SOL    HW223501   8.669   3.711   0.661
41159SOL     OW23502   8.480   2.411   0.016
41159SOL    HW123503   8.439   2.493  -0.023
41159SOL    HW223504   8.544   2.437   0.089
41160SOL     OW23505   7.526   2.418   1.386
41160SOL    HW123506   7.618   2.417   1.345
41160SOL    HW223507   7.520   2.492   1.453
41161SOL     OW23508   8.009   2.084   1.147
41161SOL    HW123509   8.047   2.000   1.184
41161SOL    HW223510   7.921   2.103   1.191
41162SOL     OW23511   8.314   2.316   0.642
41162SOL    HW123512   8.282   2.388   0.580
41162SOL    HW223513   8.338   2.235   0.589
41163SOL     OW23514   8.465   1.901   0.753
41163SOL    HW123515   8.393   1.906   0.684
41163SOL    HW223516   8.441   1.832   0.822
41164SOL     OW23517   8.877   3.035   0.867
41164SOL    HW123518   8.822   2.951   0.860
41164SOL    HW223519   8.903   3.064   0.775
41165SOL     OW23520   8.914   2.452   0.992
41165SOL    HW123521   8.884   2.357   0.999
41165SOL    HW223522   8.987   2.468   1.058
41166SOL     OW23523   9.305   2.695   0.377
41166SOL    HW123524   9.347   2.631   0.441
41166SOL    HW223525   9.267   2.644   0.299
41167SOL     OW23526   7.936   3.247   0.174
41167SOL    HW123527   7.849   3.232   0.221
41167SOL    HW223528   7.919   3.273   0.079
41168SOL     OW23529   9.112   3.142   0.657
41168SOL    HW123530   9.211   3.150   0.671
41168SOL    HW223531   9.067   3.226   0.688
41169SOL     OW23532   8.838   2.437   0.078
41169SOL    HW123533   8.784   2.416   0.159
41169SOL    HW223534   8.929   2.396   0.087
41170SOL     OW23535   7.975   2.118   0.328
41170SOL    HW123536   8.002   2.059   0.253
41170SOL    HW223537   7.975   2.213   0.297
41171SOL     OW23538   9.202   3.085   1.588
41171SOL    HW123539   9.293   3.046   1.575
41171SOL    HW223540   9.210   3.181   1.612
41172SOL     OW23541   8.512   3.209   1.340
41172SOL    HW123542   8.432   3.186   1.395
41172SOL    HW223543   8.595   3.183   1.389
41173SOL     OW23544   9.040   3.491   1.625
41173SOL    HW123545   9.067   3.525   1.535
41173SOL    HW223546   9.119   3.453   1.671
41174SOL     OW23547   8.559   3.057   1.100
41174SOL    HW123548   8.519   3.101   1.181
41174SOL    HW223549   8.518   3.094   1.017
41175SOL     OW23550   9.086   2.961   1.079
41175SOL    HW123551   9.091   3.042   1.138
41175SOL    HW223552   9.000   2.963   1.028
41176SOL     OW23553   8.363   1.951   1.402
41176SOL    HW123554   8.388   1.931   1.307
41176SOL    HW223555   8.435   2.007   1.444
41177SOL     OW23556   8.428   2.978   1.719
41177SOL    HW123557   8.329   2.984   1.729
41177SOL    HW223558   8.451   2.898   1.663
41178SOL     OW23559   8.153   2.912   0.368
41178SOL    HW123560   8.139   2.919   0.467
41178SOL    HW223561   8.237   2.861   0.350
41179SOL     OW23562   7.858   2.675   1.251
41179SOL    HW123563   7.944   2.687   1.301
41179SOL    HW223564   7.816   2.588   1.278
41180SOL     OW23565   8.722   2.248   1.262
41180SOL    HW123566   8.743   2.322   1.326
41180SOL    HW223567   8.633   2.265   1.219
41181SOL     OW23568   7.512   3.426   1.331
41181SOL    HW123569   7.466   3.508   1.297
41181SOL    HW223570   7.610   3.445   1.340
41182SOL     OW23571   7.815   2.962   0.501
41182SOL    HW123572   7.808   3.045   0.445
41182SOL    HW223573   7.819   2.882   0.441
41183SOL     OW23574   8.014   2.399   0.865
41183SOL    HW123575   8.026   2.465   0.791
41183SOL    HW223576   8.060   2.433   0.948
41184SOL     OW23577   8.700   3.210   0.388
41184SOL    HW123578   8.750   3.287   0.428
41184SOL    HW223579   8.605   3.212   0.420
41185SOL     OW23580   8.720   3.307   1.142
41185SOL    HW123581   8.767   3.320   1.229
41185SOL    HW223582   8.654   3.233   1.151
41186SOL     OW23583   9.030   2.501   0.472
41186SOL    HW123584   8.999   2.562   0.545
41186SOL    HW223585   9.080   2.553   0.403
41187SOL     OW23586   7.802   3.372   1.329
41187SOL    HW123587   7.781   3.328   1.242
41187SOL    HW223588   7.899   3.398   1.332
41188SOL     OW23589   7.850   2.613   1.598
41188SOL    HW123590   7.918   2.668   1.551
41188SOL    HW223591   7.890   2.525   1.625
41189SOL     OW23592   9.035   2.641   1.670
41189SOL    HW123593   8.943   2.679   1.665
41189SOL    HW223594   9.095   2.688   1.605
41190SOL     OW23595   8.461   1.967   1.770
41190SOL    HW123596   8.467   2.052   1.718
41190SOL    HW223597   8.493   1.891   1.713
41191SOL     OW23598   7.952   1.912   1.740
41191SOL    HW123599   7.910   1.855   1.670
41191SOL    HW223600   7.886   1.981   1.772
41192SOL     OW23601   8.021   2.732   1.029
41192SOL    HW123602   8.065   2.821   1.020
41192SOL    HW223603   7.958   2.732   1.106
41193SOL     OW23604   8.808   2.724   1.045
41193SOL    HW123605   8.733   2.724   0.979
41193SOL    HW223606   8.845   2.632   1.054
41194SOL     OW23607   8.657   2.387   0.275
41194SOL    HW123608   8.670   2.303   0.329
41194SOL    HW223609   8.628   2.461   0.335
41195SOL     OW23610   7.755   2.075   1.231
41195SOL    HW123611   7.732   2.112   1.321
41195SOL    HW223612   7.725   1.980   1.225
41196SOL     OW23613   7.485   3.172   1.282
41196SOL    HW123614   7.538   3.123   1.350
41196SOL    HW223615   7.507   3.270   1.287
41197SOL     OW23616   8.180   2.496   1.064
41197SOL    HW123617   8.239   2.470   0.988
41197SOL    HW223618   8.152   2.592   1.053
41198SOL     OW23619   9.176   2.797   1.854
41198SOL    HW123620   9.130   2.790   1.765
41198SOL    HW223621   9.114   2.841   1.920
41199SOL     OW23622   7.755   1.925   0.618
41199SOL    HW123623   7.744   2.019   0.651
41199SOL    HW223624   7.750   1.862   0.695
41200SOL     OW23625   9.070   2.229   0.374
41200SOL    HW123626   9.072   2.153   0.438
41200SOL    HW223627   9.022   2.306   0.414
41201SOL     OW23628   8.471   2.628   0.966
41201SOL    HW123629   8.486   2.649   1.062
41201SOL    HW223630   8.441   2.533   0.957
41202SOL     OW23631   8.428   3.435   1.700
41202SOL    HW123632   8.408   3.479   1.612
41202SOL    HW223633   8.467   3.344   1.684
41203SOL     OW23634   9.307   3.380   1.605
41203SOL    HW123635   9.321   3.407   1.510
41203SOL    HW223636   9.390   3.402   1.658
41204SOL     OW23637   7.798   2.760   1.804
41204SOL    HW123638   7.874   2.804   1.852
41204SOL    HW223639   7.833   2.713   1.722
41205SOL     OW23640   8.988   2.136   0.125
41205SOL    HW123641   8.927   2.061   0.148
41205SOL    HW223642   9.010   2.188   0.208
41206SOL     OW23643   8.751   2.700   0.042
41206SOL    HW123644   8.785   2.607   0.057
41206SOL    HW223645   8.769   2.727  -0.053
41207SOL     OW23646   8.516   3.195   0.849
41207SOL    HW123647   8.523   3.111   0.794
41207SOL    HW223648   8.578   3.264   0.813
41208SOL     OW23649   7.767   2.672   0.949
41208SOL    HW123650   7.860   2.708   0.954
41208SOL    HW223651   7.761   2.587   1.001
41209SOL     OW23652   7.787   2.371   1.006
41209SOL    HW123653   7.735   2.288   0.989
41209SOL    HW223654   7.864   2.376   0.942
41210SOL     OW23655   8.586   2.242   1.678
41210SOL    HW123656   8.541   2.305   1.742
41210SOL    HW223657   8.679   2.273   1.661
41211SOL     OW23658   8.608   2.069   1.477
41211SOL    HW123659   8.608   2.133   1.554
41211SOL    HW223660   8.636   2.117   1.394
41212SOL     OW23661   7.456   3.188   0.200
41212SOL    HW123662   7.363   3.209   0.169
41212SOL    HW223663   7.466   3.089   0.213
41213SOL     OW23664   7.536   3.663   0.927
41213SOL    HW123665   7.494   3.577   0.900
41213SOL    HW223666   7.630   3.666   0.893
41214SOL     OW23667   7.952   3.430   0.910
41214SOL    HW123668   8.018   3.504   0.919
41214SOL    HW223669   7.996   3.351   0.868
41215SOL     OW23670   8.450   2.658   1.238
41215SOL    HW123671   8.491   2.626   1.324
41215SOL    HW223672   8.354   2.631   1.235
41216SOL     OW23673   7.488   2.406   1.114
41216SOL    HW123674   7.573   2.373   1.073
41216SOL    HW223675   7.501   2.421   1.212
41217SOL     OW23676   7.637   2.382   1.722
41217SOL    HW123677   7.696   2.342   1.652
41217SOL    HW223678   7.579   2.453   1.681
41218SOL     OW23679   8.817   2.812   1.660
41218SOL    HW123680   8.856   2.901   1.680
41218SOL    HW223681   8.827   2.792   1.563
41219SOL     OW23682   8.263   2.434   0.325
41219SOL    HW123683   8.270   2.345   0.279
41219SOL    HW223684   8.169   2.468   0.317
41220SOL     OW23685   9.105   2.466   1.206
41220SOL    HW123686   9.067   2.397   1.268
41220SOL    HW223687   9.187   2.430   1.162
41221SOL     OW23688   7.700   3.426   1.744
41221SOL    HW123689   7.670   3.483   1.820
41221SOL    HW223690   7.693   3.329   1.770
41222SOL     OW23691   8.119   2.326   1.269
41222SOL    HW123692   8.085   2.237   1.239
41222SOL    HW223693   8.145   2.380   1.189
41223SOL     OW23694   8.378   3.540   1.465
41223SOL    HW123695   8.354   3.522   1.370
41223SOL    HW223696   8.408   3.634   1.475
41224SOL     OW23697   7.921   2.362   0.191
41224SOL    HW123698   7.982   2.442   0.195
41224SOL    HW223699   7.826   2.393   0.198
41225SOL     OW23700   7.607   2.999   1.466
41225SOL    HW123701   7.629   2.938   1.542
41225SOL    HW223702   7.617   2.950   1.380
41226SOL     OW23703   8.795   2.921   1.234
41226SOL    HW123704   8.819   2.858   1.160
41226SOL    HW223705   8.705   2.961   1.216
41227SOL     OW23706   8.750   2.717   0.309
41227SOL    HW123707   8.664   2.686   0.351
41227SOL    HW223708   8.746   2.703   0.210
41228SOL     OW23709   9.207   3.609   1.154
41228SOL    HW123710   9.268   3.639   1.081
41228SOL    HW223711   9.169   3.520   1.132
41229SOL     OW23712   8.700   3.593   1.128
41229SOL    HW123713   8.784   3.598   1.074
41229SOL    HW223714   8.677   3.497   1.146
41230SOL     OW23715   7.531   3.120   1.022
41230SOL    HW123716   7.526   3.119   1.122
41230SOL    HW223717   7.448   3.079   0.984
41231SOL     OW23718   8.136   3.524   1.716
41231SOL    HW123719   8.080   3.605   1.725
41231SOL    HW223720   8.188   3.528   1.630
41232SOL     OW23721   8.351   1.948   0.133
41232SOL    HW123722   8.402   1.949   0.047
41232SOL    HW223723   8.407   1.906   0.204
41233SOL     OW23724   9.174   1.997   0.523
41233SOL    HW123725   9.247   1.980   0.456
41233SOL    HW223726   9.143   1.910   0.561
41234SOL     OW23727   8.836   3.435   0.477
41234SOL    HW123728   8.903   3.447   0.403
41234SOL    HW223729   8.796   3.524   0.500
41235SOL     OW23730   7.578   3.656   1.851
41235SOL    HW123731   7.537   3.582   1.904
41235SOL    HW223732   7.642   3.707   1.909
41236SOL     OW23733   8.728   2.789   0.672
41236SOL    HW123734   8.788   2.708   0.674
41236SOL    HW223735   8.768   2.858   0.612
41237SOL     OW23736   8.278   3.135   1.422
41237SOL    HW123737   8.273   3.168   1.517
41237SOL    HW223738   8.192   3.154   1.376
41238SOL     OW23739   8.120   3.478   0.154
41238SOL    HW123740   8.129   3.488   0.055
41238SOL    HW223741   8.080   3.389   0.175
41239SOL     OW23742   9.098   3.582   1.394
41239SOL    HW123743   9.151   3.592   1.310
41239SOL    HW223744   9.071   3.672   1.428
41240SOL     OW23745   9.289   2.037   0.963
41240SOL    HW123746   9.328   1.952   0.927
41240SOL    HW223747   9.191   2.039   0.944
41241SOL     OW23748   7.711   2.188   0.720
41241SOL    HW123749   7.632   2.239   0.686
41241SOL    HW223750   7.702   2.173   0.818
41242SOL     OW23751   8.642   3.474   0.031
41242SOL    HW123752   8.648   3.381   0.068
41242SOL    HW223753   8.583   3.474  -0.049
41243SOL     OW23754   8.270   2.864   1.372
41243SOL    HW123755   8.310   2.863   1.280
41243SOL    HW223756   8.280   2.956   1.412
41244SOL     OW23757   8.364   2.772   0.291
41244SOL    HW123758   8.427   2.810   0.223
41244SOL    HW223759   8.404   2.689   0.330
41245SOL     OW23760   8.952   3.469   0.044
41245SOL    HW123761   8.860   3.506   0.051
41245SOL    HW223762   8.990   3.489  -0.046
41246SOL     OW23763   7.820   3.150   1.490
41246SOL    HW123764   7.807   3.243   1.456
41246SOL    HW223765   7.736   3.098   1.477
41247SOL     OW23766   9.062   3.154   1.289
41247SOL    HW123767   9.122   3.157   1.369
41247SOL    HW223768   8.987   3.218   1.302
41248SOL     OW23769   8.487   2.960   0.696
41248SOL    HW123770   8.417   2.913   0.750
41248SOL    HW223771   8.546   2.892   0.653
41249SOL     OW23772   8.462   2.098   0.971
41249SOL    HW123773   8.454   2.062   0.878
41249SOL    HW223774   8.460   2.022   1.036
41250SOL     OW23775   8.038   3.349   0.491
41250SOL    HW123776   8.080   3.291   0.421
41250SOL    HW223777   7.994   3.428   0.447
41251SOL     OW23778   9.157   2.247   1.381
41251SOL    HW123779   9.230   2.316   1.385
41251SOL    HW223780   9.185   2.172   1.322
41252SOL     OW23781   7.703   3.210   0.290
41252SOL    HW123782   7.607   3.211   0.263
41252SOL    HW223783   7.715   3.263   0.374
41253SOL     OW23784   7.553   2.875   1.726
41253SOL    HW123785   7.476   2.842   1.780
41253SOL    HW223786   7.638   2.845   1.768
41254SOL     OW23787   8.120   2.065   1.489
41254SOL    HW123788   8.210   2.049   1.449
41254SOL    HW223789   8.128   2.070   1.588
41255SOL     OW23790   8.888   2.718   1.398
41255SOL    HW123791   8.831   2.770   1.335
41255SOL    HW223792   8.984   2.730   1.374
41256SOL     OW23793   7.520   2.028   0.318
41256SOL    HW123794   7.503   2.111   0.264
41256SOL    HW223795   7.610   1.991   0.296
41257SOL     OW23796   8.631   3.197   0.119
41257SOL    HW123797   8.532   3.186   0.121
41257SOL    HW223798   8.665   3.212   0.212
41258SOL     OW23799   8.061   2.704   1.431
41258SOL    HW123800   8.117   2.785   1.414
41258SOL    HW223801   8.120   2.624   1.434
41259SOL     OW23802   8.941   3.629   0.959
41259SOL    HW123803   8.974   3.693   0.890
41259SOL    HW223804   9.007   3.623   1.034
41260SOL     OW23805   8.164   2.427   1.708
41260SOL    HW123806   8.183   2.492   1.782
41260SOL    HW223807   8.224   2.347   1.717
41261SOL     OW23808   8.898   3.082   1.633
41261SOL    HW123809   8.889   3.072   1.732
41261SOL    HW223810   8.994   3.075   1.607
41262SOL     OW23811   7.838   3.603   1.560
41262SOL    HW123812   7.747   3.644   1.558
41262SOL    HW223813   7.831   3.509   1.592
41263SOL     OW23814   9.122   2.745   1.254
41263SOL    HW123815   9.095   2.656   1.217
41263SOL    HW223816   9.123   2.813   1.181
41264SOL     OW23817   8.673   2.187   0.449
41264SOL    HW123818   8.738   2.113   0.438
41264SOL    HW223819   8.693   2.237   0.533
41265SOL     OW23820   8.042   2.607   0.652
41265SOL    HW123821   8.092   2.692   0.633
41265SOL    HW223822   7.954   2.609   0.604
41266SOL     OW23823   9.225   2.204   1.642
41266SOL    HW123824   9.208   2.235   1.548
41266SOL    HW223825   9.141   2.167   1.680
41267SOL     OW23826   9.178   2.796   1.517
41267SOL    HW123827   9.216   2.887   1.532
41267SOL    HW223828   9.170   2.779   1.418
41268SOL     OW23829   8.307   3.236   0.016
41268SOL    HW123830   8.261   3.251   0.104
41268SOL    HW223831   8.351   3.321  -0.014
41269SOL     OW23832   8.109   3.652   0.953
41269SOL    HW123833   8.063   3.740   0.940
41269SOL    HW223834   8.208   3.664   0.946
41270SOL     OW23835   8.307   2.818   0.861
41270SOL    HW123836   8.361   2.749   0.909
41270SOL    HW223837   8.275   2.887   0.927
41271SOL     OW23838   8.531   2.846   0.087
41271SOL    HW123839   8.508   2.899   0.005
41271SOL    HW223840   8.612   2.790   0.068
41272SOL     OW23841   9.309   3.431   0.851
41272SOL    HW123842   9.238   3.419   0.781
41272SOL    HW223843   9.310   3.352   0.911
41273SOL     OW23844   7.669   3.176   1.844
41273SOL    HW123845   7.604   3.103   1.823
41273SOL    HW223846   7.673   3.190   1.942
41274SOL     OW23847   7.527   3.102   0.653
41274SOL    HW123848   7.526   3.055   0.741
41274SOL    HW223849   7.609   3.074   0.602
41275SOL     OW23850   8.120   3.253   1.624
41275SOL    HW123851   8.042   3.203   1.662
41275SOL    HW223852   8.117   3.348   1.655
41276SOL     OW23853   9.272   2.054   1.227
41276SOL    HW123854   9.268   1.964   1.271
41276SOL    HW223855   9.275   2.043   1.128
41277SOL     OW23856   7.876   2.286   0.520
41277SOL    HW123857   7.906   2.214   0.458
41277SOL    HW223858   7.837   2.246   0.603
41278SOL     OW23859   9.153   3.349   1.104
41278SOL    HW123860   9.060   3.324   1.077
41278SOL    HW223861   9.179   3.299   1.186
41279SOL     OW23862   7.765   2.409   1.280
41279SOL    HW123863   7.803   2.350   1.352
41279SOL    HW223864   7.805   2.383   1.192
41280SOL     OW23865   8.260   3.448   0.687
41280SOL    HW123866   8.292   3.458   0.593
41280SOL    HW223867   8.181   3.386   0.689
41281SOL     OW23868   8.872   2.076   1.112
41281SOL    HW123869   8.924   2.011   1.167
41281SOL    HW223870   8.823   2.139   1.173
41282SOL     OW23871   8.449   1.896   1.154
41282SOL    HW123872   8.386   1.824   1.123
41282SOL    HW223873   8.542   1.860   1.154
41283SOL     OW23874   8.218   3.192   0.301
41283SOL    HW123875   8.172   3.105   0.318
41283SOL    HW223876   8.309   3.189   0.342
41284SOL     OW23877   8.066   3.429   1.284
41284SOL    HW123878   8.061   3.511   1.341
41284SOL    HW223879   8.155   3.426   1.239
41285SOL     OW23880   8.800   1.914   0.168
41285SOL    HW123881   8.835   1.873   0.084
41285SOL    HW223882   8.710   1.876   0.188
41286SOL     OW23883   8.748   2.315   0.691
41286SOL    HW123884   8.689   2.395   0.695
41286SOL    HW223885   8.763   2.280   0.784
41287SOL     OW23886   9.041   2.083   0.882
41287SOL    HW123887   8.957   2.082   0.936
41287SOL    HW223888   9.043   2.166   0.826
41288SOL     OW23889   7.487   2.939   0.300
41288SOL    HW123890   7.586   2.928   0.291
41288SOL    HW223891   7.447   2.853   0.332
41289SOL     OW23892   8.323   3.508   0.337
41289SOL    HW123893   8.246   3.473   0.283
41289SOL    HW223894   8.291   3.579   0.399
41290SOL     OW23895   7.678   2.490   1.975
41290SOL    HW123896   7.585   2.488   2.012
41290SOL    HW223897   7.679   2.451   1.883
41291SOL     OW23898   7.673   2.137   2.858
41291SOL    HW123899   7.708   2.120   2.950
41291SOL    HW223900   7.585   2.092   2.846
41292SOL     OW23901   7.467   2.230   2.509
41292SOL    HW123902   7.385   2.273   2.548
41292SOL    HW223903   7.439   2.157   2.446
41293SOL     OW23904   8.017   3.137   3.027
41293SOL    HW123905   7.924   3.130   2.990
41293SOL    HW223906   8.028   3.226   3.071
41294SOL     OW23907   9.003   3.373   2.565
41294SOL    HW123908   8.946   3.357   2.646
41294SOL    HW223909   8.944   3.383   2.485
41295SOL     OW23910   8.583   2.565   2.579
41295SOL    HW123911   8.640   2.643   2.554
41295SOL    HW223912   8.523   2.591   2.655
41296SOL     OW23913   9.203   2.469   2.093
41296SOL    HW123914   9.191   2.456   1.994
41296SOL    HW223915   9.173   2.388   2.142
41297SOL     OW23916   8.216   3.006   2.885
41297SOL    HW123917   8.138   3.023   2.945
41297SOL    HW223918   8.250   3.093   2.849
41298SOL     OW23919   8.298   2.660   3.685
41298SOL    HW123920   8.294   2.736   3.750
41298SOL    HW223921   8.320   2.696   3.594
41299SOL     OW23922   8.133   2.874   2.527
41299SOL    HW123923   8.202   2.858   2.597
41299SOL    HW223924   8.060   2.931   2.565
41300SOL     OW23925   8.134   3.023   3.665
41300SOL    HW123926   8.194   3.102   3.679
41300SOL    HW223927   8.048   3.054   3.624
41301SOL     OW23928   7.783   3.297   2.923
41301SOL    HW123929   7.705   3.266   2.870
41301SOL    HW223930   7.841   3.355   2.866
41302SOL     OW23931   8.908   3.367   3.201
41302SOL    HW123932   8.932   3.461   3.227
41302SOL    HW223933   8.892   3.313   3.283
41303SOL     OW23934   7.886   2.254   3.361
41303SOL    HW123935   7.968   2.198   3.370
41303SOL    HW223936   7.805   2.196   3.365
41304SOL     OW23937   9.051   2.309   2.599
41304SOL    HW123938   8.977   2.355   2.549
41304SOL    HW223939   9.102   2.377   2.652
41305SOL     OW23940   7.679   3.575   2.345
41305SOL    HW123941   7.713   3.652   2.399
41305SOL    HW223942   7.723   3.575   2.255
41306SOL     OW23943   8.575   3.203   3.552
41306SOL    HW123944   8.622   3.203   3.640
41306SOL    HW223945   8.527   3.116   3.541
41307SOL     OW23946   7.678   3.296   2.400
41307SOL    HW123947   7.652   3.392   2.400
41307SOL    HW223948   7.607   3.242   2.445
41308SOL     OW23949   7.688   2.953   2.748
41308SOL    HW123950   7.702   2.869   2.800
41308SOL    HW223951   7.633   3.017   2.803
41309SOL     OW23952   8.068   3.648   3.301
41309SOL    HW123953   7.976   3.631   3.336
41309SOL    HW223954   8.096   3.740   3.327
41310SOL     OW23955   8.054   2.826   1.985
41310SOL    HW123956   8.061   2.910   1.931
41310SOL    HW223957   8.100   2.839   2.073
41311SOL     OW23958   9.042   1.976   3.342
41311SOL    HW123959   9.024   2.043   3.270
41311SOL    HW223960   9.039   2.022   3.431
41312SOL     OW23961   7.570   2.505   2.425
41312SOL    HW123962   7.525   2.417   2.442
41312SOL    HW223963   7.569   2.559   2.509
41313SOL     OW23964   9.290   3.629   2.221
41313SOL    HW123965   9.344   3.600   2.301
41313SOL    HW223966   9.320   3.719   2.192
41314SOL     OW23967   7.475   3.458   1.979
41314SOL    HW123968   7.456   3.362   2.000
41314SOL    HW223969   7.442   3.516   2.054
41315SOL     OW23970   9.137   2.784   2.474
41315SOL    HW123971   9.232   2.755   2.482
41315SOL    HW223972   9.129   2.849   2.399
41316SOL     OW23973   9.089   2.970   2.294
41316SOL    HW123974   9.175   2.972   2.242
41316SOL    HW223975   9.103   3.017   2.382
41317SOL     OW23976   7.561   2.599   3.459
41317SOL    HW123977   7.649   2.586   3.504
41317SOL    HW223978   7.548   2.696   3.437
41318SOL     OW23979   8.061   3.227   2.588
41318SOL    HW123980   8.012   3.140   2.597
41318SOL    HW223981   8.038   3.270   2.501
41319SOL     OW23982   8.741   3.090   3.285
41319SOL    HW123983   8.778   3.017   3.227
41319SOL    HW223984   8.793   3.095   3.370
41320SOL     OW23985   8.257   1.866   2.364
41320SOL    HW123986   8.297   1.957   2.355
41320SOL    HW223987   8.157   1.874   2.370
41321SOL     OW23988   7.645   2.838   3.126
41321SOL    HW123989   7.734   2.793   3.112
41321SOL    HW223990   7.572   2.773   3.107
41322SOL     OW23991   8.973   2.861   2.052
41322SOL    HW123992   8.910   2.785   2.065
41322SOL    HW223993   9.021   2.879   2.138
41323SOL     OW23994   8.635   3.654   3.478
41323SOL    HW123995   8.659   3.714   3.402
41323SOL    HW223996   8.642   3.559   3.448
41324SOL     OW23997   7.765   2.113   3.663
41324SOL    HW123998   7.836   2.184   3.669
41324SOL    HW223999   7.677   2.152   3.691
41325SOL     OW24000   8.914   3.279   2.815
41325SOL    HW124001   8.855   3.285   2.895
41325SOL    HW224002   8.899   3.191   2.769
41326SOL     OW24003   9.115   3.576   2.434
41326SOL    HW124004   9.074   3.553   2.346
41326SOL    HW224005   9.097   3.502   2.499
41327SOL     OW24006   8.046   2.591   2.132
41327SOL    HW124007   8.070   2.660   2.064
41327SOL    HW224008   7.968   2.624   2.186
41328SOL     OW24009   8.729   2.207   2.806
41328SOL    HW124010   8.643   2.157   2.793
41328SOL    HW224011   8.791   2.153   2.862
41329SOL     OW24012   9.024   3.524   2.169
41329SOL    HW124013   9.113   3.570   2.172
41329SOL    HW224014   9.003   3.500   2.074
41330SOL     OW24015   8.255   2.467   3.327
41330SOL    HW124016   8.208   2.464   3.416
41330SOL    HW224017   8.204   2.412   3.261
41331SOL     OW24018   8.842   2.331   3.536
41331SOL    HW124019   8.822   2.374   3.624
41331SOL    HW224020   8.920   2.269   3.545
41332SOL     OW24021   8.421   2.752   3.434
41332SOL    HW124022   8.467   2.668   3.405
41332SOL    HW224023   8.365   2.786   3.359
41333SOL     OW24024   8.439   2.272   3.104
41333SOL    HW124025   8.362   2.306   3.158
41333SOL    HW224026   8.405   2.221   3.025
41334SOL     OW24027   8.489   2.563   2.291
41334SOL    HW124028   8.515   2.559   2.387
41334SOL    HW224029   8.404   2.512   2.277
41335SOL     OW24030   7.524   2.673   2.651
41335SOL    HW124031   7.623   2.661   2.660
41335SOL    HW224032   7.500   2.768   2.672
41336SOL     OW24033   7.578   3.683   3.433
41336SOL    HW124034   7.568   3.668   3.532
41336SOL    HW224035   7.492   3.719   3.397
41337SOL     OW24036   8.313   2.210   2.057
41337SOL    HW124037   8.372   2.273   2.008
41337SOL    HW224038   8.332   2.116   2.028
41338SOL     OW24039   9.167   2.447   3.693
41338SOL    HW124040   9.141   2.536   3.657
41338SOL    HW224041   9.165   2.379   3.620
41339SOL     OW24042   8.810   3.006   2.407
41339SOL    HW124043   8.893   2.977   2.359
41339SOL    HW224044   8.761   3.073   2.351
41340SOL     OW24045   7.998   2.058   2.747
41340SOL    HW124046   7.993   2.053   2.847
41340SOL    HW224047   8.000   2.154   2.718
41341SOL     OW24048   8.456   3.318   2.339
41341SOL    HW124049   8.410   3.390   2.287
41341SOL    HW224050   8.452   3.338   2.437
41342SOL     OW24051   7.799   3.663   2.715
41342SOL    HW124052   7.849   3.577   2.721
41342SOL    HW224053   7.864   3.740   2.712
41343SOL     OW24054   9.243   2.928   2.735
41343SOL    HW124055   9.181   2.913   2.659
41343SOL    HW224056   9.191   2.939   2.820
41344SOL     OW24057   8.675   3.412   3.368
41344SOL    HW124058   8.681   3.335   3.432
41344SOL    HW224059   8.623   3.386   3.288
41345SOL     OW24060   7.769   2.805   2.104
41345SOL    HW124061   7.851   2.844   2.062
41345SOL    HW224062   7.742   2.723   2.055
41346SOL     OW24063   8.906   2.597   2.590
41346SOL    HW124064   8.901   2.532   2.665
41346SOL    HW224065   8.986   2.656   2.603
41347SOL     OW24066   7.909   3.128   3.589
41347SOL    HW124067   7.859   3.129   3.503
41347SOL    HW224068   7.846   3.110   3.665
41348SOL     OW24069   8.559   3.638   2.099
41348SOL    HW124070   8.499   3.576   2.149
41348SOL    HW224071   8.590   3.594   2.014
41349SOL     OW24072   7.650   2.147   3.360
41349SOL    HW124073   7.570   2.207   3.347
41349SOL    HW224074   7.640   2.098   3.446
41350SOL     OW24075   9.080   3.239   1.943
41350SOL    HW124076   9.048   3.333   1.933
41350SOL    HW224077   9.004   3.176   1.931
41351SOL     OW24078   7.912   3.605   2.185
41351SOL    HW124079   7.945   3.644   2.271
41351SOL    HW224080   7.988   3.598   2.120
41352SOL     OW24081   8.848   1.969   2.288
41352SOL    HW124082   8.824   1.932   2.198
41352SOL    HW224083   8.947   1.985   2.292
41353SOL     OW24084   7.697   3.647   3.103
41353SOL    HW124085   7.754   3.582   3.153
41353SOL    HW224086   7.681   3.614   3.010
41354SOL     OW24087   8.388   3.560   2.766
41354SOL    HW124088   8.468   3.503   2.787
41354SOL    HW224089   8.339   3.520   2.689
41355SOL     OW24090   7.830   2.562   2.342
41355SOL    HW124091   7.875   2.472   2.339
41355SOL    HW224092   7.736   2.551   2.375
41356SOL     OW24093   8.995   2.084   3.591
41356SOL    HW124094   8.990   2.121   3.683
41356SOL    HW224095   8.923   2.015   3.579
41357SOL     OW24096   8.062   1.984   1.979
41357SOL    HW124097   8.160   1.962   1.986
41357SOL    HW224098   8.031   1.967   1.886
41358SOL     OW24099   8.229   2.126   3.611
41358SOL    HW124100   8.296   2.065   3.654
41358SOL    HW224101   8.156   2.145   3.676
41359SOL     OW24102   8.336   3.376   3.057
41359SOL    HW124103   8.313   3.351   2.963
41359SOL    HW224104   8.397   3.307   3.096
41360SOL     OW24105   8.799   2.452   3.295
41360SOL    HW124106   8.827   2.409   3.380
41360SOL    HW224107   8.824   2.548   3.296
41361SOL     OW24108   8.251   3.264   2.786
41361SOL    HW124109   8.341   3.278   2.744
41361SOL    HW224110   8.180   3.266   2.715
41362SOL     OW24111   8.370   2.365   2.761
41362SOL    HW124112   8.345   2.356   2.665
41362SOL    HW224113   8.418   2.283   2.792
41363SOL     OW24114   7.987   1.926   2.374
41363SOL    HW124115   7.906   1.927   2.432
41363SOL    HW224116   7.990   2.009   2.319
41364SOL     OW24117   8.882   3.050   1.903
41364SOL    HW124118   8.914   2.974   1.960
41364SOL    HW224119   8.790   3.077   1.933
41365SOL     OW24120   7.745   1.897   2.033
41365SOL    HW124121   7.794   1.981   2.012
41365SOL    HW224122   7.807   1.832   2.078
41366SOL     OW24123   8.383   2.098   2.342
41366SOL    HW124124   8.335   2.139   2.264
41366SOL    HW224125   8.482   2.096   2.323
41367SOL     OW24126   8.524   2.545   3.326
41367SOL    HW124127   8.444   2.484   3.329
41367SOL    HW224128   8.605   2.492   3.302
41368SOL     OW24129   8.675   3.432   2.655
41368SOL    HW124130   8.696   3.506   2.590
41368SOL    HW224131   8.743   3.432   2.728
41369SOL     OW24132   7.907   3.014   2.603
41369SOL    HW124133   7.836   2.987   2.668
41369SOL    HW224134   7.881   2.986   2.510
41370SOL     OW24135   8.719   3.659   2.453
41370SOL    HW124136   8.763   3.723   2.389
41370SOL    HW224137   8.669   3.711   2.523
41371SOL     OW24138   8.480   2.411   1.878
41371SOL    HW124139   8.439   2.493   1.839
41371SOL    HW224140   8.544   2.437   1.951
41372SOL     OW24141   7.526   2.418   3.248
41372SOL    HW124142   7.618   2.417   3.207
41372SOL    HW224143   7.520   2.492   3.315
41373SOL     OW24144   8.009   2.084   3.009
41373SOL    HW124145   8.047   2.000   3.046
41373SOL    HW224146   7.921   2.103   3.053
41374SOL     OW24147   8.314   2.316   2.504
41374SOL    HW124148   8.282   2.388   2.442
41374SOL    HW224149   8.338   2.235   2.451
41375SOL     OW24150   8.465   1.901   2.615
41375SOL    HW124151   8.393   1.906   2.546
41375SOL    HW224152   8.441   1.832   2.684
41376SOL     OW24153   8.877   3.035   2.729
41376SOL    HW124154   8.822   2.951   2.722
41376SOL    HW224155   8.903   3.064   2.637
41377SOL     OW24156   8.914   2.452   2.854
41377SOL    HW124157   8.884   2.357   2.861
41377SOL    HW224158   8.987   2.468   2.920
41378SOL     OW24159   9.305   2.695   2.239
41378SOL    HW124160   9.347   2.631   2.303
41378SOL    HW224161   9.267   2.644   2.161
41379SOL     OW24162   7.936   3.247   2.036
41379SOL    HW124163   7.849   3.232   2.083
41379SOL    HW224164   7.919   3.273   1.941
41380SOL     OW24165   9.112   3.142   2.519
41380SOL    HW124166   9.211   3.150   2.533
41380SOL    HW224167   9.067   3.226   2.550
41381SOL     OW24168   8.838   2.437   1.940
41381SOL    HW124169   8.784   2.416   2.021
41381SOL    HW224170   8.929   2.396   1.949
41382SOL     OW24171   7.975   2.118   2.190
41382SOL    HW124172   8.002   2.059   2.115
41382SOL    HW224173   7.975   2.213   2.159
41383SOL     OW24174   9.202   3.085   3.450
41383SOL    HW124175   9.293   3.046   3.437
41383SOL    HW224176   9.210   3.181   3.474
41384SOL     OW24177   8.512   3.209   3.202
41384SOL    HW124178   8.432   3.186   3.257
41384SOL    HW224179   8.595   3.183   3.251
41385SOL     OW24180   9.040   3.491   3.487
41385SOL    HW124181   9.067   3.525   3.397
41385SOL    HW224182   9.119   3.453   3.533
41386SOL     OW24183   8.559   3.057   2.962
41386SOL    HW124184   8.519   3.101   3.043
41386SOL    HW224185   8.518   3.094   2.879
41387SOL     OW24186   9.086   2.961   2.941
41387SOL    HW124187   9.091   3.042   3.000
41387SOL    HW224188   9.000   2.963   2.890
41388SOL     OW24189   8.363   1.951   3.264
41388SOL    HW124190   8.388   1.931   3.169
41388SOL    HW224191   8.435   2.007   3.306
41389SOL     OW24192   8.428   2.978   3.581
41389SOL    HW124193   8.329   2.984   3.591
41389SOL    HW224194   8.451   2.898   3.525
41390SOL     OW24195   8.153   2.912   2.230
41390SOL    HW124196   8.139   2.919   2.329
41390SOL    HW224197   8.237   2.861   2.212
41391SOL     OW24198   7.858   2.675   3.113
41391SOL    HW124199   7.944   2.687   3.163
41391SOL    HW224200   7.816   2.588   3.140
41392SOL     OW24201   8.722   2.248   3.124
41392SOL    HW124202   8.743   2.322   3.188
41392SOL    HW224203   8.633   2.265   3.081
41393SOL     OW24204   7.512   3.426   3.193
41393SOL    HW124205   7.466   3.508   3.159
41393SOL    HW224206   7.610   3.445   3.202
41394SOL     OW24207   7.815   2.962   2.363
41394SOL    HW124208   7.808   3.045   2.307
41394SOL    HW224209   7.819   2.882   2.303
41395SOL     OW24210   8.014   2.399   2.727
41395SOL    HW124211   8.026   2.465   2.653
41395SOL    HW224212   8.060   2.433   2.810
41396SOL     OW24213   8.700   3.210   2.250
41396SOL    HW124214   8.750   3.287   2.290
41396SOL    HW224215   8.605   3.212   2.282
41397SOL     OW24216   8.720   3.307   3.004
41397SOL    HW124217   8.767   3.320   3.091
41397SOL    HW224218   8.654   3.233   3.013
41398SOL     OW24219   9.030   2.501   2.334
41398SOL    HW124220   8.999   2.562   2.407
41398SOL    HW224221   9.080   2.553   2.265
41399SOL     OW24222   7.802   3.372   3.191
41399SOL    HW124223   7.781   3.328   3.104
41399SOL    HW224224   7.899   3.398   3.194
41400SOL     OW24225   7.850   2.613   3.460
41400SOL    HW124226   7.918   2.668   3.413
41400SOL    HW224227   7.890   2.525   3.487
41401SOL     OW24228   9.035   2.641   3.532
41401SOL    HW124229   8.943   2.679   3.527
41401SOL    HW224230   9.095   2.688   3.467
41402SOL     OW24231   8.461   1.967   3.632
41402SOL    HW124232   8.467   2.052   3.580
41402SOL    HW224233   8.493   1.891   3.575
41403SOL     OW24234   7.952   1.912   3.602
41403SOL    HW124235   7.910   1.855   3.532
41403SOL    HW224236   7.886   1.981   3.634
41404SOL     OW24237   8.021   2.732   2.891
41404SOL    HW124238   8.065   2.821   2.882
41404SOL    HW224239   7.958   2.732   2.968
41405SOL     OW24240   8.808   2.724   2.907
41405SOL    HW124241   8.733   2.724   2.841
41405SOL    HW224242   8.845   2.632   2.916
41406SOL     OW24243   8.657   2.387   2.137
41406SOL    HW124244   8.670   2.303   2.191
41406SOL    HW224245   8.628   2.461   2.197
41407SOL     OW24246   7.755   2.075   3.093
41407SOL    HW124247   7.732   2.112   3.183
41407SOL    HW224248   7.725   1.980   3.087
41408SOL     OW24249   7.485   3.172   3.144
41408SOL    HW124250   7.538   3.123   3.212
41408SOL    HW224251   7.507   3.270   3.149
41409SOL     OW24252   8.180   2.496   2.926
41409SOL    HW124253   8.239   2.470   2.850
41409SOL    HW224254   8.152   2.592   2.915
41410SOL     OW24255   9.176   2.797   3.716
41410SOL    HW124256   9.130   2.790   3.627
41410SOL    HW224257   9.114   2.841   3.782
41411SOL     OW24258   7.755   1.925   2.480
41411SOL    HW124259   7.744   2.019   2.513
41411SOL    HW224260   7.750   1.862   2.557
41412SOL     OW24261   9.070   2.229   2.236
41412SOL    HW124262   9.072   2.153   2.300
41412SOL    HW224263   9.022   2.306   2.276
41413SOL     OW24264   8.471   2.628   2.828
41413SOL    HW124265   8.486   2.649   2.924
41413SOL    HW224266   8.441   2.533   2.819
41414SOL     OW24267   8.428   3.435   3.562
41414SOL    HW124268   8.408   3.479   3.474
41414SOL    HW224269   8.467   3.344   3.546
41415SOL     OW24270   9.307   3.380   3.467
41415SOL    HW124271   9.321   3.407   3.372
41415SOL    HW224272   9.390   3.402   3.520
41416SOL     OW24273   7.798   2.760   3.666
41416SOL    HW124274   7.874   2.804   3.714
41416SOL    HW224275   7.833   2.713   3.584
41417SOL     OW24276   8.988   2.136   1.987
41417SOL    HW124277   8.927   2.061   2.010
41417SOL    HW224278   9.010   2.188   2.070
41418SOL     OW24279   8.751   2.700   1.904
41418SOL    HW124280   8.785   2.607   1.919
41418SOL    HW224281   8.769   2.727   1.809
41419SOL     OW24282   8.516   3.195   2.711
41419SOL    HW124283   8.523   3.111   2.656
41419SOL    HW224284   8.578   3.264   2.675
41420SOL     OW24285   7.767   2.672   2.811
41420SOL    HW124286   7.860   2.708   2.816
41420SOL    HW224287   7.761   2.587   2.863
41421SOL     OW24288   7.787   2.371   2.868
41421SOL    HW124289   7.735   2.288   2.851
41421SOL    HW224290   7.864   2.376   2.804
41422SOL     OW24291   8.586   2.242   3.540
41422SOL    HW124292   8.541   2.305   3.604
41422SOL    HW224293   8.679   2.273   3.523
41423SOL     OW24294   8.608   2.069   3.339
41423SOL    HW124295   8.608   2.133   3.416
41423SOL    HW224296   8.636   2.117   3.256
41424SOL     OW24297   7.456   3.188   2.062
41424SOL    HW124298   7.363   3.209   2.031
41424SOL    HW224299   7.466   3.089   2.075
41425SOL     OW24300   7.536   3.663   2.789
41425SOL    HW124301   7.494   3.577   2.762
41425SOL    HW224302   7.630   3.666   2.755
41426SOL     OW24303   7.952   3.430   2.772
41426SOL    HW124304   8.018   3.504   2.781
41426SOL    HW224305   7.996   3.351   2.730
41427SOL     OW24306   8.450   2.658   3.100
41427SOL    HW124307   8.491   2.626   3.186
41427SOL    HW224308   8.354   2.631   3.097
41428SOL     OW24309   7.488   2.406   2.976
41428SOL    HW124310   7.573   2.373   2.935
41428SOL    HW224311   7.501   2.421   3.074
41429SOL     OW24312   7.637   2.382   3.584
41429SOL    HW124313   7.696   2.342   3.514
41429SOL    HW224314   7.579   2.453   3.543
41430SOL     OW24315   8.817   2.812   3.522
41430SOL    HW124316   8.856   2.901   3.542
41430SOL    HW224317   8.827   2.792   3.425
41431SOL     OW24318   8.263   2.434   2.187
41431SOL    HW124319   8.270   2.345   2.141
41431SOL    HW224320   8.169   2.468   2.179
41432SOL     OW24321   9.105   2.466   3.068
41432SOL    HW124322   9.067   2.397   3.130
41432SOL    HW224323   9.187   2.430   3.024
41433SOL     OW24324   7.700   3.426   3.606
41433SOL    HW124325   7.670   3.483   3.682
41433SOL    HW224326   7.693   3.329   3.632
41434SOL     OW24327   8.119   2.326   3.131
41434SOL    HW124328   8.085   2.237   3.101
41434SOL    HW224329   8.145   2.380   3.051
41435SOL     OW24330   8.378   3.540   3.327
41435SOL    HW124331   8.354   3.522   3.232
41435SOL    HW224332   8.408   3.634   3.337
41436SOL     OW24333   7.921   2.362   2.053
41436SOL    HW124334   7.982   2.442   2.057
41436SOL    HW224335   7.826   2.393   2.060
41437SOL     OW24336   7.607   2.999   3.328
41437SOL    HW124337   7.629   2.938   3.404
41437SOL    HW224338   7.617   2.950   3.242
41438SOL     OW24339   8.795   2.921   3.096
41438SOL    HW124340   8.819   2.858   3.022
41438SOL    HW224341   8.705   2.961   3.078
41439SOL     OW24342   8.750   2.717   2.171
41439SOL    HW124343   8.664   2.686   2.213
41439SOL    HW224344   8.746   2.703   2.072
41440SOL     OW24345   9.207   3.609   3.016
41440SOL    HW124346   9.268   3.639   2.943
41440SOL    HW224347   9.169   3.520   2.994
41441SOL     OW24348   8.700   3.593   2.990
41441SOL    HW124349   8.784   3.598   2.936
41441SOL    HW224350   8.677   3.497   3.008
41442SOL     OW24351   7.531   3.120   2.884
41442SOL    HW124352   7.526   3.119   2.984
41442SOL    HW224353   7.448   3.079   2.846
41443SOL     OW24354   8.136   3.524   3.578
41443SOL    HW124355   8.080   3.605   3.587
41443SOL    HW224356   8.188   3.528   3.492
41444SOL     OW24357   9.174   1.997   2.385
41444SOL    HW124358   9.247   1.980   2.318
41444SOL    HW224359   9.143   1.910   2.423
41445SOL     OW24360   8.836   3.435   2.339
41445SOL    HW124361   8.903   3.447   2.265
41445SOL    HW224362   8.796   3.524   2.362
41446SOL     OW24363   7.578   3.656   3.713
41446SOL    HW124364   7.537   3.582   3.766
41446SOL    HW224365   7.642   3.707   3.771
41447SOL     OW24366   8.728   2.789   2.534
41447SOL    HW124367   8.788   2.708   2.536
41447SOL    HW224368   8.768   2.858   2.474
41448SOL     OW24369   8.278   3.135   3.284
41448SOL    HW124370   8.273   3.168   3.379
41448SOL    HW224371   8.192   3.154   3.238
41449SOL     OW24372   8.120   3.478   2.016
41449SOL    HW124373   8.129   3.488   1.917
41449SOL    HW224374   8.080   3.389   2.037
41450SOL     OW24375   9.098   3.582   3.256
41450SOL    HW124376   9.151   3.592   3.172
41450SOL    HW224377   9.071   3.672   3.290
41451SOL     OW24378   9.289   2.037   2.825
41451SOL    HW124379   9.328   1.952   2.789
41451SOL    HW224380   9.191   2.039   2.806
41452SOL     OW24381   7.711   2.188   2.582
41452SOL    HW124382   7.632   2.239   2.548
41452SOL    HW224383   7.702   2.173   2.680
41453SOL     OW24384   8.642   3.474   1.893
41453SOL    HW124385   8.648   3.381   1.930
41453SOL    HW224386   8.583   3.474   1.813
41454SOL     OW24387   8.270   2.864   3.234
41454SOL    HW124388   8.310   2.863   3.142
41454SOL    HW224389   8.280   2.956   3.274
41455SOL     OW24390   8.364   2.772   2.153
41455SOL    HW124391   8.427   2.810   2.085
41455SOL    HW224392   8.404   2.689   2.192
41456SOL     OW24393   8.952   3.469   1.906
41456SOL    HW124394   8.860   3.506   1.913
41456SOL    HW224395   8.990   3.489   1.816
41457SOL     OW24396   7.820   3.150   3.352
41457SOL    HW124397   7.807   3.243   3.318
41457SOL    HW224398   7.736   3.098   3.339
41458SOL     OW24399   9.062   3.154   3.151
41458SOL    HW124400   9.122   3.157   3.231
41458SOL    HW224401   8.987   3.218   3.164
41459SOL     OW24402   8.487   2.960   2.558
41459SOL    HW124403   8.417   2.913   2.612
41459SOL    HW224404   8.546   2.892   2.515
41460SOL     OW24405   8.462   2.098   2.833
41460SOL    HW124406   8.454   2.062   2.740
41460SOL    HW224407   8.460   2.022   2.898
41461SOL     OW24408   8.038   3.349   2.353
41461SOL    HW124409   8.080   3.291   2.283
41461SOL    HW224410   7.994   3.428   2.309
41462SOL     OW24411   9.157   2.247   3.243
41462SOL    HW124412   9.230   2.316   3.247
41462SOL    HW224413   9.185   2.172   3.184
41463SOL     OW24414   7.703   3.210   2.152
41463SOL    HW124415   7.607   3.211   2.125
41463SOL    HW224416   7.715   3.263   2.236
41464SOL     OW24417   7.553   2.875   3.588
41464SOL    HW124418   7.476   2.842   3.642
41464SOL    HW224419   7.638   2.845   3.630
41465SOL     OW24420   8.120   2.065   3.351
41465SOL    HW124421   8.210   2.049   3.311
41465SOL    HW224422   8.128   2.070   3.450
41466SOL     OW24423   7.523   2.207   1.895
41466SOL    HW124424   7.431   2.179   1.866
41466SOL    HW224425   7.554   2.284   1.839
41467SOL     OW24426   8.888   2.718   3.260
41467SOL    HW124427   8.831   2.770   3.197
41467SOL    HW224428   8.984   2.730   3.236
41468SOL     OW24429   7.520   2.028   2.180
41468SOL    HW124430   7.503   2.111   2.126
41468SOL    HW224431   7.610   1.991   2.158
41469SOL     OW24432   8.631   3.197   1.981
41469SOL    HW124433   8.532   3.186   1.983
41469SOL    HW224434   8.665   3.212   2.074
41470SOL     OW24435   8.061   2.704   3.293
41470SOL    HW124436   8.117   2.785   3.276
41470SOL    HW224437   8.120   2.624   3.296
41471SOL     OW24438   8.941   3.629   2.821
41471SOL    HW124439   8.974   3.693   2.752
41471SOL    HW224440   9.007   3.623   2.896
41472SOL     OW24441   8.164   2.427   3.570
41472SOL    HW124442   8.183   2.492   3.644
41472SOL    HW224443   8.224   2.347   3.579
41473SOL     OW24444   8.898   3.082   3.495
41473SOL    HW124445   8.889   3.072   3.594
41473SOL    HW224446   8.994   3.075   3.469
41474SOL     OW24447   7.838   3.603   3.422
41474SOL    HW124448   7.747   3.644   3.420
41474SOL    HW224449   7.831   3.509   3.454
41475SOL     OW24450   9.122   2.745   3.116
41475SOL    HW124451   9.095   2.656   3.079
41475SOL    HW224452   9.123   2.813   3.043
41476SOL     OW24453   8.673   2.187   2.311
41476SOL    HW124454   8.738   2.113   2.300
41476SOL    HW224455   8.693   2.237   2.395
41477SOL     OW24456   8.042   2.607   2.514
41477SOL    HW124457   8.092   2.692   2.495
41477SOL    HW224458   7.954   2.609   2.466
41478SOL     OW24459   9.225   2.204   3.504
41478SOL    HW124460   9.208   2.235   3.410
41478SOL    HW224461   9.141   2.167   3.542
41479SOL     OW24462   9.178   2.796   3.379
41479SOL    HW124463   9.216   2.887   3.394
41479SOL    HW224464   9.170   2.779   3.280
41480SOL     OW24465   8.307   3.236   1.878
41480SOL    HW124466   8.261   3.251   1.966
41480SOL    HW224467   8.351   3.321   1.848
41481SOL     OW24468   8.109   3.652   2.815
41481SOL    HW124469   8.063   3.740   2.802
41481SOL    HW224470   8.208   3.664   2.808
41482SOL     OW24471   8.307   2.818   2.723
41482SOL    HW124472   8.361   2.749   2.771
41482SOL    HW224473   8.275   2.887   2.789
41483SOL     OW24474   8.531   2.846   1.949
41483SOL    HW124475   8.508   2.899   1.867
41483SOL    HW224476   8.612   2.790   1.930
41484SOL     OW24477   9.309   3.431   2.713
41484SOL    HW124478   9.238   3.419   2.643
41484SOL    HW224479   9.310   3.352   2.773
41485SOL     OW24480   7.669   3.176   3.706
41485SOL    HW124481   7.604   3.103   3.685
41485SOL    HW224482   7.673   3.190   3.804
41486SOL     OW24483   7.527   3.102   2.515
41486SOL    HW124484   7.526   3.055   2.603
41486SOL    HW224485   7.609   3.074   2.464
41487SOL     OW24486   8.120   3.253   3.486
41487SOL    HW124487   8.042   3.203   3.524
41487SOL    HW224488   8.117   3.348   3.517
41488SOL     OW24489   9.272   2.054   3.089
41488SOL    HW124490   9.268   1.964   3.133
41488SOL    HW224491   9.275   2.043   2.990
41489SOL     OW24492   7.876   2.286   2.382
41489SOL    HW124493   7.906   2.214   2.320
41489SOL    HW224494   7.837   2.246   2.465
41490SOL     OW24495   9.153   3.349   2.966
41490SOL    HW124496   9.060   3.324   2.939
41490SOL    HW224497   9.179   3.299   3.048
41491SOL     OW24498   7.765   2.409   3.142
41491SOL    HW124499   7.803   2.350   3.214
41491SOL    HW224500   7.805   2.383   3.054
41492SOL     OW24501   8.260   3.448   2.549
41492SOL    HW124502   8.292   3.458   2.455
41492SOL    HW224503   8.181   3.386   2.551
41493SOL     OW24504   8.872   2.076   2.974
41493SOL    HW124505   8.924   2.011   3.029
41493SOL    HW224506   8.823   2.139   3.035
41494SOL     OW24507   8.449   1.896   3.016
41494SOL    HW124508   8.386   1.824   2.985
41494SOL    HW224509   8.542   1.860   3.016
41495SOL     OW24510   8.218   3.192   2.163
41495SOL    HW124511   8.172   3.105   2.180
41495SOL    HW224512   8.309   3.189   2.204
41496SOL     OW24513   8.066   3.429   3.146
41496SOL    HW124514   8.061   3.511   3.203
41496SOL    HW224515   8.155   3.426   3.101
41497SOL     OW24516   8.800   1.914   2.030
41497SOL    HW124517   8.835   1.873   1.946
41497SOL    HW224518   8.710   1.876   2.050
41498SOL     OW24519   8.748   2.315   2.553
41498SOL    HW124520   8.689   2.395   2.557
41498SOL    HW224521   8.763   2.280   2.646
41499SOL     OW24522   9.041   2.083   2.744
41499SOL    HW124523   8.957   2.082   2.798
41499SOL    HW224524   9.043   2.166   2.688
41500SOL     OW24525   7.487   2.939   2.162
41500SOL    HW124526   7.586   2.928   2.153
41500SOL    HW224527   7.447   2.853   2.194
41501SOL     OW24528   8.323   3.508   2.199
41501SOL    HW124529   8.246   3.473   2.145
41501SOL    HW224530   8.291   3.579   2.261
41502SOL     OW24531   7.678   2.490   3.837
41502SOL    HW124532   7.585   2.488   3.874
41502SOL    HW224533   7.679   2.451   3.745
41503SOL     OW24534   7.673   2.137   4.720
41503SOL    HW124535   7.708   2.120   4.812
41503SOL    HW224536   7.585   2.092   4.708
41504SOL     OW24537   7.467   2.230   4.371
41504SOL    HW124538   7.385   2.273   4.410
41504SOL    HW224539   7.439   2.157   4.308
41505SOL     OW24540   8.017   3.137   4.889
41505SOL    HW124541   7.924   3.130   4.852
41505SOL    HW224542   8.028   3.226   4.933
41506SOL     OW24543   9.003   3.373   4.427
41506SOL    HW124544   8.946   3.357   4.508
41506SOL    HW224545   8.944   3.383   4.347
41507SOL     OW24546   8.583   2.565   4.441
41507SOL    HW124547   8.640   2.643   4.416
41507SOL    HW224548   8.523   2.591   4.517
41508SOL     OW24549   9.203   2.469   3.955
41508SOL    HW124550   9.191   2.456   3.856
41508SOL    HW224551   9.173   2.388   4.004
41509SOL     OW24552   8.216   3.006   4.747
41509SOL    HW124553   8.138   3.023   4.807
41509SOL    HW224554   8.250   3.093   4.711
41510SOL     OW24555   8.298   2.660   5.547
41510SOL    HW124556   8.294   2.736   5.612
41510SOL    HW224557   8.320   2.696   5.456
41511SOL     OW24558   8.133   2.874   4.389
41511SOL    HW124559   8.202   2.858   4.459
41511SOL    HW224560   8.060   2.931   4.427
41512SOL     OW24561   8.134   3.023   5.527
41512SOL    HW124562   8.194   3.102   5.541
41512SOL    HW224563   8.048   3.054   5.486
41513SOL     OW24564   7.783   3.297   4.785
41513SOL    HW124565   7.705   3.266   4.732
41513SOL    HW224566   7.841   3.355   4.728
41514SOL     OW24567   8.908   3.367   5.063
41514SOL    HW124568   8.932   3.461   5.089
41514SOL    HW224569   8.892   3.313   5.145
41515SOL     OW24570   7.886   2.254   5.223
41515SOL    HW124571   7.968   2.198   5.232
41515SOL    HW224572   7.805   2.196   5.227
41516SOL     OW24573   9.051   2.309   4.461
41516SOL    HW124574   8.977   2.355   4.411
41516SOL    HW224575   9.102   2.377   4.514
41517SOL     OW24576   7.679   3.575   4.207
41517SOL    HW124577   7.713   3.652   4.261
41517SOL    HW224578   7.723   3.575   4.117
41518SOL     OW24579   8.575   3.203   5.414
41518SOL    HW124580   8.622   3.203   5.502
41518SOL    HW224581   8.527   3.116   5.403
41519SOL     OW24582   7.678   3.296   4.262
41519SOL    HW124583   7.652   3.392   4.262
41519SOL    HW224584   7.607   3.242   4.307
41520SOL     OW24585   7.688   2.953   4.610
41520SOL    HW124586   7.702   2.869   4.662
41520SOL    HW224587   7.633   3.017   4.665
41521SOL     OW24588   8.068   3.648   5.163
41521SOL    HW124589   7.976   3.631   5.198
41521SOL    HW224590   8.096   3.740   5.189
41522SOL     OW24591   8.054   2.826   3.847
41522SOL    HW124592   8.061   2.910   3.793
41522SOL    HW224593   8.100   2.839   3.935
41523SOL     OW24594   9.042   1.976   5.204
41523SOL    HW124595   9.024   2.043   5.132
41523SOL    HW224596   9.039   2.022   5.293
41524SOL     OW24597   7.570   2.505   4.287
41524SOL    HW124598   7.525   2.417   4.304
41524SOL    HW224599   7.569   2.559   4.371
41525SOL     OW24600   9.290   3.629   4.083
41525SOL    HW124601   9.344   3.600   4.163
41525SOL    HW224602   9.320   3.719   4.054
41526SOL     OW24603   7.475   3.458   3.841
41526SOL    HW124604   7.456   3.362   3.862
41526SOL    HW224605   7.442   3.516   3.916
41527SOL     OW24606   9.137   2.784   4.336
41527SOL    HW124607   9.232   2.755   4.344
41527SOL    HW224608   9.129   2.849   4.261
41528SOL     OW24609   9.089   2.970   4.156
41528SOL    HW124610   9.175   2.972   4.104
41528SOL    HW224611   9.103   3.017   4.244
41529SOL     OW24612   7.561   2.599   5.321
41529SOL    HW124613   7.649   2.586   5.366
41529SOL    HW224614   7.548   2.696   5.299
41530SOL     OW24615   8.061   3.227   4.450
41530SOL    HW124616   8.012   3.140   4.459
41530SOL    HW224617   8.038   3.270   4.363
41531SOL     OW24618   8.741   3.090   5.147
41531SOL    HW124619   8.778   3.017   5.089
41531SOL    HW224620   8.793   3.095   5.232
41532SOL     OW24621   8.257   1.866   4.226
41532SOL    HW124622   8.297   1.957   4.217
41532SOL    HW224623   8.157   1.874   4.232
41533SOL     OW24624   7.645   2.838   4.988
41533SOL    HW124625   7.734   2.793   4.974
41533SOL    HW224626   7.572   2.773   4.969
41534SOL     OW24627   8.973   2.861   3.914
41534SOL    HW124628   8.910   2.785   3.927
41534SOL    HW224629   9.021   2.879   4.000
41535SOL     OW24630   8.635   3.654   5.340
41535SOL    HW124631   8.659   3.714   5.264
41535SOL    HW224632   8.642   3.559   5.310
41536SOL     OW24633   7.765   2.113   5.525
41536SOL    HW124634   7.836   2.184   5.531
41536SOL    HW224635   7.677   2.152   5.553
41537SOL     OW24636   8.914   3.279   4.677
41537SOL    HW124637   8.855   3.285   4.757
41537SOL    HW224638   8.899   3.191   4.631
41538SOL     OW24639   9.115   3.576   4.296
41538SOL    HW124640   9.074   3.553   4.208
41538SOL    HW224641   9.097   3.502   4.361
41539SOL     OW24642   8.046   2.591   3.994
41539SOL    HW124643   8.070   2.660   3.926
41539SOL    HW224644   7.968   2.624   4.048
41540SOL     OW24645   8.729   2.207   4.668
41540SOL    HW124646   8.643   2.157   4.655
41540SOL    HW224647   8.791   2.153   4.724
41541SOL     OW24648   9.024   3.524   4.031
41541SOL    HW124649   9.113   3.570   4.034
41541SOL    HW224650   9.003   3.500   3.936
41542SOL     OW24651   8.255   2.467   5.189
41542SOL    HW124652   8.208   2.464   5.278
41542SOL    HW224653   8.204   2.412   5.123
41543SOL     OW24654   8.842   2.331   5.398
41543SOL    HW124655   8.822   2.374   5.486
41543SOL    HW224656   8.920   2.269   5.407
41544SOL     OW24657   8.421   2.752   5.296
41544SOL    HW124658   8.467   2.668   5.267
41544SOL    HW224659   8.365   2.786   5.221
41545SOL     OW24660   8.439   2.272   4.966
41545SOL    HW124661   8.362   2.306   5.020
41545SOL    HW224662   8.405   2.221   4.887
41546SOL     OW24663   8.489   2.563   4.153
41546SOL    HW124664   8.515   2.559   4.249
41546SOL    HW224665   8.404   2.512   4.139
41547SOL     OW24666   7.524   2.673   4.513
41547SOL    HW124667   7.623   2.661   4.522
41547SOL    HW224668   7.500   2.768   4.534
41548SOL     OW24669   7.578   3.683   5.295
41548SOL    HW124670   7.568   3.668   5.394
41548SOL    HW224671   7.492   3.719   5.259
41549SOL     OW24672   8.313   2.210   3.919
41549SOL    HW124673   8.372   2.273   3.870
41549SOL    HW224674   8.332   2.116   3.890
41550SOL     OW24675   9.167   2.447   5.555
41550SOL    HW124676   9.141   2.536   5.519
41550SOL    HW224677   9.165   2.379   5.482
41551SOL     OW24678   8.810   3.006   4.269
41551SOL    HW124679   8.893   2.977   4.221
41551SOL    HW224680   8.761   3.073   4.213
41552SOL     OW24681   7.998   2.058   4.609
41552SOL    HW124682   7.993   2.053   4.709
41552SOL    HW224683   8.000   2.154   4.580
41553SOL     OW24684   8.456   3.318   4.201
41553SOL    HW124685   8.410   3.390   4.149
41553SOL    HW224686   8.452   3.338   4.299
41554SOL     OW24687   7.799   3.663   4.577
41554SOL    HW124688   7.849   3.577   4.583
41554SOL    HW224689   7.864   3.740   4.574
41555SOL     OW24690   9.243   2.928   4.597
41555SOL    HW124691   9.181   2.913   4.521
41555SOL    HW224692   9.191   2.939   4.682
41556SOL     OW24693   8.675   3.412   5.230
41556SOL    HW124694   8.681   3.335   5.294
41556SOL    HW224695   8.623   3.386   5.150
41557SOL     OW24696   7.769   2.805   3.966
41557SOL    HW124697   7.851   2.844   3.924
41557SOL    HW224698   7.742   2.723   3.917
41558SOL     OW24699   8.906   2.597   4.452
41558SOL    HW124700   8.901   2.532   4.527
41558SOL    HW224701   8.986   2.656   4.465
41559SOL     OW24702   7.909   3.128   5.451
41559SOL    HW124703   7.859   3.129   5.365
41559SOL    HW224704   7.846   3.110   5.527
41560SOL     OW24705   8.559   3.638   3.961
41560SOL    HW124706   8.499   3.576   4.011
41560SOL    HW224707   8.590   3.594   3.876
41561SOL     OW24708   7.650   2.147   5.222
41561SOL    HW124709   7.570   2.207   5.209
41561SOL    HW224710   7.640   2.098   5.308
41562SOL     OW24711   9.080   3.239   3.805
41562SOL    HW124712   9.048   3.333   3.795
41562SOL    HW224713   9.004   3.176   3.793
41563SOL     OW24714   7.912   3.605   4.047
41563SOL    HW124715   7.945   3.644   4.133
41563SOL    HW224716   7.988   3.598   3.982
41564SOL     OW24717   8.848   1.969   4.150
41564SOL    HW124718   8.824   1.932   4.060
41564SOL    HW224719   8.947   1.985   4.154
41565SOL     OW24720   7.697   3.647   4.965
41565SOL    HW124721   7.754   3.582   5.015
41565SOL    HW224722   7.681   3.614   4.872
41566SOL     OW24723   8.388   3.560   4.628
41566SOL    HW124724   8.468   3.503   4.649
41566SOL    HW224725   8.339   3.520   4.551
41567SOL     OW24726   7.830   2.562   4.204
41567SOL    HW124727   7.875   2.472   4.201
41567SOL    HW224728   7.736   2.551   4.237
41568SOL     OW24729   8.995   2.084   5.453
41568SOL    HW124730   8.990   2.121   5.545
41568SOL    HW224731   8.923   2.015   5.441
41569SOL     OW24732   8.062   1.984   3.841
41569SOL    HW124733   8.160   1.962   3.848
41569SOL    HW224734   8.031   1.967   3.748
41570SOL     OW24735   8.229   2.126   5.473
41570SOL    HW124736   8.296   2.065   5.516
41570SOL    HW224737   8.156   2.145   5.538
41571SOL     OW24738   8.336   3.376   4.919
41571SOL    HW124739   8.313   3.351   4.825
41571SOL    HW224740   8.397   3.307   4.958
41572SOL     OW24741   8.799   2.452   5.157
41572SOL    HW124742   8.827   2.409   5.242
41572SOL    HW224743   8.824   2.548   5.158
41573SOL     OW24744   8.251   3.264   4.648
41573SOL    HW124745   8.341   3.278   4.606
41573SOL    HW224746   8.180   3.266   4.577
41574SOL     OW24747   8.370   2.365   4.623
41574SOL    HW124748   8.345   2.356   4.527
41574SOL    HW224749   8.418   2.283   4.654
41575SOL     OW24750   7.987   1.926   4.236
41575SOL    HW124751   7.906   1.927   4.294
41575SOL    HW224752   7.990   2.009   4.181
41576SOL     OW24753   8.882   3.050   3.765
41576SOL    HW124754   8.914   2.974   3.822
41576SOL    HW224755   8.790   3.077   3.795
41577SOL     OW24756   7.745   1.897   3.895
41577SOL    HW124757   7.794   1.981   3.874
41577SOL    HW224758   7.807   1.832   3.940
41578SOL     OW24759   8.383   2.098   4.204
41578SOL    HW124760   8.335   2.139   4.126
41578SOL    HW224761   8.482   2.096   4.185
41579SOL     OW24762   8.524   2.545   5.188
41579SOL    HW124763   8.444   2.484   5.191
41579SOL    HW224764   8.605   2.492   5.164
41580SOL     OW24765   8.675   3.432   4.517
41580SOL    HW124766   8.696   3.506   4.452
41580SOL    HW224767   8.743   3.432   4.590
41581SOL     OW24768   7.907   3.014   4.465
41581SOL    HW124769   7.836   2.987   4.530
41581SOL    HW224770   7.881   2.986   4.372
41582SOL     OW24771   8.719   3.659   4.315
41582SOL    HW124772   8.763   3.723   4.251
41582SOL    HW224773   8.669   3.711   4.385
41583SOL     OW24774   8.480   2.411   3.740
41583SOL    HW124775   8.439   2.493   3.701
41583SOL    HW224776   8.544   2.437   3.813
41584SOL     OW24777   7.526   2.418   5.110
41584SOL    HW124778   7.618   2.417   5.069
41584SOL    HW224779   7.520   2.492   5.177
41585SOL     OW24780   8.009   2.084   4.871
41585SOL    HW124781   8.047   2.000   4.908
41585SOL    HW224782   7.921   2.103   4.915
41586SOL     OW24783   8.314   2.316   4.366
41586SOL    HW124784   8.282   2.388   4.304
41586SOL    HW224785   8.338   2.235   4.313
41587SOL     OW24786   8.465   1.901   4.477
41587SOL    HW124787   8.393   1.906   4.408
41587SOL    HW224788   8.441   1.832   4.546
41588SOL     OW24789   8.877   3.035   4.591
41588SOL    HW124790   8.822   2.951   4.584
41588SOL    HW224791   8.903   3.064   4.499
41589SOL     OW24792   8.914   2.452   4.716
41589SOL    HW124793   8.884   2.357   4.723
41589SOL    HW224794   8.987   2.468   4.782
41590SOL     OW24795   9.305   2.695   4.101
41590SOL    HW124796   9.347   2.631   4.165
41590SOL    HW224797   9.267   2.644   4.023
41591SOL     OW24798   7.936   3.247   3.898
41591SOL    HW124799   7.849   3.232   3.945
41591SOL    HW224800   7.919   3.273   3.803
41592SOL     OW24801   9.112   3.142   4.381
41592SOL    HW124802   9.211   3.150   4.395
41592SOL    HW224803   9.067   3.226   4.412
41593SOL     OW24804   8.838   2.437   3.802
41593SOL    HW124805   8.784   2.416   3.883
41593SOL    HW224806   8.929   2.396   3.811
41594SOL     OW24807   7.975   2.118   4.052
41594SOL    HW124808   8.002   2.059   3.977
41594SOL    HW224809   7.975   2.213   4.021
41595SOL     OW24810   9.202   3.085   5.312
41595SOL    HW124811   9.293   3.046   5.299
41595SOL    HW224812   9.210   3.181   5.336
41596SOL     OW24813   8.512   3.209   5.064
41596SOL    HW124814   8.432   3.186   5.119
41596SOL    HW224815   8.595   3.183   5.113
41597SOL     OW24816   9.040   3.491   5.349
41597SOL    HW124817   9.067   3.525   5.259
41597SOL    HW224818   9.119   3.453   5.395
41598SOL     OW24819   8.559   3.057   4.824
41598SOL    HW124820   8.519   3.101   4.905
41598SOL    HW224821   8.518   3.094   4.741
41599SOL     OW24822   9.086   2.961   4.803
41599SOL    HW124823   9.091   3.042   4.862
41599SOL    HW224824   9.000   2.963   4.752
41600SOL     OW24825   8.363   1.951   5.126
41600SOL    HW124826   8.388   1.931   5.031
41600SOL    HW224827   8.435   2.007   5.168
41601SOL     OW24828   8.428   2.978   5.443
41601SOL    HW124829   8.329   2.984   5.453
41601SOL    HW224830   8.451   2.898   5.387
41602SOL     OW24831   8.153   2.912   4.092
41602SOL    HW124832   8.139   2.919   4.191
41602SOL    HW224833   8.237   2.861   4.074
41603SOL     OW24834   7.858   2.675   4.975
41603SOL    HW124835   7.944   2.687   5.025
41603SOL    HW224836   7.816   2.588   5.002
41604SOL     OW24837   8.722   2.248   4.986
41604SOL    HW124838   8.743   2.322   5.050
41604SOL    HW224839   8.633   2.265   4.943
41605SOL     OW24840   7.512   3.426   5.055
41605SOL    HW124841   7.466   3.508   5.021
41605SOL    HW224842   7.610   3.445   5.064
41606SOL     OW24843   7.815   2.962   4.225
41606SOL    HW124844   7.808   3.045   4.169
41606SOL    HW224845   7.819   2.882   4.165
41607SOL     OW24846   8.014   2.399   4.589
41607SOL    HW124847   8.026   2.465   4.515
41607SOL    HW224848   8.060   2.433   4.672
41608SOL     OW24849   8.700   3.210   4.112
41608SOL    HW124850   8.750   3.287   4.152
41608SOL    HW224851   8.605   3.212   4.144
41609SOL     OW24852   8.720   3.307   4.866
41609SOL    HW124853   8.767   3.320   4.953
41609SOL    HW224854   8.654   3.233   4.875
41610SOL     OW24855   9.030   2.501   4.196
41610SOL    HW124856   8.999   2.562   4.269
41610SOL    HW224857   9.080   2.553   4.127
41611SOL     OW24858   7.802   3.372   5.053
41611SOL    HW124859   7.781   3.328   4.966
41611SOL    HW224860   7.899   3.398   5.056
41612SOL     OW24861   7.850   2.613   5.322
41612SOL    HW124862   7.918   2.668   5.275
41612SOL    HW224863   7.890   2.525   5.349
41613SOL     OW24864   9.035   2.641   5.394
41613SOL    HW124865   8.943   2.679   5.389
41613SOL    HW224866   9.095   2.688   5.329
41614SOL     OW24867   8.461   1.967   5.494
41614SOL    HW124868   8.467   2.052   5.442
41614SOL    HW224869   8.493   1.891   5.437
41615SOL     OW24870   7.952   1.912   5.464
41615SOL    HW124871   7.910   1.855   5.394
41615SOL    HW224872   7.886   1.981   5.496
41616SOL     OW24873   8.021   2.732   4.753
41616SOL    HW124874   8.065   2.821   4.744
41616SOL    HW224875   7.958   2.732   4.830
41617SOL     OW24876   8.808   2.724   4.769
41617SOL    HW124877   8.733   2.724   4.703
41617SOL    HW224878   8.845   2.632   4.778
41618SOL     OW24879   8.657   2.387   3.999
41618SOL    HW124880   8.670   2.303   4.053
41618SOL    HW224881   8.628   2.461   4.059
41619SOL     OW24882   7.755   2.075   4.955
41619SOL    HW124883   7.732   2.112   5.045
41619SOL    HW224884   7.725   1.980   4.949
41620SOL     OW24885   7.485   3.172   5.006
41620SOL    HW124886   7.538   3.123   5.074
41620SOL    HW224887   7.507   3.270   5.011
41621SOL     OW24888   8.180   2.496   4.788
41621SOL    HW124889   8.239   2.470   4.712
41621SOL    HW224890   8.152   2.592   4.777
41622SOL     OW24891   9.176   2.797   5.578
41622SOL    HW124892   9.130   2.790   5.489
41622SOL    HW224893   9.114   2.841   5.644
41623SOL     OW24894   7.755   1.925   4.342
41623SOL    HW124895   7.744   2.019   4.375
41623SOL    HW224896   7.750   1.862   4.419
41624SOL     OW24897   9.070   2.229   4.098
41624SOL    HW124898   9.072   2.153   4.162
41624SOL    HW224899   9.022   2.306   4.138
41625SOL     OW24900   8.471   2.628   4.690
41625SOL    HW124901   8.486   2.649   4.786
41625SOL    HW224902   8.441   2.533   4.681
41626SOL     OW24903   8.428   3.435   5.424
41626SOL    HW124904   8.408   3.479   5.336
41626SOL    HW224905   8.467   3.344   5.408
41627SOL     OW24906   9.307   3.380   5.329
41627SOL    HW124907   9.321   3.407   5.234
41627SOL    HW224908   9.390   3.402   5.382
41628SOL     OW24909   7.798   2.760   5.528
41628SOL    HW124910   7.874   2.804   5.576
41628SOL    HW224911   7.833   2.713   5.446
41629SOL     OW24912   8.988   2.136   3.849
41629SOL    HW124913   8.927   2.061   3.872
41629SOL    HW224914   9.010   2.188   3.932
41630SOL     OW24915   8.751   2.700   3.766
41630SOL    HW124916   8.785   2.607   3.781
41630SOL    HW224917   8.769   2.727   3.671
41631SOL     OW24918   8.516   3.195   4.573
41631SOL    HW124919   8.523   3.111   4.518
41631SOL    HW224920   8.578   3.264   4.537
41632SOL     OW24921   7.767   2.672   4.673
41632SOL    HW124922   7.860   2.708   4.678
41632SOL    HW224923   7.761   2.587   4.725
41633SOL     OW24924   7.787   2.371   4.730
41633SOL    HW124925   7.735   2.288   4.713
41633SOL    HW224926   7.864   2.376   4.666
41634SOL     OW24927   8.586   2.242   5.402
41634SOL    HW124928   8.541   2.305   5.466
41634SOL    HW224929   8.679   2.273   5.385
41635SOL     OW24930   8.608   2.069   5.201
41635SOL    HW124931   8.608   2.133   5.278
41635SOL    HW224932   8.636   2.117   5.118
41636SOL     OW24933   7.456   3.188   3.924
41636SOL    HW124934   7.363   3.209   3.893
41636SOL    HW224935   7.466   3.089   3.937
41637SOL     OW24936   7.536   3.663   4.651
41637SOL    HW124937   7.494   3.577   4.624
41637SOL    HW224938   7.630   3.666   4.617
41638SOL     OW24939   7.952   3.430   4.634
41638SOL    HW124940   8.018   3.504   4.643
41638SOL    HW224941   7.996   3.351   4.592
41639SOL     OW24942   8.450   2.658   4.962
41639SOL    HW124943   8.491   2.626   5.048
41639SOL    HW224944   8.354   2.631   4.959
41640SOL     OW24945   7.488   2.406   4.838
41640SOL    HW124946   7.573   2.373   4.797
41640SOL    HW224947   7.501   2.421   4.936
41641SOL     OW24948   7.637   2.382   5.446
41641SOL    HW124949   7.696   2.342   5.376
41641SOL    HW224950   7.579   2.453   5.405
41642SOL     OW24951   8.817   2.812   5.384
41642SOL    HW124952   8.856   2.901   5.404
41642SOL    HW224953   8.827   2.792   5.287
41643SOL     OW24954   8.263   2.434   4.049
41643SOL    HW124955   8.270   2.345   4.003
41643SOL    HW224956   8.169   2.468   4.041
41644SOL     OW24957   9.105   2.466   4.930
41644SOL    HW124958   9.067   2.397   4.992
41644SOL    HW224959   9.187   2.430   4.886
41645SOL     OW24960   7.700   3.426   5.468
41645SOL    HW124961   7.670   3.483   5.544
41645SOL    HW224962   7.693   3.329   5.494
41646SOL     OW24963   8.119   2.326   4.993
41646SOL    HW124964   8.085   2.237   4.963
41646SOL    HW224965   8.145   2.380   4.913
41647SOL     OW24966   8.378   3.540   5.189
41647SOL    HW124967   8.354   3.522   5.094
41647SOL    HW224968   8.408   3.634   5.199
41648SOL     OW24969   7.921   2.362   3.915
41648SOL    HW124970   7.982   2.442   3.919
41648SOL    HW224971   7.826   2.393   3.922
41649SOL     OW24972   7.607   2.999   5.190
41649SOL    HW124973   7.629   2.938   5.266
41649SOL    HW224974   7.617   2.950   5.104
41650SOL     OW24975   8.795   2.921   4.958
41650SOL    HW124976   8.819   2.858   4.884
41650SOL    HW224977   8.705   2.961   4.940
41651SOL     OW24978   8.750   2.717   4.033
41651SOL    HW124979   8.664   2.686   4.075
41651SOL    HW224980   8.746   2.703   3.934
41652SOL     OW24981   9.207   3.609   4.878
41652SOL    HW124982   9.268   3.639   4.805
41652SOL    HW224983   9.169   3.520   4.856
41653SOL     OW24984   8.700   3.593   4.852
41653SOL    HW124985   8.784   3.598   4.798
41653SOL    HW224986   8.677   3.497   4.870
41654SOL     OW24987   7.531   3.120   4.746
41654SOL    HW124988   7.526   3.119   4.846
41654SOL    HW224989   7.448   3.079   4.708
41655SOL     OW24990   8.136   3.524   5.440
41655SOL    HW124991   8.080   3.605   5.449
41655SOL    HW224992   8.188   3.528   5.354
41656SOL     OW24993   9.174   1.997   4.247
41656SOL    HW124994   9.247   1.980   4.180
41656SOL    HW224995   9.143   1.910   4.285
41657SOL     OW24996   8.836   3.435   4.201
41657SOL    HW124997   8.903   3.447   4.127
41657SOL    HW224998   8.796   3.524   4.224
41658SOL     OW24999   7.578   3.656   5.575
41658SOL    HW125000   7.537   3.582   5.628
41658SOL    HW225001   7.642   3.707   5.633
41659SOL     OW25002   8.728   2.789   4.396
41659SOL    HW125003   8.788   2.708   4.398
41659SOL    HW225004   8.768   2.858   4.336
41660SOL     OW25005   8.278   3.135   5.146
41660SOL    HW125006   8.273   3.168   5.241
41660SOL    HW225007   8.192   3.154   5.100
41661SOL     OW25008   8.120   3.478   3.878
41661SOL    HW125009   8.129   3.488   3.779
41661SOL    HW225010   8.080   3.389   3.899
41662SOL     OW25011   9.098   3.582   5.118
41662SOL    HW125012   9.151   3.592   5.034
41662SOL    HW225013   9.071   3.672   5.152
41663SOL     OW25014   9.289   2.037   4.687
41663SOL    HW125015   9.328   1.952   4.651
41663SOL    HW225016   9.191   2.039   4.668
41664SOL     OW25017   7.711   2.188   4.444
41664SOL    HW125018   7.632   2.239   4.410
41664SOL    HW225019   7.702   2.173   4.542
41665SOL     OW25020   8.642   3.474   3.755
41665SOL    HW125021   8.648   3.381   3.792
41665SOL    HW225022   8.583   3.474   3.675
41666SOL     OW25023   8.270   2.864   5.096
41666SOL    HW125024   8.310   2.863   5.004
41666SOL    HW225025   8.280   2.956   5.136
41667SOL     OW25026   8.364   2.772   4.015
41667SOL    HW125027   8.427   2.810   3.947
41667SOL    HW225028   8.404   2.689   4.054
41668SOL     OW25029   8.952   3.469   3.768
41668SOL    HW125030   8.860   3.506   3.775
41668SOL    HW225031   8.990   3.489   3.678
41669SOL     OW25032   7.820   3.150   5.214
41669SOL    HW125033   7.807   3.243   5.180
41669SOL    HW225034   7.736   3.098   5.201
41670SOL     OW25035   9.062   3.154   5.013
41670SOL    HW125036   9.122   3.157   5.093
41670SOL    HW225037   8.987   3.218   5.026
41671SOL     OW25038   8.487   2.960   4.420
41671SOL    HW125039   8.417   2.913   4.474
41671SOL    HW225040   8.546   2.892   4.377
41672SOL     OW25041   8.462   2.098   4.695
41672SOL    HW125042   8.454   2.062   4.602
41672SOL    HW225043   8.460   2.022   4.760
41673SOL     OW25044   8.038   3.349   4.215
41673SOL    HW125045   8.080   3.291   4.145
41673SOL    HW225046   7.994   3.428   4.171
41674SOL     OW25047   9.157   2.247   5.105
41674SOL    HW125048   9.230   2.316   5.109
41674SOL    HW225049   9.185   2.172   5.046
41675SOL     OW25050   7.703   3.210   4.014
41675SOL    HW125051   7.607   3.211   3.987
41675SOL    HW225052   7.715   3.263   4.098
41676SOL     OW25053   7.553   2.875   5.450
41676SOL    HW125054   7.476   2.842   5.504
41676SOL    HW225055   7.638   2.845   5.492
41677SOL     OW25056   8.120   2.065   5.213
41677SOL    HW125057   8.210   2.049   5.173
41677SOL    HW225058   8.128   2.070   5.312
41678SOL     OW25059   7.523   2.207   3.757
41678SOL    HW125060   7.431   2.179   3.728
41678SOL    HW225061   7.554   2.284   3.701
41679SOL     OW25062   8.888   2.718   5.122
41679SOL    HW125063   8.831   2.770   5.059
41679SOL    HW225064   8.984   2.730   5.098
41680SOL     OW25065   7.520   2.028   4.042
41680SOL    HW125066   7.503   2.111   3.988
41680SOL    HW225067   7.610   1.991   4.020
41681SOL     OW25068   8.631   3.197   3.843
41681SOL    HW125069   8.532   3.186   3.845
41681SOL    HW225070   8.665   3.212   3.936
41682SOL     OW25071   8.061   2.704   5.155
41682SOL    HW125072   8.117   2.785   5.138
41682SOL    HW225073   8.120   2.624   5.158
41683SOL     OW25074   8.941   3.629   4.683
41683SOL    HW125075   8.974   3.693   4.614
41683SOL    HW225076   9.007   3.623   4.758
41684SOL     OW25077   8.164   2.427   5.432
41684SOL    HW125078   8.183   2.492   5.506
41684SOL    HW225079   8.224   2.347   5.441
41685SOL     OW25080   8.898   3.082   5.357
41685SOL    HW125081   8.889   3.072   5.456
41685SOL    HW225082   8.994   3.075   5.331
41686SOL     OW25083   7.838   3.603   5.284
41686SOL    HW125084   7.747   3.644   5.282
41686SOL    HW225085   7.831   3.509   5.316
41687SOL     OW25086   9.122   2.745   4.978
41687SOL    HW125087   9.095   2.656   4.941
41687SOL    HW225088   9.123   2.813   4.905
41688SOL     OW25089   8.673   2.187   4.173
41688SOL    HW125090   8.738   2.113   4.162
41688SOL    HW225091   8.693   2.237   4.257
41689SOL     OW25092   8.042   2.607   4.376
41689SOL    HW125093   8.092   2.692   4.357
41689SOL    HW225094   7.954   2.609   4.328
41690SOL     OW25095   9.225   2.204   5.366
41690SOL    HW125096   9.208   2.235   5.272
41690SOL    HW225097   9.141   2.167   5.404
41691SOL     OW25098   9.178   2.796   5.241
41691SOL    HW125099   9.216   2.887   5.256
41691SOL    HW225100   9.170   2.779   5.142
41692SOL     OW25101   8.307   3.236   3.740
41692SOL    HW125102   8.261   3.251   3.828
41692SOL    HW225103   8.351   3.321   3.710
41693SOL     OW25104   8.109   3.652   4.677
41693SOL    HW125105   8.063   3.740   4.664
41693SOL    HW225106   8.208   3.664   4.670
41694SOL     OW25107   8.307   2.818   4.585
41694SOL    HW125108   8.361   2.749   4.633
41694SOL    HW225109   8.275   2.887   4.651
41695SOL     OW25110   8.531   2.846   3.811
41695SOL    HW125111   8.508   2.899   3.729
41695SOL    HW225112   8.612   2.790   3.792
41696SOL     OW25113   9.309   3.431   4.575
41696SOL    HW125114   9.238   3.419   4.505
41696SOL    HW225115   9.310   3.352   4.635
41697SOL     OW25116   7.669   3.176   5.568
41697SOL    HW125117   7.604   3.103   5.547
41697SOL    HW225118   7.673   3.190   5.666
41698SOL     OW25119   7.527   3.102   4.377
41698SOL    HW125120   7.526   3.055   4.465
41698SOL    HW225121   7.609   3.074   4.326
41699SOL     OW25122   8.120   3.253   5.348
41699SOL    HW125123   8.042   3.203   5.386
41699SOL    HW225124   8.117   3.348   5.379
41700SOL     OW25125   9.272   2.054   4.951
41700SOL    HW125126   9.268   1.964   4.995
41700SOL    HW225127   9.275   2.043   4.852
41701SOL     OW25128   7.876   2.286   4.244
41701SOL    HW125129   7.906   2.214   4.182
41701SOL    HW225130   7.837   2.246   4.327
41702SOL     OW25131   9.153   3.349   4.828
41702SOL    HW125132   9.060   3.324   4.801
41702SOL    HW225133   9.179   3.299   4.910
41703SOL     OW25134   7.765   2.409   5.004
41703SOL    HW125135   7.803   2.350   5.076
41703SOL    HW225136   7.805   2.383   4.916
41704SOL     OW25137   8.260   3.448   4.411
41704SOL    HW125138   8.292   3.458   4.317
41704SOL    HW225139   8.181   3.386   4.413
41705SOL     OW25140   8.872   2.076   4.836
41705SOL    HW125141   8.924   2.011   4.891
41705SOL    HW225142   8.823   2.139   4.897
41706SOL     OW25143   8.449   1.896   4.878
41706SOL    HW125144   8.386   1.824   4.847
41706SOL    HW225145   8.542   1.860   4.878
41707SOL     OW25146   8.218   3.192   4.025
41707SOL    HW125147   8.172   3.105   4.042
41707SOL    HW225148   8.309   3.189   4.066
41708SOL     OW25149   8.066   3.429   5.008
41708SOL    HW125150   8.061   3.511   5.065
41708SOL    HW225151   8.155   3.426   4.963
41709SOL     OW25152   8.800   1.914   3.892
41709SOL    HW125153   8.835   1.873   3.808
41709SOL    HW225154   8.710   1.876   3.912
41710SOL     OW25155   8.748   2.315   4.415
41710SOL    HW125156   8.689   2.395   4.419
41710SOL    HW225157   8.763   2.280   4.508
41711SOL     OW25158   9.041   2.083   4.606
41711SOL    HW125159   8.957   2.082   4.660
41711SOL    HW225160   9.043   2.166   4.550
41712SOL     OW25161   7.487   2.939   4.024
41712SOL    HW125162   7.586   2.928   4.015
41712SOL    HW225163   7.447   2.853   4.056
41713SOL     OW25164   8.323   3.508   4.061
41713SOL    HW125165   8.246   3.473   4.007
41713SOL    HW225166   8.291   3.579   4.123
41714SOL     OW25167   7.678   2.490   5.699
41714SOL    HW125168   7.585   2.488   5.736
41714SOL    HW225169   7.679   2.451   5.607
41715SOL     OW25170   7.673   2.137   6.582
41715SOL    HW125171   7.708   2.120   6.674
41715SOL    HW225172   7.585   2.092   6.570
41716SOL     OW25173   7.467   2.230   6.233
41716SOL    HW125174   7.385   2.273   6.272
41716SOL    HW225175   7.439   2.157   6.170
41717SOL     OW25176   8.017   3.137   6.751
41717SOL    HW125177   7.924   3.130   6.714
41717SOL    HW225178   8.028   3.226   6.795
41718SOL     OW25179   9.003   3.373   6.289
41718SOL    HW125180   8.946   3.357   6.370
41718SOL    HW225181   8.944   3.383   6.209
41719SOL     OW25182   8.583   2.565   6.303
41719SOL    HW125183   8.640   2.643   6.278
41719SOL    HW225184   8.523   2.591   6.379
41720SOL     OW25185   9.203   2.469   5.817
41720SOL    HW125186   9.191   2.456   5.718
41720SOL    HW225187   9.173   2.388   5.866
41721SOL     OW25188   8.216   3.006   6.609
41721SOL    HW125189   8.138   3.023   6.669
41721SOL    HW225190   8.250   3.093   6.573
41722SOL     OW25191   8.298   2.660   7.409
41722SOL    HW125192   8.294   2.736   7.474
41722SOL    HW225193   8.320   2.696   7.318
41723SOL     OW25194   8.133   2.874   6.251
41723SOL    HW125195   8.202   2.858   6.321
41723SOL    HW225196   8.060   2.931   6.289
41724SOL     OW25197   8.134   3.023   7.389
41724SOL    HW125198   8.194   3.102   7.403
41724SOL    HW225199   8.048   3.054   7.348
41725SOL     OW25200   7.783   3.297   6.647
41725SOL    HW125201   7.705   3.266   6.594
41725SOL    HW225202   7.841   3.355   6.590
41726SOL     OW25203   8.908   3.367   6.925
41726SOL    HW125204   8.932   3.461   6.951
41726SOL    HW225205   8.892   3.313   7.007
41727SOL     OW25206   7.886   2.254   7.085
41727SOL    HW125207   7.968   2.198   7.094
41727SOL    HW225208   7.805   2.196   7.089
41728SOL     OW25209   9.051   2.309   6.323
41728SOL    HW125210   8.977   2.355   6.273
41728SOL    HW225211   9.102   2.377   6.376
41729SOL     OW25212   7.679   3.575   6.069
41729SOL    HW125213   7.713   3.652   6.123
41729SOL    HW225214   7.723   3.575   5.979
41730SOL     OW25215   8.575   3.203   7.276
41730SOL    HW125216   8.622   3.203   7.364
41730SOL    HW225217   8.527   3.116   7.265
41731SOL     OW25218   7.678   3.296   6.124
41731SOL    HW125219   7.652   3.392   6.124
41731SOL    HW225220   7.607   3.242   6.169
41732SOL     OW25221   7.688   2.953   6.472
41732SOL    HW125222   7.702   2.869   6.524
41732SOL    HW225223   7.633   3.017   6.527
41733SOL     OW25224   8.068   3.648   7.025
41733SOL    HW125225   7.976   3.631   7.060
41733SOL    HW225226   8.096   3.740   7.051
41734SOL     OW25227   8.054   2.826   5.709
41734SOL    HW125228   8.061   2.910   5.655
41734SOL    HW225229   8.100   2.839   5.797
41735SOL     OW25230   9.042   1.976   7.066
41735SOL    HW125231   9.024   2.043   6.994
41735SOL    HW225232   9.039   2.022   7.155
41736SOL     OW25233   7.570   2.505   6.149
41736SOL    HW125234   7.525   2.417   6.166
41736SOL    HW225235   7.569   2.559   6.233
41737SOL     OW25236   9.290   3.629   5.945
41737SOL    HW125237   9.344   3.600   6.025
41737SOL    HW225238   9.320   3.719   5.916
41738SOL     OW25239   7.475   3.458   5.703
41738SOL    HW125240   7.456   3.362   5.724
41738SOL    HW225241   7.442   3.516   5.778
41739SOL     OW25242   9.137   2.784   6.198
41739SOL    HW125243   9.232   2.755   6.206
41739SOL    HW225244   9.129   2.849   6.123
41740SOL     OW25245   9.089   2.970   6.018
41740SOL    HW125246   9.175   2.972   5.966
41740SOL    HW225247   9.103   3.017   6.106
41741SOL     OW25248   7.561   2.599   7.183
41741SOL    HW125249   7.649   2.586   7.228
41741SOL    HW225250   7.548   2.696   7.161
41742SOL     OW25251   8.061   3.227   6.312
41742SOL    HW125252   8.012   3.140   6.321
41742SOL    HW225253   8.038   3.270   6.225
41743SOL     OW25254   8.741   3.090   7.009
41743SOL    HW125255   8.778   3.017   6.951
41743SOL    HW225256   8.793   3.095   7.094
41744SOL     OW25257   8.257   1.866   6.088
41744SOL    HW125258   8.297   1.957   6.079
41744SOL    HW225259   8.157   1.874   6.094
41745SOL     OW25260   7.645   2.838   6.850
41745SOL    HW125261   7.734   2.793   6.836
41745SOL    HW225262   7.572   2.773   6.831
41746SOL     OW25263   8.973   2.861   5.776
41746SOL    HW125264   8.910   2.785   5.789
41746SOL    HW225265   9.021   2.879   5.862
41747SOL     OW25266   8.635   3.654   7.202
41747SOL    HW125267   8.659   3.714   7.126
41747SOL    HW225268   8.642   3.559   7.172
41748SOL     OW25269   7.765   2.113   7.387
41748SOL    HW125270   7.836   2.184   7.393
41748SOL    HW225271   7.677   2.152   7.415
41749SOL     OW25272   8.914   3.279   6.539
41749SOL    HW125273   8.855   3.285   6.619
41749SOL    HW225274   8.899   3.191   6.493
41750SOL     OW25275   9.115   3.576   6.158
41750SOL    HW125276   9.074   3.553   6.070
41750SOL    HW225277   9.097   3.502   6.223
41751SOL     OW25278   8.046   2.591   5.856
41751SOL    HW125279   8.070   2.660   5.788
41751SOL    HW225280   7.968   2.624   5.910
41752SOL     OW25281   8.729   2.207   6.530
41752SOL    HW125282   8.643   2.157   6.517
41752SOL    HW225283   8.791   2.153   6.586
41753SOL     OW25284   9.024   3.524   5.893
41753SOL    HW125285   9.113   3.570   5.896
41753SOL    HW225286   9.003   3.500   5.798
41754SOL     OW25287   8.255   2.467   7.051
41754SOL    HW125288   8.208   2.464   7.140
41754SOL    HW225289   8.204   2.412   6.985
41755SOL     OW25290   8.842   2.331   7.260
41755SOL    HW125291   8.822   2.374   7.348
41755SOL    HW225292   8.920   2.269   7.269
41756SOL     OW25293   8.421   2.752   7.158
41756SOL    HW125294   8.467   2.668   7.129
41756SOL    HW225295   8.365   2.786   7.083
41757SOL     OW25296   8.439   2.272   6.828
41757SOL    HW125297   8.362   2.306   6.882
41757SOL    HW225298   8.405   2.221   6.749
41758SOL     OW25299   8.489   2.563   6.015
41758SOL    HW125300   8.515   2.559   6.111
41758SOL    HW225301   8.404   2.512   6.001
41759SOL     OW25302   7.524   2.673   6.375
41759SOL    HW125303   7.623   2.661   6.384
41759SOL    HW225304   7.500   2.768   6.396
41760SOL     OW25305   7.578   3.683   7.157
41760SOL    HW125306   7.568   3.668   7.256
41760SOL    HW225307   7.492   3.719   7.121
41761SOL     OW25308   8.313   2.210   5.781
41761SOL    HW125309   8.372   2.273   5.732
41761SOL    HW225310   8.332   2.116   5.752
41762SOL     OW25311   9.167   2.447   7.417
41762SOL    HW125312   9.141   2.536   7.381
41762SOL    HW225313   9.165   2.379   7.344
41763SOL     OW25314   8.810   3.006   6.131
41763SOL    HW125315   8.893   2.977   6.083
41763SOL    HW225316   8.761   3.073   6.075
41764SOL     OW25317   7.998   2.058   6.471
41764SOL    HW125318   7.993   2.053   6.571
41764SOL    HW225319   8.000   2.154   6.442
41765SOL     OW25320   8.456   3.318   6.063
41765SOL    HW125321   8.410   3.390   6.011
41765SOL    HW225322   8.452   3.338   6.161
41766SOL     OW25323   7.799   3.663   6.439
41766SOL    HW125324   7.849   3.577   6.445
41766SOL    HW225325   7.864   3.740   6.436
41767SOL     OW25326   9.243   2.928   6.459
41767SOL    HW125327   9.181   2.913   6.383
41767SOL    HW225328   9.191   2.939   6.544
41768SOL     OW25329   8.675   3.412   7.092
41768SOL    HW125330   8.681   3.335   7.156
41768SOL    HW225331   8.623   3.386   7.012
41769SOL     OW25332   7.769   2.805   5.828
41769SOL    HW125333   7.851   2.844   5.786
41769SOL    HW225334   7.742   2.723   5.779
41770SOL     OW25335   8.906   2.597   6.314
41770SOL    HW125336   8.901   2.532   6.389
41770SOL    HW225337   8.986   2.656   6.327
41771SOL     OW25338   7.909   3.128   7.313
41771SOL    HW125339   7.859   3.129   7.227
41771SOL    HW225340   7.846   3.110   7.389
41772SOL     OW25341   8.559   3.638   5.823
41772SOL    HW125342   8.499   3.576   5.873
41772SOL    HW225343   8.590   3.594   5.738
41773SOL     OW25344   7.650   2.147   7.084
41773SOL    HW125345   7.570   2.207   7.071
41773SOL    HW225346   7.640   2.098   7.170
41774SOL     OW25347   9.080   3.239   5.667
41774SOL    HW125348   9.048   3.333   5.657
41774SOL    HW225349   9.004   3.176   5.655
41775SOL     OW25350   7.912   3.605   5.909
41775SOL    HW125351   7.945   3.644   5.995
41775SOL    HW225352   7.988   3.598   5.844
41776SOL     OW25353   8.848   1.969   6.012
41776SOL    HW125354   8.824   1.932   5.922
41776SOL    HW225355   8.947   1.985   6.016
41777SOL     OW25356   7.697   3.647   6.827
41777SOL    HW125357   7.754   3.582   6.877
41777SOL    HW225358   7.681   3.614   6.734
41778SOL     OW25359   8.388   3.560   6.490
41778SOL    HW125360   8.468   3.503   6.511
41778SOL    HW225361   8.339   3.520   6.413
41779SOL     OW25362   7.830   2.562   6.066
41779SOL    HW125363   7.875   2.472   6.063
41779SOL    HW225364   7.736   2.551   6.099
41780SOL     OW25365   8.995   2.084   7.315
41780SOL    HW125366   8.990   2.121   7.407
41780SOL    HW225367   8.923   2.015   7.303
41781SOL     OW25368   8.062   1.984   5.703
41781SOL    HW125369   8.160   1.962   5.710
41781SOL    HW225370   8.031   1.967   5.610
41782SOL     OW25371   8.229   2.126   7.335
41782SOL    HW125372   8.296   2.065   7.378
41782SOL    HW225373   8.156   2.145   7.400
41783SOL     OW25374   8.336   3.376   6.781
41783SOL    HW125375   8.313   3.351   6.687
41783SOL    HW225376   8.397   3.307   6.820
41784SOL     OW25377   8.799   2.452   7.019
41784SOL    HW125378   8.827   2.409   7.104
41784SOL    HW225379   8.824   2.548   7.020
41785SOL     OW25380   8.251   3.264   6.510
41785SOL    HW125381   8.341   3.278   6.468
41785SOL    HW225382   8.180   3.266   6.439
41786SOL     OW25383   8.370   2.365   6.485
41786SOL    HW125384   8.345   2.356   6.389
41786SOL    HW225385   8.418   2.283   6.516
41787SOL     OW25386   7.987   1.926   6.098
41787SOL    HW125387   7.906   1.927   6.156
41787SOL    HW225388   7.990   2.009   6.043
41788SOL     OW25389   8.882   3.050   5.627
41788SOL    HW125390   8.914   2.974   5.684
41788SOL    HW225391   8.790   3.077   5.657
41789SOL     OW25392   7.745   1.897   5.757
41789SOL    HW125393   7.794   1.981   5.736
41789SOL    HW225394   7.807   1.832   5.802
41790SOL     OW25395   8.383   2.098   6.066
41790SOL    HW125396   8.335   2.139   5.988
41790SOL    HW225397   8.482   2.096   6.047
41791SOL     OW25398   8.524   2.545   7.050
41791SOL    HW125399   8.444   2.484   7.053
41791SOL    HW225400   8.605   2.492   7.026
41792SOL     OW25401   8.675   3.432   6.379
41792SOL    HW125402   8.696   3.506   6.314
41792SOL    HW225403   8.743   3.432   6.452
41793SOL     OW25404   7.907   3.014   6.327
41793SOL    HW125405   7.836   2.987   6.392
41793SOL    HW225406   7.881   2.986   6.234
41794SOL     OW25407   8.719   3.659   6.177
41794SOL    HW125408   8.763   3.723   6.113
41794SOL    HW225409   8.669   3.711   6.247
41795SOL     OW25410   8.480   2.411   5.602
41795SOL    HW125411   8.439   2.493   5.563
41795SOL    HW225412   8.544   2.437   5.675
41796SOL     OW25413   7.526   2.418   6.972
41796SOL    HW125414   7.618   2.417   6.931
41796SOL    HW225415   7.520   2.492   7.039
41797SOL     OW25416   8.009   2.084   6.733
41797SOL    HW125417   8.047   2.000   6.770
41797SOL    HW225418   7.921   2.103   6.777
41798SOL     OW25419   8.314   2.316   6.228
41798SOL    HW125420   8.282   2.388   6.166
41798SOL    HW225421   8.338   2.235   6.175
41799SOL     OW25422   8.465   1.901   6.339
41799SOL    HW125423   8.393   1.906   6.270
41799SOL    HW225424   8.441   1.832   6.408
41800SOL     OW25425   8.877   3.035   6.453
41800SOL    HW125426   8.822   2.951   6.446
41800SOL    HW225427   8.903   3.064   6.361
41801SOL     OW25428   8.914   2.452   6.578
41801SOL    HW125429   8.884   2.357   6.585
41801SOL    HW225430   8.987   2.468   6.644
41802SOL     OW25431   9.305   2.695   5.963
41802SOL    HW125432   9.347   2.631   6.027
41802SOL    HW225433   9.267   2.644   5.885
41803SOL     OW25434   7.936   3.247   5.760
41803SOL    HW125435   7.849   3.232   5.807
41803SOL    HW225436   7.919   3.273   5.665
41804SOL     OW25437   9.112   3.142   6.243
41804SOL    HW125438   9.211   3.150   6.257
41804SOL    HW225439   9.067   3.226   6.274
41805SOL     OW25440   8.838   2.437   5.664
41805SOL    HW125441   8.784   2.416   5.745
41805SOL    HW225442   8.929   2.396   5.673
41806SOL     OW25443   7.975   2.118   5.914
41806SOL    HW125444   8.002   2.059   5.839
41806SOL    HW225445   7.975   2.213   5.883
41807SOL     OW25446   9.202   3.085   7.174
41807SOL    HW125447   9.293   3.046   7.161
41807SOL    HW225448   9.210   3.181   7.198
41808SOL     OW25449   8.512   3.209   6.926
41808SOL    HW125450   8.432   3.186   6.981
41808SOL    HW225451   8.595   3.183   6.975
41809SOL     OW25452   9.040   3.491   7.211
41809SOL    HW125453   9.067   3.525   7.121
41809SOL    HW225454   9.119   3.453   7.257
41810SOL     OW25455   8.559   3.057   6.686
41810SOL    HW125456   8.519   3.101   6.767
41810SOL    HW225457   8.518   3.094   6.603
41811SOL     OW25458   9.086   2.961   6.665
41811SOL    HW125459   9.091   3.042   6.724
41811SOL    HW225460   9.000   2.963   6.614
41812SOL     OW25461   8.363   1.951   6.988
41812SOL    HW125462   8.388   1.931   6.893
41812SOL    HW225463   8.435   2.007   7.030
41813SOL     OW25464   8.428   2.978   7.305
41813SOL    HW125465   8.329   2.984   7.315
41813SOL    HW225466   8.451   2.898   7.249
41814SOL     OW25467   8.153   2.912   5.954
41814SOL    HW125468   8.139   2.919   6.053
41814SOL    HW225469   8.237   2.861   5.936
41815SOL     OW25470   7.858   2.675   6.837
41815SOL    HW125471   7.944   2.687   6.887
41815SOL    HW225472   7.816   2.588   6.864
41816SOL     OW25473   8.722   2.248   6.848
41816SOL    HW125474   8.743   2.322   6.912
41816SOL    HW225475   8.633   2.265   6.805
41817SOL     OW25476   7.512   3.426   6.917
41817SOL    HW125477   7.466   3.508   6.883
41817SOL    HW225478   7.610   3.445   6.926
41818SOL     OW25479   7.815   2.962   6.087
41818SOL    HW125480   7.808   3.045   6.031
41818SOL    HW225481   7.819   2.882   6.027
41819SOL     OW25482   8.014   2.399   6.451
41819SOL    HW125483   8.026   2.465   6.377
41819SOL    HW225484   8.060   2.433   6.534
41820SOL     OW25485   8.700   3.210   5.974
41820SOL    HW125486   8.750   3.287   6.014
41820SOL    HW225487   8.605   3.212   6.006
41821SOL     OW25488   8.720   3.307   6.728
41821SOL    HW125489   8.767   3.320   6.815
41821SOL    HW225490   8.654   3.233   6.737
41822SOL     OW25491   9.030   2.501   6.058
41822SOL    HW125492   8.999   2.562   6.131
41822SOL    HW225493   9.080   2.553   5.989
41823SOL     OW25494   7.802   3.372   6.915
41823SOL    HW125495   7.781   3.328   6.828
41823SOL    HW225496   7.899   3.398   6.918
41824SOL     OW25497   7.850   2.613   7.184
41824SOL    HW125498   7.918   2.668   7.137
41824SOL    HW225499   7.890   2.525   7.211
41825SOL     OW25500   9.035   2.641   7.256
41825SOL    HW125501   8.943   2.679   7.251
41825SOL    HW225502   9.095   2.688   7.191
41826SOL     OW25503   8.461   1.967   7.356
41826SOL    HW125504   8.467   2.052   7.304
41826SOL    HW225505   8.493   1.891   7.299
41827SOL     OW25506   7.952   1.912   7.326
41827SOL    HW125507   7.910   1.855   7.256
41827SOL    HW225508   7.886   1.981   7.358
41828SOL     OW25509   8.021   2.732   6.615
41828SOL    HW125510   8.065   2.821   6.606
41828SOL    HW225511   7.958   2.732   6.692
41829SOL     OW25512   8.808   2.724   6.631
41829SOL    HW125513   8.733   2.724   6.565
41829SOL    HW225514   8.845   2.632   6.640
41830SOL     OW25515   8.657   2.387   5.861
41830SOL    HW125516   8.670   2.303   5.915
41830SOL    HW225517   8.628   2.461   5.921
41831SOL     OW25518   7.755   2.075   6.817
41831SOL    HW125519   7.732   2.112   6.907
41831SOL    HW225520   7.725   1.980   6.811
41832SOL     OW25521   7.485   3.172   6.868
41832SOL    HW125522   7.538   3.123   6.936
41832SOL    HW225523   7.507   3.270   6.873
41833SOL     OW25524   8.180   2.496   6.650
41833SOL    HW125525   8.239   2.470   6.574
41833SOL    HW225526   8.152   2.592   6.639
41834SOL     OW25527   9.176   2.797   7.440
41834SOL    HW125528   9.130   2.790   7.351
41834SOL    HW225529   9.114   2.841   7.506
41835SOL     OW25530   7.755   1.925   6.204
41835SOL    HW125531   7.744   2.019   6.237
41835SOL    HW225532   7.750   1.862   6.281
41836SOL     OW25533   9.070   2.229   5.960
41836SOL    HW125534   9.072   2.153   6.024
41836SOL    HW225535   9.022   2.306   6.000
41837SOL     OW25536   8.471   2.628   6.552
41837SOL    HW125537   8.486   2.649   6.648
41837SOL    HW225538   8.441   2.533   6.543
41838SOL     OW25539   8.428   3.435   7.286
41838SOL    HW125540   8.408   3.479   7.198
41838SOL    HW225541   8.467   3.344   7.270
41839SOL     OW25542   9.307   3.380   7.191
41839SOL    HW125543   9.321   3.407   7.096
41839SOL    HW225544   9.390   3.402   7.244
41840SOL     OW25545   7.798   2.760   7.390
41840SOL    HW125546   7.874   2.804   7.438
41840SOL    HW225547   7.833   2.713   7.308
41841SOL     OW25548   8.988   2.136   5.711
41841SOL    HW125549   8.927   2.061   5.734
41841SOL    HW225550   9.010   2.188   5.794
41842SOL     OW25551   8.751   2.700   5.628
41842SOL    HW125552   8.785   2.607   5.643
41842SOL    HW225553   8.769   2.727   5.533
41843SOL     OW25554   8.516   3.195   6.435
41843SOL    HW125555   8.523   3.111   6.380
41843SOL    HW225556   8.578   3.264   6.399
41844SOL     OW25557   7.767   2.672   6.535
41844SOL    HW125558   7.860   2.708   6.540
41844SOL    HW225559   7.761   2.587   6.587
41845SOL     OW25560   7.787   2.371   6.592
41845SOL    HW125561   7.735   2.288   6.575
41845SOL    HW225562   7.864   2.376   6.528
41846SOL     OW25563   8.586   2.242   7.264
41846SOL    HW125564   8.541   2.305   7.328
41846SOL    HW225565   8.679   2.273   7.247
41847SOL     OW25566   8.608   2.069   7.063
41847SOL    HW125567   8.608   2.133   7.140
41847SOL    HW225568   8.636   2.117   6.980
41848SOL     OW25569   7.456   3.188   5.786
41848SOL    HW125570   7.363   3.209   5.755
41848SOL    HW225571   7.466   3.089   5.799
41849SOL     OW25572   7.536   3.663   6.513
41849SOL    HW125573   7.494   3.577   6.486
41849SOL    HW225574   7.630   3.666   6.479
41850SOL     OW25575   7.952   3.430   6.496
41850SOL    HW125576   8.018   3.504   6.505
41850SOL    HW225577   7.996   3.351   6.454
41851SOL     OW25578   8.450   2.658   6.824
41851SOL    HW125579   8.491   2.626   6.910
41851SOL    HW225580   8.354   2.631   6.821
41852SOL     OW25581   7.488   2.406   6.700
41852SOL    HW125582   7.573   2.373   6.659
41852SOL    HW225583   7.501   2.421   6.798
41853SOL     OW25584   7.637   2.382   7.308
41853SOL    HW125585   7.696   2.342   7.238
41853SOL    HW225586   7.579   2.453   7.267
41854SOL     OW25587   8.817   2.812   7.246
41854SOL    HW125588   8.856   2.901   7.266
41854SOL    HW225589   8.827   2.792   7.149
41855SOL     OW25590   8.263   2.434   5.911
41855SOL    HW125591   8.270   2.345   5.865
41855SOL    HW225592   8.169   2.468   5.903
41856SOL     OW25593   9.105   2.466   6.792
41856SOL    HW125594   9.067   2.397   6.854
41856SOL    HW225595   9.187   2.430   6.748
41857SOL     OW25596   7.700   3.426   7.330
41857SOL    HW125597   7.670   3.483   7.406
41857SOL    HW225598   7.693   3.329   7.356
41858SOL     OW25599   8.119   2.326   6.855
41858SOL    HW125600   8.085   2.237   6.825
41858SOL    HW225601   8.145   2.380   6.775
41859SOL     OW25602   8.378   3.540   7.051
41859SOL    HW125603   8.354   3.522   6.956
41859SOL    HW225604   8.408   3.634   7.061
41860SOL     OW25605   7.921   2.362   5.777
41860SOL    HW125606   7.982   2.442   5.781
41860SOL    HW225607   7.826   2.393   5.784
41861SOL     OW25608   7.607   2.999   7.052
41861SOL    HW125609   7.629   2.938   7.128
41861SOL    HW225610   7.617   2.950   6.966
41862SOL     OW25611   8.795   2.921   6.820
41862SOL    HW125612   8.819   2.858   6.746
41862SOL    HW225613   8.705   2.961   6.802
41863SOL     OW25614   8.750   2.717   5.895
41863SOL    HW125615   8.664   2.686   5.937
41863SOL    HW225616   8.746   2.703   5.796
41864SOL     OW25617   9.207   3.609   6.740
41864SOL    HW125618   9.268   3.639   6.667
41864SOL    HW225619   9.169   3.520   6.718
41865SOL     OW25620   8.700   3.593   6.714
41865SOL    HW125621   8.784   3.598   6.660
41865SOL    HW225622   8.677   3.497   6.732
41866SOL     OW25623   7.531   3.120   6.608
41866SOL    HW125624   7.526   3.119   6.708
41866SOL    HW225625   7.448   3.079   6.570
41867SOL     OW25626   8.136   3.524   7.302
41867SOL    HW125627   8.080   3.605   7.311
41867SOL    HW225628   8.188   3.528   7.216
41868SOL     OW25629   9.174   1.997   6.109
41868SOL    HW125630   9.247   1.980   6.042
41868SOL    HW225631   9.143   1.910   6.147
41869SOL     OW25632   8.836   3.435   6.063
41869SOL    HW125633   8.903   3.447   5.989
41869SOL    HW225634   8.796   3.524   6.086
41870SOL     OW25635   7.578   3.656   7.437
41870SOL    HW125636   7.537   3.582   7.490
41870SOL    HW225637   7.642   3.707   7.495
41871SOL     OW25638   8.728   2.789   6.258
41871SOL    HW125639   8.788   2.708   6.260
41871SOL    HW225640   8.768   2.858   6.198
41872SOL     OW25641   8.278   3.135   7.008
41872SOL    HW125642   8.273   3.168   7.103
41872SOL    HW225643   8.192   3.154   6.962
41873SOL     OW25644   8.120   3.478   5.740
41873SOL    HW125645   8.129   3.488   5.641
41873SOL    HW225646   8.080   3.389   5.761
41874SOL     OW25647   9.098   3.582   6.980
41874SOL    HW125648   9.151   3.592   6.896
41874SOL    HW225649   9.071   3.672   7.014
41875SOL     OW25650   9.289   2.037   6.549
41875SOL    HW125651   9.328   1.952   6.513
41875SOL    HW225652   9.191   2.039   6.530
41876SOL     OW25653   7.711   2.188   6.306
41876SOL    HW125654   7.632   2.239   6.272
41876SOL    HW225655   7.702   2.173   6.404
41877SOL     OW25656   8.642   3.474   5.617
41877SOL    HW125657   8.648   3.381   5.654
41877SOL    HW225658   8.583   3.474   5.537
41878SOL     OW25659   8.270   2.864   6.958
41878SOL    HW125660   8.310   2.863   6.866
41878SOL    HW225661   8.280   2.956   6.998
41879SOL     OW25662   8.364   2.772   5.877
41879SOL    HW125663   8.427   2.810   5.809
41879SOL    HW225664   8.404   2.689   5.916
41880SOL     OW25665   8.952   3.469   5.630
41880SOL    HW125666   8.860   3.506   5.637
41880SOL    HW225667   8.990   3.489   5.540
41881SOL     OW25668   7.820   3.150   7.076
41881SOL    HW125669   7.807   3.243   7.042
41881SOL    HW225670   7.736   3.098   7.063
41882SOL     OW25671   9.062   3.154   6.875
41882SOL    HW125672   9.122   3.157   6.955
41882SOL    HW225673   8.987   3.218   6.888
41883SOL     OW25674   8.487   2.960   6.282
41883SOL    HW125675   8.417   2.913   6.336
41883SOL    HW225676   8.546   2.892   6.239
41884SOL     OW25677   8.462   2.098   6.557
41884SOL    HW125678   8.454   2.062   6.464
41884SOL    HW225679   8.460   2.022   6.622
41885SOL     OW25680   8.038   3.349   6.077
41885SOL    HW125681   8.080   3.291   6.007
41885SOL    HW225682   7.994   3.428   6.033
41886SOL     OW25683   9.157   2.247   6.967
41886SOL    HW125684   9.230   2.316   6.971
41886SOL    HW225685   9.185   2.172   6.908
41887SOL     OW25686   7.703   3.210   5.876
41887SOL    HW125687   7.607   3.211   5.849
41887SOL    HW225688   7.715   3.263   5.960
41888SOL     OW25689   7.553   2.875   7.312
41888SOL    HW125690   7.476   2.842   7.366
41888SOL    HW225691   7.638   2.845   7.354
41889SOL     OW25692   8.120   2.065   7.075
41889SOL    HW125693   8.210   2.049   7.035
41889SOL    HW225694   8.128   2.070   7.174
41890SOL     OW25695   7.523   2.207   5.619
41890SOL    HW125696   7.431   2.179   5.590
41890SOL    HW225697   7.554   2.284   5.563
41891SOL     OW25698   8.888   2.718   6.984
41891SOL    HW125699   8.831   2.770   6.921
41891SOL    HW225700   8.984   2.730   6.960
41892SOL     OW25701   7.520   2.028   5.904
41892SOL    HW125702   7.503   2.111   5.850
41892SOL    HW225703   7.610   1.991   5.882
41893SOL     OW25704   8.631   3.197   5.705
41893SOL    HW125705   8.532   3.186   5.707
41893SOL    HW225706   8.665   3.212   5.798
41894SOL     OW25707   8.061   2.704   7.017
41894SOL    HW125708   8.117   2.785   7.000
41894SOL    HW225709   8.120   2.624   7.020
41895SOL     OW25710   8.941   3.629   6.545
41895SOL    HW125711   8.974   3.693   6.476
41895SOL    HW225712   9.007   3.623   6.620
41896SOL     OW25713   8.164   2.427   7.294
41896SOL    HW125714   8.183   2.492   7.368
41896SOL    HW225715   8.224   2.347   7.303
41897SOL     OW25716   8.898   3.082   7.219
41897SOL    HW125717   8.889   3.072   7.318
41897SOL    HW225718   8.994   3.075   7.193
41898SOL     OW25719   7.838   3.603   7.146
41898SOL    HW125720   7.747   3.644   7.144
41898SOL    HW225721   7.831   3.509   7.178
41899SOL     OW25722   9.122   2.745   6.840
41899SOL    HW125723   9.095   2.656   6.803
41899SOL    HW225724   9.123   2.813   6.767
41900SOL     OW25725   8.673   2.187   6.035
41900SOL    HW125726   8.738   2.113   6.024
41900SOL    HW225727   8.693   2.237   6.119
41901SOL     OW25728   8.042   2.607   6.238
41901SOL    HW125729   8.092   2.692   6.219
41901SOL    HW225730   7.954   2.609   6.190
41902SOL     OW25731   9.225   2.204   7.228
41902SOL    HW125732   9.208   2.235   7.134
41902SOL    HW225733   9.141   2.167   7.266
41903SOL     OW25734   9.178   2.796   7.103
41903SOL    HW125735   9.216   2.887   7.118
41903SOL    HW225736   9.170   2.779   7.004
41904SOL     OW25737   8.307   3.236   5.602
41904SOL    HW125738   8.261   3.251   5.690
41904SOL    HW225739   8.351   3.321   5.572
41905SOL     OW25740   8.109   3.652   6.539
41905SOL    HW125741   8.063   3.740   6.526
41905SOL    HW225742   8.208   3.664   6.532
41906SOL     OW25743   8.307   2.818   6.447
41906SOL    HW125744   8.361   2.749   6.495
41906SOL    HW225745   8.275   2.887   6.513
41907SOL     OW25746   8.531   2.846   5.673
41907SOL    HW125747   8.508   2.899   5.591
41907SOL    HW225748   8.612   2.790   5.654
41908SOL     OW25749   9.309   3.431   6.437
41908SOL    HW125750   9.238   3.419   6.367
41908SOL    HW225751   9.310   3.352   6.497
41909SOL     OW25752   7.669   3.176   7.430
41909SOL    HW125753   7.604   3.103   7.409
41909SOL    HW225754   7.673   3.190   7.528
41910SOL     OW25755   7.527   3.102   6.239
41910SOL    HW125756   7.526   3.055   6.327
41910SOL    HW225757   7.609   3.074   6.188
41911SOL     OW25758   8.120   3.253   7.210
41911SOL    HW125759   8.042   3.203   7.248
41911SOL    HW225760   8.117   3.348   7.241
41912SOL     OW25761   9.272   2.054   6.813
41912SOL    HW125762   9.268   1.964   6.857
41912SOL    HW225763   9.275   2.043   6.714
41913SOL     OW25764   7.876   2.286   6.106
41913SOL    HW125765   7.906   2.214   6.044
41913SOL    HW225766   7.837   2.246   6.189
41914SOL     OW25767   9.153   3.349   6.690
41914SOL    HW125768   9.060   3.324   6.663
41914SOL    HW225769   9.179   3.299   6.772
41915SOL     OW25770   7.765   2.409   6.866
41915SOL    HW125771   7.803   2.350   6.938
41915SOL    HW225772   7.805   2.383   6.778
41916SOL     OW25773   8.260   3.448   6.273
41916SOL    HW125774   8.292   3.458   6.179
41916SOL    HW225775   8.181   3.386   6.275
41917SOL     OW25776   8.872   2.076   6.698
41917SOL    HW125777   8.924   2.011   6.753
41917SOL    HW225778   8.823   2.139   6.759
41918SOL     OW25779   8.449   1.896   6.740
41918SOL    HW125780   8.386   1.824   6.709
41918SOL    HW225781   8.542   1.860   6.740
41919SOL     OW25782   8.218   3.192   5.887
41919SOL    HW125783   8.172   3.105   5.904
41919SOL    HW225784   8.309   3.189   5.928
41920SOL     OW25785   8.066   3.429   6.870
41920SOL    HW125786   8.061   3.511   6.927
41920SOL    HW225787   8.155   3.426   6.825
41921SOL     OW25788   8.800   1.914   5.754
41921SOL    HW125789   8.835   1.873   5.670
41921SOL    HW225790   8.710   1.876   5.774
41922SOL     OW25791   8.748   2.315   6.277
41922SOL    HW125792   8.689   2.395   6.281
41922SOL    HW225793   8.763   2.280   6.370
41923SOL     OW25794   9.041   2.083   6.468
41923SOL    HW125795   8.957   2.082   6.522
41923SOL    HW225796   9.043   2.166   6.412
41924SOL     OW25797   7.487   2.939   5.886
41924SOL    HW125798   7.586   2.928   5.877
41924SOL    HW225799   7.447   2.853   5.918
41925SOL     OW25800   8.323   3.508   5.923
41925SOL    HW125801   8.246   3.473   5.869
41925SOL    HW225802   8.291   3.579   5.985
41926SOL     OW25803   7.678   2.490   7.561
41926SOL    HW125804   7.585   2.488   7.598
41926SOL    HW225805   7.679   2.451   7.469
41927SOL     OW25806   7.673   2.137   8.444
41927SOL    HW125807   7.708   2.120   8.536
41927SOL    HW225808   7.585   2.092   8.432
41928SOL     OW25809   7.467   2.230   8.095
41928SOL    HW125810   7.385   2.273   8.134
41928SOL    HW225811   7.439   2.157   8.032
41929SOL     OW25812   8.017   3.137   8.613
41929SOL    HW125813   7.924   3.130   8.576
41929SOL    HW225814   8.028   3.226   8.657
41930SOL     OW25815   9.003   3.373   8.151
41930SOL    HW125816   8.946   3.357   8.232
41930SOL    HW225817   8.944   3.383   8.071
41931SOL     OW25818   8.583   2.565   8.165
41931SOL    HW125819   8.640   2.643   8.140
41931SOL    HW225820   8.523   2.591   8.241
41932SOL     OW25821   9.203   2.469   7.679
41932SOL    HW125822   9.191   2.456   7.580
41932SOL    HW225823   9.173   2.388   7.728
41933SOL     OW25824   8.216   3.006   8.471
41933SOL    HW125825   8.138   3.023   8.531
41933SOL    HW225826   8.250   3.093   8.435
41934SOL     OW25827   8.298   2.660   9.271
41934SOL    HW125828   8.294   2.736   9.336
41934SOL    HW225829   8.320   2.696   9.180
41935SOL     OW25830   8.133   2.874   8.113
41935SOL    HW125831   8.202   2.858   8.183
41935SOL    HW225832   8.060   2.931   8.151
41936SOL     OW25833   8.134   3.023   9.251
41936SOL    HW125834   8.194   3.102   9.265
41936SOL    HW225835   8.048   3.054   9.210
41937SOL     OW25836   7.783   3.297   8.509
41937SOL    HW125837   7.705   3.266   8.456
41937SOL    HW225838   7.841   3.355   8.452
41938SOL     OW25839   8.908   3.367   8.787
41938SOL    HW125840   8.932   3.461   8.813
41938SOL    HW225841   8.892   3.313   8.869
41939SOL     OW25842   7.886   2.254   8.947
41939SOL    HW125843   7.968   2.198   8.956
41939SOL    HW225844   7.805   2.196   8.951
41940SOL     OW25845   9.051   2.309   8.185
41940SOL    HW125846   8.977   2.355   8.135
41940SOL    HW225847   9.102   2.377   8.238
41941SOL     OW25848   7.679   3.575   7.931
41941SOL    HW125849   7.713   3.652   7.985
41941SOL    HW225850   7.723   3.575   7.841
41942SOL     OW25851   8.575   3.203   9.138
41942SOL    HW125852   8.622   3.203   9.226
41942SOL    HW225853   8.527   3.116   9.127
41943SOL     OW25854   7.678   3.296   7.986
41943SOL    HW125855   7.652   3.392   7.986
41943SOL    HW225856   7.607   3.242   8.031
41944SOL     OW25857   7.688   2.953   8.334
41944SOL    HW125858   7.702   2.869   8.386
41944SOL    HW225859   7.633   3.017   8.389
41945SOL     OW25860   8.068   3.648   8.887
41945SOL    HW125861   7.976   3.631   8.922
41945SOL    HW225862   8.096   3.740   8.913
41946SOL     OW25863   8.054   2.826   7.571
41946SOL    HW125864   8.061   2.910   7.517
41946SOL    HW225865   8.100   2.839   7.659
41947SOL     OW25866   9.042   1.976   8.928
41947SOL    HW125867   9.024   2.043   8.856
41947SOL    HW225868   9.039   2.022   9.017
41948SOL     OW25869   7.570   2.505   8.011
41948SOL    HW125870   7.525   2.417   8.028
41948SOL    HW225871   7.569   2.559   8.095
41949SOL     OW25872   9.290   3.629   7.807
41949SOL    HW125873   9.344   3.600   7.887
41949SOL    HW225874   9.320   3.719   7.778
41950SOL     OW25875   7.475   3.458   7.565
41950SOL    HW125876   7.456   3.362   7.586
41950SOL    HW225877   7.442   3.516   7.640
41951SOL     OW25878   9.137   2.784   8.060
41951SOL    HW125879   9.232   2.755   8.068
41951SOL    HW225880   9.129   2.849   7.985
41952SOL     OW25881   9.089   2.970   7.880
41952SOL    HW125882   9.175   2.972   7.828
41952SOL    HW225883   9.103   3.017   7.968
41953SOL     OW25884   7.561   2.599   9.045
41953SOL    HW125885   7.649   2.586   9.090
41953SOL    HW225886   7.548   2.696   9.023
41954SOL     OW25887   8.061   3.227   8.174
41954SOL    HW125888   8.012   3.140   8.183
41954SOL    HW225889   8.038   3.270   8.087
41955SOL     OW25890   8.741   3.090   8.871
41955SOL    HW125891   8.778   3.017   8.813
41955SOL    HW225892   8.793   3.095   8.956
41956SOL     OW25893   8.257   1.866   7.950
41956SOL    HW125894   8.297   1.957   7.941
41956SOL    HW225895   8.157   1.874   7.956
41957SOL     OW25896   7.645   2.838   8.712
41957SOL    HW125897   7.734   2.793   8.698
41957SOL    HW225898   7.572   2.773   8.693
41958SOL     OW25899   8.973   2.861   7.638
41958SOL    HW125900   8.910   2.785   7.651
41958SOL    HW225901   9.021   2.879   7.724
41959SOL     OW25902   8.635   3.654   9.064
41959SOL    HW125903   8.659   3.714   8.988
41959SOL    HW225904   8.642   3.559   9.034
41960SOL     OW25905   7.765   2.113   9.249
41960SOL    HW125906   7.836   2.184   9.255
41960SOL    HW225907   7.677   2.152   9.277
41961SOL     OW25908   8.914   3.279   8.401
41961SOL    HW125909   8.855   3.285   8.481
41961SOL    HW225910   8.899   3.191   8.355
41962SOL     OW25911   9.115   3.576   8.020
41962SOL    HW125912   9.074   3.553   7.932
41962SOL    HW225913   9.097   3.502   8.085
41963SOL     OW25914   8.046   2.591   7.718
41963SOL    HW125915   8.070   2.660   7.650
41963SOL    HW225916   7.968   2.624   7.772
41964SOL     OW25917   8.729   2.207   8.392
41964SOL    HW125918   8.643   2.157   8.379
41964SOL    HW225919   8.791   2.153   8.448
41965SOL     OW25920   9.024   3.524   7.755
41965SOL    HW125921   9.113   3.570   7.758
41965SOL    HW225922   9.003   3.500   7.660
41966SOL     OW25923   8.255   2.467   8.913
41966SOL    HW125924   8.208   2.464   9.002
41966SOL    HW225925   8.204   2.412   8.847
41967SOL     OW25926   8.842   2.331   9.122
41967SOL    HW125927   8.822   2.374   9.210
41967SOL    HW225928   8.920   2.269   9.131
41968SOL     OW25929   8.421   2.752   9.020
41968SOL    HW125930   8.467   2.668   8.991
41968SOL    HW225931   8.365   2.786   8.945
41969SOL     OW25932   8.439   2.272   8.690
41969SOL    HW125933   8.362   2.306   8.744
41969SOL    HW225934   8.405   2.221   8.611
41970SOL     OW25935   8.489   2.563   7.877
41970SOL    HW125936   8.515   2.559   7.973
41970SOL    HW225937   8.404   2.512   7.863
41971SOL     OW25938   7.524   2.673   8.237
41971SOL    HW125939   7.623   2.661   8.246
41971SOL    HW225940   7.500   2.768   8.258
41972SOL     OW25941   7.578   3.683   9.019
41972SOL    HW125942   7.568   3.668   9.118
41972SOL    HW225943   7.492   3.719   8.983
41973SOL     OW25944   8.313   2.210   7.643
41973SOL    HW125945   8.372   2.273   7.594
41973SOL    HW225946   8.332   2.116   7.614
41974SOL     OW25947   9.167   2.447   9.279
41974SOL    HW125948   9.141   2.536   9.243
41974SOL    HW225949   9.165   2.379   9.206
41975SOL     OW25950   8.810   3.006   7.993
41975SOL    HW125951   8.893   2.977   7.945
41975SOL    HW225952   8.761   3.073   7.937
41976SOL     OW25953   7.998   2.058   8.333
41976SOL    HW125954   7.993   2.053   8.433
41976SOL    HW225955   8.000   2.154   8.304
41977SOL     OW25956   8.456   3.318   7.925
41977SOL    HW125957   8.410   3.390   7.873
41977SOL    HW225958   8.452   3.338   8.023
41978SOL     OW25959   7.799   3.663   8.301
41978SOL    HW125960   7.849   3.577   8.307
41978SOL    HW225961   7.864   3.740   8.298
41979SOL     OW25962   9.243   2.928   8.321
41979SOL    HW125963   9.181   2.913   8.245
41979SOL    HW225964   9.191   2.939   8.406
41980SOL     OW25965   8.675   3.412   8.954
41980SOL    HW125966   8.681   3.335   9.018
41980SOL    HW225967   8.623   3.386   8.874
41981SOL     OW25968   7.769   2.805   7.690
41981SOL    HW125969   7.851   2.844   7.648
41981SOL    HW225970   7.742   2.723   7.641
41982SOL     OW25971   8.906   2.597   8.176
41982SOL    HW125972   8.901   2.532   8.251
41982SOL    HW225973   8.986   2.656   8.189
41983SOL     OW25974   7.909   3.128   9.175
41983SOL    HW125975   7.859   3.129   9.089
41983SOL    HW225976   7.846   3.110   9.251
41984SOL     OW25977   8.559   3.638   7.685
41984SOL    HW125978   8.499   3.576   7.735
41984SOL    HW225979   8.590   3.594   7.600
41985SOL     OW25980   7.650   2.147   8.946
41985SOL    HW125981   7.570   2.207   8.933
41985SOL    HW225982   7.640   2.098   9.032
41986SOL     OW25983   9.080   3.239   7.529
41986SOL    HW125984   9.048   3.333   7.519
41986SOL    HW225985   9.004   3.176   7.517
41987SOL     OW25986   7.912   3.605   7.771
41987SOL    HW125987   7.945   3.644   7.857
41987SOL    HW225988   7.988   3.598   7.706
41988SOL     OW25989   8.848   1.969   7.874
41988SOL    HW125990   8.824   1.932   7.784
41988SOL    HW225991   8.947   1.985   7.878
41989SOL     OW25992   7.697   3.647   8.689
41989SOL    HW125993   7.754   3.582   8.739
41989SOL    HW225994   7.681   3.614   8.596
41990SOL     OW25995   8.388   3.560   8.352
41990SOL    HW125996   8.468   3.503   8.373
41990SOL    HW225997   8.339   3.520   8.275
41991SOL     OW25998   7.830   2.562   7.928
41991SOL    HW125999   7.875   2.472   7.925
41991SOL    HW226000   7.736   2.551   7.961
41992SOL     OW26001   8.995   2.084   9.177
41992SOL    HW126002   8.990   2.121   9.269
41992SOL    HW226003   8.923   2.015   9.165
41993SOL     OW26004   8.062   1.984   7.565
41993SOL    HW126005   8.160   1.962   7.572
41993SOL    HW226006   8.031   1.967   7.472
41994SOL     OW26007   8.229   2.126   9.197
41994SOL    HW126008   8.296   2.065   9.240
41994SOL    HW226009   8.156   2.145   9.262
41995SOL     OW26010   8.336   3.376   8.643
41995SOL    HW126011   8.313   3.351   8.549
41995SOL    HW226012   8.397   3.307   8.682
41996SOL     OW26013   8.799   2.452   8.881
41996SOL    HW126014   8.827   2.409   8.966
41996SOL    HW226015   8.824   2.548   8.882
41997SOL     OW26016   8.251   3.264   8.372
41997SOL    HW126017   8.341   3.278   8.330
41997SOL    HW226018   8.180   3.266   8.301
41998SOL     OW26019   8.370   2.365   8.347
41998SOL    HW126020   8.345   2.356   8.251
41998SOL    HW226021   8.418   2.283   8.378
41999SOL     OW26022   7.987   1.926   7.960
41999SOL    HW126023   7.906   1.927   8.018
41999SOL    HW226024   7.990   2.009   7.905
42000SOL     OW26025   8.882   3.050   7.489
42000SOL    HW126026   8.914   2.974   7.546
42000SOL    HW226027   8.790   3.077   7.519
42001SOL     OW26028   7.745   1.897   7.619
42001SOL    HW126029   7.794   1.981   7.598
42001SOL    HW226030   7.807   1.832   7.664
42002SOL     OW26031   8.383   2.098   7.928
42002SOL    HW126032   8.335   2.139   7.850
42002SOL    HW226033   8.482   2.096   7.909
42003SOL     OW26034   8.524   2.545   8.912
42003SOL    HW126035   8.444   2.484   8.915
42003SOL    HW226036   8.605   2.492   8.888
42004SOL     OW26037   8.675   3.432   8.241
42004SOL    HW126038   8.696   3.506   8.176
42004SOL    HW226039   8.743   3.432   8.314
42005SOL     OW26040   7.907   3.014   8.189
42005SOL    HW126041   7.836   2.987   8.254
42005SOL    HW226042   7.881   2.986   8.096
42006SOL     OW26043   8.719   3.659   8.039
42006SOL    HW126044   8.763   3.723   7.975
42006SOL    HW226045   8.669   3.711   8.109
42007SOL     OW26046   8.480   2.411   7.464
42007SOL    HW126047   8.439   2.493   7.425
42007SOL    HW226048   8.544   2.437   7.537
42008SOL     OW26049   7.526   2.418   8.834
42008SOL    HW126050   7.618   2.417   8.793
42008SOL    HW226051   7.520   2.492   8.901
42009SOL     OW26052   8.009   2.084   8.595
42009SOL    HW126053   8.047   2.000   8.632
42009SOL    HW226054   7.921   2.103   8.639
42010SOL     OW26055   8.314   2.316   8.090
42010SOL    HW126056   8.282   2.388   8.028
42010SOL    HW226057   8.338   2.235   8.037
42011SOL     OW26058   8.465   1.901   8.201
42011SOL    HW126059   8.393   1.906   8.132
42011SOL    HW226060   8.441   1.832   8.270
42012SOL     OW26061   8.877   3.035   8.315
42012SOL    HW126062   8.822   2.951   8.308
42012SOL    HW226063   8.903   3.064   8.223
42013SOL     OW26064   8.914   2.452   8.440
42013SOL    HW126065   8.884   2.357   8.447
42013SOL    HW226066   8.987   2.468   8.506
42014SOL     OW26067   9.305   2.695   7.825
42014SOL    HW126068   9.347   2.631   7.889
42014SOL    HW226069   9.267   2.644   7.747
42015SOL     OW26070   7.936   3.247   7.622
42015SOL    HW126071   7.849   3.232   7.669
42015SOL    HW226072   7.919   3.273   7.527
42016SOL     OW26073   9.112   3.142   8.105
42016SOL    HW126074   9.211   3.150   8.119
42016SOL    HW226075   9.067   3.226   8.136
42017SOL     OW26076   8.838   2.437   7.526
42017SOL    HW126077   8.784   2.416   7.607
42017SOL    HW226078   8.929   2.396   7.535
42018SOL     OW26079   7.975   2.118   7.776
42018SOL    HW126080   8.002   2.059   7.701
42018SOL    HW226081   7.975   2.213   7.745
42019SOL     OW26082   9.202   3.085   9.036
42019SOL    HW126083   9.293   3.046   9.023
42019SOL    HW226084   9.210   3.181   9.060
42020SOL     OW26085   8.512   3.209   8.788
42020SOL    HW126086   8.432   3.186   8.843
42020SOL    HW226087   8.595   3.183   8.837
42021SOL     OW26088   9.040   3.491   9.073
42021SOL    HW126089   9.067   3.525   8.983
42021SOL    HW226090   9.119   3.453   9.119
42022SOL     OW26091   8.559   3.057   8.548
42022SOL    HW126092   8.519   3.101   8.629
42022SOL    HW226093   8.518   3.094   8.465
42023SOL     OW26094   9.086   2.961   8.527
42023SOL    HW126095   9.091   3.042   8.586
42023SOL    HW226096   9.000   2.963   8.476
42024SOL     OW26097   8.363   1.951   8.850
42024SOL    HW126098   8.388   1.931   8.755
42024SOL    HW226099   8.435   2.007   8.892
42025SOL     OW26100   8.428   2.978   9.167
42025SOL    HW126101   8.329   2.984   9.177
42025SOL    HW226102   8.451   2.898   9.111
42026SOL     OW26103   8.153   2.912   7.816
42026SOL    HW126104   8.139   2.919   7.915
42026SOL    HW226105   8.237   2.861   7.798
42027SOL     OW26106   7.858   2.675   8.699
42027SOL    HW126107   7.944   2.687   8.749
42027SOL    HW226108   7.816   2.588   8.726
42028SOL     OW26109   8.722   2.248   8.710
42028SOL    HW126110   8.743   2.322   8.774
42028SOL    HW226111   8.633   2.265   8.667
42029SOL     OW26112   7.512   3.426   8.779
42029SOL    HW126113   7.466   3.508   8.745
42029SOL    HW226114   7.610   3.445   8.788
42030SOL     OW26115   7.815   2.962   7.949
42030SOL    HW126116   7.808   3.045   7.893
42030SOL    HW226117   7.819   2.882   7.889
42031SOL     OW26118   8.014   2.399   8.313
42031SOL    HW126119   8.026   2.465   8.239
42031SOL    HW226120   8.060   2.433   8.396
42032SOL     OW26121   8.700   3.210   7.836
42032SOL    HW126122   8.750   3.287   7.876
42032SOL    HW226123   8.605   3.212   7.868
42033SOL     OW26124   8.720   3.307   8.590
42033SOL    HW126125   8.767   3.320   8.677
42033SOL    HW226126   8.654   3.233   8.599
42034SOL     OW26127   9.030   2.501   7.920
42034SOL    HW126128   8.999   2.562   7.993
42034SOL    HW226129   9.080   2.553   7.851
42035SOL     OW26130   7.802   3.372   8.777
42035SOL    HW126131   7.781   3.328   8.690
42035SOL    HW226132   7.899   3.398   8.780
42036SOL     OW26133   7.850   2.613   9.046
42036SOL    HW126134   7.918   2.668   8.999
42036SOL    HW226135   7.890   2.525   9.073
42037SOL     OW26136   9.035   2.641   9.118
42037SOL    HW126137   8.943   2.679   9.113
42037SOL    HW226138   9.095   2.688   9.053
42038SOL     OW26139   8.461   1.967   9.218
42038SOL    HW126140   8.467   2.052   9.166
42038SOL    HW226141   8.493   1.891   9.161
42039SOL     OW26142   7.952   1.912   9.188
42039SOL    HW126143   7.910   1.855   9.118
42039SOL    HW226144   7.886   1.981   9.220
42040SOL     OW26145   8.021   2.732   8.477
42040SOL    HW126146   8.065   2.821   8.468
42040SOL    HW226147   7.958   2.732   8.554
42041SOL     OW26148   8.808   2.724   8.493
42041SOL    HW126149   8.733   2.724   8.427
42041SOL    HW226150   8.845   2.632   8.502
42042SOL     OW26151   8.657   2.387   7.723
42042SOL    HW126152   8.670   2.303   7.777
42042SOL    HW226153   8.628   2.461   7.783
42043SOL     OW26154   7.755   2.075   8.679
42043SOL    HW126155   7.732   2.112   8.769
42043SOL    HW226156   7.725   1.980   8.673
42044SOL     OW26157   7.485   3.172   8.730
42044SOL    HW126158   7.538   3.123   8.798
42044SOL    HW226159   7.507   3.270   8.735
42045SOL     OW26160   8.180   2.496   8.512
42045SOL    HW126161   8.239   2.470   8.436
42045SOL    HW226162   8.152   2.592   8.501
42046SOL     OW26163   9.176   2.797   9.302
42046SOL    HW126164   9.130   2.790   9.213
42046SOL    HW226165   9.114   2.841   9.368
42047SOL     OW26166   7.755   1.925   8.066
42047SOL    HW126167   7.744   2.019   8.099
42047SOL    HW226168   7.750   1.862   8.143
42048SOL     OW26169   9.070   2.229   7.822
42048SOL    HW126170   9.072   2.153   7.886
42048SOL    HW226171   9.022   2.306   7.862
42049SOL     OW26172   8.471   2.628   8.414
42049SOL    HW126173   8.486   2.649   8.510
42049SOL    HW226174   8.441   2.533   8.405
42050SOL     OW26175   8.428   3.435   9.148
42050SOL    HW126176   8.408   3.479   9.060
42050SOL    HW226177   8.467   3.344   9.132
42051SOL     OW26178   9.307   3.380   9.053
42051SOL    HW126179   9.321   3.407   8.958
42051SOL    HW226180   9.390   3.402   9.106
42052SOL     OW26181   7.798   2.760   9.252
42052SOL    HW126182   7.874   2.804   9.300
42052SOL    HW226183   7.833   2.713   9.170
42053SOL     OW26184   8.988   2.136   7.573
42053SOL    HW126185   8.927   2.061   7.596
42053SOL    HW226186   9.010   2.188   7.656
42054SOL     OW26187   8.751   2.700   7.490
42054SOL    HW126188   8.785   2.607   7.505
42054SOL    HW226189   8.769   2.727   7.395
42055SOL     OW26190   8.516   3.195   8.297
42055SOL    HW126191   8.523   3.111   8.242
42055SOL    HW226192   8.578   3.264   8.261
42056SOL     OW26193   7.767   2.672   8.397
42056SOL    HW126194   7.860   2.708   8.402
42056SOL    HW226195   7.761   2.587   8.449
42057SOL     OW26196   7.787   2.371   8.454
42057SOL    HW126197   7.735   2.288   8.437
42057SOL    HW226198   7.864   2.376   8.390
42058SOL     OW26199   8.586   2.242   9.126
42058SOL    HW126200   8.541   2.305   9.190
42058SOL    HW226201   8.679   2.273   9.109
42059SOL     OW26202   8.608   2.069   8.925
42059SOL    HW126203   8.608   2.133   9.002
42059SOL    HW226204   8.636   2.117   8.842
42060SOL     OW26205   7.456   3.188   7.648
42060SOL    HW126206   7.363   3.209   7.617
42060SOL    HW226207   7.466   3.089   7.661
42061SOL     OW26208   7.536   3.663   8.375
42061SOL    HW126209   7.494   3.577   8.348
42061SOL    HW226210   7.630   3.666   8.341
42062SOL     OW26211   7.952   3.430   8.358
42062SOL    HW126212   8.018   3.504   8.367
42062SOL    HW226213   7.996   3.351   8.316
42063SOL     OW26214   8.450   2.658   8.686
42063SOL    HW126215   8.491   2.626   8.772
42063SOL    HW226216   8.354   2.631   8.683
42064SOL     OW26217   7.488   2.406   8.562
42064SOL    HW126218   7.573   2.373   8.521
42064SOL    HW226219   7.501   2.421   8.660
42065SOL     OW26220   7.637   2.382   9.170
42065SOL    HW126221   7.696   2.342   9.100
42065SOL    HW226222   7.579   2.453   9.129
42066SOL     OW26223   8.817   2.812   9.108
42066SOL    HW126224   8.856   2.901   9.128
42066SOL    HW226225   8.827   2.792   9.011
42067SOL     OW26226   8.263   2.434   7.773
42067SOL    HW126227   8.270   2.345   7.727
42067SOL    HW226228   8.169   2.468   7.765
42068SOL     OW26229   9.105   2.466   8.654
42068SOL    HW126230   9.067   2.397   8.716
42068SOL    HW226231   9.187   2.430   8.610
42069SOL     OW26232   7.700   3.426   9.192
42069SOL    HW126233   7.670   3.483   9.268
42069SOL    HW226234   7.693   3.329   9.218
42070SOL     OW26235   8.119   2.326   8.717
42070SOL    HW126236   8.085   2.237   8.687
42070SOL    HW226237   8.145   2.380   8.637
42071SOL     OW26238   8.378   3.540   8.913
42071SOL    HW126239   8.354   3.522   8.818
42071SOL    HW226240   8.408   3.634   8.923
42072SOL     OW26241   7.921   2.362   7.639
42072SOL    HW126242   7.982   2.442   7.643
42072SOL    HW226243   7.826   2.393   7.646
42073SOL     OW26244   7.607   2.999   8.914
42073SOL    HW126245   7.629   2.938   8.990
42073SOL    HW226246   7.617   2.950   8.828
42074SOL     OW26247   8.795   2.921   8.682
42074SOL    HW126248   8.819   2.858   8.608
42074SOL    HW226249   8.705   2.961   8.664
42075SOL     OW26250   8.750   2.717   7.757
42075SOL    HW126251   8.664   2.686   7.799
42075SOL    HW226252   8.746   2.703   7.658
42076SOL     OW26253   9.207   3.609   8.602
42076SOL    HW126254   9.268   3.639   8.529
42076SOL    HW226255   9.169   3.520   8.580
42077SOL     OW26256   8.700   3.593   8.576
42077SOL    HW126257   8.784   3.598   8.522
42077SOL    HW226258   8.677   3.497   8.594
42078SOL     OW26259   7.531   3.120   8.470
42078SOL    HW126260   7.526   3.119   8.570
42078SOL    HW226261   7.448   3.079   8.432
42079SOL     OW26262   8.136   3.524   9.164
42079SOL    HW126263   8.080   3.605   9.173
42079SOL    HW226264   8.188   3.528   9.078
42080SOL     OW26265   9.174   1.997   7.971
42080SOL    HW126266   9.247   1.980   7.904
42080SOL    HW226267   9.143   1.910   8.009
42081SOL     OW26268   8.836   3.435   7.925
42081SOL    HW126269   8.903   3.447   7.851
42081SOL    HW226270   8.796   3.524   7.948
42082SOL     OW26271   7.578   3.656   9.299
42082SOL    HW126272   7.537   3.582   9.352
42082SOL    HW226273   7.642   3.707   9.357
42083SOL     OW26274   8.728   2.789   8.120
42083SOL    HW126275   8.788   2.708   8.122
42083SOL    HW226276   8.768   2.858   8.060
42084SOL     OW26277   8.278   3.135   8.870
42084SOL    HW126278   8.273   3.168   8.965
42084SOL    HW226279   8.192   3.154   8.824
42085SOL     OW26280   8.120   3.478   7.602
42085SOL    HW126281   8.129   3.488   7.503
42085SOL    HW226282   8.080   3.389   7.623
42086SOL     OW26283   9.098   3.582   8.842
42086SOL    HW126284   9.151   3.592   8.758
42086SOL    HW226285   9.071   3.672   8.876
42087SOL     OW26286   9.289   2.037   8.411
42087SOL    HW126287   9.328   1.952   8.375
42087SOL    HW226288   9.191   2.039   8.392
42088SOL     OW26289   7.711   2.188   8.168
42088SOL    HW126290   7.632   2.239   8.134
42088SOL    HW226291   7.702   2.173   8.266
42089SOL     OW26292   8.642   3.474   7.479
42089SOL    HW126293   8.648   3.381   7.516
42089SOL    HW226294   8.583   3.474   7.399
42090SOL     OW26295   8.270   2.864   8.820
42090SOL    HW126296   8.310   2.863   8.728
42090SOL    HW226297   8.280   2.956   8.860
42091SOL     OW26298   8.364   2.772   7.739
42091SOL    HW126299   8.427   2.810   7.671
42091SOL    HW226300   8.404   2.689   7.778
42092SOL     OW26301   8.952   3.469   7.492
42092SOL    HW126302   8.860   3.506   7.499
42092SOL    HW226303   8.990   3.489   7.402
42093SOL     OW26304   7.820   3.150   8.938
42093SOL    HW126305   7.807   3.243   8.904
42093SOL    HW226306   7.736   3.098   8.925
42094SOL     OW26307   9.062   3.154   8.737
42094SOL    HW126308   9.122   3.157   8.817
42094SOL    HW226309   8.987   3.218   8.750
42095SOL     OW26310   8.487   2.960   8.144
42095SOL    HW126311   8.417   2.913   8.198
42095SOL    HW226312   8.546   2.892   8.101
42096SOL     OW26313   8.462   2.098   8.419
42096SOL    HW126314   8.454   2.062   8.326
42096SOL    HW226315   8.460   2.022   8.484
42097SOL     OW26316   8.038   3.349   7.939
42097SOL    HW126317   8.080   3.291   7.869
42097SOL    HW226318   7.994   3.428   7.895
42098SOL     OW26319   9.157   2.247   8.829
42098SOL    HW126320   9.230   2.316   8.833
42098SOL    HW226321   9.185   2.172   8.770
42099SOL     OW26322   7.703   3.210   7.738
42099SOL    HW126323   7.607   3.211   7.711
42099SOL    HW226324   7.715   3.263   7.822
42100SOL     OW26325   7.553   2.875   9.174
42100SOL    HW126326   7.476   2.842   9.228
42100SOL    HW226327   7.638   2.845   9.216
42101SOL     OW26328   8.120   2.065   8.937
42101SOL    HW126329   8.210   2.049   8.897
42101SOL    HW226330   8.128   2.070   9.036
42102SOL     OW26331   7.523   2.207   7.481
42102SOL    HW126332   7.431   2.179   7.452
42102SOL    HW226333   7.554   2.284   7.425
42103SOL     OW26334   8.888   2.718   8.846
42103SOL    HW126335   8.831   2.770   8.783
42103SOL    HW226336   8.984   2.730   8.822
42104SOL     OW26337   7.520   2.028   7.766
42104SOL    HW126338   7.503   2.111   7.712
42104SOL    HW226339   7.610   1.991   7.744
42105SOL     OW26340   8.631   3.197   7.567
42105SOL    HW126341   8.532   3.186   7.569
42105SOL    HW226342   8.665   3.212   7.660
42106SOL     OW26343   8.061   2.704   8.879
42106SOL    HW126344   8.117   2.785   8.862
42106SOL    HW226345   8.120   2.624   8.882
42107SOL     OW26346   8.941   3.629   8.407
42107SOL    HW126347   8.974   3.693   8.338
42107SOL    HW226348   9.007   3.623   8.482
42108SOL     OW26349   8.164   2.427   9.156
42108SOL    HW126350   8.183   2.492   9.230
42108SOL    HW226351   8.224   2.347   9.165
42109SOL     OW26352   8.898   3.082   9.081
42109SOL    HW126353   8.889   3.072   9.180
42109SOL    HW226354   8.994   3.075   9.055
42110SOL     OW26355   7.838   3.603   9.008
42110SOL    HW126356   7.747   3.644   9.006
42110SOL    HW226357   7.831   3.509   9.040
42111SOL     OW26358   9.122   2.745   8.702
42111SOL    HW126359   9.095   2.656   8.665
42111SOL    HW226360   9.123   2.813   8.629
42112SOL     OW26361   8.673   2.187   7.897
42112SOL    HW126362   8.738   2.113   7.886
42112SOL    HW226363   8.693   2.237   7.981
42113SOL     OW26364   8.042   2.607   8.100
42113SOL    HW126365   8.092   2.692   8.081
42113SOL    HW226366   7.954   2.609   8.052
42114SOL     OW26367   9.225   2.204   9.090
42114SOL    HW126368   9.208   2.235   8.996
42114SOL    HW226369   9.141   2.167   9.128
42115SOL     OW26370   9.178   2.796   8.965
42115SOL    HW126371   9.216   2.887   8.980
42115SOL    HW226372   9.170   2.779   8.866
42116SOL     OW26373   8.307   3.236   7.464
42116SOL    HW126374   8.261   3.251   7.552
42116SOL    HW226375   8.351   3.321   7.434
42117SOL     OW26376   8.109   3.652   8.401
42117SOL    HW126377   8.063   3.740   8.388
42117SOL    HW226378   8.208   3.664   8.394
42118SOL     OW26379   8.307   2.818   8.309
42118SOL    HW126380   8.361   2.749   8.357
42118SOL    HW226381   8.275   2.887   8.375
42119SOL     OW26382   8.531   2.846   7.535
42119SOL    HW126383   8.508   2.899   7.453
42119SOL    HW226384   8.612   2.790   7.516
42120SOL     OW26385   9.309   3.431   8.299
42120SOL    HW126386   9.238   3.419   8.229
42120SOL    HW226387   9.310   3.352   8.359
42121SOL     OW26388   7.669   3.176   9.292
42121SOL    HW126389   7.604   3.103   9.271
42121SOL    HW226390   7.673   3.190   9.390
42122SOL     OW26391   7.527   3.102   8.101
42122SOL    HW126392   7.526   3.055   8.189
42122SOL    HW226393   7.609   3.074   8.050
42123SOL     OW26394   8.120   3.253   9.072
42123SOL    HW126395   8.042   3.203   9.110
42123SOL    HW226396   8.117   3.348   9.103
42124SOL     OW26397   9.272   2.054   8.675
42124SOL    HW126398   9.268   1.964   8.719
42124SOL    HW226399   9.275   2.043   8.576
42125SOL     OW26400   7.876   2.286   7.968
42125SOL    HW126401   7.906   2.214   7.906
42125SOL    HW226402   7.837   2.246   8.051
42126SOL     OW26403   9.153   3.349   8.552
42126SOL    HW126404   9.060   3.324   8.525
42126SOL    HW226405   9.179   3.299   8.634
42127SOL     OW26406   7.765   2.409   8.728
42127SOL    HW126407   7.803   2.350   8.800
42127SOL    HW226408   7.805   2.383   8.640
42128SOL     OW26409   8.260   3.448   8.135
42128SOL    HW126410   8.292   3.458   8.041
42128SOL    HW226411   8.181   3.386   8.137
42129SOL     OW26412   8.872   2.076   8.560
42129SOL    HW126413   8.924   2.011   8.615
42129SOL    HW226414   8.823   2.139   8.621
42130SOL     OW26415   8.449   1.896   8.602
42130SOL    HW126416   8.386   1.824   8.571
42130SOL    HW226417   8.542   1.860   8.602
42131SOL     OW26418   8.218   3.192   7.749
42131SOL    HW126419   8.172   3.105   7.766
42131SOL    HW226420   8.309   3.189   7.790
42132SOL     OW26421   8.066   3.429   8.732
42132SOL    HW126422   8.061   3.511   8.789
42132SOL    HW226423   8.155   3.426   8.687
42133SOL     OW26424   8.800   1.914   7.616
42133SOL    HW126425   8.835   1.873   7.532
42133SOL    HW226426   8.710   1.876   7.636
42134SOL     OW26427   8.748   2.315   8.139
42134SOL    HW126428   8.689   2.395   8.143
42134SOL    HW226429   8.763   2.280   8.232
42135SOL     OW26430   9.041   2.083   8.330
42135SOL    HW126431   8.957   2.082   8.384
42135SOL    HW226432   9.043   2.166   8.274
42136SOL     OW26433   7.487   2.939   7.748
42136SOL    HW126434   7.586   2.928   7.739
42136SOL    HW226435   7.447   2.853   7.780
42137SOL     OW26436   8.323   3.508   7.785
42137SOL    HW126437   8.246   3.473   7.731
42137SOL    HW226438   8.291   3.579   7.847
42138SOL     OW26439   7.678   2.490   9.423
42138SOL    HW126440   7.585   2.488   9.460
42138SOL    HW226441   7.679   2.451   9.331
42139SOL     OW26442   7.673   2.137  10.306
42139SOL    HW126443   7.708   2.120  10.398
42139SOL    HW226444   7.585   2.092  10.294
42140SOL     OW26445   7.467   2.230   9.957
42140SOL    HW126446   7.385   2.273   9.996
42140SOL    HW226447   7.439   2.157   9.894
42141SOL     OW26448   8.017   3.137  10.475
42141SOL    HW126449   7.924   3.130  10.438
42141SOL    HW226450   8.028   3.226  10.519
42142SOL     OW26451   9.003   3.373  10.013
42142SOL    HW126452   8.946   3.357  10.094
42142SOL    HW226453   8.944   3.383   9.933
42143SOL     OW26454   8.583   2.565  10.027
42143SOL    HW126455   8.640   2.643  10.002
42143SOL    HW226456   8.523   2.591  10.103
42144SOL     OW26457   9.203   2.469   9.541
42144SOL    HW126458   9.191   2.456   9.442
42144SOL    HW226459   9.173   2.388   9.590
42145SOL     OW26460   8.216   3.006  10.333
42145SOL    HW126461   8.138   3.023  10.393
42145SOL    HW226462   8.250   3.093  10.297
42146SOL     OW26463   8.298   2.660  11.133
42146SOL    HW126464   8.294   2.736  11.198
42146SOL    HW226465   8.320   2.696  11.042
42147SOL     OW26466   8.133   2.874   9.975
42147SOL    HW126467   8.202   2.858  10.045
42147SOL    HW226468   8.060   2.931  10.013
42148SOL     OW26469   8.134   3.023  11.113
42148SOL    HW126470   8.194   3.102  11.127
42148SOL    HW226471   8.048   3.054  11.072
42149SOL     OW26472   7.783   3.297  10.371
42149SOL    HW126473   7.705   3.266  10.318
42149SOL    HW226474   7.841   3.355  10.314
42150SOL     OW26475   8.908   3.367  10.649
42150SOL    HW126476   8.932   3.461  10.675
42150SOL    HW226477   8.892   3.313  10.731
42151SOL     OW26478   7.886   2.254  10.809
42151SOL    HW126479   7.968   2.198  10.818
42151SOL    HW226480   7.805   2.196  10.813
42152SOL     OW26481   9.051   2.309  10.047
42152SOL    HW126482   8.977   2.355   9.997
42152SOL    HW226483   9.102   2.377  10.100
42153SOL     OW26484   7.679   3.575   9.793
42153SOL    HW126485   7.713   3.652   9.847
42153SOL    HW226486   7.723   3.575   9.703
42154SOL     OW26487   8.575   3.203  11.000
42154SOL    HW126488   8.622   3.203  11.088
42154SOL    HW226489   8.527   3.116  10.989
42155SOL     OW26490   7.678   3.296   9.848
42155SOL    HW126491   7.652   3.392   9.848
42155SOL    HW226492   7.607   3.242   9.893
42156SOL     OW26493   7.688   2.953  10.196
42156SOL    HW126494   7.702   2.869  10.248
42156SOL    HW226495   7.633   3.017  10.251
42157SOL     OW26496   8.068   3.648  10.749
42157SOL    HW126497   7.976   3.631  10.784
42157SOL    HW226498   8.096   3.740  10.775
42158SOL     OW26499   8.054   2.826   9.433
42158SOL    HW126500   8.061   2.910   9.379
42158SOL    HW226501   8.100   2.839   9.521
42159SOL     OW26502   9.042   1.976  10.790
42159SOL    HW126503   9.024   2.043  10.718
42159SOL    HW226504   9.039   2.022  10.879
42160SOL     OW26505   7.570   2.505   9.873
42160SOL    HW126506   7.525   2.417   9.890
42160SOL    HW226507   7.569   2.559   9.957
42161SOL     OW26508   9.290   3.629   9.669
42161SOL    HW126509   9.344   3.600   9.749
42161SOL    HW226510   9.320   3.719   9.640
42162SOL     OW26511   7.475   3.458   9.427
42162SOL    HW126512   7.456   3.362   9.448
42162SOL    HW226513   7.442   3.516   9.502
42163SOL     OW26514   9.137   2.784   9.922
42163SOL    HW126515   9.232   2.755   9.930
42163SOL    HW226516   9.129   2.849   9.847
42164SOL     OW26517   9.089   2.970   9.742
42164SOL    HW126518   9.175   2.972   9.690
42164SOL    HW226519   9.103   3.017   9.830
42165SOL     OW26520   7.561   2.599  10.907
42165SOL    HW126521   7.649   2.586  10.952
42165SOL    HW226522   7.548   2.696  10.885
42166SOL     OW26523   8.061   3.227  10.036
42166SOL    HW126524   8.012   3.140  10.045
42166SOL    HW226525   8.038   3.270   9.949
42167SOL     OW26526   8.741   3.090  10.733
42167SOL    HW126527   8.778   3.017  10.675
42167SOL    HW226528   8.793   3.095  10.818
42168SOL     OW26529   8.257   1.866   9.812
42168SOL    HW126530   8.297   1.957   9.803
42168SOL    HW226531   8.157   1.874   9.818
42169SOL     OW26532   7.645   2.838  10.574
42169SOL    HW126533   7.734   2.793  10.560
42169SOL    HW226534   7.572   2.773  10.555
42170SOL     OW26535   8.973   2.861   9.500
42170SOL    HW126536   8.910   2.785   9.513
42170SOL    HW226537   9.021   2.879   9.586
42171SOL     OW26538   8.635   3.654  10.926
42171SOL    HW126539   8.659   3.714  10.850
42171SOL    HW226540   8.642   3.559  10.896
42172SOL     OW26541   7.765   2.113  11.111
42172SOL    HW126542   7.836   2.184  11.117
42172SOL    HW226543   7.677   2.152  11.139
42173SOL     OW26544   8.914   3.279  10.263
42173SOL    HW126545   8.855   3.285  10.343
42173SOL    HW226546   8.899   3.191  10.217
42174SOL     OW26547   9.115   3.576   9.882
42174SOL    HW126548   9.074   3.553   9.794
42174SOL    HW226549   9.097   3.502   9.947
42175SOL     OW26550   8.046   2.591   9.580
42175SOL    HW126551   8.070   2.660   9.512
42175SOL    HW226552   7.968   2.624   9.634
42176SOL     OW26553   8.729   2.207  10.254
42176SOL    HW126554   8.643   2.157  10.241
42176SOL    HW226555   8.791   2.153  10.310
42177SOL     OW26556   9.024   3.524   9.617
42177SOL    HW126557   9.113   3.570   9.620
42177SOL    HW226558   9.003   3.500   9.522
42178SOL     OW26559   8.255   2.467  10.775
42178SOL    HW126560   8.208   2.464  10.864
42178SOL    HW226561   8.204   2.412  10.709
42179SOL     OW26562   8.842   2.331  10.984
42179SOL    HW126563   8.822   2.374  11.072
42179SOL    HW226564   8.920   2.269  10.993
42180SOL     OW26565   8.421   2.752  10.882
42180SOL    HW126566   8.467   2.668  10.853
42180SOL    HW226567   8.365   2.786  10.807
42181SOL     OW26568   8.439   2.272  10.552
42181SOL    HW126569   8.362   2.306  10.606
42181SOL    HW226570   8.405   2.221  10.473
42182SOL     OW26571   8.489   2.563   9.739
42182SOL    HW126572   8.515   2.559   9.835
42182SOL    HW226573   8.404   2.512   9.725
42183SOL     OW26574   7.524   2.673  10.099
42183SOL    HW126575   7.623   2.661  10.108
42183SOL    HW226576   7.500   2.768  10.120
42184SOL     OW26577   7.578   3.683  10.881
42184SOL    HW126578   7.568   3.668  10.980
42184SOL    HW226579   7.492   3.719  10.845
42185SOL     OW26580   8.313   2.210   9.505
42185SOL    HW126581   8.372   2.273   9.456
42185SOL    HW226582   8.332   2.116   9.476
42186SOL     OW26583   9.167   2.447  11.141
42186SOL    HW126584   9.141   2.536  11.105
42186SOL    HW226585   9.165   2.379  11.068
42187SOL     OW26586   8.810   3.006   9.855
42187SOL    HW126587   8.893   2.977   9.807
42187SOL    HW226588   8.761   3.073   9.799
42188SOL     OW26589   7.998   2.058  10.195
42188SOL    HW126590   7.993   2.053  10.295
42188SOL    HW226591   8.000   2.154  10.166
42189SOL     OW26592   8.456   3.318   9.787
42189SOL    HW126593   8.410   3.390   9.735
42189SOL    HW226594   8.452   3.338   9.885
42190SOL     OW26595   7.799   3.663  10.163
42190SOL    HW126596   7.849   3.577  10.169
42190SOL    HW226597   7.864   3.740  10.160
42191SOL     OW26598   9.243   2.928  10.183
42191SOL    HW126599   9.181   2.913  10.107
42191SOL    HW226600   9.191   2.939  10.268
42192SOL     OW26601   8.675   3.412  10.816
42192SOL    HW126602   8.681   3.335  10.880
42192SOL    HW226603   8.623   3.386  10.736
42193SOL     OW26604   7.769   2.805   9.552
42193SOL    HW126605   7.851   2.844   9.510
42193SOL    HW226606   7.742   2.723   9.503
42194SOL     OW26607   8.906   2.597  10.038
42194SOL    HW126608   8.901   2.532  10.113
42194SOL    HW226609   8.986   2.656  10.051
42195SOL     OW26610   7.909   3.128  11.037
42195SOL    HW126611   7.859   3.129  10.951
42195SOL    HW226612   7.846   3.110  11.113
42196SOL     OW26613   8.559   3.638   9.547
42196SOL    HW126614   8.499   3.576   9.597
42196SOL    HW226615   8.590   3.594   9.462
42197SOL     OW26616   7.650   2.147  10.808
42197SOL    HW126617   7.570   2.207  10.795
42197SOL    HW226618   7.640   2.098  10.894
42198SOL     OW26619   9.080   3.239   9.391
42198SOL    HW126620   9.048   3.333   9.381
42198SOL    HW226621   9.004   3.176   9.379
42199SOL     OW26622   7.912   3.605   9.633
42199SOL    HW126623   7.945   3.644   9.719
42199SOL    HW226624   7.988   3.598   9.568
42200SOL     OW26625   8.848   1.969   9.736
42200SOL    HW126626   8.824   1.932   9.646
42200SOL    HW226627   8.947   1.985   9.740
42201SOL     OW26628   7.697   3.647  10.551
42201SOL    HW126629   7.754   3.582  10.601
42201SOL    HW226630   7.681   3.614  10.458
42202SOL     OW26631   8.388   3.560  10.214
42202SOL    HW126632   8.468   3.503  10.235
42202SOL    HW226633   8.339   3.520  10.137
42203SOL     OW26634   7.830   2.562   9.790
42203SOL    HW126635   7.875   2.472   9.787
42203SOL    HW226636   7.736   2.551   9.823
42204SOL     OW26637   8.995   2.084  11.039
42204SOL    HW126638   8.990   2.121  11.131
42204SOL    HW226639   8.923   2.015  11.027
42205SOL     OW26640   8.062   1.984   9.427
42205SOL    HW126641   8.160   1.962   9.434
42205SOL    HW226642   8.031   1.967   9.334
42206SOL     OW26643   8.229   2.126  11.059
42206SOL    HW126644   8.296   2.065  11.102
42206SOL    HW226645   8.156   2.145  11.124
42207SOL     OW26646   8.336   3.376  10.505
42207SOL    HW126647   8.313   3.351  10.411
42207SOL    HW226648   8.397   3.307  10.544
42208SOL     OW26649   8.799   2.452  10.743
42208SOL    HW126650   8.827   2.409  10.828
42208SOL    HW226651   8.824   2.548  10.744
42209SOL     OW26652   8.251   3.264  10.234
42209SOL    HW126653   8.341   3.278  10.192
42209SOL    HW226654   8.180   3.266  10.163
42210SOL     OW26655   8.370   2.365  10.209
42210SOL    HW126656   8.345   2.356  10.113
42210SOL    HW226657   8.418   2.283  10.240
42211SOL     OW26658   7.987   1.926   9.822
42211SOL    HW126659   7.906   1.927   9.880
42211SOL    HW226660   7.990   2.009   9.767
42212SOL     OW26661   8.882   3.050   9.351
42212SOL    HW126662   8.914   2.974   9.408
42212SOL    HW226663   8.790   3.077   9.381
42213SOL     OW26664   7.745   1.897   9.481
42213SOL    HW126665   7.794   1.981   9.460
42213SOL    HW226666   7.807   1.832   9.526
42214SOL     OW26667   8.383   2.098   9.790
42214SOL    HW126668   8.335   2.139   9.712
42214SOL    HW226669   8.482   2.096   9.771
42215SOL     OW26670   8.524   2.545  10.774
42215SOL    HW126671   8.444   2.484  10.777
42215SOL    HW226672   8.605   2.492  10.750
42216SOL     OW26673   8.675   3.432  10.103
42216SOL    HW126674   8.696   3.506  10.038
42216SOL    HW226675   8.743   3.432  10.176
42217SOL     OW26676   7.907   3.014  10.051
42217SOL    HW126677   7.836   2.987  10.116
42217SOL    HW226678   7.881   2.986   9.958
42218SOL     OW26679   8.719   3.659   9.901
42218SOL    HW126680   8.763   3.723   9.837
42218SOL    HW226681   8.669   3.711   9.971
42219SOL     OW26682   8.480   2.411   9.326
42219SOL    HW126683   8.439   2.493   9.287
42219SOL    HW226684   8.544   2.437   9.399
42220SOL     OW26685   7.526   2.418  10.696
42220SOL    HW126686   7.618   2.417  10.655
42220SOL    HW226687   7.520   2.492  10.763
42221SOL     OW26688   8.009   2.084  10.457
42221SOL    HW126689   8.047   2.000  10.494
42221SOL    HW226690   7.921   2.103  10.501
42222SOL     OW26691   8.314   2.316   9.952
42222SOL    HW126692   8.282   2.388   9.890
42222SOL    HW226693   8.338   2.235   9.899
42223SOL     OW26694   8.465   1.901  10.063
42223SOL    HW126695   8.393   1.906   9.994
42223SOL    HW226696   8.441   1.832  10.132
42224SOL     OW26697   8.877   3.035  10.177
42224SOL    HW126698   8.822   2.951  10.170
42224SOL    HW226699   8.903   3.064  10.085
42225SOL     OW26700   8.914   2.452  10.302
42225SOL    HW126701   8.884   2.357  10.309
42225SOL    HW226702   8.987   2.468  10.368
42226SOL     OW26703   9.305   2.695   9.687
42226SOL    HW126704   9.347   2.631   9.751
42226SOL    HW226705   9.267   2.644   9.609
42227SOL     OW26706   7.936   3.247   9.484
42227SOL    HW126707   7.849   3.232   9.531
42227SOL    HW226708   7.919   3.273   9.389
42228SOL     OW26709   9.112   3.142   9.967
42228SOL    HW126710   9.211   3.150   9.981
42228SOL    HW226711   9.067   3.226   9.998
42229SOL     OW26712   8.838   2.437   9.388
42229SOL    HW126713   8.784   2.416   9.469
42229SOL    HW226714   8.929   2.396   9.397
42230SOL     OW26715   7.975   2.118   9.638
42230SOL    HW126716   8.002   2.059   9.563
42230SOL    HW226717   7.975   2.213   9.607
42231SOL     OW26718   9.202   3.085  10.898
42231SOL    HW126719   9.293   3.046  10.885
42231SOL    HW226720   9.210   3.181  10.922
42232SOL     OW26721   8.512   3.209  10.650
42232SOL    HW126722   8.432   3.186  10.705
42232SOL    HW226723   8.595   3.183  10.699
42233SOL     OW26724   9.040   3.491  10.935
42233SOL    HW126725   9.067   3.525  10.845
42233SOL    HW226726   9.119   3.453  10.981
42234SOL     OW26727   8.559   3.057  10.410
42234SOL    HW126728   8.519   3.101  10.491
42234SOL    HW226729   8.518   3.094  10.327
42235SOL     OW26730   9.086   2.961  10.389
42235SOL    HW126731   9.091   3.042  10.448
42235SOL    HW226732   9.000   2.963  10.338
42236SOL     OW26733   8.363   1.951  10.712
42236SOL    HW126734   8.388   1.931  10.617
42236SOL    HW226735   8.435   2.007  10.754
42237SOL     OW26736   8.428   2.978  11.029
42237SOL    HW126737   8.329   2.984  11.039
42237SOL    HW226738   8.451   2.898  10.973
42238SOL     OW26739   8.153   2.912   9.678
42238SOL    HW126740   8.139   2.919   9.777
42238SOL    HW226741   8.237   2.861   9.660
42239SOL     OW26742   7.858   2.675  10.561
42239SOL    HW126743   7.944   2.687  10.611
42239SOL    HW226744   7.816   2.588  10.588
42240SOL     OW26745   8.722   2.248  10.572
42240SOL    HW126746   8.743   2.322  10.636
42240SOL    HW226747   8.633   2.265  10.529
42241SOL     OW26748   7.512   3.426  10.641
42241SOL    HW126749   7.466   3.508  10.607
42241SOL    HW226750   7.610   3.445  10.650
42242SOL     OW26751   7.815   2.962   9.811
42242SOL    HW126752   7.808   3.045   9.755
42242SOL    HW226753   7.819   2.882   9.751
42243SOL     OW26754   8.014   2.399  10.175
42243SOL    HW126755   8.026   2.465  10.101
42243SOL    HW226756   8.060   2.433  10.258
42244SOL     OW26757   8.700   3.210   9.698
42244SOL    HW126758   8.750   3.287   9.738
42244SOL    HW226759   8.605   3.212   9.730
42245SOL     OW26760   8.720   3.307  10.452
42245SOL    HW126761   8.767   3.320  10.539
42245SOL    HW226762   8.654   3.233  10.461
42246SOL     OW26763   9.030   2.501   9.782
42246SOL    HW126764   8.999   2.562   9.855
42246SOL    HW226765   9.080   2.553   9.713
42247SOL     OW26766   7.802   3.372  10.639
42247SOL    HW126767   7.781   3.328  10.552
42247SOL    HW226768   7.899   3.398  10.642
42248SOL     OW26769   7.850   2.613  10.908
42248SOL    HW126770   7.918   2.668  10.861
42248SOL    HW226771   7.890   2.525  10.935
42249SOL     OW26772   9.035   2.641  10.980
42249SOL    HW126773   8.943   2.679  10.975
42249SOL    HW226774   9.095   2.688  10.915
42250SOL     OW26775   8.461   1.967  11.080
42250SOL    HW126776   8.467   2.052  11.028
42250SOL    HW226777   8.493   1.891  11.023
42251SOL     OW26778   7.952   1.912  11.050
42251SOL    HW126779   7.910   1.855  10.980
42251SOL    HW226780   7.886   1.981  11.082
42252SOL     OW26781   8.021   2.732  10.339
42252SOL    HW126782   8.065   2.821  10.330
42252SOL    HW226783   7.958   2.732  10.416
42253SOL     OW26784   8.808   2.724  10.355
42253SOL    HW126785   8.733   2.724  10.289
42253SOL    HW226786   8.845   2.632  10.364
42254SOL     OW26787   8.657   2.387   9.585
42254SOL    HW126788   8.670   2.303   9.639
42254SOL    HW226789   8.628   2.461   9.645
42255SOL     OW26790   7.755   2.075  10.541
42255SOL    HW126791   7.732   2.112  10.631
42255SOL    HW226792   7.725   1.980  10.535
42256SOL     OW26793   7.485   3.172  10.592
42256SOL    HW126794   7.538   3.123  10.660
42256SOL    HW226795   7.507   3.270  10.597
42257SOL     OW26796   8.180   2.496  10.374
42257SOL    HW126797   8.239   2.470  10.298
42257SOL    HW226798   8.152   2.592  10.363
42258SOL     OW26799   9.176   2.797  11.164
42258SOL    HW126800   9.130   2.790  11.075
42258SOL    HW226801   9.114   2.841  11.230
42259SOL     OW26802   7.755   1.925   9.928
42259SOL    HW126803   7.744   2.019   9.961
42259SOL    HW226804   7.750   1.862  10.005
42260SOL     OW26805   9.070   2.229   9.684
42260SOL    HW126806   9.072   2.153   9.748
42260SOL    HW226807   9.022   2.306   9.724
42261SOL     OW26808   8.471   2.628  10.276
42261SOL    HW126809   8.486   2.649  10.372
42261SOL    HW226810   8.441   2.533  10.267
42262SOL     OW26811   8.428   3.435  11.010
42262SOL    HW126812   8.408   3.479  10.922
42262SOL    HW226813   8.467   3.344  10.994
42263SOL     OW26814   9.307   3.380  10.915
42263SOL    HW126815   9.321   3.407  10.820
42263SOL    HW226816   9.390   3.402  10.968
42264SOL     OW26817   7.798   2.760  11.114
42264SOL    HW126818   7.874   2.804  11.162
42264SOL    HW226819   7.833   2.713  11.032
42265SOL     OW26820   8.988   2.136   9.435
42265SOL    HW126821   8.927   2.061   9.458
42265SOL    HW226822   9.010   2.188   9.518
42266SOL     OW26823   8.751   2.700   9.352
42266SOL    HW126824   8.785   2.607   9.367
42266SOL    HW226825   8.769   2.727   9.257
42267SOL     OW26826   8.516   3.195  10.159
42267SOL    HW126827   8.523   3.111  10.104
42267SOL    HW226828   8.578   3.264  10.123
42268SOL     OW26829   7.767   2.672  10.259
42268SOL    HW126830   7.860   2.708  10.264
42268SOL    HW226831   7.761   2.587  10.311
42269SOL     OW26832   7.787   2.371  10.316
42269SOL    HW126833   7.735   2.288  10.299
42269SOL    HW226834   7.864   2.376  10.252
42270SOL     OW26835   8.586   2.242  10.988
42270SOL    HW126836   8.541   2.305  11.052
42270SOL    HW226837   8.679   2.273  10.971
42271SOL     OW26838   8.608   2.069  10.787
42271SOL    HW126839   8.608   2.133  10.864
42271SOL    HW226840   8.636   2.117  10.704
42272SOL     OW26841   7.456   3.188   9.510
42272SOL    HW126842   7.363   3.209   9.479
42272SOL    HW226843   7.466   3.089   9.523
42273SOL     OW26844   7.536   3.663  10.237
42273SOL    HW126845   7.494   3.577  10.210
42273SOL    HW226846   7.630   3.666  10.203
42274SOL     OW26847   7.952   3.430  10.220
42274SOL    HW126848   8.018   3.504  10.229
42274SOL    HW226849   7.996   3.351  10.178
42275SOL     OW26850   8.450   2.658  10.548
42275SOL    HW126851   8.491   2.626  10.634
42275SOL    HW226852   8.354   2.631  10.545
42276SOL     OW26853   7.488   2.406  10.424
42276SOL    HW126854   7.573   2.373  10.383
42276SOL    HW226855   7.501   2.421  10.522
42277SOL     OW26856   7.637   2.382  11.032
42277SOL    HW126857   7.696   2.342  10.962
42277SOL    HW226858   7.579   2.453  10.991
42278SOL     OW26859   8.817   2.812  10.970
42278SOL    HW126860   8.856   2.901  10.990
42278SOL    HW226861   8.827   2.792  10.873
42279SOL     OW26862   8.263   2.434   9.635
42279SOL    HW126863   8.270   2.345   9.589
42279SOL    HW226864   8.169   2.468   9.627
42280SOL     OW26865   9.105   2.466  10.516
42280SOL    HW126866   9.067   2.397  10.578
42280SOL    HW226867   9.187   2.430  10.472
42281SOL     OW26868   7.700   3.426  11.054
42281SOL    HW126869   7.670   3.483  11.130
42281SOL    HW226870   7.693   3.329  11.080
42282SOL     OW26871   8.119   2.326  10.579
42282SOL    HW126872   8.085   2.237  10.549
42282SOL    HW226873   8.145   2.380  10.499
42283SOL     OW26874   8.378   3.540  10.775
42283SOL    HW126875   8.354   3.522  10.680
42283SOL    HW226876   8.408   3.634  10.785
42284SOL     OW26877   7.921   2.362   9.501
42284SOL    HW126878   7.982   2.442   9.505
42284SOL    HW226879   7.826   2.393   9.508
42285SOL     OW26880   7.607   2.999  10.776
42285SOL    HW126881   7.629   2.938  10.852
42285SOL    HW226882   7.617   2.950  10.690
42286SOL     OW26883   8.795   2.921  10.544
42286SOL    HW126884   8.819   2.858  10.470
42286SOL    HW226885   8.705   2.961  10.526
42287SOL     OW26886   8.750   2.717   9.619
42287SOL    HW126887   8.664   2.686   9.661
42287SOL    HW226888   8.746   2.703   9.520
42288SOL     OW26889   9.207   3.609  10.464
42288SOL    HW126890   9.268   3.639  10.391
42288SOL    HW226891   9.169   3.520  10.442
42289SOL     OW26892   8.700   3.593  10.438
42289SOL    HW126893   8.784   3.598  10.384
42289SOL    HW226894   8.677   3.497  10.456
42290SOL     OW26895   7.531   3.120  10.332
42290SOL    HW126896   7.526   3.119  10.432
42290SOL    HW226897   7.448   3.079  10.294
42291SOL     OW26898   8.136   3.524  11.026
42291SOL    HW126899   8.080   3.605  11.035
42291SOL    HW226900   8.188   3.528  10.940
42292SOL     OW26901   9.174   1.997   9.833
42292SOL    HW126902   9.247   1.980   9.766
42292SOL    HW226903   9.143   1.910   9.871
42293SOL     OW26904   8.836   3.435   9.787
42293SOL    HW126905   8.903   3.447   9.713
42293SOL    HW226906   8.796   3.524   9.810
42294SOL     OW26907   7.578   3.656  11.161
42294SOL    HW126908   7.537   3.582  11.214
42294SOL    HW226909   7.642   3.707  11.219
42295SOL     OW26910   8.728   2.789   9.982
42295SOL    HW126911   8.788   2.708   9.984
42295SOL    HW226912   8.768   2.858   9.922
42296SOL     OW26913   8.278   3.135  10.732
42296SOL    HW126914   8.273   3.168  10.827
42296SOL    HW226915   8.192   3.154  10.686
42297SOL     OW26916   8.120   3.478   9.464
42297SOL    HW126917   8.129   3.488   9.365
42297SOL    HW226918   8.080   3.389   9.485
42298SOL     OW26919   9.098   3.582  10.704
42298SOL    HW126920   9.151   3.592  10.620
42298SOL    HW226921   9.071   3.672  10.738
42299SOL     OW26922   9.289   2.037  10.273
42299SOL    HW126923   9.328   1.952  10.237
42299SOL    HW226924   9.191   2.039  10.254
42300SOL     OW26925   7.711   2.188  10.030
42300SOL    HW126926   7.632   2.239   9.996
42300SOL    HW226927   7.702   2.173  10.128
42301SOL     OW26928   8.642   3.474   9.341
42301SOL    HW126929   8.648   3.381   9.378
42301SOL    HW226930   8.583   3.474   9.261
42302SOL     OW26931   8.270   2.864  10.682
42302SOL    HW126932   8.310   2.863  10.590
42302SOL    HW226933   8.280   2.956  10.722
42303SOL     OW26934   8.364   2.772   9.601
42303SOL    HW126935   8.427   2.810   9.533
42303SOL    HW226936   8.404   2.689   9.640
42304SOL     OW26937   8.952   3.469   9.354
42304SOL    HW126938   8.860   3.506   9.361
42304SOL    HW226939   8.990   3.489   9.264
42305SOL     OW26940   7.820   3.150  10.800
42305SOL    HW126941   7.807   3.243  10.766
42305SOL    HW226942   7.736   3.098  10.787
42306SOL     OW26943   9.062   3.154  10.599
42306SOL    HW126944   9.122   3.157  10.679
42306SOL    HW226945   8.987   3.218  10.612
42307SOL     OW26946   8.487   2.960  10.006
42307SOL    HW126947   8.417   2.913  10.060
42307SOL    HW226948   8.546   2.892   9.963
42308SOL     OW26949   8.462   2.098  10.281
42308SOL    HW126950   8.454   2.062  10.188
42308SOL    HW226951   8.460   2.022  10.346
42309SOL     OW26952   8.038   3.349   9.801
42309SOL    HW126953   8.080   3.291   9.731
42309SOL    HW226954   7.994   3.428   9.757
42310SOL     OW26955   9.157   2.247  10.691
42310SOL    HW126956   9.230   2.316  10.695
42310SOL    HW226957   9.185   2.172  10.632
42311SOL     OW26958   7.703   3.210   9.600
42311SOL    HW126959   7.607   3.211   9.573
42311SOL    HW226960   7.715   3.263   9.684
42312SOL     OW26961   7.553   2.875  11.036
42312SOL    HW126962   7.476   2.842  11.090
42312SOL    HW226963   7.638   2.845  11.078
42313SOL     OW26964   8.120   2.065  10.799
42313SOL    HW126965   8.210   2.049  10.759
42313SOL    HW226966   8.128   2.070  10.898
42314SOL     OW26967   7.523   2.207   9.343
42314SOL    HW126968   7.431   2.179   9.314
42314SOL    HW226969   7.554   2.284   9.287
42315SOL     OW26970   8.888   2.718  10.708
42315SOL    HW126971   8.831   2.770  10.645
42315SOL    HW226972   8.984   2.730  10.684
42316SOL     OW26973   7.520   2.028   9.628
42316SOL    HW126974   7.503   2.111   9.574
42316SOL    HW226975   7.610   1.991   9.606
42317SOL     OW26976   8.631   3.197   9.429
42317SOL    HW126977   8.532   3.186   9.431
42317SOL    HW226978   8.665   3.212   9.522
42318SOL     OW26979   8.061   2.704  10.741
42318SOL    HW126980   8.117   2.785  10.724
42318SOL    HW226981   8.120   2.624  10.744
42319SOL     OW26982   8.941   3.629  10.269
42319SOL    HW126983   8.974   3.693  10.200
42319SOL    HW226984   9.007   3.623  10.344
42320SOL     OW26985   8.164   2.427  11.018
42320SOL    HW126986   8.183   2.492  11.092
42320SOL    HW226987   8.224   2.347  11.027
42321SOL     OW26988   8.898   3.082  10.943
42321SOL    HW126989   8.889   3.072  11.042
42321SOL    HW226990   8.994   3.075  10.917
42322SOL     OW26991   7.838   3.603  10.870
42322SOL    HW126992   7.747   3.644  10.868
42322SOL    HW226993   7.831   3.509  10.902
42323SOL     OW26994   9.122   2.745  10.564
42323SOL    HW126995   9.095   2.656  10.527
42323SOL    HW226996   9.123   2.813  10.491
42324SOL     OW26997   8.673   2.187   9.759
42324SOL    HW126998   8.738   2.113   9.748
42324SOL    HW226999   8.693   2.237   9.843
42325SOL     OW27000   8.042   2.607   9.962
42325SOL    HW127001   8.092   2.692   9.943
42325SOL    HW227002   7.954   2.609   9.914
42326SOL     OW27003   9.225   2.204  10.952
42326SOL    HW127004   9.208   2.235  10.858
42326SOL    HW227005   9.141   2.167  10.990
42327SOL     OW27006   9.178   2.796  10.827
42327SOL    HW127007   9.216   2.887  10.842
42327SOL    HW227008   9.170   2.779  10.728
42328SOL     OW27009   8.307   3.236   9.326
42328SOL    HW127010   8.261   3.251   9.414
42328SOL    HW227011   8.351   3.321   9.296
42329SOL     OW27012   8.109   3.652  10.263
42329SOL    HW127013   8.063   3.740  10.250
42329SOL    HW227014   8.208   3.664  10.256
42330SOL     OW27015   8.307   2.818  10.171
42330SOL    HW127016   8.361   2.749  10.219
42330SOL    HW227017   8.275   2.887  10.237
42331SOL     OW27018   8.531   2.846   9.397
42331SOL    HW127019   8.508   2.899   9.315
42331SOL    HW227020   8.612   2.790   9.378
42332SOL     OW27021   9.309   3.431  10.161
42332SOL    HW127022   9.238   3.419  10.091
42332SOL    HW227023   9.310   3.352  10.221
42333SOL     OW27024   7.669   3.176  11.154
42333SOL    HW127025   7.604   3.103  11.133
42333SOL    HW227026   7.673   3.190  11.252
42334SOL     OW27027   7.527   3.102   9.963
42334SOL    HW127028   7.526   3.055  10.051
42334SOL    HW227029   7.609   3.074   9.912
42335SOL     OW27030   8.120   3.253  10.934
42335SOL    HW127031   8.042   3.203  10.972
42335SOL    HW227032   8.117   3.348  10.965
42336SOL     OW27033   9.272   2.054  10.537
42336SOL    HW127034   9.268   1.964  10.581
42336SOL    HW227035   9.275   2.043  10.438
42337SOL     OW27036   7.876   2.286   9.830
42337SOL    HW127037   7.906   2.214   9.768
42337SOL    HW227038   7.837   2.246   9.913
42338SOL     OW27039   9.153   3.349  10.414
42338SOL    HW127040   9.060   3.324  10.387
42338SOL    HW227041   9.179   3.299  10.496
42339SOL     OW27042   7.765   2.409  10.590
42339SOL    HW127043   7.803   2.350  10.662
42339SOL    HW227044   7.805   2.383  10.502
42340SOL     OW27045   8.260   3.448   9.997
42340SOL    HW127046   8.292   3.458   9.903
42340SOL    HW227047   8.181   3.386   9.999
42341SOL     OW27048   8.872   2.076  10.422
42341SOL    HW127049   8.924   2.011  10.477
42341SOL    HW227050   8.823   2.139  10.483
42342SOL     OW27051   8.449   1.896  10.464
42342SOL    HW127052   8.386   1.824  10.433
42342SOL    HW227053   8.542   1.860  10.464
42343SOL     OW27054   8.218   3.192   9.611
42343SOL    HW127055   8.172   3.105   9.628
42343SOL    HW227056   8.309   3.189   9.652
42344SOL     OW27057   8.066   3.429  10.594
42344SOL    HW127058   8.061   3.511  10.651
42344SOL    HW227059   8.155   3.426  10.549
42345SOL     OW27060   8.800   1.914   9.478
42345SOL    HW127061   8.835   1.873   9.394
42345SOL    HW227062   8.710   1.876   9.498
42346SOL     OW27063   8.748   2.315  10.001
42346SOL    HW127064   8.689   2.395  10.005
42346SOL    HW227065   8.763   2.280  10.094
42347SOL     OW27066   9.041   2.083  10.192
42347SOL    HW127067   8.957   2.082  10.246
42347SOL    HW227068   9.043   2.166  10.136
42348SOL     OW27069   7.487   2.939   9.610
42348SOL    HW127070   7.586   2.928   9.601
42348SOL    HW227071   7.447   2.853   9.642
42349SOL     OW27072   8.323   3.508   9.647
42349SOL    HW127073   8.246   3.473   9.593
42349SOL    HW227074   8.291   3.579   9.709
42350SOL     OW27075   7.678   2.490  11.285
42350SOL    HW127076   7.585   2.488  11.322
42350SOL    HW227077   7.679   2.451  11.193
42351SOL     OW27078   7.673   2.137  12.168
42351SOL    HW127079   7.708   2.120  12.260
42351SOL    HW227080   7.585   2.092  12.156
42352SOL     OW27081   7.467   2.230  11.819
42352SOL    HW127082   7.385   2.273  11.858
42352SOL    HW227083   7.439   2.157  11.756
42353SOL     OW27084   8.017   3.137  12.337
42353SOL    HW127085   7.924   3.130  12.300
42353SOL    HW227086   8.028   3.226  12.381
42354SOL     OW27087   9.003   3.373  11.875
42354SOL    HW127088   8.946   3.357  11.956
42354SOL    HW227089   8.944   3.383  11.795
42355SOL     OW27090   8.583   2.565  11.889
42355SOL    HW127091   8.640   2.643  11.864
42355SOL    HW227092   8.523   2.591  11.965
42356SOL     OW27093   9.203   2.469  11.403
42356SOL    HW127094   9.191   2.456  11.304
42356SOL    HW227095   9.173   2.388  11.452
42357SOL     OW27096   8.216   3.006  12.195
42357SOL    HW127097   8.138   3.023  12.255
42357SOL    HW227098   8.250   3.093  12.159
42358SOL     OW27099   8.133   2.874  11.837
42358SOL    HW127100   8.202   2.858  11.907
42358SOL    HW227101   8.060   2.931  11.875
42359SOL     OW27102   7.783   3.297  12.233
42359SOL    HW127103   7.705   3.266  12.180
42359SOL    HW227104   7.841   3.355  12.176
42360SOL     OW27105   8.908   3.367  12.511
42360SOL    HW127106   8.932   3.461  12.537
42360SOL    HW227107   8.892   3.313  12.593
42361SOL     OW27108   7.886   2.254  12.671
42361SOL    HW127109   7.968   2.198  12.680
42361SOL    HW227110   7.805   2.196  12.675
42362SOL     OW27111   9.051   2.309  11.909
42362SOL    HW127112   8.977   2.355  11.859
42362SOL    HW227113   9.102   2.377  11.962
42363SOL     OW27114   7.679   3.575  11.655
42363SOL    HW127115   7.713   3.652  11.709
42363SOL    HW227116   7.723   3.575  11.565
42364SOL     OW27117   7.678   3.296  11.710
42364SOL    HW127118   7.652   3.392  11.710
42364SOL    HW227119   7.607   3.242  11.755
42365SOL     OW27120   7.688   2.953  12.058
42365SOL    HW127121   7.702   2.869  12.110
42365SOL    HW227122   7.633   3.017  12.113
42366SOL     OW27123   8.068   3.648  12.611
42366SOL    HW127124   7.976   3.631  12.646
42366SOL    HW227125   8.096   3.740  12.637
42367SOL     OW27126   8.054   2.826  11.295
42367SOL    HW127127   8.061   2.910  11.241
42367SOL    HW227128   8.100   2.839  11.383
42368SOL     OW27129   9.042   1.976  12.652
42368SOL    HW127130   9.024   2.043  12.580
42368SOL    HW227131   9.039   2.022  12.741
42369SOL     OW27132   7.570   2.505  11.735
42369SOL    HW127133   7.525   2.417  11.752
42369SOL    HW227134   7.569   2.559  11.819
42370SOL     OW27135   9.290   3.629  11.531
42370SOL    HW127136   9.344   3.600  11.611
42370SOL    HW227137   9.320   3.719  11.502
42371SOL     OW27138   7.475   3.458  11.289
42371SOL    HW127139   7.456   3.362  11.310
42371SOL    HW227140   7.442   3.516  11.364
42372SOL     OW27141   9.137   2.784  11.784
42372SOL    HW127142   9.232   2.755  11.792
42372SOL    HW227143   9.129   2.849  11.709
42373SOL     OW27144   9.089   2.970  11.604
42373SOL    HW127145   9.175   2.972  11.552
42373SOL    HW227146   9.103   3.017  11.692
42374SOL     OW27147   8.061   3.227  11.898
42374SOL    HW127148   8.012   3.140  11.907
42374SOL    HW227149   8.038   3.270  11.811
42375SOL     OW27150   8.257   1.866  11.674
42375SOL    HW127151   8.297   1.957  11.665
42375SOL    HW227152   8.157   1.874  11.680
42376SOL     OW27153   7.645   2.838  12.436
42376SOL    HW127154   7.734   2.793  12.422
42376SOL    HW227155   7.572   2.773  12.417
42377SOL     OW27156   8.973   2.861  11.362
42377SOL    HW127157   8.910   2.785  11.375
42377SOL    HW227158   9.021   2.879  11.448
42378SOL     OW27159   7.765   2.113  12.973
42378SOL    HW127160   7.836   2.184  12.979
42378SOL    HW227161   7.677   2.152  13.001
42379SOL     OW27162   8.914   3.279  12.125
42379SOL    HW127163   8.855   3.285  12.205
42379SOL    HW227164   8.899   3.191  12.079
42380SOL     OW27165   9.115   3.576  11.744
42380SOL    HW127166   9.074   3.553  11.656
42380SOL    HW227167   9.097   3.502  11.809
42381SOL     OW27168   8.046   2.591  11.442
42381SOL    HW127169   8.070   2.660  11.374
42381SOL    HW227170   7.968   2.624  11.496
42382SOL     OW27171   8.729   2.207  12.116
42382SOL    HW127172   8.643   2.157  12.103
42382SOL    HW227173   8.791   2.153  12.172
42383SOL     OW27174   9.024   3.524  11.479
42383SOL    HW127175   9.113   3.570  11.482
42383SOL    HW227176   9.003   3.500  11.384
42384SOL     OW27177   8.255   2.467  12.637
42384SOL    HW127178   8.208   2.464  12.726
42384SOL    HW227179   8.204   2.412  12.571
42385SOL     OW27180   8.439   2.272  12.414
42385SOL    HW127181   8.362   2.306  12.468
42385SOL    HW227182   8.405   2.221  12.335
42386SOL     OW27183   8.489   2.563  11.601
42386SOL    HW127184   8.515   2.559  11.697
42386SOL    HW227185   8.404   2.512  11.587
42387SOL     OW27186   7.524   2.673  11.961
42387SOL    HW127187   7.623   2.661  11.970
42387SOL    HW227188   7.500   2.768  11.982
42388SOL     OW27189   7.578   3.683  12.743
42388SOL    HW127190   7.568   3.668  12.842
42388SOL    HW227191   7.492   3.719  12.707
42389SOL     OW27192   8.313   2.210  11.367
42389SOL    HW127193   8.372   2.273  11.318
42389SOL    HW227194   8.332   2.116  11.338
42390SOL     OW27195   8.810   3.006  11.717
42390SOL    HW127196   8.893   2.977  11.669
42390SOL    HW227197   8.761   3.073  11.661
42391SOL     OW27198   7.998   2.058  12.057
42391SOL    HW127199   7.993   2.053  12.157
42391SOL    HW227200   8.000   2.154  12.028
42392SOL     OW27201   8.456   3.318  11.649
42392SOL    HW127202   8.410   3.390  11.597
42392SOL    HW227203   8.452   3.338  11.747
42393SOL     OW27204   7.799   3.663  12.025
42393SOL    HW127205   7.849   3.577  12.031
42393SOL    HW227206   7.864   3.740  12.022
42394SOL     OW27207   9.243   2.928  12.045
42394SOL    HW127208   9.181   2.913  11.969
42394SOL    HW227209   9.191   2.939  12.130
42395SOL     OW27210   7.769   2.805  11.414
42395SOL    HW127211   7.851   2.844  11.372
42395SOL    HW227212   7.742   2.723  11.365
42396SOL     OW27213   8.906   2.597  11.900
42396SOL    HW127214   8.901   2.532  11.975
42396SOL    HW227215   8.986   2.656  11.913
42397SOL     OW27216   8.559   3.638  11.409
42397SOL    HW127217   8.499   3.576  11.459
42397SOL    HW227218   8.590   3.594  11.324
42398SOL     OW27219   7.650   2.147  12.670
42398SOL    HW127220   7.570   2.207  12.657
42398SOL    HW227221   7.640   2.098  12.756
42399SOL     OW27222   9.080   3.239  11.253
42399SOL    HW127223   9.048   3.333  11.243
42399SOL    HW227224   9.004   3.176  11.241
42400SOL     OW27225   7.912   3.605  11.495
42400SOL    HW127226   7.945   3.644  11.581
42400SOL    HW227227   7.988   3.598  11.430
42401SOL     OW27228   8.848   1.969  11.598
42401SOL    HW127229   8.824   1.932  11.508
42401SOL    HW227230   8.947   1.985  11.602
42402SOL     OW27231   7.697   3.647  12.413
42402SOL    HW127232   7.754   3.582  12.463
42402SOL    HW227233   7.681   3.614  12.320
42403SOL     OW27234   8.388   3.560  12.076
42403SOL    HW127235   8.468   3.503  12.097
42403SOL    HW227236   8.339   3.520  11.999
42404SOL     OW27237   7.830   2.562  11.652
42404SOL    HW127238   7.875   2.472  11.649
42404SOL    HW227239   7.736   2.551  11.685
42405SOL     OW27240   8.062   1.984  11.289
42405SOL    HW127241   8.160   1.962  11.296
42405SOL    HW227242   8.031   1.967  11.196
42406SOL     OW27243   8.336   3.376  12.367
42406SOL    HW127244   8.313   3.351  12.273
42406SOL    HW227245   8.397   3.307  12.406
42407SOL     OW27246   8.251   3.264  12.096
42407SOL    HW127247   8.341   3.278  12.054
42407SOL    HW227248   8.180   3.266  12.025
42408SOL     OW27249   8.370   2.365  12.071
42408SOL    HW127250   8.345   2.356  11.975
42408SOL    HW227251   8.418   2.283  12.102
42409SOL     OW27252   7.987   1.926  11.684
42409SOL    HW127253   7.906   1.927  11.742
42409SOL    HW227254   7.990   2.009  11.629
42410SOL     OW27255   8.882   3.050  11.213
42410SOL    HW127256   8.914   2.974  11.270
42410SOL    HW227257   8.790   3.077  11.243
42411SOL     OW27258   7.745   1.897  11.343
42411SOL    HW127259   7.794   1.981  11.322
42411SOL    HW227260   7.807   1.832  11.388
42412SOL     OW27261   8.383   2.098  11.652
42412SOL    HW127262   8.335   2.139  11.574
42412SOL    HW227263   8.482   2.096  11.633
42413SOL     OW27264   8.675   3.432  11.965
42413SOL    HW127265   8.696   3.506  11.900
42413SOL    HW227266   8.743   3.432  12.038
42414SOL     OW27267   7.907   3.014  11.913
42414SOL    HW127268   7.836   2.987  11.978
42414SOL    HW227269   7.881   2.986  11.820
42415SOL     OW27270   8.719   3.659  11.763
42415SOL    HW127271   8.763   3.723  11.699
42415SOL    HW227272   8.669   3.711  11.833
42416SOL     OW27273   8.480   2.411  11.188
42416SOL    HW127274   8.439   2.493  11.149
42416SOL    HW227275   8.544   2.437  11.261
42417SOL     OW27276   7.526   2.418  12.558
42417SOL    HW127277   7.618   2.417  12.517
42417SOL    HW227278   7.520   2.492  12.625
42418SOL     OW27279   8.009   2.084  12.319
42418SOL    HW127280   8.047   2.000  12.356
42418SOL    HW227281   7.921   2.103  12.363
42419SOL     OW27282   8.314   2.316  11.814
42419SOL    HW127283   8.282   2.388  11.752
42419SOL    HW227284   8.338   2.235  11.761
42420SOL     OW27285   8.465   1.901  11.925
42420SOL    HW127286   8.393   1.906  11.856
42420SOL    HW227287   8.441   1.832  11.994
42421SOL     OW27288   8.877   3.035  12.039
42421SOL    HW127289   8.822   2.951  12.032
42421SOL    HW227290   8.903   3.064  11.947
42422SOL     OW27291   8.914   2.452  12.164
42422SOL    HW127292   8.884   2.357  12.171
42422SOL    HW227293   8.987   2.468  12.230
42423SOL     OW27294   9.305   2.695  11.549
42423SOL    HW127295   9.347   2.631  11.613
42423SOL    HW227296   9.267   2.644  11.471
42424SOL     OW27297   7.936   3.247  11.346
42424SOL    HW127298   7.849   3.232  11.393
42424SOL    HW227299   7.919   3.273  11.251
42425SOL     OW27300   9.112   3.142  11.829
42425SOL    HW127301   9.211   3.150  11.843
42425SOL    HW227302   9.067   3.226  11.860
42426SOL     OW27303   8.838   2.437  11.250
42426SOL    HW127304   8.784   2.416  11.331
42426SOL    HW227305   8.929   2.396  11.259
42427SOL     OW27306   7.975   2.118  11.500
42427SOL    HW127307   8.002   2.059  11.425
42427SOL    HW227308   7.975   2.213  11.469
42428SOL     OW27309   8.512   3.209  12.512
42428SOL    HW127310   8.432   3.186  12.567
42428SOL    HW227311   8.595   3.183  12.561
42429SOL     OW27312   8.559   3.057  12.272
42429SOL    HW127313   8.519   3.101  12.353
42429SOL    HW227314   8.518   3.094  12.189
42430SOL     OW27315   9.086   2.961  12.251
42430SOL    HW127316   9.091   3.042  12.310
42430SOL    HW227317   9.000   2.963  12.200
42431SOL     OW27318   8.363   1.951  12.574
42431SOL    HW127319   8.388   1.931  12.479
42431SOL    HW227320   8.435   2.007  12.616
42432SOL     OW27321   8.153   2.912  11.540
42432SOL    HW127322   8.139   2.919  11.639
42432SOL    HW227323   8.237   2.861  11.522
42433SOL     OW27324   7.858   2.675  12.423
42433SOL    HW127325   7.944   2.687  12.473
42433SOL    HW227326   7.816   2.588  12.450
42434SOL     OW27327   8.722   2.248  12.434
42434SOL    HW127328   8.743   2.322  12.498
42434SOL    HW227329   8.633   2.265  12.391
42435SOL     OW27330   7.512   3.426  12.503
42435SOL    HW127331   7.466   3.508  12.469
42435SOL    HW227332   7.610   3.445  12.512
42436SOL     OW27333   7.815   2.962  11.673
42436SOL    HW127334   7.808   3.045  11.617
42436SOL    HW227335   7.819   2.882  11.613
42437SOL     OW27336   8.014   2.399  12.037
42437SOL    HW127337   8.026   2.465  11.963
42437SOL    HW227338   8.060   2.433  12.120
42438SOL     OW27339   8.700   3.210  11.560
42438SOL    HW127340   8.750   3.287  11.600
42438SOL    HW227341   8.605   3.212  11.592
42439SOL     OW27342   8.720   3.307  12.314
42439SOL    HW127343   8.767   3.320  12.401
42439SOL    HW227344   8.654   3.233  12.323
42440SOL     OW27345   9.030   2.501  11.644
42440SOL    HW127346   8.999   2.562  11.717
42440SOL    HW227347   9.080   2.553  11.575
42441SOL     OW27348   7.802   3.372  12.501
42441SOL    HW127349   7.781   3.328  12.414
42441SOL    HW227350   7.899   3.398  12.504
42442SOL     OW27351   7.850   2.613  12.770
42442SOL    HW127352   7.918   2.668  12.723
42442SOL    HW227353   7.890   2.525  12.797
42443SOL     OW27354   9.035   2.641  12.842
42443SOL    HW127355   8.943   2.679  12.837
42443SOL    HW227356   9.095   2.688  12.777
42444SOL     OW27357   8.021   2.732  12.201
42444SOL    HW127358   8.065   2.821  12.192
42444SOL    HW227359   7.958   2.732  12.278
42445SOL     OW27360   8.808   2.724  12.217
42445SOL    HW127361   8.733   2.724  12.151
42445SOL    HW227362   8.845   2.632  12.226
42446SOL     OW27363   8.657   2.387  11.447
42446SOL    HW127364   8.670   2.303  11.501
42446SOL    HW227365   8.628   2.461  11.507
42447SOL     OW27366   7.755   2.075  12.403
42447SOL    HW127367   7.732   2.112  12.493
42447SOL    HW227368   7.725   1.980  12.397
42448SOL     OW27369   7.485   3.172  12.454
42448SOL    HW127370   7.538   3.123  12.522
42448SOL    HW227371   7.507   3.270  12.459
42449SOL     OW27372   8.180   2.496  12.236
42449SOL    HW127373   8.239   2.470  12.160
42449SOL    HW227374   8.152   2.592  12.225
42450SOL     OW27375   7.755   1.925  11.790
42450SOL    HW127376   7.744   2.019  11.823
42450SOL    HW227377   7.750   1.862  11.867
42451SOL     OW27378   9.070   2.229  11.546
42451SOL    HW127379   9.072   2.153  11.610
42451SOL    HW227380   9.022   2.306  11.586
42452SOL     OW27381   8.471   2.628  12.138
42452SOL    HW127382   8.486   2.649  12.234
42452SOL    HW227383   8.441   2.533  12.129
42453SOL     OW27384   8.428   3.435  12.872
42453SOL    HW127385   8.408   3.479  12.784
42453SOL    HW227386   8.467   3.344  12.856
42454SOL     OW27387   8.988   2.136  11.297
42454SOL    HW127388   8.927   2.061  11.320
42454SOL    HW227389   9.010   2.188  11.380
42455SOL     OW27390   8.751   2.700  11.214
42455SOL    HW127391   8.785   2.607  11.229
42455SOL    HW227392   8.769   2.727  11.119
42456SOL     OW27393   8.516   3.195  12.021
42456SOL    HW127394   8.523   3.111  11.966
42456SOL    HW227395   8.578   3.264  11.985
42457SOL     OW27396   7.767   2.672  12.121
42457SOL    HW127397   7.860   2.708  12.126
42457SOL    HW227398   7.761   2.587  12.173
42458SOL     OW27399   7.787   2.371  12.178
42458SOL    HW127400   7.735   2.288  12.161
42458SOL    HW227401   7.864   2.376  12.114
42459SOL     OW27402   8.586   2.242  12.850
42459SOL    HW127403   8.541   2.305  12.914
42459SOL    HW227404   8.679   2.273  12.833
42460SOL     OW27405   8.608   2.069  12.649
42460SOL    HW127406   8.608   2.133  12.726
42460SOL    HW227407   8.636   2.117  12.566
42461SOL     OW27408   7.456   3.188  11.372
42461SOL    HW127409   7.363   3.209  11.341
42461SOL    HW227410   7.466   3.089  11.385
42462SOL     OW27411   7.536   3.663  12.099
42462SOL    HW127412   7.494   3.577  12.072
42462SOL    HW227413   7.630   3.666  12.065
42463SOL     OW27414   7.952   3.430  12.082
42463SOL    HW127415   8.018   3.504  12.091
42463SOL    HW227416   7.996   3.351  12.040
42464SOL     OW27417   8.450   2.658  12.410
42464SOL    HW127418   8.491   2.626  12.496
42464SOL    HW227419   8.354   2.631  12.407
42465SOL     OW27420   7.488   2.406  12.286
42465SOL    HW127421   7.573   2.373  12.245
42465SOL    HW227422   7.501   2.421  12.384
42466SOL     OW27423   8.263   2.434  11.497
42466SOL    HW127424   8.270   2.345  11.451
42466SOL    HW227425   8.169   2.468  11.489
42467SOL     OW27426   9.105   2.466  12.378
42467SOL    HW127427   9.067   2.397  12.440
42467SOL    HW227428   9.187   2.430  12.334
42468SOL     OW27429   8.119   2.326  12.441
42468SOL    HW127430   8.085   2.237  12.411
42468SOL    HW227431   8.145   2.380  12.361
42469SOL     OW27432   8.378   3.540  12.637
42469SOL    HW127433   8.354   3.522  12.542
42469SOL    HW227434   8.408   3.634  12.647
42470SOL     OW27435   7.921   2.362  11.363
42470SOL    HW127436   7.982   2.442  11.367
42470SOL    HW227437   7.826   2.393  11.370
42471SOL     OW27438   7.607   2.999  12.638
42471SOL    HW127439   7.629   2.938  12.714
42471SOL    HW227440   7.617   2.950  12.552
42472SOL     OW27441   8.795   2.921  12.406
42472SOL    HW127442   8.819   2.858  12.332
42472SOL    HW227443   8.705   2.961  12.388
42473SOL     OW27444   8.750   2.717  11.481
42473SOL    HW127445   8.664   2.686  11.523
42473SOL    HW227446   8.746   2.703  11.382
42474SOL     OW27447   9.207   3.609  12.326
42474SOL    HW127448   9.268   3.639  12.253
42474SOL    HW227449   9.169   3.520  12.304
42475SOL     OW27450   8.700   3.593  12.300
42475SOL    HW127451   8.784   3.598  12.246
42475SOL    HW227452   8.677   3.497  12.318
42476SOL     OW27453   7.531   3.120  12.194
42476SOL    HW127454   7.526   3.119  12.294
42476SOL    HW227455   7.448   3.079  12.156
42477SOL     OW27456   9.174   1.997  11.695
42477SOL    HW127457   9.247   1.980  11.628
42477SOL    HW227458   9.143   1.910  11.733
42478SOL     OW27459   8.836   3.435  11.649
42478SOL    HW127460   8.903   3.447  11.575
42478SOL    HW227461   8.796   3.524  11.672
42479SOL     OW27462   8.728   2.789  11.844
42479SOL    HW127463   8.788   2.708  11.846
42479SOL    HW227464   8.768   2.858  11.784
42480SOL     OW27465   8.120   3.478  11.326
42480SOL    HW127466   8.129   3.488  11.227
42480SOL    HW227467   8.080   3.389  11.347
42481SOL     OW27468   9.098   3.582  12.566
42481SOL    HW127469   9.151   3.592  12.482
42481SOL    HW227470   9.071   3.672  12.600
42482SOL     OW27471   9.289   2.037  12.135
42482SOL    HW127472   9.328   1.952  12.099
42482SOL    HW227473   9.191   2.039  12.116
42483SOL     OW27474   7.711   2.188  11.892
42483SOL    HW127475   7.632   2.239  11.858
42483SOL    HW227476   7.702   2.173  11.990
42484SOL     OW27477   8.642   3.474  11.203
42484SOL    HW127478   8.648   3.381  11.240
42484SOL    HW227479   8.583   3.474  11.123
42485SOL     OW27480   8.270   2.864  12.544
42485SOL    HW127481   8.310   2.863  12.452
42485SOL    HW227482   8.280   2.956  12.584
42486SOL     OW27483   8.364   2.772  11.463
42486SOL    HW127484   8.427   2.810  11.395
42486SOL    HW227485   8.404   2.689  11.502
42487SOL     OW27486   8.952   3.469  11.216
42487SOL    HW127487   8.860   3.506  11.223
42487SOL    HW227488   8.990   3.489  11.126
42488SOL     OW27489   7.820   3.150  12.662
42488SOL    HW127490   7.807   3.243  12.628
42488SOL    HW227491   7.736   3.098  12.649
42489SOL     OW27492   9.062   3.154  12.461
42489SOL    HW127493   9.122   3.157  12.541
42489SOL    HW227494   8.987   3.218  12.474
42490SOL     OW27495   8.487   2.960  11.868
42490SOL    HW127496   8.417   2.913  11.922
42490SOL    HW227497   8.546   2.892  11.825
42491SOL     OW27498   8.462   2.098  12.143
42491SOL    HW127499   8.454   2.062  12.050
42491SOL    HW227500   8.460   2.022  12.208
42492SOL     OW27501   8.038   3.349  11.663
42492SOL    HW127502   8.080   3.291  11.593
42492SOL    HW227503   7.994   3.428  11.619
42493SOL     OW27504   9.157   2.247  12.553
42493SOL    HW127505   9.230   2.316  12.557
42493SOL    HW227506   9.185   2.172  12.494
42494SOL     OW27507   7.703   3.210  11.462
42494SOL    HW127508   7.607   3.211  11.435
42494SOL    HW227509   7.715   3.263  11.546
42495SOL     OW27510   7.523   2.207  11.205
42495SOL    HW127511   7.431   2.179  11.176
42495SOL    HW227512   7.554   2.284  11.149
42496SOL     OW27513   8.888   2.718  12.570
42496SOL    HW127514   8.831   2.770  12.507
42496SOL    HW227515   8.984   2.730  12.546
42497SOL     OW27516   7.520   2.028  11.490
42497SOL    HW127517   7.503   2.111  11.436
42497SOL    HW227518   7.610   1.991  11.468
42498SOL     OW27519   8.631   3.197  11.291
42498SOL    HW127520   8.532   3.186  11.293
42498SOL    HW227521   8.665   3.212  11.384
42499SOL     OW27522   8.061   2.704  12.603
42499SOL    HW127523   8.117   2.785  12.586
42499SOL    HW227524   8.120   2.624  12.606
42500SOL     OW27525   8.941   3.629  12.131
42500SOL    HW127526   8.974   3.693  12.062
42500SOL    HW227527   9.007   3.623  12.206
42501SOL     OW27528   7.838   3.603  12.732
42501SOL    HW127529   7.747   3.644  12.730
42501SOL    HW227530   7.831   3.509  12.764
42502SOL     OW27531   9.122   2.745  12.426
42502SOL    HW127532   9.095   2.656  12.389
42502SOL    HW227533   9.123   2.813  12.353
42503SOL     OW27534   8.673   2.187  11.621
42503SOL    HW127535   8.738   2.113  11.610
42503SOL    HW227536   8.693   2.237  11.705
42504SOL     OW27537   8.042   2.607  11.824
42504SOL    HW127538   8.092   2.692  11.805
42504SOL    HW227539   7.954   2.609  11.776
42505SOL     OW27540   9.225   2.204  12.814
42505SOL    HW127541   9.208   2.235  12.720
42505SOL    HW227542   9.141   2.167  12.852
42506SOL     OW27543   9.178   2.796  12.689
42506SOL    HW127544   9.216   2.887  12.704
42506SOL    HW227545   9.170   2.779  12.590
42507SOL     OW27546   8.307   3.236  11.188
42507SOL    HW127547   8.261   3.251  11.276
42507SOL    HW227548   8.351   3.321  11.158
42508SOL     OW27549   8.109   3.652  12.125
42508SOL    HW127550   8.063   3.740  12.112
42508SOL    HW227551   8.208   3.664  12.118
42509SOL     OW27552   8.307   2.818  12.033
42509SOL    HW127553   8.361   2.749  12.081
42509SOL    HW227554   8.275   2.887  12.099
42510SOL     OW27555   8.531   2.846  11.259
42510SOL    HW127556   8.508   2.899  11.177
42510SOL    HW227557   8.612   2.790  11.240
42511SOL     OW27558   9.309   3.431  12.023
42511SOL    HW127559   9.238   3.419  11.953
42511SOL    HW227560   9.310   3.352  12.083
42512SOL     OW27561   7.527   3.102  11.825
42512SOL    HW127562   7.526   3.055  11.913
42512SOL    HW227563   7.609   3.074  11.774
42513SOL     OW27564   9.272   2.054  12.399
42513SOL    HW127565   9.268   1.964  12.443
42513SOL    HW227566   9.275   2.043  12.300
42514SOL     OW27567   7.876   2.286  11.692
42514SOL    HW127568   7.906   2.214  11.630
42514SOL    HW227569   7.837   2.246  11.775
42515SOL     OW27570   9.153   3.349  12.276
42515SOL    HW127571   9.060   3.324  12.249
42515SOL    HW227572   9.179   3.299  12.358
42516SOL     OW27573   7.765   2.409  12.452
42516SOL    HW127574   7.803   2.350  12.524
42516SOL    HW227575   7.805   2.383  12.364
42517SOL     OW27576   8.260   3.448  11.859
42517SOL    HW127577   8.292   3.458  11.765
42517SOL    HW227578   8.181   3.386  11.861
42518SOL     OW27579   8.872   2.076  12.284
42518SOL    HW127580   8.924   2.011  12.339
42518SOL    HW227581   8.823   2.139  12.345
42519SOL     OW27582   8.449   1.896  12.326
42519SOL    HW127583   8.386   1.824  12.295
42519SOL    HW227584   8.542   1.860  12.326
42520SOL     OW27585   8.218   3.192  11.473
42520SOL    HW127586   8.172   3.105  11.490
42520SOL    HW227587   8.309   3.189  11.514
42521SOL     OW27588   8.066   3.429  12.456
42521SOL    HW127589   8.061   3.511  12.513
42521SOL    HW227590   8.155   3.426  12.411
42522SOL     OW27591   8.800   1.914  11.340
42522SOL    HW127592   8.835   1.873  11.256
42522SOL    HW227593   8.710   1.876  11.360
42523SOL     OW27594   8.748   2.315  11.863
42523SOL    HW127595   8.689   2.395  11.867
42523SOL    HW227596   8.763   2.280  11.956
42524SOL     OW27597   9.041   2.083  12.054
42524SOL    HW127598   8.957   2.082  12.108
42524SOL    HW227599   9.043   2.166  11.998
42525SOL     OW27600   7.487   2.939  11.472
42525SOL    HW127601   7.586   2.928  11.463
42525SOL    HW227602   7.447   2.853  11.504
42526SOL     OW27603   8.323   3.508  11.509
42526SOL    HW127604   8.246   3.473  11.455
42526SOL    HW227605   8.291   3.579  11.571
42527SOL     OW27606   7.678   4.352   0.113
42527SOL    HW127607   7.585   4.350   0.150
42527SOL    HW227608   7.679   4.313   0.021
42528SOL     OW27609   7.673   3.999   0.996
42528SOL    HW127610   7.708   3.982   1.088
42528SOL    HW227611   7.585   3.954   0.984
42529SOL     OW27612   7.467   4.092   0.647
42529SOL    HW127613   7.385   4.135   0.686
42529SOL    HW227614   7.439   4.019   0.584
42530SOL     OW27615   8.017   4.999   1.165
42530SOL    HW127616   7.924   4.992   1.128
42530SOL    HW227617   8.028   5.088   1.209
42531SOL     OW27618   9.003   5.235   0.703
42531SOL    HW127619   8.946   5.219   0.784
42531SOL    HW227620   8.944   5.245   0.623
42532SOL     OW27621   8.583   4.427   0.717
42532SOL    HW127622   8.640   4.505   0.692
42532SOL    HW227623   8.523   4.453   0.793
42533SOL     OW27624   9.203   4.331   0.231
42533SOL    HW127625   9.191   4.318   0.132
42533SOL    HW227626   9.173   4.250   0.280
42534SOL     OW27627   8.216   4.868   1.023
42534SOL    HW127628   8.138   4.885   1.083
42534SOL    HW227629   8.250   4.955   0.987
42535SOL     OW27630   8.298   4.522   1.823
42535SOL    HW127631   8.294   4.598   1.888
42535SOL    HW227632   8.320   4.558   1.732
42536SOL     OW27633   8.133   4.736   0.665
42536SOL    HW127634   8.202   4.720   0.735
42536SOL    HW227635   8.060   4.793   0.703
42537SOL     OW27636   8.134   4.885   1.803
42537SOL    HW127637   8.194   4.964   1.817
42537SOL    HW227638   8.048   4.916   1.762
42538SOL     OW27639   7.783   5.159   1.061
42538SOL    HW127640   7.705   5.128   1.008
42538SOL    HW227641   7.841   5.217   1.004
42539SOL     OW27642   8.908   5.229   1.339
42539SOL    HW127643   8.932   5.323   1.365
42539SOL    HW227644   8.892   5.175   1.421
42540SOL     OW27645   7.886   4.116   1.499
42540SOL    HW127646   7.968   4.060   1.508
42540SOL    HW227647   7.805   4.058   1.503
42541SOL     OW27648   9.051   4.171   0.737
42541SOL    HW127649   8.977   4.217   0.687
42541SOL    HW227650   9.102   4.239   0.790
42542SOL     OW27651   7.679   5.437   0.483
42542SOL    HW127652   7.713   5.514   0.537
42542SOL    HW227653   7.723   5.437   0.393
42543SOL     OW27654   8.575   5.065   1.690
42543SOL    HW127655   8.622   5.065   1.778
42543SOL    HW227656   8.527   4.978   1.679
42544SOL     OW27657   7.678   5.158   0.538
42544SOL    HW127658   7.652   5.254   0.538
42544SOL    HW227659   7.607   5.104   0.583
42545SOL     OW27660   7.688   4.815   0.886
42545SOL    HW127661   7.702   4.731   0.938
42545SOL    HW227662   7.633   4.879   0.941
42546SOL     OW27663   8.068   5.510   1.439
42546SOL    HW127664   7.976   5.493   1.474
42546SOL    HW227665   8.096   5.602   1.465
42547SOL     OW27666   8.054   4.688   0.123
42547SOL    HW127667   8.061   4.772   0.069
42547SOL    HW227668   8.100   4.701   0.211
42548SOL     OW27669   9.042   3.838   1.480
42548SOL    HW127670   9.024   3.905   1.408
42548SOL    HW227671   9.039   3.884   1.569
42549SOL     OW27672   7.570   4.367   0.563
42549SOL    HW127673   7.525   4.279   0.580
42549SOL    HW227674   7.569   4.421   0.647
42550SOL     OW27675   9.290   5.491   0.359
42550SOL    HW127676   9.344   5.462   0.439
42550SOL    HW227677   9.320   5.581   0.330
42551SOL     OW27678   7.475   5.320   0.117
42551SOL    HW127679   7.456   5.224   0.138
42551SOL    HW227680   7.442   5.378   0.192
42552SOL     OW27681   9.137   4.646   0.612
42552SOL    HW127682   9.232   4.617   0.620
42552SOL    HW227683   9.129   4.711   0.537
42553SOL     OW27684   9.089   4.832   0.432
42553SOL    HW127685   9.175   4.834   0.380
42553SOL    HW227686   9.103   4.879   0.520
42554SOL     OW27687   7.561   4.461   1.597
42554SOL    HW127688   7.649   4.448   1.642
42554SOL    HW227689   7.548   4.558   1.575
42555SOL     OW27690   8.061   5.089   0.726
42555SOL    HW127691   8.012   5.002   0.735
42555SOL    HW227692   8.038   5.132   0.639
42556SOL     OW27693   8.741   4.952   1.423
42556SOL    HW127694   8.778   4.879   1.365
42556SOL    HW227695   8.793   4.957   1.508
42557SOL     OW27696   8.257   3.728   0.502
42557SOL    HW127697   8.297   3.819   0.493
42557SOL    HW227698   8.157   3.736   0.508
42558SOL     OW27699   7.645   4.700   1.264
42558SOL    HW127700   7.734   4.655   1.250
42558SOL    HW227701   7.572   4.635   1.245
42559SOL     OW27702   8.973   4.723   0.190
42559SOL    HW127703   8.910   4.647   0.203
42559SOL    HW227704   9.021   4.741   0.276
42560SOL     OW27705   8.635   5.516   1.616
42560SOL    HW127706   8.659   5.576   1.540
42560SOL    HW227707   8.642   5.421   1.586
42561SOL     OW27708   7.765   3.975   1.801
42561SOL    HW127709   7.836   4.046   1.807
42561SOL    HW227710   7.677   4.014   1.829
42562SOL     OW27711   8.914   5.141   0.953
42562SOL    HW127712   8.855   5.147   1.033
42562SOL    HW227713   8.899   5.053   0.907
42563SOL     OW27714   9.115   5.438   0.572
42563SOL    HW127715   9.074   5.415   0.484
42563SOL    HW227716   9.097   5.364   0.637
42564SOL     OW27717   8.046   4.453   0.270
42564SOL    HW127718   8.070   4.522   0.202
42564SOL    HW227719   7.968   4.486   0.324
42565SOL     OW27720   8.729   4.069   0.944
42565SOL    HW127721   8.643   4.019   0.931
42565SOL    HW227722   8.791   4.015   1.000
42566SOL     OW27723   9.024   5.386   0.307
42566SOL    HW127724   9.113   5.432   0.310
42566SOL    HW227725   9.003   5.362   0.212
42567SOL     OW27726   8.255   4.329   1.465
42567SOL    HW127727   8.208   4.326   1.554
42567SOL    HW227728   8.204   4.274   1.399
42568SOL     OW27729   8.842   4.193   1.674
42568SOL    HW127730   8.822   4.236   1.762
42568SOL    HW227731   8.920   4.131   1.683
42569SOL     OW27732   8.421   4.614   1.572
42569SOL    HW127733   8.467   4.530   1.543
42569SOL    HW227734   8.365   4.648   1.497
42570SOL     OW27735   8.439   4.134   1.242
42570SOL    HW127736   8.362   4.168   1.296
42570SOL    HW227737   8.405   4.083   1.163
42571SOL     OW27738   8.489   4.425   0.429
42571SOL    HW127739   8.515   4.421   0.525
42571SOL    HW227740   8.404   4.374   0.415
42572SOL     OW27741   7.524   4.535   0.789
42572SOL    HW127742   7.623   4.523   0.798
42572SOL    HW227743   7.500   4.630   0.810
42573SOL     OW27744   7.578   5.545   1.571
42573SOL    HW127745   7.568   5.530   1.670
42573SOL    HW227746   7.492   5.581   1.535
42574SOL     OW27747   8.313   4.072   0.195
42574SOL    HW127748   8.372   4.135   0.146
42574SOL    HW227749   8.332   3.978   0.166
42575SOL     OW27750   9.167   4.309   1.831
42575SOL    HW127751   9.141   4.398   1.795
42575SOL    HW227752   9.165   4.241   1.758
42576SOL     OW27753   8.810   4.868   0.545
42576SOL    HW127754   8.893   4.839   0.497
42576SOL    HW227755   8.761   4.935   0.489
42577SOL     OW27756   7.998   3.920   0.885
42577SOL    HW127757   7.993   3.915   0.985
42577SOL    HW227758   8.000   4.016   0.856
42578SOL     OW27759   8.456   5.180   0.477
42578SOL    HW127760   8.410   5.252   0.425
42578SOL    HW227761   8.452   5.200   0.575
42579SOL     OW27762   7.799   5.525   0.853
42579SOL    HW127763   7.849   5.439   0.859
42579SOL    HW227764   7.864   5.602   0.850
42580SOL     OW27765   9.243   4.790   0.873
42580SOL    HW127766   9.181   4.775   0.797
42580SOL    HW227767   9.191   4.801   0.958
42581SOL     OW27768   8.675   5.274   1.506
42581SOL    HW127769   8.681   5.197   1.570
42581SOL    HW227770   8.623   5.248   1.426
42582SOL     OW27771   7.769   4.667   0.242
42582SOL    HW127772   7.851   4.706   0.200
42582SOL    HW227773   7.742   4.585   0.193
42583SOL     OW27774   8.906   4.459   0.728
42583SOL    HW127775   8.901   4.394   0.803
42583SOL    HW227776   8.986   4.518   0.741
42584SOL     OW27777   7.909   4.990   1.727
42584SOL    HW127778   7.859   4.991   1.641
42584SOL    HW227779   7.846   4.972   1.803
42585SOL     OW27780   8.559   5.500   0.237
42585SOL    HW127781   8.499   5.438   0.287
42585SOL    HW227782   8.590   5.456   0.152
42586SOL     OW27783   7.650   4.009   1.498
42586SOL    HW127784   7.570   4.069   1.485
42586SOL    HW227785   7.640   3.960   1.584
42587SOL     OW27786   9.080   5.101   0.081
42587SOL    HW127787   9.048   5.195   0.071
42587SOL    HW227788   9.004   5.038   0.069
42588SOL     OW27789   7.912   5.467   0.323
42588SOL    HW127790   7.945   5.506   0.409
42588SOL    HW227791   7.988   5.460   0.258
42589SOL     OW27792   8.848   3.831   0.426
42589SOL    HW127793   8.824   3.794   0.336
42589SOL    HW227794   8.947   3.847   0.430
42590SOL     OW27795   7.697   5.509   1.241
42590SOL    HW127796   7.754   5.444   1.291
42590SOL    HW227797   7.681   5.476   1.148
42591SOL     OW27798   8.388   5.422   0.904
42591SOL    HW127799   8.468   5.365   0.925
42591SOL    HW227800   8.339   5.382   0.827
42592SOL     OW27801   7.830   4.424   0.480
42592SOL    HW127802   7.875   4.334   0.477
42592SOL    HW227803   7.736   4.413   0.513
42593SOL     OW27804   8.995   3.946   1.729
42593SOL    HW127805   8.990   3.983   1.821
42593SOL    HW227806   8.923   3.877   1.717
42594SOL     OW27807   8.062   3.846   0.117
42594SOL    HW127808   8.160   3.824   0.124
42594SOL    HW227809   8.031   3.829   0.024
42595SOL     OW27810   8.229   3.988   1.749
42595SOL    HW127811   8.296   3.927   1.792
42595SOL    HW227812   8.156   4.007   1.814
42596SOL     OW27813   8.336   5.238   1.195
42596SOL    HW127814   8.313   5.213   1.101
42596SOL    HW227815   8.397   5.169   1.234
42597SOL     OW27816   8.799   4.314   1.433
42597SOL    HW127817   8.827   4.271   1.518
42597SOL    HW227818   8.824   4.410   1.434
42598SOL     OW27819   8.251   5.126   0.924
42598SOL    HW127820   8.341   5.140   0.882
42598SOL    HW227821   8.180   5.128   0.853
42599SOL     OW27822   8.370   4.227   0.899
42599SOL    HW127823   8.345   4.218   0.803
42599SOL    HW227824   8.418   4.145   0.930
42600SOL     OW27825   7.987   3.788   0.512
42600SOL    HW127826   7.906   3.789   0.570
42600SOL    HW227827   7.990   3.871   0.457
42601SOL     OW27828   8.882   4.912   0.041
42601SOL    HW127829   8.914   4.836   0.098
42601SOL    HW227830   8.790   4.939   0.071
42602SOL     OW27831   7.745   3.759   0.171
42602SOL    HW127832   7.794   3.843   0.150
42602SOL    HW227833   7.807   3.694   0.216
42603SOL     OW27834   8.383   3.960   0.480
42603SOL    HW127835   8.335   4.001   0.402
42603SOL    HW227836   8.482   3.958   0.461
42604SOL     OW27837   8.524   4.407   1.464
42604SOL    HW127838   8.444   4.346   1.467
42604SOL    HW227839   8.605   4.354   1.440
42605SOL     OW27840   8.675   5.294   0.793
42605SOL    HW127841   8.696   5.368   0.728
42605SOL    HW227842   8.743   5.294   0.866
42606SOL     OW27843   7.907   4.876   0.741
42606SOL    HW127844   7.836   4.849   0.806
42606SOL    HW227845   7.881   4.848   0.648
42607SOL     OW27846   8.719   5.521   0.591
42607SOL    HW127847   8.763   5.585   0.527
42607SOL    HW227848   8.669   5.573   0.661
42608SOL     OW27849   8.480   4.273   0.016
42608SOL    HW127850   8.439   4.355  -0.023
42608SOL    HW227851   8.544   4.299   0.089
42609SOL     OW27852   7.526   4.280   1.386
42609SOL    HW127853   7.618   4.279   1.345
42609SOL    HW227854   7.520   4.354   1.453
42610SOL     OW27855   8.009   3.946   1.147
42610SOL    HW127856   8.047   3.862   1.184
42610SOL    HW227857   7.921   3.965   1.191
42611SOL     OW27858   8.314   4.178   0.642
42611SOL    HW127859   8.282   4.250   0.580
42611SOL    HW227860   8.338   4.097   0.589
42612SOL     OW27861   8.465   3.763   0.753
42612SOL    HW127862   8.393   3.768   0.684
42612SOL    HW227863   8.441   3.694   0.822
42613SOL     OW27864   8.877   4.897   0.867
42613SOL    HW127865   8.822   4.813   0.860
42613SOL    HW227866   8.903   4.926   0.775
42614SOL     OW27867   8.914   4.314   0.992
42614SOL    HW127868   8.884   4.219   0.999
42614SOL    HW227869   8.987   4.330   1.058
42615SOL     OW27870   9.305   4.557   0.377
42615SOL    HW127871   9.347   4.493   0.441
42615SOL    HW227872   9.267   4.506   0.299
42616SOL     OW27873   7.936   5.109   0.174
42616SOL    HW127874   7.849   5.094   0.221
42616SOL    HW227875   7.919   5.135   0.079
42617SOL     OW27876   9.112   5.004   0.657
42617SOL    HW127877   9.211   5.012   0.671
42617SOL    HW227878   9.067   5.088   0.688
42618SOL     OW27879   8.838   4.299   0.078
42618SOL    HW127880   8.784   4.278   0.159
42618SOL    HW227881   8.929   4.258   0.087
42619SOL     OW27882   7.975   3.980   0.328
42619SOL    HW127883   8.002   3.921   0.253
42619SOL    HW227884   7.975   4.075   0.297
42620SOL     OW27885   9.202   4.947   1.588
42620SOL    HW127886   9.293   4.908   1.575
42620SOL    HW227887   9.210   5.043   1.612
42621SOL     OW27888   8.512   5.071   1.340
42621SOL    HW127889   8.432   5.048   1.395
42621SOL    HW227890   8.595   5.045   1.389
42622SOL     OW27891   9.040   5.353   1.625
42622SOL    HW127892   9.067   5.387   1.535
42622SOL    HW227893   9.119   5.315   1.671
42623SOL     OW27894   8.559   4.919   1.100
42623SOL    HW127895   8.519   4.963   1.181
42623SOL    HW227896   8.518   4.956   1.017
42624SOL     OW27897   9.086   4.823   1.079
42624SOL    HW127898   9.091   4.904   1.138
42624SOL    HW227899   9.000   4.825   1.028
42625SOL     OW27900   8.363   3.813   1.402
42625SOL    HW127901   8.388   3.793   1.307
42625SOL    HW227902   8.435   3.869   1.444
42626SOL     OW27903   8.428   4.840   1.719
42626SOL    HW127904   8.329   4.846   1.729
42626SOL    HW227905   8.451   4.760   1.663
42627SOL     OW27906   8.153   4.774   0.368
42627SOL    HW127907   8.139   4.781   0.467
42627SOL    HW227908   8.237   4.723   0.350
42628SOL     OW27909   7.858   4.537   1.251
42628SOL    HW127910   7.944   4.549   1.301
42628SOL    HW227911   7.816   4.450   1.278
42629SOL     OW27912   8.722   4.110   1.262
42629SOL    HW127913   8.743   4.184   1.326
42629SOL    HW227914   8.633   4.127   1.219
42630SOL     OW27915   7.512   5.288   1.331
42630SOL    HW127916   7.466   5.370   1.297
42630SOL    HW227917   7.610   5.307   1.340
42631SOL     OW27918   7.815   4.824   0.501
42631SOL    HW127919   7.808   4.907   0.445
42631SOL    HW227920   7.819   4.744   0.441
42632SOL     OW27921   8.014   4.261   0.865
42632SOL    HW127922   8.026   4.327   0.791
42632SOL    HW227923   8.060   4.295   0.948
42633SOL     OW27924   8.700   5.072   0.388
42633SOL    HW127925   8.750   5.149   0.428
42633SOL    HW227926   8.605   5.074   0.420
42634SOL     OW27927   8.720   5.169   1.142
42634SOL    HW127928   8.767   5.182   1.229
42634SOL    HW227929   8.654   5.095   1.151
42635SOL     OW27930   9.030   4.363   0.472
42635SOL    HW127931   8.999   4.424   0.545
42635SOL    HW227932   9.080   4.415   0.403
42636SOL     OW27933   7.802   5.234   1.329
42636SOL    HW127934   7.781   5.190   1.242
42636SOL    HW227935   7.899   5.260   1.332
42637SOL     OW27936   7.850   4.475   1.598
42637SOL    HW127937   7.918   4.530   1.551
42637SOL    HW227938   7.890   4.387   1.625
42638SOL     OW27939   9.035   4.503   1.670
42638SOL    HW127940   8.943   4.541   1.665
42638SOL    HW227941   9.095   4.550   1.605
42639SOL     OW27942   8.461   3.829   1.770
42639SOL    HW127943   8.467   3.914   1.718
42639SOL    HW227944   8.493   3.753   1.713
42640SOL     OW27945   7.952   3.774   1.740
42640SOL    HW127946   7.910   3.717   1.670
42640SOL    HW227947   7.886   3.843   1.772
42641SOL     OW27948   8.021   4.594   1.029
42641SOL    HW127949   8.065   4.683   1.020
42641SOL    HW227950   7.958   4.594   1.106
42642SOL     OW27951   8.808   4.586   1.045
42642SOL    HW127952   8.733   4.586   0.979
42642SOL    HW227953   8.845   4.494   1.054
42643SOL     OW27954   8.657   4.249   0.275
42643SOL    HW127955   8.670   4.165   0.329
42643SOL    HW227956   8.628   4.323   0.335
42644SOL     OW27957   7.755   3.937   1.231
42644SOL    HW127958   7.732   3.974   1.321
42644SOL    HW227959   7.725   3.842   1.225
42645SOL     OW27960   7.485   5.034   1.282
42645SOL    HW127961   7.538   4.985   1.350
42645SOL    HW227962   7.507   5.132   1.287
42646SOL     OW27963   8.180   4.358   1.064
42646SOL    HW127964   8.239   4.332   0.988
42646SOL    HW227965   8.152   4.454   1.053
42647SOL     OW27966   9.176   4.659   1.854
42647SOL    HW127967   9.130   4.652   1.765
42647SOL    HW227968   9.114   4.703   1.920
42648SOL     OW27969   7.755   3.787   0.618
42648SOL    HW127970   7.744   3.881   0.651
42648SOL    HW227971   7.750   3.724   0.695
42649SOL     OW27972   9.070   4.091   0.374
42649SOL    HW127973   9.072   4.015   0.438
42649SOL    HW227974   9.022   4.168   0.414
42650SOL     OW27975   8.471   4.490   0.966
42650SOL    HW127976   8.486   4.511   1.062
42650SOL    HW227977   8.441   4.395   0.957
42651SOL     OW27978   8.428   5.297   1.700
42651SOL    HW127979   8.408   5.341   1.612
42651SOL    HW227980   8.467   5.206   1.684
42652SOL     OW27981   9.307   5.242   1.605
42652SOL    HW127982   9.321   5.269   1.510
42652SOL    HW227983   9.390   5.264   1.658
42653SOL     OW27984   7.798   4.622   1.804
42653SOL    HW127985   7.874   4.666   1.852
42653SOL    HW227986   7.833   4.575   1.722
42654SOL     OW27987   8.988   3.998   0.125
42654SOL    HW127988   8.927   3.923   0.148
42654SOL    HW227989   9.010   4.050   0.208
42655SOL     OW27990   8.751   4.562   0.042
42655SOL    HW127991   8.785   4.469   0.057
42655SOL    HW227992   8.769   4.589  -0.053
42656SOL     OW27993   8.516   5.057   0.849
42656SOL    HW127994   8.523   4.973   0.794
42656SOL    HW227995   8.578   5.126   0.813
42657SOL     OW27996   7.767   4.534   0.949
42657SOL    HW127997   7.860   4.570   0.954
42657SOL    HW227998   7.761   4.449   1.001
42658SOL     OW27999   7.787   4.233   1.006
42658SOL    HW128000   7.735   4.150   0.989
42658SOL    HW228001   7.864   4.238   0.942
42659SOL     OW28002   8.586   4.104   1.678
42659SOL    HW128003   8.541   4.167   1.742
42659SOL    HW228004   8.679   4.135   1.661
42660SOL     OW28005   8.608   3.931   1.477
42660SOL    HW128006   8.608   3.995   1.554
42660SOL    HW228007   8.636   3.979   1.394
42661SOL     OW28008   7.456   5.050   0.200
42661SOL    HW128009   7.363   5.071   0.169
42661SOL    HW228010   7.466   4.951   0.213
42662SOL     OW28011   7.536   5.525   0.927
42662SOL    HW128012   7.494   5.439   0.900
42662SOL    HW228013   7.630   5.528   0.893
42663SOL     OW28014   7.952   5.292   0.910
42663SOL    HW128015   8.018   5.366   0.919
42663SOL    HW228016   7.996   5.213   0.868
42664SOL     OW28017   8.450   4.520   1.238
42664SOL    HW128018   8.491   4.488   1.324
42664SOL    HW228019   8.354   4.493   1.235
42665SOL     OW28020   7.488   4.268   1.114
42665SOL    HW128021   7.573   4.235   1.073
42665SOL    HW228022   7.501   4.283   1.212
42666SOL     OW28023   7.637   4.244   1.722
42666SOL    HW128024   7.696   4.204   1.652
42666SOL    HW228025   7.579   4.315   1.681
42667SOL     OW28026   8.817   4.674   1.660
42667SOL    HW128027   8.856   4.763   1.680
42667SOL    HW228028   8.827   4.654   1.563
42668SOL     OW28029   8.263   4.296   0.325
42668SOL    HW128030   8.270   4.207   0.279
42668SOL    HW228031   8.169   4.330   0.317
42669SOL     OW28032   9.105   4.328   1.206
42669SOL    HW128033   9.067   4.259   1.268
42669SOL    HW228034   9.187   4.292   1.162
42670SOL     OW28035   7.700   5.288   1.744
42670SOL    HW128036   7.670   5.345   1.820
42670SOL    HW228037   7.693   5.191   1.770
42671SOL     OW28038   8.119   4.188   1.269
42671SOL    HW128039   8.085   4.099   1.239
42671SOL    HW228040   8.145   4.242   1.189
42672SOL     OW28041   8.378   5.402   1.465
42672SOL    HW128042   8.354   5.384   1.370
42672SOL    HW228043   8.408   5.496   1.475
42673SOL     OW28044   7.921   4.224   0.191
42673SOL    HW128045   7.982   4.304   0.195
42673SOL    HW228046   7.826   4.255   0.198
42674SOL     OW28047   7.607   4.861   1.466
42674SOL    HW128048   7.629   4.800   1.542
42674SOL    HW228049   7.617   4.812   1.380
42675SOL     OW28050   8.795   4.783   1.234
42675SOL    HW128051   8.819   4.720   1.160
42675SOL    HW228052   8.705   4.823   1.216
42676SOL     OW28053   8.750   4.579   0.309
42676SOL    HW128054   8.664   4.548   0.351
42676SOL    HW228055   8.746   4.565   0.210
42677SOL     OW28056   9.207   5.471   1.154
42677SOL    HW128057   9.268   5.501   1.081
42677SOL    HW228058   9.169   5.382   1.132
42678SOL     OW28059   8.700   5.455   1.128
42678SOL    HW128060   8.784   5.460   1.074
42678SOL    HW228061   8.677   5.359   1.146
42679SOL     OW28062   7.531   4.982   1.022
42679SOL    HW128063   7.526   4.981   1.122
42679SOL    HW228064   7.448   4.941   0.984
42680SOL     OW28065   8.136   5.386   1.716
42680SOL    HW128066   8.080   5.467   1.725
42680SOL    HW228067   8.188   5.390   1.630
42681SOL     OW28068   8.351   3.810   0.133
42681SOL    HW128069   8.402   3.811   0.047
42681SOL    HW228070   8.407   3.768   0.204
42682SOL     OW28071   9.174   3.859   0.523
42682SOL    HW128072   9.247   3.842   0.456
42682SOL    HW228073   9.143   3.772   0.561
42683SOL     OW28074   8.836   5.297   0.477
42683SOL    HW128075   8.903   5.309   0.403
42683SOL    HW228076   8.796   5.386   0.500
42684SOL     OW28077   7.578   5.518   1.851
42684SOL    HW128078   7.537   5.444   1.904
42684SOL    HW228079   7.642   5.569   1.909
42685SOL     OW28080   8.728   4.651   0.672
42685SOL    HW128081   8.788   4.570   0.674
42685SOL    HW228082   8.768   4.720   0.612
42686SOL     OW28083   8.278   4.997   1.422
42686SOL    HW128084   8.273   5.030   1.517
42686SOL    HW228085   8.192   5.016   1.376
42687SOL     OW28086   8.120   5.340   0.154
42687SOL    HW128087   8.129   5.350   0.055
42687SOL    HW228088   8.080   5.251   0.175
42688SOL     OW28089   9.098   5.444   1.394
42688SOL    HW128090   9.151   5.454   1.310
42688SOL    HW228091   9.071   5.534   1.428
42689SOL     OW28092   9.289   3.899   0.963
42689SOL    HW128093   9.328   3.814   0.927
42689SOL    HW228094   9.191   3.901   0.944
42690SOL     OW28095   7.711   4.050   0.720
42690SOL    HW128096   7.632   4.101   0.686
42690SOL    HW228097   7.702   4.035   0.818
42691SOL     OW28098   8.642   5.336   0.031
42691SOL    HW128099   8.648   5.243   0.068
42691SOL    HW228100   8.583   5.336  -0.049
42692SOL     OW28101   8.270   4.726   1.372
42692SOL    HW128102   8.310   4.725   1.280
42692SOL    HW228103   8.280   4.818   1.412
42693SOL     OW28104   8.364   4.634   0.291
42693SOL    HW128105   8.427   4.672   0.223
42693SOL    HW228106   8.404   4.551   0.330
42694SOL     OW28107   8.952   5.331   0.044
42694SOL    HW128108   8.860   5.368   0.051
42694SOL    HW228109   8.990   5.351  -0.046
42695SOL     OW28110   7.820   5.012   1.490
42695SOL    HW128111   7.807   5.105   1.456
42695SOL    HW228112   7.736   4.960   1.477
42696SOL     OW28113   9.062   5.016   1.289
42696SOL    HW128114   9.122   5.019   1.369
42696SOL    HW228115   8.987   5.080   1.302
42697SOL     OW28116   8.487   4.822   0.696
42697SOL    HW128117   8.417   4.775   0.750
42697SOL    HW228118   8.546   4.754   0.653
42698SOL     OW28119   8.462   3.960   0.971
42698SOL    HW128120   8.454   3.924   0.878
42698SOL    HW228121   8.460   3.884   1.036
42699SOL     OW28122   8.038   5.211   0.491
42699SOL    HW128123   8.080   5.153   0.421
42699SOL    HW228124   7.994   5.290   0.447
42700SOL     OW28125   9.157   4.109   1.381
42700SOL    HW128126   9.230   4.178   1.385
42700SOL    HW228127   9.185   4.034   1.322
42701SOL     OW28128   7.703   5.072   0.290
42701SOL    HW128129   7.607   5.073   0.263
42701SOL    HW228130   7.715   5.125   0.374
42702SOL     OW28131   7.553   4.737   1.726
42702SOL    HW128132   7.476   4.704   1.780
42702SOL    HW228133   7.638   4.707   1.768
42703SOL     OW28134   8.120   3.927   1.489
42703SOL    HW128135   8.210   3.911   1.449
42703SOL    HW228136   8.128   3.932   1.588
42704SOL     OW28137   8.888   4.580   1.398
42704SOL    HW128138   8.831   4.632   1.335
42704SOL    HW228139   8.984   4.592   1.374
42705SOL     OW28140   7.520   3.890   0.318
42705SOL    HW128141   7.503   3.973   0.264
42705SOL    HW228142   7.610   3.853   0.296
42706SOL     OW28143   8.631   5.059   0.119
42706SOL    HW128144   8.532   5.048   0.121
42706SOL    HW228145   8.665   5.074   0.212
42707SOL     OW28146   8.061   4.566   1.431
42707SOL    HW128147   8.117   4.647   1.414
42707SOL    HW228148   8.120   4.486   1.434
42708SOL     OW28149   8.941   5.491   0.959
42708SOL    HW128150   8.974   5.555   0.890
42708SOL    HW228151   9.007   5.485   1.034
42709SOL     OW28152   8.164   4.289   1.708
42709SOL    HW128153   8.183   4.354   1.782
42709SOL    HW228154   8.224   4.209   1.717
42710SOL     OW28155   8.898   4.944   1.633
42710SOL    HW128156   8.889   4.934   1.732
42710SOL    HW228157   8.994   4.937   1.607
42711SOL     OW28158   7.838   5.465   1.560
42711SOL    HW128159   7.747   5.506   1.558
42711SOL    HW228160   7.831   5.371   1.592
42712SOL     OW28161   9.122   4.607   1.254
42712SOL    HW128162   9.095   4.518   1.217
42712SOL    HW228163   9.123   4.675   1.181
42713SOL     OW28164   8.673   4.049   0.449
42713SOL    HW128165   8.738   3.975   0.438
42713SOL    HW228166   8.693   4.099   0.533
42714SOL     OW28167   8.042   4.469   0.652
42714SOL    HW128168   8.092   4.554   0.633
42714SOL    HW228169   7.954   4.471   0.604
42715SOL     OW28170   9.225   4.066   1.642
42715SOL    HW128171   9.208   4.097   1.548
42715SOL    HW228172   9.141   4.029   1.680
42716SOL     OW28173   9.178   4.658   1.517
42716SOL    HW128174   9.216   4.749   1.532
42716SOL    HW228175   9.170   4.641   1.418
42717SOL     OW28176   8.307   5.098   0.016
42717SOL    HW128177   8.261   5.113   0.104
42717SOL    HW228178   8.351   5.183  -0.014
42718SOL     OW28179   8.109   5.514   0.953
42718SOL    HW128180   8.063   5.602   0.940
42718SOL    HW228181   8.208   5.526   0.946
42719SOL     OW28182   8.307   4.680   0.861
42719SOL    HW128183   8.361   4.611   0.909
42719SOL    HW228184   8.275   4.749   0.927
42720SOL     OW28185   8.531   4.708   0.087
42720SOL    HW128186   8.508   4.761   0.005
42720SOL    HW228187   8.612   4.652   0.068
42721SOL     OW28188   9.309   5.293   0.851
42721SOL    HW128189   9.238   5.281   0.781
42721SOL    HW228190   9.310   5.214   0.911
42722SOL     OW28191   7.669   5.038   1.844
42722SOL    HW128192   7.604   4.965   1.823
42722SOL    HW228193   7.673   5.052   1.942
42723SOL     OW28194   7.527   4.964   0.653
42723SOL    HW128195   7.526   4.917   0.741
42723SOL    HW228196   7.609   4.936   0.602
42724SOL     OW28197   8.120   5.115   1.624
42724SOL    HW128198   8.042   5.065   1.662
42724SOL    HW228199   8.117   5.210   1.655
42725SOL     OW28200   9.272   3.916   1.227
42725SOL    HW128201   9.268   3.826   1.271
42725SOL    HW228202   9.275   3.905   1.128
42726SOL     OW28203   7.876   4.148   0.520
42726SOL    HW128204   7.906   4.076   0.458
42726SOL    HW228205   7.837   4.108   0.603
42727SOL     OW28206   9.153   5.211   1.104
42727SOL    HW128207   9.060   5.186   1.077
42727SOL    HW228208   9.179   5.161   1.186
42728SOL     OW28209   7.765   4.271   1.280
42728SOL    HW128210   7.803   4.212   1.352
42728SOL    HW228211   7.805   4.245   1.192
42729SOL     OW28212   8.260   5.310   0.687
42729SOL    HW128213   8.292   5.320   0.593
42729SOL    HW228214   8.181   5.248   0.689
42730SOL     OW28215   8.872   3.938   1.112
42730SOL    HW128216   8.924   3.873   1.167
42730SOL    HW228217   8.823   4.001   1.173
42731SOL     OW28218   8.449   3.758   1.154
42731SOL    HW128219   8.386   3.686   1.123
42731SOL    HW228220   8.542   3.722   1.154
42732SOL     OW28221   8.218   5.054   0.301
42732SOL    HW128222   8.172   4.967   0.318
42732SOL    HW228223   8.309   5.051   0.342
42733SOL     OW28224   8.066   5.291   1.284
42733SOL    HW128225   8.061   5.373   1.341
42733SOL    HW228226   8.155   5.288   1.239
42734SOL     OW28227   8.800   3.776   0.168
42734SOL    HW128228   8.835   3.735   0.084
42734SOL    HW228229   8.710   3.738   0.188
42735SOL     OW28230   8.748   4.177   0.691
42735SOL    HW128231   8.689   4.257   0.695
42735SOL    HW228232   8.763   4.142   0.784
42736SOL     OW28233   9.041   3.945   0.882
42736SOL    HW128234   8.957   3.944   0.936
42736SOL    HW228235   9.043   4.028   0.826
42737SOL     OW28236   7.487   4.801   0.300
42737SOL    HW128237   7.586   4.790   0.291
42737SOL    HW228238   7.447   4.715   0.332
42738SOL     OW28239   8.323   5.370   0.337
42738SOL    HW128240   8.246   5.335   0.283
42738SOL    HW228241   8.291   5.441   0.399
42739SOL     OW28242   7.678   4.352   1.975
42739SOL    HW128243   7.585   4.350   2.012
42739SOL    HW228244   7.679   4.313   1.883
42740SOL     OW28245   7.673   3.999   2.858
42740SOL    HW128246   7.708   3.982   2.950
42740SOL    HW228247   7.585   3.954   2.846
42741SOL     OW28248   7.467   4.092   2.509
42741SOL    HW128249   7.385   4.135   2.548
42741SOL    HW228250   7.439   4.019   2.446
42742SOL     OW28251   8.017   4.999   3.027
42742SOL    HW128252   7.924   4.992   2.990
42742SOL    HW228253   8.028   5.088   3.071
42743SOL     OW28254   9.003   5.235   2.565
42743SOL    HW128255   8.946   5.219   2.646
42743SOL    HW228256   8.944   5.245   2.485
42744SOL     OW28257   8.583   4.427   2.579
42744SOL    HW128258   8.640   4.505   2.554
42744SOL    HW228259   8.523   4.453   2.655
42745SOL     OW28260   9.203   4.331   2.093
42745SOL    HW128261   9.191   4.318   1.994
42745SOL    HW228262   9.173   4.250   2.142
42746SOL     OW28263   8.216   4.868   2.885
42746SOL    HW128264   8.138   4.885   2.945
42746SOL    HW228265   8.250   4.955   2.849
42747SOL     OW28266   8.298   4.522   3.685
42747SOL    HW128267   8.294   4.598   3.750
42747SOL    HW228268   8.320   4.558   3.594
42748SOL     OW28269   8.133   4.736   2.527
42748SOL    HW128270   8.202   4.720   2.597
42748SOL    HW228271   8.060   4.793   2.565
42749SOL     OW28272   8.134   4.885   3.665
42749SOL    HW128273   8.194   4.964   3.679
42749SOL    HW228274   8.048   4.916   3.624
42750SOL     OW28275   7.783   5.159   2.923
42750SOL    HW128276   7.705   5.128   2.870
42750SOL    HW228277   7.841   5.217   2.866
42751SOL     OW28278   8.908   5.229   3.201
42751SOL    HW128279   8.932   5.323   3.227
42751SOL    HW228280   8.892   5.175   3.283
42752SOL     OW28281   7.886   4.116   3.361
42752SOL    HW128282   7.968   4.060   3.370
42752SOL    HW228283   7.805   4.058   3.365
42753SOL     OW28284   9.051   4.171   2.599
42753SOL    HW128285   8.977   4.217   2.549
42753SOL    HW228286   9.102   4.239   2.652
42754SOL     OW28287   7.679   5.437   2.345
42754SOL    HW128288   7.713   5.514   2.399
42754SOL    HW228289   7.723   5.437   2.255
42755SOL     OW28290   8.575   5.065   3.552
42755SOL    HW128291   8.622   5.065   3.640
42755SOL    HW228292   8.527   4.978   3.541
42756SOL     OW28293   7.678   5.158   2.400
42756SOL    HW128294   7.652   5.254   2.400
42756SOL    HW228295   7.607   5.104   2.445
42757SOL     OW28296   7.688   4.815   2.748
42757SOL    HW128297   7.702   4.731   2.800
42757SOL    HW228298   7.633   4.879   2.803
42758SOL     OW28299   8.068   5.510   3.301
42758SOL    HW128300   7.976   5.493   3.336
42758SOL    HW228301   8.096   5.602   3.327
42759SOL     OW28302   8.054   4.688   1.985
42759SOL    HW128303   8.061   4.772   1.931
42759SOL    HW228304   8.100   4.701   2.073
42760SOL     OW28305   9.042   3.838   3.342
42760SOL    HW128306   9.024   3.905   3.270
42760SOL    HW228307   9.039   3.884   3.431
42761SOL     OW28308   7.570   4.367   2.425
42761SOL    HW128309   7.525   4.279   2.442
42761SOL    HW228310   7.569   4.421   2.509
42762SOL     OW28311   9.290   5.491   2.221
42762SOL    HW128312   9.344   5.462   2.301
42762SOL    HW228313   9.320   5.581   2.192
42763SOL     OW28314   7.475   5.320   1.979
42763SOL    HW128315   7.456   5.224   2.000
42763SOL    HW228316   7.442   5.378   2.054
42764SOL     OW28317   9.137   4.646   2.474
42764SOL    HW128318   9.232   4.617   2.482
42764SOL    HW228319   9.129   4.711   2.399
42765SOL     OW28320   9.089   4.832   2.294
42765SOL    HW128321   9.175   4.834   2.242
42765SOL    HW228322   9.103   4.879   2.382
42766SOL     OW28323   7.561   4.461   3.459
42766SOL    HW128324   7.649   4.448   3.504
42766SOL    HW228325   7.548   4.558   3.437
42767SOL     OW28326   8.061   5.089   2.588
42767SOL    HW128327   8.012   5.002   2.597
42767SOL    HW228328   8.038   5.132   2.501
42768SOL     OW28329   8.741   4.952   3.285
42768SOL    HW128330   8.778   4.879   3.227
42768SOL    HW228331   8.793   4.957   3.370
42769SOL     OW28332   8.257   3.728   2.364
42769SOL    HW128333   8.297   3.819   2.355
42769SOL    HW228334   8.157   3.736   2.370
42770SOL     OW28335   7.645   4.700   3.126
42770SOL    HW128336   7.734   4.655   3.112
42770SOL    HW228337   7.572   4.635   3.107
42771SOL     OW28338   8.973   4.723   2.052
42771SOL    HW128339   8.910   4.647   2.065
42771SOL    HW228340   9.021   4.741   2.138
42772SOL     OW28341   8.635   5.516   3.478
42772SOL    HW128342   8.659   5.576   3.402
42772SOL    HW228343   8.642   5.421   3.448
42773SOL     OW28344   7.765   3.975   3.663
42773SOL    HW128345   7.836   4.046   3.669
42773SOL    HW228346   7.677   4.014   3.691
42774SOL     OW28347   8.914   5.141   2.815
42774SOL    HW128348   8.855   5.147   2.895
42774SOL    HW228349   8.899   5.053   2.769
42775SOL     OW28350   9.115   5.438   2.434
42775SOL    HW128351   9.074   5.415   2.346
42775SOL    HW228352   9.097   5.364   2.499
42776SOL     OW28353   8.046   4.453   2.132
42776SOL    HW128354   8.070   4.522   2.064
42776SOL    HW228355   7.968   4.486   2.186
42777SOL     OW28356   8.729   4.069   2.806
42777SOL    HW128357   8.643   4.019   2.793
42777SOL    HW228358   8.791   4.015   2.862
42778SOL     OW28359   9.024   5.386   2.169
42778SOL    HW128360   9.113   5.432   2.172
42778SOL    HW228361   9.003   5.362   2.074
42779SOL     OW28362   8.255   4.329   3.327
42779SOL    HW128363   8.208   4.326   3.416
42779SOL    HW228364   8.204   4.274   3.261
42780SOL     OW28365   8.842   4.193   3.536
42780SOL    HW128366   8.822   4.236   3.624
42780SOL    HW228367   8.920   4.131   3.545
42781SOL     OW28368   8.421   4.614   3.434
42781SOL    HW128369   8.467   4.530   3.405
42781SOL    HW228370   8.365   4.648   3.359
42782SOL     OW28371   8.439   4.134   3.104
42782SOL    HW128372   8.362   4.168   3.158
42782SOL    HW228373   8.405   4.083   3.025
42783SOL     OW28374   8.489   4.425   2.291
42783SOL    HW128375   8.515   4.421   2.387
42783SOL    HW228376   8.404   4.374   2.277
42784SOL     OW28377   7.524   4.535   2.651
42784SOL    HW128378   7.623   4.523   2.660
42784SOL    HW228379   7.500   4.630   2.672
42785SOL     OW28380   7.578   5.545   3.433
42785SOL    HW128381   7.568   5.530   3.532
42785SOL    HW228382   7.492   5.581   3.397
42786SOL     OW28383   8.313   4.072   2.057
42786SOL    HW128384   8.372   4.135   2.008
42786SOL    HW228385   8.332   3.978   2.028
42787SOL     OW28386   9.167   4.309   3.693
42787SOL    HW128387   9.141   4.398   3.657
42787SOL    HW228388   9.165   4.241   3.620
42788SOL     OW28389   8.810   4.868   2.407
42788SOL    HW128390   8.893   4.839   2.359
42788SOL    HW228391   8.761   4.935   2.351
42789SOL     OW28392   7.998   3.920   2.747
42789SOL    HW128393   7.993   3.915   2.847
42789SOL    HW228394   8.000   4.016   2.718
42790SOL     OW28395   8.456   5.180   2.339
42790SOL    HW128396   8.410   5.252   2.287
42790SOL    HW228397   8.452   5.200   2.437
42791SOL     OW28398   7.799   5.525   2.715
42791SOL    HW128399   7.849   5.439   2.721
42791SOL    HW228400   7.864   5.602   2.712
42792SOL     OW28401   9.243   4.790   2.735
42792SOL    HW128402   9.181   4.775   2.659
42792SOL    HW228403   9.191   4.801   2.820
42793SOL     OW28404   8.675   5.274   3.368
42793SOL    HW128405   8.681   5.197   3.432
42793SOL    HW228406   8.623   5.248   3.288
42794SOL     OW28407   7.769   4.667   2.104
42794SOL    HW128408   7.851   4.706   2.062
42794SOL    HW228409   7.742   4.585   2.055
42795SOL     OW28410   8.906   4.459   2.590
42795SOL    HW128411   8.901   4.394   2.665
42795SOL    HW228412   8.986   4.518   2.603
42796SOL     OW28413   7.909   4.990   3.589
42796SOL    HW128414   7.859   4.991   3.503
42796SOL    HW228415   7.846   4.972   3.665
42797SOL     OW28416   8.559   5.500   2.099
42797SOL    HW128417   8.499   5.438   2.149
42797SOL    HW228418   8.590   5.456   2.014
42798SOL     OW28419   7.650   4.009   3.360
42798SOL    HW128420   7.570   4.069   3.347
42798SOL    HW228421   7.640   3.960   3.446
42799SOL     OW28422   9.080   5.101   1.943
42799SOL    HW128423   9.048   5.195   1.933
42799SOL    HW228424   9.004   5.038   1.931
42800SOL     OW28425   7.912   5.467   2.185
42800SOL    HW128426   7.945   5.506   2.271
42800SOL    HW228427   7.988   5.460   2.120
42801SOL     OW28428   8.848   3.831   2.288
42801SOL    HW128429   8.824   3.794   2.198
42801SOL    HW228430   8.947   3.847   2.292
42802SOL     OW28431   7.697   5.509   3.103
42802SOL    HW128432   7.754   5.444   3.153
42802SOL    HW228433   7.681   5.476   3.010
42803SOL     OW28434   8.388   5.422   2.766
42803SOL    HW128435   8.468   5.365   2.787
42803SOL    HW228436   8.339   5.382   2.689
42804SOL     OW28437   7.830   4.424   2.342
42804SOL    HW128438   7.875   4.334   2.339
42804SOL    HW228439   7.736   4.413   2.375
42805SOL     OW28440   8.995   3.946   3.591
42805SOL    HW128441   8.990   3.983   3.683
42805SOL    HW228442   8.923   3.877   3.579
42806SOL     OW28443   8.062   3.846   1.979
42806SOL    HW128444   8.160   3.824   1.986
42806SOL    HW228445   8.031   3.829   1.886
42807SOL     OW28446   8.229   3.988   3.611
42807SOL    HW128447   8.296   3.927   3.654
42807SOL    HW228448   8.156   4.007   3.676
42808SOL     OW28449   8.336   5.238   3.057
42808SOL    HW128450   8.313   5.213   2.963
42808SOL    HW228451   8.397   5.169   3.096
42809SOL     OW28452   8.799   4.314   3.295
42809SOL    HW128453   8.827   4.271   3.380
42809SOL    HW228454   8.824   4.410   3.296
42810SOL     OW28455   8.251   5.126   2.786
42810SOL    HW128456   8.341   5.140   2.744
42810SOL    HW228457   8.180   5.128   2.715
42811SOL     OW28458   8.370   4.227   2.761
42811SOL    HW128459   8.345   4.218   2.665
42811SOL    HW228460   8.418   4.145   2.792
42812SOL     OW28461   7.987   3.788   2.374
42812SOL    HW128462   7.906   3.789   2.432
42812SOL    HW228463   7.990   3.871   2.319
42813SOL     OW28464   8.882   4.912   1.903
42813SOL    HW128465   8.914   4.836   1.960
42813SOL    HW228466   8.790   4.939   1.933
42814SOL     OW28467   7.745   3.759   2.033
42814SOL    HW128468   7.794   3.843   2.012
42814SOL    HW228469   7.807   3.694   2.078
42815SOL     OW28470   8.383   3.960   2.342
42815SOL    HW128471   8.335   4.001   2.264
42815SOL    HW228472   8.482   3.958   2.323
42816SOL     OW28473   8.524   4.407   3.326
42816SOL    HW128474   8.444   4.346   3.329
42816SOL    HW228475   8.605   4.354   3.302
42817SOL     OW28476   8.675   5.294   2.655
42817SOL    HW128477   8.696   5.368   2.590
42817SOL    HW228478   8.743   5.294   2.728
42818SOL     OW28479   7.907   4.876   2.603
42818SOL    HW128480   7.836   4.849   2.668
42818SOL    HW228481   7.881   4.848   2.510
42819SOL     OW28482   8.719   5.521   2.453
42819SOL    HW128483   8.763   5.585   2.389
42819SOL    HW228484   8.669   5.573   2.523
42820SOL     OW28485   8.480   4.273   1.878
42820SOL    HW128486   8.439   4.355   1.839
42820SOL    HW228487   8.544   4.299   1.951
42821SOL     OW28488   7.526   4.280   3.248
42821SOL    HW128489   7.618   4.279   3.207
42821SOL    HW228490   7.520   4.354   3.315
42822SOL     OW28491   8.009   3.946   3.009
42822SOL    HW128492   8.047   3.862   3.046
42822SOL    HW228493   7.921   3.965   3.053
42823SOL     OW28494   8.314   4.178   2.504
42823SOL    HW128495   8.282   4.250   2.442
42823SOL    HW228496   8.338   4.097   2.451
42824SOL     OW28497   8.465   3.763   2.615
42824SOL    HW128498   8.393   3.768   2.546
42824SOL    HW228499   8.441   3.694   2.684
42825SOL     OW28500   8.877   4.897   2.729
42825SOL    HW128501   8.822   4.813   2.722
42825SOL    HW228502   8.903   4.926   2.637
42826SOL     OW28503   8.914   4.314   2.854
42826SOL    HW128504   8.884   4.219   2.861
42826SOL    HW228505   8.987   4.330   2.920
42827SOL     OW28506   9.305   4.557   2.239
42827SOL    HW128507   9.347   4.493   2.303
42827SOL    HW228508   9.267   4.506   2.161
42828SOL     OW28509   7.936   5.109   2.036
42828SOL    HW128510   7.849   5.094   2.083
42828SOL    HW228511   7.919   5.135   1.941
42829SOL     OW28512   9.112   5.004   2.519
42829SOL    HW128513   9.211   5.012   2.533
42829SOL    HW228514   9.067   5.088   2.550
42830SOL     OW28515   8.838   4.299   1.940
42830SOL    HW128516   8.784   4.278   2.021
42830SOL    HW228517   8.929   4.258   1.949
42831SOL     OW28518   7.975   3.980   2.190
42831SOL    HW128519   8.002   3.921   2.115
42831SOL    HW228520   7.975   4.075   2.159
42832SOL     OW28521   9.202   4.947   3.450
42832SOL    HW128522   9.293   4.908   3.437
42832SOL    HW228523   9.210   5.043   3.474
42833SOL     OW28524   8.512   5.071   3.202
42833SOL    HW128525   8.432   5.048   3.257
42833SOL    HW228526   8.595   5.045   3.251
42834SOL     OW28527   9.040   5.353   3.487
42834SOL    HW128528   9.067   5.387   3.397
42834SOL    HW228529   9.119   5.315   3.533
42835SOL     OW28530   8.559   4.919   2.962
42835SOL    HW128531   8.519   4.963   3.043
42835SOL    HW228532   8.518   4.956   2.879
42836SOL     OW28533   9.086   4.823   2.941
42836SOL    HW128534   9.091   4.904   3.000
42836SOL    HW228535   9.000   4.825   2.890
42837SOL     OW28536   8.363   3.813   3.264
42837SOL    HW128537   8.388   3.793   3.169
42837SOL    HW228538   8.435   3.869   3.306
42838SOL     OW28539   8.428   4.840   3.581
42838SOL    HW128540   8.329   4.846   3.591
42838SOL    HW228541   8.451   4.760   3.525
42839SOL     OW28542   8.153   4.774   2.230
42839SOL    HW128543   8.139   4.781   2.329
42839SOL    HW228544   8.237   4.723   2.212
42840SOL     OW28545   7.858   4.537   3.113
42840SOL    HW128546   7.944   4.549   3.163
42840SOL    HW228547   7.816   4.450   3.140
42841SOL     OW28548   8.722   4.110   3.124
42841SOL    HW128549   8.743   4.184   3.188
42841SOL    HW228550   8.633   4.127   3.081
42842SOL     OW28551   7.512   5.288   3.193
42842SOL    HW128552   7.466   5.370   3.159
42842SOL    HW228553   7.610   5.307   3.202
42843SOL     OW28554   7.815   4.824   2.363
42843SOL    HW128555   7.808   4.907   2.307
42843SOL    HW228556   7.819   4.744   2.303
42844SOL     OW28557   8.014   4.261   2.727
42844SOL    HW128558   8.026   4.327   2.653
42844SOL    HW228559   8.060   4.295   2.810
42845SOL     OW28560   8.700   5.072   2.250
42845SOL    HW128561   8.750   5.149   2.290
42845SOL    HW228562   8.605   5.074   2.282
42846SOL     OW28563   8.720   5.169   3.004
42846SOL    HW128564   8.767   5.182   3.091
42846SOL    HW228565   8.654   5.095   3.013
42847SOL     OW28566   9.030   4.363   2.334
42847SOL    HW128567   8.999   4.424   2.407
42847SOL    HW228568   9.080   4.415   2.265
42848SOL     OW28569   7.802   5.234   3.191
42848SOL    HW128570   7.781   5.190   3.104
42848SOL    HW228571   7.899   5.260   3.194
42849SOL     OW28572   7.850   4.475   3.460
42849SOL    HW128573   7.918   4.530   3.413
42849SOL    HW228574   7.890   4.387   3.487
42850SOL     OW28575   9.035   4.503   3.532
42850SOL    HW128576   8.943   4.541   3.527
42850SOL    HW228577   9.095   4.550   3.467
42851SOL     OW28578   8.461   3.829   3.632
42851SOL    HW128579   8.467   3.914   3.580
42851SOL    HW228580   8.493   3.753   3.575
42852SOL     OW28581   7.952   3.774   3.602
42852SOL    HW128582   7.910   3.717   3.532
42852SOL    HW228583   7.886   3.843   3.634
42853SOL     OW28584   8.021   4.594   2.891
42853SOL    HW128585   8.065   4.683   2.882
42853SOL    HW228586   7.958   4.594   2.968
42854SOL     OW28587   8.808   4.586   2.907
42854SOL    HW128588   8.733   4.586   2.841
42854SOL    HW228589   8.845   4.494   2.916
42855SOL     OW28590   8.657   4.249   2.137
42855SOL    HW128591   8.670   4.165   2.191
42855SOL    HW228592   8.628   4.323   2.197
42856SOL     OW28593   7.755   3.937   3.093
42856SOL    HW128594   7.732   3.974   3.183
42856SOL    HW228595   7.725   3.842   3.087
42857SOL     OW28596   7.485   5.034   3.144
42857SOL    HW128597   7.538   4.985   3.212
42857SOL    HW228598   7.507   5.132   3.149
42858SOL     OW28599   8.180   4.358   2.926
42858SOL    HW128600   8.239   4.332   2.850
42858SOL    HW228601   8.152   4.454   2.915
42859SOL     OW28602   9.176   4.659   3.716
42859SOL    HW128603   9.130   4.652   3.627
42859SOL    HW228604   9.114   4.703   3.782
42860SOL     OW28605   7.755   3.787   2.480
42860SOL    HW128606   7.744   3.881   2.513
42860SOL    HW228607   7.750   3.724   2.557
42861SOL     OW28608   9.070   4.091   2.236
42861SOL    HW128609   9.072   4.015   2.300
42861SOL    HW228610   9.022   4.168   2.276
42862SOL     OW28611   8.471   4.490   2.828
42862SOL    HW128612   8.486   4.511   2.924
42862SOL    HW228613   8.441   4.395   2.819
42863SOL     OW28614   8.428   5.297   3.562
42863SOL    HW128615   8.408   5.341   3.474
42863SOL    HW228616   8.467   5.206   3.546
42864SOL     OW28617   9.307   5.242   3.467
42864SOL    HW128618   9.321   5.269   3.372
42864SOL    HW228619   9.390   5.264   3.520
42865SOL     OW28620   7.798   4.622   3.666
42865SOL    HW128621   7.874   4.666   3.714
42865SOL    HW228622   7.833   4.575   3.584
42866SOL     OW28623   8.988   3.998   1.987
42866SOL    HW128624   8.927   3.923   2.010
42866SOL    HW228625   9.010   4.050   2.070
42867SOL     OW28626   8.751   4.562   1.904
42867SOL    HW128627   8.785   4.469   1.919
42867SOL    HW228628   8.769   4.589   1.809
42868SOL     OW28629   8.516   5.057   2.711
42868SOL    HW128630   8.523   4.973   2.656
42868SOL    HW228631   8.578   5.126   2.675
42869SOL     OW28632   7.767   4.534   2.811
42869SOL    HW128633   7.860   4.570   2.816
42869SOL    HW228634   7.761   4.449   2.863
42870SOL     OW28635   7.787   4.233   2.868
42870SOL    HW128636   7.735   4.150   2.851
42870SOL    HW228637   7.864   4.238   2.804
42871SOL     OW28638   8.586   4.104   3.540
42871SOL    HW128639   8.541   4.167   3.604
42871SOL    HW228640   8.679   4.135   3.523
42872SOL     OW28641   8.608   3.931   3.339
42872SOL    HW128642   8.608   3.995   3.416
42872SOL    HW228643   8.636   3.979   3.256
42873SOL     OW28644   7.456   5.050   2.062
42873SOL    HW128645   7.363   5.071   2.031
42873SOL    HW228646   7.466   4.951   2.075
42874SOL     OW28647   7.536   5.525   2.789
42874SOL    HW128648   7.494   5.439   2.762
42874SOL    HW228649   7.630   5.528   2.755
42875SOL     OW28650   7.952   5.292   2.772
42875SOL    HW128651   8.018   5.366   2.781
42875SOL    HW228652   7.996   5.213   2.730
42876SOL     OW28653   8.450   4.520   3.100
42876SOL    HW128654   8.491   4.488   3.186
42876SOL    HW228655   8.354   4.493   3.097
42877SOL     OW28656   7.488   4.268   2.976
42877SOL    HW128657   7.573   4.235   2.935
42877SOL    HW228658   7.501   4.283   3.074
42878SOL     OW28659   7.637   4.244   3.584
42878SOL    HW128660   7.696   4.204   3.514
42878SOL    HW228661   7.579   4.315   3.543
42879SOL     OW28662   8.817   4.674   3.522
42879SOL    HW128663   8.856   4.763   3.542
42879SOL    HW228664   8.827   4.654   3.425
42880SOL     OW28665   8.263   4.296   2.187
42880SOL    HW128666   8.270   4.207   2.141
42880SOL    HW228667   8.169   4.330   2.179
42881SOL     OW28668   9.105   4.328   3.068
42881SOL    HW128669   9.067   4.259   3.130
42881SOL    HW228670   9.187   4.292   3.024
42882SOL     OW28671   7.700   5.288   3.606
42882SOL    HW128672   7.670   5.345   3.682
42882SOL    HW228673   7.693   5.191   3.632
42883SOL     OW28674   8.119   4.188   3.131
42883SOL    HW128675   8.085   4.099   3.101
42883SOL    HW228676   8.145   4.242   3.051
42884SOL     OW28677   8.378   5.402   3.327
42884SOL    HW128678   8.354   5.384   3.232
42884SOL    HW228679   8.408   5.496   3.337
42885SOL     OW28680   7.921   4.224   2.053
42885SOL    HW128681   7.982   4.304   2.057
42885SOL    HW228682   7.826   4.255   2.060
42886SOL     OW28683   7.607   4.861   3.328
42886SOL    HW128684   7.629   4.800   3.404
42886SOL    HW228685   7.617   4.812   3.242
42887SOL     OW28686   8.795   4.783   3.096
42887SOL    HW128687   8.819   4.720   3.022
42887SOL    HW228688   8.705   4.823   3.078
42888SOL     OW28689   8.750   4.579   2.171
42888SOL    HW128690   8.664   4.548   2.213
42888SOL    HW228691   8.746   4.565   2.072
42889SOL     OW28692   9.207   5.471   3.016
42889SOL    HW128693   9.268   5.501   2.943
42889SOL    HW228694   9.169   5.382   2.994
42890SOL     OW28695   8.700   5.455   2.990
42890SOL    HW128696   8.784   5.460   2.936
42890SOL    HW228697   8.677   5.359   3.008
42891SOL     OW28698   7.531   4.982   2.884
42891SOL    HW128699   7.526   4.981   2.984
42891SOL    HW228700   7.448   4.941   2.846
42892SOL     OW28701   8.136   5.386   3.578
42892SOL    HW128702   8.080   5.467   3.587
42892SOL    HW228703   8.188   5.390   3.492
42893SOL     OW28704   9.174   3.859   2.385
42893SOL    HW128705   9.247   3.842   2.318
42893SOL    HW228706   9.143   3.772   2.423
42894SOL     OW28707   8.836   5.297   2.339
42894SOL    HW128708   8.903   5.309   2.265
42894SOL    HW228709   8.796   5.386   2.362
42895SOL     OW28710   7.578   5.518   3.713
42895SOL    HW128711   7.537   5.444   3.766
42895SOL    HW228712   7.642   5.569   3.771
42896SOL     OW28713   8.728   4.651   2.534
42896SOL    HW128714   8.788   4.570   2.536
42896SOL    HW228715   8.768   4.720   2.474
42897SOL     OW28716   8.278   4.997   3.284
42897SOL    HW128717   8.273   5.030   3.379
42897SOL    HW228718   8.192   5.016   3.238
42898SOL     OW28719   8.120   5.340   2.016
42898SOL    HW128720   8.129   5.350   1.917
42898SOL    HW228721   8.080   5.251   2.037
42899SOL     OW28722   9.098   5.444   3.256
42899SOL    HW128723   9.151   5.454   3.172
42899SOL    HW228724   9.071   5.534   3.290
42900SOL     OW28725   9.289   3.899   2.825
42900SOL    HW128726   9.328   3.814   2.789
42900SOL    HW228727   9.191   3.901   2.806
42901SOL     OW28728   7.711   4.050   2.582
42901SOL    HW128729   7.632   4.101   2.548
42901SOL    HW228730   7.702   4.035   2.680
42902SOL     OW28731   8.642   5.336   1.893
42902SOL    HW128732   8.648   5.243   1.930
42902SOL    HW228733   8.583   5.336   1.813
42903SOL     OW28734   8.270   4.726   3.234
42903SOL    HW128735   8.310   4.725   3.142
42903SOL    HW228736   8.280   4.818   3.274
42904SOL     OW28737   8.364   4.634   2.153
42904SOL    HW128738   8.427   4.672   2.085
42904SOL    HW228739   8.404   4.551   2.192
42905SOL     OW28740   8.952   5.331   1.906
42905SOL    HW128741   8.860   5.368   1.913
42905SOL    HW228742   8.990   5.351   1.816
42906SOL     OW28743   7.820   5.012   3.352
42906SOL    HW128744   7.807   5.105   3.318
42906SOL    HW228745   7.736   4.960   3.339
42907SOL     OW28746   9.062   5.016   3.151
42907SOL    HW128747   9.122   5.019   3.231
42907SOL    HW228748   8.987   5.080   3.164
42908SOL     OW28749   8.487   4.822   2.558
42908SOL    HW128750   8.417   4.775   2.612
42908SOL    HW228751   8.546   4.754   2.515
42909SOL     OW28752   8.462   3.960   2.833
42909SOL    HW128753   8.454   3.924   2.740
42909SOL    HW228754   8.460   3.884   2.898
42910SOL     OW28755   8.038   5.211   2.353
42910SOL    HW128756   8.080   5.153   2.283
42910SOL    HW228757   7.994   5.290   2.309
42911SOL     OW28758   9.157   4.109   3.243
42911SOL    HW128759   9.230   4.178   3.247
42911SOL    HW228760   9.185   4.034   3.184
42912SOL     OW28761   7.703   5.072   2.152
42912SOL    HW128762   7.607   5.073   2.125
42912SOL    HW228763   7.715   5.125   2.236
42913SOL     OW28764   7.553   4.737   3.588
42913SOL    HW128765   7.476   4.704   3.642
42913SOL    HW228766   7.638   4.707   3.630
42914SOL     OW28767   8.120   3.927   3.351
42914SOL    HW128768   8.210   3.911   3.311
42914SOL    HW228769   8.128   3.932   3.450
42915SOL     OW28770   7.523   4.069   1.895
42915SOL    HW128771   7.431   4.041   1.866
42915SOL    HW228772   7.554   4.146   1.839
42916SOL     OW28773   8.888   4.580   3.260
42916SOL    HW128774   8.831   4.632   3.197
42916SOL    HW228775   8.984   4.592   3.236
42917SOL     OW28776   7.520   3.890   2.180
42917SOL    HW128777   7.503   3.973   2.126
42917SOL    HW228778   7.610   3.853   2.158
42918SOL     OW28779   8.631   5.059   1.981
42918SOL    HW128780   8.532   5.048   1.983
42918SOL    HW228781   8.665   5.074   2.074
42919SOL     OW28782   8.061   4.566   3.293
42919SOL    HW128783   8.117   4.647   3.276
42919SOL    HW228784   8.120   4.486   3.296
42920SOL     OW28785   8.941   5.491   2.821
42920SOL    HW128786   8.974   5.555   2.752
42920SOL    HW228787   9.007   5.485   2.896
42921SOL     OW28788   8.164   4.289   3.570
42921SOL    HW128789   8.183   4.354   3.644
42921SOL    HW228790   8.224   4.209   3.579
42922SOL     OW28791   8.898   4.944   3.495
42922SOL    HW128792   8.889   4.934   3.594
42922SOL    HW228793   8.994   4.937   3.469
42923SOL     OW28794   7.838   5.465   3.422
42923SOL    HW128795   7.747   5.506   3.420
42923SOL    HW228796   7.831   5.371   3.454
42924SOL     OW28797   9.122   4.607   3.116
42924SOL    HW128798   9.095   4.518   3.079
42924SOL    HW228799   9.123   4.675   3.043
42925SOL     OW28800   8.673   4.049   2.311
42925SOL    HW128801   8.738   3.975   2.300
42925SOL    HW228802   8.693   4.099   2.395
42926SOL     OW28803   8.042   4.469   2.514
42926SOL    HW128804   8.092   4.554   2.495
42926SOL    HW228805   7.954   4.471   2.466
42927SOL     OW28806   9.225   4.066   3.504
42927SOL    HW128807   9.208   4.097   3.410
42927SOL    HW228808   9.141   4.029   3.542
42928SOL     OW28809   9.178   4.658   3.379
42928SOL    HW128810   9.216   4.749   3.394
42928SOL    HW228811   9.170   4.641   3.280
42929SOL     OW28812   8.307   5.098   1.878
42929SOL    HW128813   8.261   5.113   1.966
42929SOL    HW228814   8.351   5.183   1.848
42930SOL     OW28815   8.109   5.514   2.815
42930SOL    HW128816   8.063   5.602   2.802
42930SOL    HW228817   8.208   5.526   2.808
42931SOL     OW28818   8.307   4.680   2.723
42931SOL    HW128819   8.361   4.611   2.771
42931SOL    HW228820   8.275   4.749   2.789
42932SOL     OW28821   8.531   4.708   1.949
42932SOL    HW128822   8.508   4.761   1.867
42932SOL    HW228823   8.612   4.652   1.930
42933SOL     OW28824   9.309   5.293   2.713
42933SOL    HW128825   9.238   5.281   2.643
42933SOL    HW228826   9.310   5.214   2.773
42934SOL     OW28827   7.669   5.038   3.706
42934SOL    HW128828   7.604   4.965   3.685
42934SOL    HW228829   7.673   5.052   3.804
42935SOL     OW28830   7.527   4.964   2.515
42935SOL    HW128831   7.526   4.917   2.603
42935SOL    HW228832   7.609   4.936   2.464
42936SOL     OW28833   8.120   5.115   3.486
42936SOL    HW128834   8.042   5.065   3.524
42936SOL    HW228835   8.117   5.210   3.517
42937SOL     OW28836   9.272   3.916   3.089
42937SOL    HW128837   9.268   3.826   3.133
42937SOL    HW228838   9.275   3.905   2.990
42938SOL     OW28839   7.876   4.148   2.382
42938SOL    HW128840   7.906   4.076   2.320
42938SOL    HW228841   7.837   4.108   2.465
42939SOL     OW28842   9.153   5.211   2.966
42939SOL    HW128843   9.060   5.186   2.939
42939SOL    HW228844   9.179   5.161   3.048
42940SOL     OW28845   7.765   4.271   3.142
42940SOL    HW128846   7.803   4.212   3.214
42940SOL    HW228847   7.805   4.245   3.054
42941SOL     OW28848   8.260   5.310   2.549
42941SOL    HW128849   8.292   5.320   2.455
42941SOL    HW228850   8.181   5.248   2.551
42942SOL     OW28851   8.872   3.938   2.974
42942SOL    HW128852   8.924   3.873   3.029
42942SOL    HW228853   8.823   4.001   3.035
42943SOL     OW28854   8.449   3.758   3.016
42943SOL    HW128855   8.386   3.686   2.985
42943SOL    HW228856   8.542   3.722   3.016
42944SOL     OW28857   8.218   5.054   2.163
42944SOL    HW128858   8.172   4.967   2.180
42944SOL    HW228859   8.309   5.051   2.204
42945SOL     OW28860   8.066   5.291   3.146
42945SOL    HW128861   8.061   5.373   3.203
42945SOL    HW228862   8.155   5.288   3.101
42946SOL     OW28863   8.800   3.776   2.030
42946SOL    HW128864   8.835   3.735   1.946
42946SOL    HW228865   8.710   3.738   2.050
42947SOL     OW28866   8.748   4.177   2.553
42947SOL    HW128867   8.689   4.257   2.557
42947SOL    HW228868   8.763   4.142   2.646
42948SOL     OW28869   9.041   3.945   2.744
42948SOL    HW128870   8.957   3.944   2.798
42948SOL    HW228871   9.043   4.028   2.688
42949SOL     OW28872   7.487   4.801   2.162
42949SOL    HW128873   7.586   4.790   2.153
42949SOL    HW228874   7.447   4.715   2.194
42950SOL     OW28875   8.323   5.370   2.199
42950SOL    HW128876   8.246   5.335   2.145
42950SOL    HW228877   8.291   5.441   2.261
42951SOL     OW28878   7.678   4.352   3.837
42951SOL    HW128879   7.585   4.350   3.874
42951SOL    HW228880   7.679   4.313   3.745
42952SOL     OW28881   7.673   3.999   4.720
42952SOL    HW128882   7.708   3.982   4.812
42952SOL    HW228883   7.585   3.954   4.708
42953SOL     OW28884   7.467   4.092   4.371
42953SOL    HW128885   7.385   4.135   4.410
42953SOL    HW228886   7.439   4.019   4.308
42954SOL     OW28887   8.017   4.999   4.889
42954SOL    HW128888   7.924   4.992   4.852
42954SOL    HW228889   8.028   5.088   4.933
42955SOL     OW28890   9.003   5.235   4.427
42955SOL    HW128891   8.946   5.219   4.508
42955SOL    HW228892   8.944   5.245   4.347
42956SOL     OW28893   8.583   4.427   4.441
42956SOL    HW128894   8.640   4.505   4.416
42956SOL    HW228895   8.523   4.453   4.517
42957SOL     OW28896   9.203   4.331   3.955
42957SOL    HW128897   9.191   4.318   3.856
42957SOL    HW228898   9.173   4.250   4.004
42958SOL     OW28899   8.216   4.868   4.747
42958SOL    HW128900   8.138   4.885   4.807
42958SOL    HW228901   8.250   4.955   4.711
42959SOL     OW28902   8.298   4.522   5.547
42959SOL    HW128903   8.294   4.598   5.612
42959SOL    HW228904   8.320   4.558   5.456
42960SOL     OW28905   8.133   4.736   4.389
42960SOL    HW128906   8.202   4.720   4.459
42960SOL    HW228907   8.060   4.793   4.427
42961SOL     OW28908   8.134   4.885   5.527
42961SOL    HW128909   8.194   4.964   5.541
42961SOL    HW228910   8.048   4.916   5.486
42962SOL     OW28911   7.783   5.159   4.785
42962SOL    HW128912   7.705   5.128   4.732
42962SOL    HW228913   7.841   5.217   4.728
42963SOL     OW28914   8.908   5.229   5.063
42963SOL    HW128915   8.932   5.323   5.089
42963SOL    HW228916   8.892   5.175   5.145
42964SOL     OW28917   7.886   4.116   5.223
42964SOL    HW128918   7.968   4.060   5.232
42964SOL    HW228919   7.805   4.058   5.227
42965SOL     OW28920   9.051   4.171   4.461
42965SOL    HW128921   8.977   4.217   4.411
42965SOL    HW228922   9.102   4.239   4.514
42966SOL     OW28923   7.679   5.437   4.207
42966SOL    HW128924   7.713   5.514   4.261
42966SOL    HW228925   7.723   5.437   4.117
42967SOL     OW28926   8.575   5.065   5.414
42967SOL    HW128927   8.622   5.065   5.502
42967SOL    HW228928   8.527   4.978   5.403
42968SOL     OW28929   7.678   5.158   4.262
42968SOL    HW128930   7.652   5.254   4.262
42968SOL    HW228931   7.607   5.104   4.307
42969SOL     OW28932   7.688   4.815   4.610
42969SOL    HW128933   7.702   4.731   4.662
42969SOL    HW228934   7.633   4.879   4.665
42970SOL     OW28935   8.068   5.510   5.163
42970SOL    HW128936   7.976   5.493   5.198
42970SOL    HW228937   8.096   5.602   5.189
42971SOL     OW28938   8.054   4.688   3.847
42971SOL    HW128939   8.061   4.772   3.793
42971SOL    HW228940   8.100   4.701   3.935
42972SOL     OW28941   9.042   3.838   5.204
42972SOL    HW128942   9.024   3.905   5.132
42972SOL    HW228943   9.039   3.884   5.293
42973SOL     OW28944   7.570   4.367   4.287
42973SOL    HW128945   7.525   4.279   4.304
42973SOL    HW228946   7.569   4.421   4.371
42974SOL     OW28947   9.290   5.491   4.083
42974SOL    HW128948   9.344   5.462   4.163
42974SOL    HW228949   9.320   5.581   4.054
42975SOL     OW28950   7.475   5.320   3.841
42975SOL    HW128951   7.456   5.224   3.862
42975SOL    HW228952   7.442   5.378   3.916
42976SOL     OW28953   9.137   4.646   4.336
42976SOL    HW128954   9.232   4.617   4.344
42976SOL    HW228955   9.129   4.711   4.261
42977SOL     OW28956   9.089   4.832   4.156
42977SOL    HW128957   9.175   4.834   4.104
42977SOL    HW228958   9.103   4.879   4.244
42978SOL     OW28959   7.561   4.461   5.321
42978SOL    HW128960   7.649   4.448   5.366
42978SOL    HW228961   7.548   4.558   5.299
42979SOL     OW28962   8.061   5.089   4.450
42979SOL    HW128963   8.012   5.002   4.459
42979SOL    HW228964   8.038   5.132   4.363
42980SOL     OW28965   8.741   4.952   5.147
42980SOL    HW128966   8.778   4.879   5.089
42980SOL    HW228967   8.793   4.957   5.232
42981SOL     OW28968   8.257   3.728   4.226
42981SOL    HW128969   8.297   3.819   4.217
42981SOL    HW228970   8.157   3.736   4.232
42982SOL     OW28971   7.645   4.700   4.988
42982SOL    HW128972   7.734   4.655   4.974
42982SOL    HW228973   7.572   4.635   4.969
42983SOL     OW28974   8.973   4.723   3.914
42983SOL    HW128975   8.910   4.647   3.927
42983SOL    HW228976   9.021   4.741   4.000
42984SOL     OW28977   8.635   5.516   5.340
42984SOL    HW128978   8.659   5.576   5.264
42984SOL    HW228979   8.642   5.421   5.310
42985SOL     OW28980   7.765   3.975   5.525
42985SOL    HW128981   7.836   4.046   5.531
42985SOL    HW228982   7.677   4.014   5.553
42986SOL     OW28983   8.914   5.141   4.677
42986SOL    HW128984   8.855   5.147   4.757
42986SOL    HW228985   8.899   5.053   4.631
42987SOL     OW28986   9.115   5.438   4.296
42987SOL    HW128987   9.074   5.415   4.208
42987SOL    HW228988   9.097   5.364   4.361
42988SOL     OW28989   8.046   4.453   3.994
42988SOL    HW128990   8.070   4.522   3.926
42988SOL    HW228991   7.968   4.486   4.048
42989SOL     OW28992   8.729   4.069   4.668
42989SOL    HW128993   8.643   4.019   4.655
42989SOL    HW228994   8.791   4.015   4.724
42990SOL     OW28995   9.024   5.386   4.031
42990SOL    HW128996   9.113   5.432   4.034
42990SOL    HW228997   9.003   5.362   3.936
42991SOL     OW28998   8.255   4.329   5.189
42991SOL    HW128999   8.208   4.326   5.278
42991SOL    HW229000   8.204   4.274   5.123
42992SOL     OW29001   8.842   4.193   5.398
42992SOL    HW129002   8.822   4.236   5.486
42992SOL    HW229003   8.920   4.131   5.407
42993SOL     OW29004   8.421   4.614   5.296
42993SOL    HW129005   8.467   4.530   5.267
42993SOL    HW229006   8.365   4.648   5.221
42994SOL     OW29007   8.439   4.134   4.966
42994SOL    HW129008   8.362   4.168   5.020
42994SOL    HW229009   8.405   4.083   4.887
42995SOL     OW29010   8.489   4.425   4.153
42995SOL    HW129011   8.515   4.421   4.249
42995SOL    HW229012   8.404   4.374   4.139
42996SOL     OW29013   7.524   4.535   4.513
42996SOL    HW129014   7.623   4.523   4.522
42996SOL    HW229015   7.500   4.630   4.534
42997SOL     OW29016   7.578   5.545   5.295
42997SOL    HW129017   7.568   5.530   5.394
42997SOL    HW229018   7.492   5.581   5.259
42998SOL     OW29019   8.313   4.072   3.919
42998SOL    HW129020   8.372   4.135   3.870
42998SOL    HW229021   8.332   3.978   3.890
42999SOL     OW29022   9.167   4.309   5.555
42999SOL    HW129023   9.141   4.398   5.519
42999SOL    HW229024   9.165   4.241   5.482
43000SOL     OW29025   8.810   4.868   4.269
43000SOL    HW129026   8.893   4.839   4.221
43000SOL    HW229027   8.761   4.935   4.213
43001SOL     OW29028   7.998   3.920   4.609
43001SOL    HW129029   7.993   3.915   4.709
43001SOL    HW229030   8.000   4.016   4.580
43002SOL     OW29031   8.456   5.180   4.201
43002SOL    HW129032   8.410   5.252   4.149
43002SOL    HW229033   8.452   5.200   4.299
43003SOL     OW29034   7.799   5.525   4.577
43003SOL    HW129035   7.849   5.439   4.583
43003SOL    HW229036   7.864   5.602   4.574
43004SOL     OW29037   9.243   4.790   4.597
43004SOL    HW129038   9.181   4.775   4.521
43004SOL    HW229039   9.191   4.801   4.682
43005SOL     OW29040   8.675   5.274   5.230
43005SOL    HW129041   8.681   5.197   5.294
43005SOL    HW229042   8.623   5.248   5.150
43006SOL     OW29043   7.769   4.667   3.966
43006SOL    HW129044   7.851   4.706   3.924
43006SOL    HW229045   7.742   4.585   3.917
43007SOL     OW29046   8.906   4.459   4.452
43007SOL    HW129047   8.901   4.394   4.527
43007SOL    HW229048   8.986   4.518   4.465
43008SOL     OW29049   7.909   4.990   5.451
43008SOL    HW129050   7.859   4.991   5.365
43008SOL    HW229051   7.846   4.972   5.527
43009SOL     OW29052   8.559   5.500   3.961
43009SOL    HW129053   8.499   5.438   4.011
43009SOL    HW229054   8.590   5.456   3.876
43010SOL     OW29055   7.650   4.009   5.222
43010SOL    HW129056   7.570   4.069   5.209
43010SOL    HW229057   7.640   3.960   5.308
43011SOL     OW29058   9.080   5.101   3.805
43011SOL    HW129059   9.048   5.195   3.795
43011SOL    HW229060   9.004   5.038   3.793
43012SOL     OW29061   7.912   5.467   4.047
43012SOL    HW129062   7.945   5.506   4.133
43012SOL    HW229063   7.988   5.460   3.982
43013SOL     OW29064   8.848   3.831   4.150
43013SOL    HW129065   8.824   3.794   4.060
43013SOL    HW229066   8.947   3.847   4.154
43014SOL     OW29067   7.697   5.509   4.965
43014SOL    HW129068   7.754   5.444   5.015
43014SOL    HW229069   7.681   5.476   4.872
43015SOL     OW29070   8.388   5.422   4.628
43015SOL    HW129071   8.468   5.365   4.649
43015SOL    HW229072   8.339   5.382   4.551
43016SOL     OW29073   7.830   4.424   4.204
43016SOL    HW129074   7.875   4.334   4.201
43016SOL    HW229075   7.736   4.413   4.237
43017SOL     OW29076   8.995   3.946   5.453
43017SOL    HW129077   8.990   3.983   5.545
43017SOL    HW229078   8.923   3.877   5.441
43018SOL     OW29079   8.062   3.846   3.841
43018SOL    HW129080   8.160   3.824   3.848
43018SOL    HW229081   8.031   3.829   3.748
43019SOL     OW29082   8.229   3.988   5.473
43019SOL    HW129083   8.296   3.927   5.516
43019SOL    HW229084   8.156   4.007   5.538
43020SOL     OW29085   8.336   5.238   4.919
43020SOL    HW129086   8.313   5.213   4.825
43020SOL    HW229087   8.397   5.169   4.958
43021SOL     OW29088   8.799   4.314   5.157
43021SOL    HW129089   8.827   4.271   5.242
43021SOL    HW229090   8.824   4.410   5.158
43022SOL     OW29091   8.251   5.126   4.648
43022SOL    HW129092   8.341   5.140   4.606
43022SOL    HW229093   8.180   5.128   4.577
43023SOL     OW29094   8.370   4.227   4.623
43023SOL    HW129095   8.345   4.218   4.527
43023SOL    HW229096   8.418   4.145   4.654
43024SOL     OW29097   7.987   3.788   4.236
43024SOL    HW129098   7.906   3.789   4.294
43024SOL    HW229099   7.990   3.871   4.181
43025SOL     OW29100   8.882   4.912   3.765
43025SOL    HW129101   8.914   4.836   3.822
43025SOL    HW229102   8.790   4.939   3.795
43026SOL     OW29103   7.745   3.759   3.895
43026SOL    HW129104   7.794   3.843   3.874
43026SOL    HW229105   7.807   3.694   3.940
43027SOL     OW29106   8.383   3.960   4.204
43027SOL    HW129107   8.335   4.001   4.126
43027SOL    HW229108   8.482   3.958   4.185
43028SOL     OW29109   8.524   4.407   5.188
43028SOL    HW129110   8.444   4.346   5.191
43028SOL    HW229111   8.605   4.354   5.164
43029SOL     OW29112   8.675   5.294   4.517
43029SOL    HW129113   8.696   5.368   4.452
43029SOL    HW229114   8.743   5.294   4.590
43030SOL     OW29115   7.907   4.876   4.465
43030SOL    HW129116   7.836   4.849   4.530
43030SOL    HW229117   7.881   4.848   4.372
43031SOL     OW29118   8.719   5.521   4.315
43031SOL    HW129119   8.763   5.585   4.251
43031SOL    HW229120   8.669   5.573   4.385
43032SOL     OW29121   8.480   4.273   3.740
43032SOL    HW129122   8.439   4.355   3.701
43032SOL    HW229123   8.544   4.299   3.813
43033SOL     OW29124   7.526   4.280   5.110
43033SOL    HW129125   7.618   4.279   5.069
43033SOL    HW229126   7.520   4.354   5.177
43034SOL     OW29127   8.009   3.946   4.871
43034SOL    HW129128   8.047   3.862   4.908
43034SOL    HW229129   7.921   3.965   4.915
43035SOL     OW29130   8.314   4.178   4.366
43035SOL    HW129131   8.282   4.250   4.304
43035SOL    HW229132   8.338   4.097   4.313
43036SOL     OW29133   8.465   3.763   4.477
43036SOL    HW129134   8.393   3.768   4.408
43036SOL    HW229135   8.441   3.694   4.546
43037SOL     OW29136   8.877   4.897   4.591
43037SOL    HW129137   8.822   4.813   4.584
43037SOL    HW229138   8.903   4.926   4.499
43038SOL     OW29139   8.914   4.314   4.716
43038SOL    HW129140   8.884   4.219   4.723
43038SOL    HW229141   8.987   4.330   4.782
43039SOL     OW29142   9.305   4.557   4.101
43039SOL    HW129143   9.347   4.493   4.165
43039SOL    HW229144   9.267   4.506   4.023
43040SOL     OW29145   7.936   5.109   3.898
43040SOL    HW129146   7.849   5.094   3.945
43040SOL    HW229147   7.919   5.135   3.803
43041SOL     OW29148   9.112   5.004   4.381
43041SOL    HW129149   9.211   5.012   4.395
43041SOL    HW229150   9.067   5.088   4.412
43042SOL     OW29151   8.838   4.299   3.802
43042SOL    HW129152   8.784   4.278   3.883
43042SOL    HW229153   8.929   4.258   3.811
43043SOL     OW29154   7.975   3.980   4.052
43043SOL    HW129155   8.002   3.921   3.977
43043SOL    HW229156   7.975   4.075   4.021
43044SOL     OW29157   9.202   4.947   5.312
43044SOL    HW129158   9.293   4.908   5.299
43044SOL    HW229159   9.210   5.043   5.336
43045SOL     OW29160   8.512   5.071   5.064
43045SOL    HW129161   8.432   5.048   5.119
43045SOL    HW229162   8.595   5.045   5.113
43046SOL     OW29163   9.040   5.353   5.349
43046SOL    HW129164   9.067   5.387   5.259
43046SOL    HW229165   9.119   5.315   5.395
43047SOL     OW29166   8.559   4.919   4.824
43047SOL    HW129167   8.519   4.963   4.905
43047SOL    HW229168   8.518   4.956   4.741
43048SOL     OW29169   9.086   4.823   4.803
43048SOL    HW129170   9.091   4.904   4.862
43048SOL    HW229171   9.000   4.825   4.752
43049SOL     OW29172   8.363   3.813   5.126
43049SOL    HW129173   8.388   3.793   5.031
43049SOL    HW229174   8.435   3.869   5.168
43050SOL     OW29175   8.428   4.840   5.443
43050SOL    HW129176   8.329   4.846   5.453
43050SOL    HW229177   8.451   4.760   5.387
43051SOL     OW29178   8.153   4.774   4.092
43051SOL    HW129179   8.139   4.781   4.191
43051SOL    HW229180   8.237   4.723   4.074
43052SOL     OW29181   7.858   4.537   4.975
43052SOL    HW129182   7.944   4.549   5.025
43052SOL    HW229183   7.816   4.450   5.002
43053SOL     OW29184   8.722   4.110   4.986
43053SOL    HW129185   8.743   4.184   5.050
43053SOL    HW229186   8.633   4.127   4.943
43054SOL     OW29187   7.512   5.288   5.055
43054SOL    HW129188   7.466   5.370   5.021
43054SOL    HW229189   7.610   5.307   5.064
43055SOL     OW29190   7.815   4.824   4.225
43055SOL    HW129191   7.808   4.907   4.169
43055SOL    HW229192   7.819   4.744   4.165
43056SOL     OW29193   8.014   4.261   4.589
43056SOL    HW129194   8.026   4.327   4.515
43056SOL    HW229195   8.060   4.295   4.672
43057SOL     OW29196   8.700   5.072   4.112
43057SOL    HW129197   8.750   5.149   4.152
43057SOL    HW229198   8.605   5.074   4.144
43058SOL     OW29199   8.720   5.169   4.866
43058SOL    HW129200   8.767   5.182   4.953
43058SOL    HW229201   8.654   5.095   4.875
43059SOL     OW29202   9.030   4.363   4.196
43059SOL    HW129203   8.999   4.424   4.269
43059SOL    HW229204   9.080   4.415   4.127
43060SOL     OW29205   7.802   5.234   5.053
43060SOL    HW129206   7.781   5.190   4.966
43060SOL    HW229207   7.899   5.260   5.056
43061SOL     OW29208   7.850   4.475   5.322
43061SOL    HW129209   7.918   4.530   5.275
43061SOL    HW229210   7.890   4.387   5.349
43062SOL     OW29211   9.035   4.503   5.394
43062SOL    HW129212   8.943   4.541   5.389
43062SOL    HW229213   9.095   4.550   5.329
43063SOL     OW29214   8.461   3.829   5.494
43063SOL    HW129215   8.467   3.914   5.442
43063SOL    HW229216   8.493   3.753   5.437
43064SOL     OW29217   7.952   3.774   5.464
43064SOL    HW129218   7.910   3.717   5.394
43064SOL    HW229219   7.886   3.843   5.496
43065SOL     OW29220   8.021   4.594   4.753
43065SOL    HW129221   8.065   4.683   4.744
43065SOL    HW229222   7.958   4.594   4.830
43066SOL     OW29223   8.808   4.586   4.769
43066SOL    HW129224   8.733   4.586   4.703
43066SOL    HW229225   8.845   4.494   4.778
43067SOL     OW29226   8.657   4.249   3.999
43067SOL    HW129227   8.670   4.165   4.053
43067SOL    HW229228   8.628   4.323   4.059
43068SOL     OW29229   7.755   3.937   4.955
43068SOL    HW129230   7.732   3.974   5.045
43068SOL    HW229231   7.725   3.842   4.949
43069SOL     OW29232   7.485   5.034   5.006
43069SOL    HW129233   7.538   4.985   5.074
43069SOL    HW229234   7.507   5.132   5.011
43070SOL     OW29235   8.180   4.358   4.788
43070SOL    HW129236   8.239   4.332   4.712
43070SOL    HW229237   8.152   4.454   4.777
43071SOL     OW29238   9.176   4.659   5.578
43071SOL    HW129239   9.130   4.652   5.489
43071SOL    HW229240   9.114   4.703   5.644
43072SOL     OW29241   7.755   3.787   4.342
43072SOL    HW129242   7.744   3.881   4.375
43072SOL    HW229243   7.750   3.724   4.419
43073SOL     OW29244   9.070   4.091   4.098
43073SOL    HW129245   9.072   4.015   4.162
43073SOL    HW229246   9.022   4.168   4.138
43074SOL     OW29247   8.471   4.490   4.690
43074SOL    HW129248   8.486   4.511   4.786
43074SOL    HW229249   8.441   4.395   4.681
43075SOL     OW29250   8.428   5.297   5.424
43075SOL    HW129251   8.408   5.341   5.336
43075SOL    HW229252   8.467   5.206   5.408
43076SOL     OW29253   9.307   5.242   5.329
43076SOL    HW129254   9.321   5.269   5.234
43076SOL    HW229255   9.390   5.264   5.382
43077SOL     OW29256   7.798   4.622   5.528
43077SOL    HW129257   7.874   4.666   5.576
43077SOL    HW229258   7.833   4.575   5.446
43078SOL     OW29259   8.988   3.998   3.849
43078SOL    HW129260   8.927   3.923   3.872
43078SOL    HW229261   9.010   4.050   3.932
43079SOL     OW29262   8.751   4.562   3.766
43079SOL    HW129263   8.785   4.469   3.781
43079SOL    HW229264   8.769   4.589   3.671
43080SOL     OW29265   8.516   5.057   4.573
43080SOL    HW129266   8.523   4.973   4.518
43080SOL    HW229267   8.578   5.126   4.537
43081SOL     OW29268   7.767   4.534   4.673
43081SOL    HW129269   7.860   4.570   4.678
43081SOL    HW229270   7.761   4.449   4.725
43082SOL     OW29271   7.787   4.233   4.730
43082SOL    HW129272   7.735   4.150   4.713
43082SOL    HW229273   7.864   4.238   4.666
43083SOL     OW29274   8.586   4.104   5.402
43083SOL    HW129275   8.541   4.167   5.466
43083SOL    HW229276   8.679   4.135   5.385
43084SOL     OW29277   8.608   3.931   5.201
43084SOL    HW129278   8.608   3.995   5.278
43084SOL    HW229279   8.636   3.979   5.118
43085SOL     OW29280   7.456   5.050   3.924
43085SOL    HW129281   7.363   5.071   3.893
43085SOL    HW229282   7.466   4.951   3.937
43086SOL     OW29283   7.536   5.525   4.651
43086SOL    HW129284   7.494   5.439   4.624
43086SOL    HW229285   7.630   5.528   4.617
43087SOL     OW29286   7.952   5.292   4.634
43087SOL    HW129287   8.018   5.366   4.643
43087SOL    HW229288   7.996   5.213   4.592
43088SOL     OW29289   8.450   4.520   4.962
43088SOL    HW129290   8.491   4.488   5.048
43088SOL    HW229291   8.354   4.493   4.959
43089SOL     OW29292   7.488   4.268   4.838
43089SOL    HW129293   7.573   4.235   4.797
43089SOL    HW229294   7.501   4.283   4.936
43090SOL     OW29295   7.637   4.244   5.446
43090SOL    HW129296   7.696   4.204   5.376
43090SOL    HW229297   7.579   4.315   5.405
43091SOL     OW29298   8.817   4.674   5.384
43091SOL    HW129299   8.856   4.763   5.404
43091SOL    HW229300   8.827   4.654   5.287
43092SOL     OW29301   8.263   4.296   4.049
43092SOL    HW129302   8.270   4.207   4.003
43092SOL    HW229303   8.169   4.330   4.041
43093SOL     OW29304   9.105   4.328   4.930
43093SOL    HW129305   9.067   4.259   4.992
43093SOL    HW229306   9.187   4.292   4.886
43094SOL     OW29307   7.700   5.288   5.468
43094SOL    HW129308   7.670   5.345   5.544
43094SOL    HW229309   7.693   5.191   5.494
43095SOL     OW29310   8.119   4.188   4.993
43095SOL    HW129311   8.085   4.099   4.963
43095SOL    HW229312   8.145   4.242   4.913
43096SOL     OW29313   8.378   5.402   5.189
43096SOL    HW129314   8.354   5.384   5.094
43096SOL    HW229315   8.408   5.496   5.199
43097SOL     OW29316   7.921   4.224   3.915
43097SOL    HW129317   7.982   4.304   3.919
43097SOL    HW229318   7.826   4.255   3.922
43098SOL     OW29319   7.607   4.861   5.190
43098SOL    HW129320   7.629   4.800   5.266
43098SOL    HW229321   7.617   4.812   5.104
43099SOL     OW29322   8.795   4.783   4.958
43099SOL    HW129323   8.819   4.720   4.884
43099SOL    HW229324   8.705   4.823   4.940
43100SOL     OW29325   8.750   4.579   4.033
43100SOL    HW129326   8.664   4.548   4.075
43100SOL    HW229327   8.746   4.565   3.934
43101SOL     OW29328   9.207   5.471   4.878
43101SOL    HW129329   9.268   5.501   4.805
43101SOL    HW229330   9.169   5.382   4.856
43102SOL     OW29331   8.700   5.455   4.852
43102SOL    HW129332   8.784   5.460   4.798
43102SOL    HW229333   8.677   5.359   4.870
43103SOL     OW29334   7.531   4.982   4.746
43103SOL    HW129335   7.526   4.981   4.846
43103SOL    HW229336   7.448   4.941   4.708
43104SOL     OW29337   8.136   5.386   5.440
43104SOL    HW129338   8.080   5.467   5.449
43104SOL    HW229339   8.188   5.390   5.354
43105SOL     OW29340   9.174   3.859   4.247
43105SOL    HW129341   9.247   3.842   4.180
43105SOL    HW229342   9.143   3.772   4.285
43106SOL     OW29343   8.836   5.297   4.201
43106SOL    HW129344   8.903   5.309   4.127
43106SOL    HW229345   8.796   5.386   4.224
43107SOL     OW29346   7.578   5.518   5.575
43107SOL    HW129347   7.537   5.444   5.628
43107SOL    HW229348   7.642   5.569   5.633
43108SOL     OW29349   8.728   4.651   4.396
43108SOL    HW129350   8.788   4.570   4.398
43108SOL    HW229351   8.768   4.720   4.336
43109SOL     OW29352   8.278   4.997   5.146
43109SOL    HW129353   8.273   5.030   5.241
43109SOL    HW229354   8.192   5.016   5.100
43110SOL     OW29355   8.120   5.340   3.878
43110SOL    HW129356   8.129   5.350   3.779
43110SOL    HW229357   8.080   5.251   3.899
43111SOL     OW29358   9.098   5.444   5.118
43111SOL    HW129359   9.151   5.454   5.034
43111SOL    HW229360   9.071   5.534   5.152
43112SOL     OW29361   9.289   3.899   4.687
43112SOL    HW129362   9.328   3.814   4.651
43112SOL    HW229363   9.191   3.901   4.668
43113SOL     OW29364   7.711   4.050   4.444
43113SOL    HW129365   7.632   4.101   4.410
43113SOL    HW229366   7.702   4.035   4.542
43114SOL     OW29367   8.642   5.336   3.755
43114SOL    HW129368   8.648   5.243   3.792
43114SOL    HW229369   8.583   5.336   3.675
43115SOL     OW29370   8.270   4.726   5.096
43115SOL    HW129371   8.310   4.725   5.004
43115SOL    HW229372   8.280   4.818   5.136
43116SOL     OW29373   8.364   4.634   4.015
43116SOL    HW129374   8.427   4.672   3.947
43116SOL    HW229375   8.404   4.551   4.054
43117SOL     OW29376   8.952   5.331   3.768
43117SOL    HW129377   8.860   5.368   3.775
43117SOL    HW229378   8.990   5.351   3.678
43118SOL     OW29379   7.820   5.012   5.214
43118SOL    HW129380   7.807   5.105   5.180
43118SOL    HW229381   7.736   4.960   5.201
43119SOL     OW29382   9.062   5.016   5.013
43119SOL    HW129383   9.122   5.019   5.093
43119SOL    HW229384   8.987   5.080   5.026
43120SOL     OW29385   8.487   4.822   4.420
43120SOL    HW129386   8.417   4.775   4.474
43120SOL    HW229387   8.546   4.754   4.377
43121SOL     OW29388   8.462   3.960   4.695
43121SOL    HW129389   8.454   3.924   4.602
43121SOL    HW229390   8.460   3.884   4.760
43122SOL     OW29391   8.038   5.211   4.215
43122SOL    HW129392   8.080   5.153   4.145
43122SOL    HW229393   7.994   5.290   4.171
43123SOL     OW29394   9.157   4.109   5.105
43123SOL    HW129395   9.230   4.178   5.109
43123SOL    HW229396   9.185   4.034   5.046
43124SOL     OW29397   7.703   5.072   4.014
43124SOL    HW129398   7.607   5.073   3.987
43124SOL    HW229399   7.715   5.125   4.098
43125SOL     OW29400   7.553   4.737   5.450
43125SOL    HW129401   7.476   4.704   5.504
43125SOL    HW229402   7.638   4.707   5.492
43126SOL     OW29403   8.120   3.927   5.213
43126SOL    HW129404   8.210   3.911   5.173
43126SOL    HW229405   8.128   3.932   5.312
43127SOL     OW29406   7.523   4.069   3.757
43127SOL    HW129407   7.431   4.041   3.728
43127SOL    HW229408   7.554   4.146   3.701
43128SOL     OW29409   8.888   4.580   5.122
43128SOL    HW129410   8.831   4.632   5.059
43128SOL    HW229411   8.984   4.592   5.098
43129SOL     OW29412   7.520   3.890   4.042
43129SOL    HW129413   7.503   3.973   3.988
43129SOL    HW229414   7.610   3.853   4.020
43130SOL     OW29415   8.631   5.059   3.843
43130SOL    HW129416   8.532   5.048   3.845
43130SOL    HW229417   8.665   5.074   3.936
43131SOL     OW29418   8.061   4.566   5.155
43131SOL    HW129419   8.117   4.647   5.138
43131SOL    HW229420   8.120   4.486   5.158
43132SOL     OW29421   8.941   5.491   4.683
43132SOL    HW129422   8.974   5.555   4.614
43132SOL    HW229423   9.007   5.485   4.758
43133SOL     OW29424   8.164   4.289   5.432
43133SOL    HW129425   8.183   4.354   5.506
43133SOL    HW229426   8.224   4.209   5.441
43134SOL     OW29427   8.898   4.944   5.357
43134SOL    HW129428   8.889   4.934   5.456
43134SOL    HW229429   8.994   4.937   5.331
43135SOL     OW29430   7.838   5.465   5.284
43135SOL    HW129431   7.747   5.506   5.282
43135SOL    HW229432   7.831   5.371   5.316
43136SOL     OW29433   9.122   4.607   4.978
43136SOL    HW129434   9.095   4.518   4.941
43136SOL    HW229435   9.123   4.675   4.905
43137SOL     OW29436   8.673   4.049   4.173
43137SOL    HW129437   8.738   3.975   4.162
43137SOL    HW229438   8.693   4.099   4.257
43138SOL     OW29439   8.042   4.469   4.376
43138SOL    HW129440   8.092   4.554   4.357
43138SOL    HW229441   7.954   4.471   4.328
43139SOL     OW29442   9.225   4.066   5.366
43139SOL    HW129443   9.208   4.097   5.272
43139SOL    HW229444   9.141   4.029   5.404
43140SOL     OW29445   9.178   4.658   5.241
43140SOL    HW129446   9.216   4.749   5.256
43140SOL    HW229447   9.170   4.641   5.142
43141SOL     OW29448   8.307   5.098   3.740
43141SOL    HW129449   8.261   5.113   3.828
43141SOL    HW229450   8.351   5.183   3.710
43142SOL     OW29451   8.109   5.514   4.677
43142SOL    HW129452   8.063   5.602   4.664
43142SOL    HW229453   8.208   5.526   4.670
43143SOL     OW29454   8.307   4.680   4.585
43143SOL    HW129455   8.361   4.611   4.633
43143SOL    HW229456   8.275   4.749   4.651
43144SOL     OW29457   8.531   4.708   3.811
43144SOL    HW129458   8.508   4.761   3.729
43144SOL    HW229459   8.612   4.652   3.792
43145SOL     OW29460   9.309   5.293   4.575
43145SOL    HW129461   9.238   5.281   4.505
43145SOL    HW229462   9.310   5.214   4.635
43146SOL     OW29463   7.669   5.038   5.568
43146SOL    HW129464   7.604   4.965   5.547
43146SOL    HW229465   7.673   5.052   5.666
43147SOL     OW29466   7.527   4.964   4.377
43147SOL    HW129467   7.526   4.917   4.465
43147SOL    HW229468   7.609   4.936   4.326
43148SOL     OW29469   8.120   5.115   5.348
43148SOL    HW129470   8.042   5.065   5.386
43148SOL    HW229471   8.117   5.210   5.379
43149SOL     OW29472   9.272   3.916   4.951
43149SOL    HW129473   9.268   3.826   4.995
43149SOL    HW229474   9.275   3.905   4.852
43150SOL     OW29475   7.876   4.148   4.244
43150SOL    HW129476   7.906   4.076   4.182
43150SOL    HW229477   7.837   4.108   4.327
43151SOL     OW29478   9.153   5.211   4.828
43151SOL    HW129479   9.060   5.186   4.801
43151SOL    HW229480   9.179   5.161   4.910
43152SOL     OW29481   7.765   4.271   5.004
43152SOL    HW129482   7.803   4.212   5.076
43152SOL    HW229483   7.805   4.245   4.916
43153SOL     OW29484   8.260   5.310   4.411
43153SOL    HW129485   8.292   5.320   4.317
43153SOL    HW229486   8.181   5.248   4.413
43154SOL     OW29487   8.872   3.938   4.836
43154SOL    HW129488   8.924   3.873   4.891
43154SOL    HW229489   8.823   4.001   4.897
43155SOL     OW29490   8.449   3.758   4.878
43155SOL    HW129491   8.386   3.686   4.847
43155SOL    HW229492   8.542   3.722   4.878
43156SOL     OW29493   8.218   5.054   4.025
43156SOL    HW129494   8.172   4.967   4.042
43156SOL    HW229495   8.309   5.051   4.066
43157SOL     OW29496   8.066   5.291   5.008
43157SOL    HW129497   8.061   5.373   5.065
43157SOL    HW229498   8.155   5.288   4.963
43158SOL     OW29499   8.800   3.776   3.892
43158SOL    HW129500   8.835   3.735   3.808
43158SOL    HW229501   8.710   3.738   3.912
43159SOL     OW29502   8.748   4.177   4.415
43159SOL    HW129503   8.689   4.257   4.419
43159SOL    HW229504   8.763   4.142   4.508
43160SOL     OW29505   9.041   3.945   4.606
43160SOL    HW129506   8.957   3.944   4.660
43160SOL    HW229507   9.043   4.028   4.550
43161SOL     OW29508   7.487   4.801   4.024
43161SOL    HW129509   7.586   4.790   4.015
43161SOL    HW229510   7.447   4.715   4.056
43162SOL     OW29511   8.323   5.370   4.061
43162SOL    HW129512   8.246   5.335   4.007
43162SOL    HW229513   8.291   5.441   4.123
43163SOL     OW29514   7.678   4.352   5.699
43163SOL    HW129515   7.585   4.350   5.736
43163SOL    HW229516   7.679   4.313   5.607
43164SOL     OW29517   7.673   3.999   6.582
43164SOL    HW129518   7.708   3.982   6.674
43164SOL    HW229519   7.585   3.954   6.570
43165SOL     OW29520   7.467   4.092   6.233
43165SOL    HW129521   7.385   4.135   6.272
43165SOL    HW229522   7.439   4.019   6.170
43166SOL     OW29523   8.017   4.999   6.751
43166SOL    HW129524   7.924   4.992   6.714
43166SOL    HW229525   8.028   5.088   6.795
43167SOL     OW29526   9.003   5.235   6.289
43167SOL    HW129527   8.946   5.219   6.370
43167SOL    HW229528   8.944   5.245   6.209
43168SOL     OW29529   8.583   4.427   6.303
43168SOL    HW129530   8.640   4.505   6.278
43168SOL    HW229531   8.523   4.453   6.379
43169SOL     OW29532   9.203   4.331   5.817
43169SOL    HW129533   9.191   4.318   5.718
43169SOL    HW229534   9.173   4.250   5.866
43170SOL     OW29535   8.216   4.868   6.609
43170SOL    HW129536   8.138   4.885   6.669
43170SOL    HW229537   8.250   4.955   6.573
43171SOL     OW29538   8.298   4.522   7.409
43171SOL    HW129539   8.294   4.598   7.474
43171SOL    HW229540   8.320   4.558   7.318
43172SOL     OW29541   8.133   4.736   6.251
43172SOL    HW129542   8.202   4.720   6.321
43172SOL    HW229543   8.060   4.793   6.289
43173SOL     OW29544   8.134   4.885   7.389
43173SOL    HW129545   8.194   4.964   7.403
43173SOL    HW229546   8.048   4.916   7.348
43174SOL     OW29547   7.783   5.159   6.647
43174SOL    HW129548   7.705   5.128   6.594
43174SOL    HW229549   7.841   5.217   6.590
43175SOL     OW29550   8.908   5.229   6.925
43175SOL    HW129551   8.932   5.323   6.951
43175SOL    HW229552   8.892   5.175   7.007
43176SOL     OW29553   7.886   4.116   7.085
43176SOL    HW129554   7.968   4.060   7.094
43176SOL    HW229555   7.805   4.058   7.089
43177SOL     OW29556   9.051   4.171   6.323
43177SOL    HW129557   8.977   4.217   6.273
43177SOL    HW229558   9.102   4.239   6.376
43178SOL     OW29559   7.679   5.437   6.069
43178SOL    HW129560   7.713   5.514   6.123
43178SOL    HW229561   7.723   5.437   5.979
43179SOL     OW29562   8.575   5.065   7.276
43179SOL    HW129563   8.622   5.065   7.364
43179SOL    HW229564   8.527   4.978   7.265
43180SOL     OW29565   7.678   5.158   6.124
43180SOL    HW129566   7.652   5.254   6.124
43180SOL    HW229567   7.607   5.104   6.169
43181SOL     OW29568   7.688   4.815   6.472
43181SOL    HW129569   7.702   4.731   6.524
43181SOL    HW229570   7.633   4.879   6.527
43182SOL     OW29571   8.068   5.510   7.025
43182SOL    HW129572   7.976   5.493   7.060
43182SOL    HW229573   8.096   5.602   7.051
43183SOL     OW29574   8.054   4.688   5.709
43183SOL    HW129575   8.061   4.772   5.655
43183SOL    HW229576   8.100   4.701   5.797
43184SOL     OW29577   9.042   3.838   7.066
43184SOL    HW129578   9.024   3.905   6.994
43184SOL    HW229579   9.039   3.884   7.155
43185SOL     OW29580   7.570   4.367   6.149
43185SOL    HW129581   7.525   4.279   6.166
43185SOL    HW229582   7.569   4.421   6.233
43186SOL     OW29583   9.290   5.491   5.945
43186SOL    HW129584   9.344   5.462   6.025
43186SOL    HW229585   9.320   5.581   5.916
43187SOL     OW29586   7.475   5.320   5.703
43187SOL    HW129587   7.456   5.224   5.724
43187SOL    HW229588   7.442   5.378   5.778
43188SOL     OW29589   9.137   4.646   6.198
43188SOL    HW129590   9.232   4.617   6.206
43188SOL    HW229591   9.129   4.711   6.123
43189SOL     OW29592   9.089   4.832   6.018
43189SOL    HW129593   9.175   4.834   5.966
43189SOL    HW229594   9.103   4.879   6.106
43190SOL     OW29595   7.561   4.461   7.183
43190SOL    HW129596   7.649   4.448   7.228
43190SOL    HW229597   7.548   4.558   7.161
43191SOL     OW29598   8.061   5.089   6.312
43191SOL    HW129599   8.012   5.002   6.321
43191SOL    HW229600   8.038   5.132   6.225
43192SOL     OW29601   8.741   4.952   7.009
43192SOL    HW129602   8.778   4.879   6.951
43192SOL    HW229603   8.793   4.957   7.094
43193SOL     OW29604   8.257   3.728   6.088
43193SOL    HW129605   8.297   3.819   6.079
43193SOL    HW229606   8.157   3.736   6.094
43194SOL     OW29607   7.645   4.700   6.850
43194SOL    HW129608   7.734   4.655   6.836
43194SOL    HW229609   7.572   4.635   6.831
43195SOL     OW29610   8.973   4.723   5.776
43195SOL    HW129611   8.910   4.647   5.789
43195SOL    HW229612   9.021   4.741   5.862
43196SOL     OW29613   8.635   5.516   7.202
43196SOL    HW129614   8.659   5.576   7.126
43196SOL    HW229615   8.642   5.421   7.172
43197SOL     OW29616   7.765   3.975   7.387
43197SOL    HW129617   7.836   4.046   7.393
43197SOL    HW229618   7.677   4.014   7.415
43198SOL     OW29619   8.914   5.141   6.539
43198SOL    HW129620   8.855   5.147   6.619
43198SOL    HW229621   8.899   5.053   6.493
43199SOL     OW29622   9.115   5.438   6.158
43199SOL    HW129623   9.074   5.415   6.070
43199SOL    HW229624   9.097   5.364   6.223
43200SOL     OW29625   8.046   4.453   5.856
43200SOL    HW129626   8.070   4.522   5.788
43200SOL    HW229627   7.968   4.486   5.910
43201SOL     OW29628   8.729   4.069   6.530
43201SOL    HW129629   8.643   4.019   6.517
43201SOL    HW229630   8.791   4.015   6.586
43202SOL     OW29631   9.024   5.386   5.893
43202SOL    HW129632   9.113   5.432   5.896
43202SOL    HW229633   9.003   5.362   5.798
43203SOL     OW29634   8.255   4.329   7.051
43203SOL    HW129635   8.208   4.326   7.140
43203SOL    HW229636   8.204   4.274   6.985
43204SOL     OW29637   8.842   4.193   7.260
43204SOL    HW129638   8.822   4.236   7.348
43204SOL    HW229639   8.920   4.131   7.269
43205SOL     OW29640   8.421   4.614   7.158
43205SOL    HW129641   8.467   4.530   7.129
43205SOL    HW229642   8.365   4.648   7.083
43206SOL     OW29643   8.439   4.134   6.828
43206SOL    HW129644   8.362   4.168   6.882
43206SOL    HW229645   8.405   4.083   6.749
43207SOL     OW29646   8.489   4.425   6.015
43207SOL    HW129647   8.515   4.421   6.111
43207SOL    HW229648   8.404   4.374   6.001
43208SOL     OW29649   7.524   4.535   6.375
43208SOL    HW129650   7.623   4.523   6.384
43208SOL    HW229651   7.500   4.630   6.396
43209SOL     OW29652   7.578   5.545   7.157
43209SOL    HW129653   7.568   5.530   7.256
43209SOL    HW229654   7.492   5.581   7.121
43210SOL     OW29655   8.313   4.072   5.781
43210SOL    HW129656   8.372   4.135   5.732
43210SOL    HW229657   8.332   3.978   5.752
43211SOL     OW29658   9.167   4.309   7.417
43211SOL    HW129659   9.141   4.398   7.381
43211SOL    HW229660   9.165   4.241   7.344
43212SOL     OW29661   8.810   4.868   6.131
43212SOL    HW129662   8.893   4.839   6.083
43212SOL    HW229663   8.761   4.935   6.075
43213SOL     OW29664   7.998   3.920   6.471
43213SOL    HW129665   7.993   3.915   6.571
43213SOL    HW229666   8.000   4.016   6.442
43214SOL     OW29667   8.456   5.180   6.063
43214SOL    HW129668   8.410   5.252   6.011
43214SOL    HW229669   8.452   5.200   6.161
43215SOL     OW29670   7.799   5.525   6.439
43215SOL    HW129671   7.849   5.439   6.445
43215SOL    HW229672   7.864   5.602   6.436
43216SOL     OW29673   9.243   4.790   6.459
43216SOL    HW129674   9.181   4.775   6.383
43216SOL    HW229675   9.191   4.801   6.544
43217SOL     OW29676   8.675   5.274   7.092
43217SOL    HW129677   8.681   5.197   7.156
43217SOL    HW229678   8.623   5.248   7.012
43218SOL     OW29679   7.769   4.667   5.828
43218SOL    HW129680   7.851   4.706   5.786
43218SOL    HW229681   7.742   4.585   5.779
43219SOL     OW29682   8.906   4.459   6.314
43219SOL    HW129683   8.901   4.394   6.389
43219SOL    HW229684   8.986   4.518   6.327
43220SOL     OW29685   7.909   4.990   7.313
43220SOL    HW129686   7.859   4.991   7.227
43220SOL    HW229687   7.846   4.972   7.389
43221SOL     OW29688   8.559   5.500   5.823
43221SOL    HW129689   8.499   5.438   5.873
43221SOL    HW229690   8.590   5.456   5.738
43222SOL     OW29691   7.650   4.009   7.084
43222SOL    HW129692   7.570   4.069   7.071
43222SOL    HW229693   7.640   3.960   7.170
43223SOL     OW29694   9.080   5.101   5.667
43223SOL    HW129695   9.048   5.195   5.657
43223SOL    HW229696   9.004   5.038   5.655
43224SOL     OW29697   7.912   5.467   5.909
43224SOL    HW129698   7.945   5.506   5.995
43224SOL    HW229699   7.988   5.460   5.844
43225SOL     OW29700   8.848   3.831   6.012
43225SOL    HW129701   8.824   3.794   5.922
43225SOL    HW229702   8.947   3.847   6.016
43226SOL     OW29703   7.697   5.509   6.827
43226SOL    HW129704   7.754   5.444   6.877
43226SOL    HW229705   7.681   5.476   6.734
43227SOL     OW29706   8.388   5.422   6.490
43227SOL    HW129707   8.468   5.365   6.511
43227SOL    HW229708   8.339   5.382   6.413
43228SOL     OW29709   7.830   4.424   6.066
43228SOL    HW129710   7.875   4.334   6.063
43228SOL    HW229711   7.736   4.413   6.099
43229SOL     OW29712   8.995   3.946   7.315
43229SOL    HW129713   8.990   3.983   7.407
43229SOL    HW229714   8.923   3.877   7.303
43230SOL     OW29715   8.062   3.846   5.703
43230SOL    HW129716   8.160   3.824   5.710
43230SOL    HW229717   8.031   3.829   5.610
43231SOL     OW29718   8.229   3.988   7.335
43231SOL    HW129719   8.296   3.927   7.378
43231SOL    HW229720   8.156   4.007   7.400
43232SOL     OW29721   8.336   5.238   6.781
43232SOL    HW129722   8.313   5.213   6.687
43232SOL    HW229723   8.397   5.169   6.820
43233SOL     OW29724   8.799   4.314   7.019
43233SOL    HW129725   8.827   4.271   7.104
43233SOL    HW229726   8.824   4.410   7.020
43234SOL     OW29727   8.251   5.126   6.510
43234SOL    HW129728   8.341   5.140   6.468
43234SOL    HW229729   8.180   5.128   6.439
43235SOL     OW29730   8.370   4.227   6.485
43235SOL    HW129731   8.345   4.218   6.389
43235SOL    HW229732   8.418   4.145   6.516
43236SOL     OW29733   7.987   3.788   6.098
43236SOL    HW129734   7.906   3.789   6.156
43236SOL    HW229735   7.990   3.871   6.043
43237SOL     OW29736   8.882   4.912   5.627
43237SOL    HW129737   8.914   4.836   5.684
43237SOL    HW229738   8.790   4.939   5.657
43238SOL     OW29739   7.745   3.759   5.757
43238SOL    HW129740   7.794   3.843   5.736
43238SOL    HW229741   7.807   3.694   5.802
43239SOL     OW29742   8.383   3.960   6.066
43239SOL    HW129743   8.335   4.001   5.988
43239SOL    HW229744   8.482   3.958   6.047
43240SOL     OW29745   8.524   4.407   7.050
43240SOL    HW129746   8.444   4.346   7.053
43240SOL    HW229747   8.605   4.354   7.026
43241SOL     OW29748   8.675   5.294   6.379
43241SOL    HW129749   8.696   5.368   6.314
43241SOL    HW229750   8.743   5.294   6.452
43242SOL     OW29751   7.907   4.876   6.327
43242SOL    HW129752   7.836   4.849   6.392
43242SOL    HW229753   7.881   4.848   6.234
43243SOL     OW29754   8.719   5.521   6.177
43243SOL    HW129755   8.763   5.585   6.113
43243SOL    HW229756   8.669   5.573   6.247
43244SOL     OW29757   8.480   4.273   5.602
43244SOL    HW129758   8.439   4.355   5.563
43244SOL    HW229759   8.544   4.299   5.675
43245SOL     OW29760   7.526   4.280   6.972
43245SOL    HW129761   7.618   4.279   6.931
43245SOL    HW229762   7.520   4.354   7.039
43246SOL     OW29763   8.009   3.946   6.733
43246SOL    HW129764   8.047   3.862   6.770
43246SOL    HW229765   7.921   3.965   6.777
43247SOL     OW29766   8.314   4.178   6.228
43247SOL    HW129767   8.282   4.250   6.166
43247SOL    HW229768   8.338   4.097   6.175
43248SOL     OW29769   8.465   3.763   6.339
43248SOL    HW129770   8.393   3.768   6.270
43248SOL    HW229771   8.441   3.694   6.408
43249SOL     OW29772   8.877   4.897   6.453
43249SOL    HW129773   8.822   4.813   6.446
43249SOL    HW229774   8.903   4.926   6.361
43250SOL     OW29775   8.914   4.314   6.578
43250SOL    HW129776   8.884   4.219   6.585
43250SOL    HW229777   8.987   4.330   6.644
43251SOL     OW29778   9.305   4.557   5.963
43251SOL    HW129779   9.347   4.493   6.027
43251SOL    HW229780   9.267   4.506   5.885
43252SOL     OW29781   7.936   5.109   5.760
43252SOL    HW129782   7.849   5.094   5.807
43252SOL    HW229783   7.919   5.135   5.665
43253SOL     OW29784   9.112   5.004   6.243
43253SOL    HW129785   9.211   5.012   6.257
43253SOL    HW229786   9.067   5.088   6.274
43254SOL     OW29787   8.838   4.299   5.664
43254SOL    HW129788   8.784   4.278   5.745
43254SOL    HW229789   8.929   4.258   5.673
43255SOL     OW29790   7.975   3.980   5.914
43255SOL    HW129791   8.002   3.921   5.839
43255SOL    HW229792   7.975   4.075   5.883
43256SOL     OW29793   9.202   4.947   7.174
43256SOL    HW129794   9.293   4.908   7.161
43256SOL    HW229795   9.210   5.043   7.198
43257SOL     OW29796   8.512   5.071   6.926
43257SOL    HW129797   8.432   5.048   6.981
43257SOL    HW229798   8.595   5.045   6.975
43258SOL     OW29799   9.040   5.353   7.211
43258SOL    HW129800   9.067   5.387   7.121
43258SOL    HW229801   9.119   5.315   7.257
43259SOL     OW29802   8.559   4.919   6.686
43259SOL    HW129803   8.519   4.963   6.767
43259SOL    HW229804   8.518   4.956   6.603
43260SOL     OW29805   9.086   4.823   6.665
43260SOL    HW129806   9.091   4.904   6.724
43260SOL    HW229807   9.000   4.825   6.614
43261SOL     OW29808   8.363   3.813   6.988
43261SOL    HW129809   8.388   3.793   6.893
43261SOL    HW229810   8.435   3.869   7.030
43262SOL     OW29811   8.428   4.840   7.305
43262SOL    HW129812   8.329   4.846   7.315
43262SOL    HW229813   8.451   4.760   7.249
43263SOL     OW29814   8.153   4.774   5.954
43263SOL    HW129815   8.139   4.781   6.053
43263SOL    HW229816   8.237   4.723   5.936
43264SOL     OW29817   7.858   4.537   6.837
43264SOL    HW129818   7.944   4.549   6.887
43264SOL    HW229819   7.816   4.450   6.864
43265SOL     OW29820   8.722   4.110   6.848
43265SOL    HW129821   8.743   4.184   6.912
43265SOL    HW229822   8.633   4.127   6.805
43266SOL     OW29823   7.512   5.288   6.917
43266SOL    HW129824   7.466   5.370   6.883
43266SOL    HW229825   7.610   5.307   6.926
43267SOL     OW29826   7.815   4.824   6.087
43267SOL    HW129827   7.808   4.907   6.031
43267SOL    HW229828   7.819   4.744   6.027
43268SOL     OW29829   8.014   4.261   6.451
43268SOL    HW129830   8.026   4.327   6.377
43268SOL    HW229831   8.060   4.295   6.534
43269SOL     OW29832   8.700   5.072   5.974
43269SOL    HW129833   8.750   5.149   6.014
43269SOL    HW229834   8.605   5.074   6.006
43270SOL     OW29835   8.720   5.169   6.728
43270SOL    HW129836   8.767   5.182   6.815
43270SOL    HW229837   8.654   5.095   6.737
43271SOL     OW29838   9.030   4.363   6.058
43271SOL    HW129839   8.999   4.424   6.131
43271SOL    HW229840   9.080   4.415   5.989
43272SOL     OW29841   7.802   5.234   6.915
43272SOL    HW129842   7.781   5.190   6.828
43272SOL    HW229843   7.899   5.260   6.918
43273SOL     OW29844   7.850   4.475   7.184
43273SOL    HW129845   7.918   4.530   7.137
43273SOL    HW229846   7.890   4.387   7.211
43274SOL     OW29847   9.035   4.503   7.256
43274SOL    HW129848   8.943   4.541   7.251
43274SOL    HW229849   9.095   4.550   7.191
43275SOL     OW29850   8.461   3.829   7.356
43275SOL    HW129851   8.467   3.914   7.304
43275SOL    HW229852   8.493   3.753   7.299
43276SOL     OW29853   7.952   3.774   7.326
43276SOL    HW129854   7.910   3.717   7.256
43276SOL    HW229855   7.886   3.843   7.358
43277SOL     OW29856   8.021   4.594   6.615
43277SOL    HW129857   8.065   4.683   6.606
43277SOL    HW229858   7.958   4.594   6.692
43278SOL     OW29859   8.808   4.586   6.631
43278SOL    HW129860   8.733   4.586   6.565
43278SOL    HW229861   8.845   4.494   6.640
43279SOL     OW29862   8.657   4.249   5.861
43279SOL    HW129863   8.670   4.165   5.915
43279SOL    HW229864   8.628   4.323   5.921
43280SOL     OW29865   7.755   3.937   6.817
43280SOL    HW129866   7.732   3.974   6.907
43280SOL    HW229867   7.725   3.842   6.811
43281SOL     OW29868   7.485   5.034   6.868
43281SOL    HW129869   7.538   4.985   6.936
43281SOL    HW229870   7.507   5.132   6.873
43282SOL     OW29871   8.180   4.358   6.650
43282SOL    HW129872   8.239   4.332   6.574
43282SOL    HW229873   8.152   4.454   6.639
43283SOL     OW29874   9.176   4.659   7.440
43283SOL    HW129875   9.130   4.652   7.351
43283SOL    HW229876   9.114   4.703   7.506
43284SOL     OW29877   7.755   3.787   6.204
43284SOL    HW129878   7.744   3.881   6.237
43284SOL    HW229879   7.750   3.724   6.281
43285SOL     OW29880   9.070   4.091   5.960
43285SOL    HW129881   9.072   4.015   6.024
43285SOL    HW229882   9.022   4.168   6.000
43286SOL     OW29883   8.471   4.490   6.552
43286SOL    HW129884   8.486   4.511   6.648
43286SOL    HW229885   8.441   4.395   6.543
43287SOL     OW29886   8.428   5.297   7.286
43287SOL    HW129887   8.408   5.341   7.198
43287SOL    HW229888   8.467   5.206   7.270
43288SOL     OW29889   9.307   5.242   7.191
43288SOL    HW129890   9.321   5.269   7.096
43288SOL    HW229891   9.390   5.264   7.244
43289SOL     OW29892   7.798   4.622   7.390
43289SOL    HW129893   7.874   4.666   7.438
43289SOL    HW229894   7.833   4.575   7.308
43290SOL     OW29895   8.988   3.998   5.711
43290SOL    HW129896   8.927   3.923   5.734
43290SOL    HW229897   9.010   4.050   5.794
43291SOL     OW29898   8.751   4.562   5.628
43291SOL    HW129899   8.785   4.469   5.643
43291SOL    HW229900   8.769   4.589   5.533
43292SOL     OW29901   8.516   5.057   6.435
43292SOL    HW129902   8.523   4.973   6.380
43292SOL    HW229903   8.578   5.126   6.399
43293SOL     OW29904   7.767   4.534   6.535
43293SOL    HW129905   7.860   4.570   6.540
43293SOL    HW229906   7.761   4.449   6.587
43294SOL     OW29907   7.787   4.233   6.592
43294SOL    HW129908   7.735   4.150   6.575
43294SOL    HW229909   7.864   4.238   6.528
43295SOL     OW29910   8.586   4.104   7.264
43295SOL    HW129911   8.541   4.167   7.328
43295SOL    HW229912   8.679   4.135   7.247
43296SOL     OW29913   8.608   3.931   7.063
43296SOL    HW129914   8.608   3.995   7.140
43296SOL    HW229915   8.636   3.979   6.980
43297SOL     OW29916   7.456   5.050   5.786
43297SOL    HW129917   7.363   5.071   5.755
43297SOL    HW229918   7.466   4.951   5.799
43298SOL     OW29919   7.536   5.525   6.513
43298SOL    HW129920   7.494   5.439   6.486
43298SOL    HW229921   7.630   5.528   6.479
43299SOL     OW29922   7.952   5.292   6.496
43299SOL    HW129923   8.018   5.366   6.505
43299SOL    HW229924   7.996   5.213   6.454
43300SOL     OW29925   8.450   4.520   6.824
43300SOL    HW129926   8.491   4.488   6.910
43300SOL    HW229927   8.354   4.493   6.821
43301SOL     OW29928   7.488   4.268   6.700
43301SOL    HW129929   7.573   4.235   6.659
43301SOL    HW229930   7.501   4.283   6.798
43302SOL     OW29931   7.637   4.244   7.308
43302SOL    HW129932   7.696   4.204   7.238
43302SOL    HW229933   7.579   4.315   7.267
43303SOL     OW29934   8.817   4.674   7.246
43303SOL    HW129935   8.856   4.763   7.266
43303SOL    HW229936   8.827   4.654   7.149
43304SOL     OW29937   8.263   4.296   5.911
43304SOL    HW129938   8.270   4.207   5.865
43304SOL    HW229939   8.169   4.330   5.903
43305SOL     OW29940   9.105   4.328   6.792
43305SOL    HW129941   9.067   4.259   6.854
43305SOL    HW229942   9.187   4.292   6.748
43306SOL     OW29943   7.700   5.288   7.330
43306SOL    HW129944   7.670   5.345   7.406
43306SOL    HW229945   7.693   5.191   7.356
43307SOL     OW29946   8.119   4.188   6.855
43307SOL    HW129947   8.085   4.099   6.825
43307SOL    HW229948   8.145   4.242   6.775
43308SOL     OW29949   8.378   5.402   7.051
43308SOL    HW129950   8.354   5.384   6.956
43308SOL    HW229951   8.408   5.496   7.061
43309SOL     OW29952   7.921   4.224   5.777
43309SOL    HW129953   7.982   4.304   5.781
43309SOL    HW229954   7.826   4.255   5.784
43310SOL     OW29955   7.607   4.861   7.052
43310SOL    HW129956   7.629   4.800   7.128
43310SOL    HW229957   7.617   4.812   6.966
43311SOL     OW29958   8.795   4.783   6.820
43311SOL    HW129959   8.819   4.720   6.746
43311SOL    HW229960   8.705   4.823   6.802
43312SOL     OW29961   8.750   4.579   5.895
43312SOL    HW129962   8.664   4.548   5.937
43312SOL    HW229963   8.746   4.565   5.796
43313SOL     OW29964   9.207   5.471   6.740
43313SOL    HW129965   9.268   5.501   6.667
43313SOL    HW229966   9.169   5.382   6.718
43314SOL     OW29967   8.700   5.455   6.714
43314SOL    HW129968   8.784   5.460   6.660
43314SOL    HW229969   8.677   5.359   6.732
43315SOL     OW29970   7.531   4.982   6.608
43315SOL    HW129971   7.526   4.981   6.708
43315SOL    HW229972   7.448   4.941   6.570
43316SOL     OW29973   8.136   5.386   7.302
43316SOL    HW129974   8.080   5.467   7.311
43316SOL    HW229975   8.188   5.390   7.216
43317SOL     OW29976   9.174   3.859   6.109
43317SOL    HW129977   9.247   3.842   6.042
43317SOL    HW229978   9.143   3.772   6.147
43318SOL     OW29979   8.836   5.297   6.063
43318SOL    HW129980   8.903   5.309   5.989
43318SOL    HW229981   8.796   5.386   6.086
43319SOL     OW29982   7.578   5.518   7.437
43319SOL    HW129983   7.537   5.444   7.490
43319SOL    HW229984   7.642   5.569   7.495
43320SOL     OW29985   8.728   4.651   6.258
43320SOL    HW129986   8.788   4.570   6.260
43320SOL    HW229987   8.768   4.720   6.198
43321SOL     OW29988   8.278   4.997   7.008
43321SOL    HW129989   8.273   5.030   7.103
43321SOL    HW229990   8.192   5.016   6.962
43322SOL     OW29991   8.120   5.340   5.740
43322SOL    HW129992   8.129   5.350   5.641
43322SOL    HW229993   8.080   5.251   5.761
43323SOL     OW29994   9.098   5.444   6.980
43323SOL    HW129995   9.151   5.454   6.896
43323SOL    HW229996   9.071   5.534   7.014
43324SOL     OW29997   9.289   3.899   6.549
43324SOL    HW129998   9.328   3.814   6.513
43324SOL    HW229999   9.191   3.901   6.530
43325SOL     OW30000   7.711   4.050   6.306
43325SOL    HW130001   7.632   4.101   6.272
43325SOL    HW230002   7.702   4.035   6.404
43326SOL     OW30003   8.642   5.336   5.617
43326SOL    HW130004   8.648   5.243   5.654
43326SOL    HW230005   8.583   5.336   5.537
43327SOL     OW30006   8.270   4.726   6.958
43327SOL    HW130007   8.310   4.725   6.866
43327SOL    HW230008   8.280   4.818   6.998
43328SOL     OW30009   8.364   4.634   5.877
43328SOL    HW130010   8.427   4.672   5.809
43328SOL    HW230011   8.404   4.551   5.916
43329SOL     OW30012   8.952   5.331   5.630
43329SOL    HW130013   8.860   5.368   5.637
43329SOL    HW230014   8.990   5.351   5.540
43330SOL     OW30015   7.820   5.012   7.076
43330SOL    HW130016   7.807   5.105   7.042
43330SOL    HW230017   7.736   4.960   7.063
43331SOL     OW30018   9.062   5.016   6.875
43331SOL    HW130019   9.122   5.019   6.955
43331SOL    HW230020   8.987   5.080   6.888
43332SOL     OW30021   8.487   4.822   6.282
43332SOL    HW130022   8.417   4.775   6.336
43332SOL    HW230023   8.546   4.754   6.239
43333SOL     OW30024   8.462   3.960   6.557
43333SOL    HW130025   8.454   3.924   6.464
43333SOL    HW230026   8.460   3.884   6.622
43334SOL     OW30027   8.038   5.211   6.077
43334SOL    HW130028   8.080   5.153   6.007
43334SOL    HW230029   7.994   5.290   6.033
43335SOL     OW30030   9.157   4.109   6.967
43335SOL    HW130031   9.230   4.178   6.971
43335SOL    HW230032   9.185   4.034   6.908
43336SOL     OW30033   7.703   5.072   5.876
43336SOL    HW130034   7.607   5.073   5.849
43336SOL    HW230035   7.715   5.125   5.960
43337SOL     OW30036   7.553   4.737   7.312
43337SOL    HW130037   7.476   4.704   7.366
43337SOL    HW230038   7.638   4.707   7.354
43338SOL     OW30039   8.120   3.927   7.075
43338SOL    HW130040   8.210   3.911   7.035
43338SOL    HW230041   8.128   3.932   7.174
43339SOL     OW30042   7.523   4.069   5.619
43339SOL    HW130043   7.431   4.041   5.590
43339SOL    HW230044   7.554   4.146   5.563
43340SOL     OW30045   8.888   4.580   6.984
43340SOL    HW130046   8.831   4.632   6.921
43340SOL    HW230047   8.984   4.592   6.960
43341SOL     OW30048   7.520   3.890   5.904
43341SOL    HW130049   7.503   3.973   5.850
43341SOL    HW230050   7.610   3.853   5.882
43342SOL     OW30051   8.631   5.059   5.705
43342SOL    HW130052   8.532   5.048   5.707
43342SOL    HW230053   8.665   5.074   5.798
43343SOL     OW30054   8.061   4.566   7.017
43343SOL    HW130055   8.117   4.647   7.000
43343SOL    HW230056   8.120   4.486   7.020
43344SOL     OW30057   8.941   5.491   6.545
43344SOL    HW130058   8.974   5.555   6.476
43344SOL    HW230059   9.007   5.485   6.620
43345SOL     OW30060   8.164   4.289   7.294
43345SOL    HW130061   8.183   4.354   7.368
43345SOL    HW230062   8.224   4.209   7.303
43346SOL     OW30063   8.898   4.944   7.219
43346SOL    HW130064   8.889   4.934   7.318
43346SOL    HW230065   8.994   4.937   7.193
43347SOL     OW30066   7.838   5.465   7.146
43347SOL    HW130067   7.747   5.506   7.144
43347SOL    HW230068   7.831   5.371   7.178
43348SOL     OW30069   9.122   4.607   6.840
43348SOL    HW130070   9.095   4.518   6.803
43348SOL    HW230071   9.123   4.675   6.767
43349SOL     OW30072   8.673   4.049   6.035
43349SOL    HW130073   8.738   3.975   6.024
43349SOL    HW230074   8.693   4.099   6.119
43350SOL     OW30075   8.042   4.469   6.238
43350SOL    HW130076   8.092   4.554   6.219
43350SOL    HW230077   7.954   4.471   6.190
43351SOL     OW30078   9.225   4.066   7.228
43351SOL    HW130079   9.208   4.097   7.134
43351SOL    HW230080   9.141   4.029   7.266
43352SOL     OW30081   9.178   4.658   7.103
43352SOL    HW130082   9.216   4.749   7.118
43352SOL    HW230083   9.170   4.641   7.004
43353SOL     OW30084   8.307   5.098   5.602
43353SOL    HW130085   8.261   5.113   5.690
43353SOL    HW230086   8.351   5.183   5.572
43354SOL     OW30087   8.109   5.514   6.539
43354SOL    HW130088   8.063   5.602   6.526
43354SOL    HW230089   8.208   5.526   6.532
43355SOL     OW30090   8.307   4.680   6.447
43355SOL    HW130091   8.361   4.611   6.495
43355SOL    HW230092   8.275   4.749   6.513
43356SOL     OW30093   8.531   4.708   5.673
43356SOL    HW130094   8.508   4.761   5.591
43356SOL    HW230095   8.612   4.652   5.654
43357SOL     OW30096   9.309   5.293   6.437
43357SOL    HW130097   9.238   5.281   6.367
43357SOL    HW230098   9.310   5.214   6.497
43358SOL     OW30099   7.669   5.038   7.430
43358SOL    HW130100   7.604   4.965   7.409
43358SOL    HW230101   7.673   5.052   7.528
43359SOL     OW30102   7.527   4.964   6.239
43359SOL    HW130103   7.526   4.917   6.327
43359SOL    HW230104   7.609   4.936   6.188
43360SOL     OW30105   8.120   5.115   7.210
43360SOL    HW130106   8.042   5.065   7.248
43360SOL    HW230107   8.117   5.210   7.241
43361SOL     OW30108   9.272   3.916   6.813
43361SOL    HW130109   9.268   3.826   6.857
43361SOL    HW230110   9.275   3.905   6.714
43362SOL     OW30111   7.876   4.148   6.106
43362SOL    HW130112   7.906   4.076   6.044
43362SOL    HW230113   7.837   4.108   6.189
43363SOL     OW30114   9.153   5.211   6.690
43363SOL    HW130115   9.060   5.186   6.663
43363SOL    HW230116   9.179   5.161   6.772
43364SOL     OW30117   7.765   4.271   6.866
43364SOL    HW130118   7.803   4.212   6.938
43364SOL    HW230119   7.805   4.245   6.778
43365SOL     OW30120   8.260   5.310   6.273
43365SOL    HW130121   8.292   5.320   6.179
43365SOL    HW230122   8.181   5.248   6.275
43366SOL     OW30123   8.872   3.938   6.698
43366SOL    HW130124   8.924   3.873   6.753
43366SOL    HW230125   8.823   4.001   6.759
43367SOL     OW30126   8.449   3.758   6.740
43367SOL    HW130127   8.386   3.686   6.709
43367SOL    HW230128   8.542   3.722   6.740
43368SOL     OW30129   8.218   5.054   5.887
43368SOL    HW130130   8.172   4.967   5.904
43368SOL    HW230131   8.309   5.051   5.928
43369SOL     OW30132   8.066   5.291   6.870
43369SOL    HW130133   8.061   5.373   6.927
43369SOL    HW230134   8.155   5.288   6.825
43370SOL     OW30135   8.800   3.776   5.754
43370SOL    HW130136   8.835   3.735   5.670
43370SOL    HW230137   8.710   3.738   5.774
43371SOL     OW30138   8.748   4.177   6.277
43371SOL    HW130139   8.689   4.257   6.281
43371SOL    HW230140   8.763   4.142   6.370
43372SOL     OW30141   9.041   3.945   6.468
43372SOL    HW130142   8.957   3.944   6.522
43372SOL    HW230143   9.043   4.028   6.412
43373SOL     OW30144   7.487   4.801   5.886
43373SOL    HW130145   7.586   4.790   5.877
43373SOL    HW230146   7.447   4.715   5.918
43374SOL     OW30147   8.323   5.370   5.923
43374SOL    HW130148   8.246   5.335   5.869
43374SOL    HW230149   8.291   5.441   5.985
43375SOL     OW30150   7.678   4.352   7.561
43375SOL    HW130151   7.585   4.350   7.598
43375SOL    HW230152   7.679   4.313   7.469
43376SOL     OW30153   7.673   3.999   8.444
43376SOL    HW130154   7.708   3.982   8.536
43376SOL    HW230155   7.585   3.954   8.432
43377SOL     OW30156   7.467   4.092   8.095
43377SOL    HW130157   7.385   4.135   8.134
43377SOL    HW230158   7.439   4.019   8.032
43378SOL     OW30159   8.017   4.999   8.613
43378SOL    HW130160   7.924   4.992   8.576
43378SOL    HW230161   8.028   5.088   8.657
43379SOL     OW30162   9.003   5.235   8.151
43379SOL    HW130163   8.946   5.219   8.232
43379SOL    HW230164   8.944   5.245   8.071
43380SOL     OW30165   8.583   4.427   8.165
43380SOL    HW130166   8.640   4.505   8.140
43380SOL    HW230167   8.523   4.453   8.241
43381SOL     OW30168   9.203   4.331   7.679
43381SOL    HW130169   9.191   4.318   7.580
43381SOL    HW230170   9.173   4.250   7.728
43382SOL     OW30171   8.216   4.868   8.471
43382SOL    HW130172   8.138   4.885   8.531
43382SOL    HW230173   8.250   4.955   8.435
43383SOL     OW30174   8.298   4.522   9.271
43383SOL    HW130175   8.294   4.598   9.336
43383SOL    HW230176   8.320   4.558   9.180
43384SOL     OW30177   8.133   4.736   8.113
43384SOL    HW130178   8.202   4.720   8.183
43384SOL    HW230179   8.060   4.793   8.151
43385SOL     OW30180   8.134   4.885   9.251
43385SOL    HW130181   8.194   4.964   9.265
43385SOL    HW230182   8.048   4.916   9.210
43386SOL     OW30183   7.783   5.159   8.509
43386SOL    HW130184   7.705   5.128   8.456
43386SOL    HW230185   7.841   5.217   8.452
43387SOL     OW30186   8.908   5.229   8.787
43387SOL    HW130187   8.932   5.323   8.813
43387SOL    HW230188   8.892   5.175   8.869
43388SOL     OW30189   7.886   4.116   8.947
43388SOL    HW130190   7.968   4.060   8.956
43388SOL    HW230191   7.805   4.058   8.951
43389SOL     OW30192   9.051   4.171   8.185
43389SOL    HW130193   8.977   4.217   8.135
43389SOL    HW230194   9.102   4.239   8.238
43390SOL     OW30195   7.679   5.437   7.931
43390SOL    HW130196   7.713   5.514   7.985
43390SOL    HW230197   7.723   5.437   7.841
43391SOL     OW30198   8.575   5.065   9.138
43391SOL    HW130199   8.622   5.065   9.226
43391SOL    HW230200   8.527   4.978   9.127
43392SOL     OW30201   7.678   5.158   7.986
43392SOL    HW130202   7.652   5.254   7.986
43392SOL    HW230203   7.607   5.104   8.031
43393SOL     OW30204   7.688   4.815   8.334
43393SOL    HW130205   7.702   4.731   8.386
43393SOL    HW230206   7.633   4.879   8.389
43394SOL     OW30207   8.068   5.510   8.887
43394SOL    HW130208   7.976   5.493   8.922
43394SOL    HW230209   8.096   5.602   8.913
43395SOL     OW30210   8.054   4.688   7.571
43395SOL    HW130211   8.061   4.772   7.517
43395SOL    HW230212   8.100   4.701   7.659
43396SOL     OW30213   9.042   3.838   8.928
43396SOL    HW130214   9.024   3.905   8.856
43396SOL    HW230215   9.039   3.884   9.017
43397SOL     OW30216   7.570   4.367   8.011
43397SOL    HW130217   7.525   4.279   8.028
43397SOL    HW230218   7.569   4.421   8.095
43398SOL     OW30219   9.290   5.491   7.807
43398SOL    HW130220   9.344   5.462   7.887
43398SOL    HW230221   9.320   5.581   7.778
43399SOL     OW30222   7.475   5.320   7.565
43399SOL    HW130223   7.456   5.224   7.586
43399SOL    HW230224   7.442   5.378   7.640
43400SOL     OW30225   9.137   4.646   8.060
43400SOL    HW130226   9.232   4.617   8.068
43400SOL    HW230227   9.129   4.711   7.985
43401SOL     OW30228   9.089   4.832   7.880
43401SOL    HW130229   9.175   4.834   7.828
43401SOL    HW230230   9.103   4.879   7.968
43402SOL     OW30231   7.561   4.461   9.045
43402SOL    HW130232   7.649   4.448   9.090
43402SOL    HW230233   7.548   4.558   9.023
43403SOL     OW30234   8.061   5.089   8.174
43403SOL    HW130235   8.012   5.002   8.183
43403SOL    HW230236   8.038   5.132   8.087
43404SOL     OW30237   8.741   4.952   8.871
43404SOL    HW130238   8.778   4.879   8.813
43404SOL    HW230239   8.793   4.957   8.956
43405SOL     OW30240   8.257   3.728   7.950
43405SOL    HW130241   8.297   3.819   7.941
43405SOL    HW230242   8.157   3.736   7.956
43406SOL     OW30243   7.645   4.700   8.712
43406SOL    HW130244   7.734   4.655   8.698
43406SOL    HW230245   7.572   4.635   8.693
43407SOL     OW30246   8.973   4.723   7.638
43407SOL    HW130247   8.910   4.647   7.651
43407SOL    HW230248   9.021   4.741   7.724
43408SOL     OW30249   8.635   5.516   9.064
43408SOL    HW130250   8.659   5.576   8.988
43408SOL    HW230251   8.642   5.421   9.034
43409SOL     OW30252   7.765   3.975   9.249
43409SOL    HW130253   7.836   4.046   9.255
43409SOL    HW230254   7.677   4.014   9.277
43410SOL     OW30255   8.914   5.141   8.401
43410SOL    HW130256   8.855   5.147   8.481
43410SOL    HW230257   8.899   5.053   8.355
43411SOL     OW30258   9.115   5.438   8.020
43411SOL    HW130259   9.074   5.415   7.932
43411SOL    HW230260   9.097   5.364   8.085
43412SOL     OW30261   8.046   4.453   7.718
43412SOL    HW130262   8.070   4.522   7.650
43412SOL    HW230263   7.968   4.486   7.772
43413SOL     OW30264   8.729   4.069   8.392
43413SOL    HW130265   8.643   4.019   8.379
43413SOL    HW230266   8.791   4.015   8.448
43414SOL     OW30267   9.024   5.386   7.755
43414SOL    HW130268   9.113   5.432   7.758
43414SOL    HW230269   9.003   5.362   7.660
43415SOL     OW30270   8.255   4.329   8.913
43415SOL    HW130271   8.208   4.326   9.002
43415SOL    HW230272   8.204   4.274   8.847
43416SOL     OW30273   8.842   4.193   9.122
43416SOL    HW130274   8.822   4.236   9.210
43416SOL    HW230275   8.920   4.131   9.131
43417SOL     OW30276   8.421   4.614   9.020
43417SOL    HW130277   8.467   4.530   8.991
43417SOL    HW230278   8.365   4.648   8.945
43418SOL     OW30279   8.439   4.134   8.690
43418SOL    HW130280   8.362   4.168   8.744
43418SOL    HW230281   8.405   4.083   8.611
43419SOL     OW30282   8.489   4.425   7.877
43419SOL    HW130283   8.515   4.421   7.973
43419SOL    HW230284   8.404   4.374   7.863
43420SOL     OW30285   7.524   4.535   8.237
43420SOL    HW130286   7.623   4.523   8.246
43420SOL    HW230287   7.500   4.630   8.258
43421SOL     OW30288   7.578   5.545   9.019
43421SOL    HW130289   7.568   5.530   9.118
43421SOL    HW230290   7.492   5.581   8.983
43422SOL     OW30291   8.313   4.072   7.643
43422SOL    HW130292   8.372   4.135   7.594
43422SOL    HW230293   8.332   3.978   7.614
43423SOL     OW30294   9.167   4.309   9.279
43423SOL    HW130295   9.141   4.398   9.243
43423SOL    HW230296   9.165   4.241   9.206
43424SOL     OW30297   8.810   4.868   7.993
43424SOL    HW130298   8.893   4.839   7.945
43424SOL    HW230299   8.761   4.935   7.937
43425SOL     OW30300   7.998   3.920   8.333
43425SOL    HW130301   7.993   3.915   8.433
43425SOL    HW230302   8.000   4.016   8.304
43426SOL     OW30303   8.456   5.180   7.925
43426SOL    HW130304   8.410   5.252   7.873
43426SOL    HW230305   8.452   5.200   8.023
43427SOL     OW30306   7.799   5.525   8.301
43427SOL    HW130307   7.849   5.439   8.307
43427SOL    HW230308   7.864   5.602   8.298
43428SOL     OW30309   9.243   4.790   8.321
43428SOL    HW130310   9.181   4.775   8.245
43428SOL    HW230311   9.191   4.801   8.406
43429SOL     OW30312   8.675   5.274   8.954
43429SOL    HW130313   8.681   5.197   9.018
43429SOL    HW230314   8.623   5.248   8.874
43430SOL     OW30315   7.769   4.667   7.690
43430SOL    HW130316   7.851   4.706   7.648
43430SOL    HW230317   7.742   4.585   7.641
43431SOL     OW30318   8.906   4.459   8.176
43431SOL    HW130319   8.901   4.394   8.251
43431SOL    HW230320   8.986   4.518   8.189
43432SOL     OW30321   7.909   4.990   9.175
43432SOL    HW130322   7.859   4.991   9.089
43432SOL    HW230323   7.846   4.972   9.251
43433SOL     OW30324   8.559   5.500   7.685
43433SOL    HW130325   8.499   5.438   7.735
43433SOL    HW230326   8.590   5.456   7.600
43434SOL     OW30327   7.650   4.009   8.946
43434SOL    HW130328   7.570   4.069   8.933
43434SOL    HW230329   7.640   3.960   9.032
43435SOL     OW30330   9.080   5.101   7.529
43435SOL    HW130331   9.048   5.195   7.519
43435SOL    HW230332   9.004   5.038   7.517
43436SOL     OW30333   7.912   5.467   7.771
43436SOL    HW130334   7.945   5.506   7.857
43436SOL    HW230335   7.988   5.460   7.706
43437SOL     OW30336   8.848   3.831   7.874
43437SOL    HW130337   8.824   3.794   7.784
43437SOL    HW230338   8.947   3.847   7.878
43438SOL     OW30339   7.697   5.509   8.689
43438SOL    HW130340   7.754   5.444   8.739
43438SOL    HW230341   7.681   5.476   8.596
43439SOL     OW30342   8.388   5.422   8.352
43439SOL    HW130343   8.468   5.365   8.373
43439SOL    HW230344   8.339   5.382   8.275
43440SOL     OW30345   7.830   4.424   7.928
43440SOL    HW130346   7.875   4.334   7.925
43440SOL    HW230347   7.736   4.413   7.961
43441SOL     OW30348   8.995   3.946   9.177
43441SOL    HW130349   8.990   3.983   9.269
43441SOL    HW230350   8.923   3.877   9.165
43442SOL     OW30351   8.062   3.846   7.565
43442SOL    HW130352   8.160   3.824   7.572
43442SOL    HW230353   8.031   3.829   7.472
43443SOL     OW30354   8.229   3.988   9.197
43443SOL    HW130355   8.296   3.927   9.240
43443SOL    HW230356   8.156   4.007   9.262
43444SOL     OW30357   8.336   5.238   8.643
43444SOL    HW130358   8.313   5.213   8.549
43444SOL    HW230359   8.397   5.169   8.682
43445SOL     OW30360   8.799   4.314   8.881
43445SOL    HW130361   8.827   4.271   8.966
43445SOL    HW230362   8.824   4.410   8.882
43446SOL     OW30363   8.251   5.126   8.372
43446SOL    HW130364   8.341   5.140   8.330
43446SOL    HW230365   8.180   5.128   8.301
43447SOL     OW30366   8.370   4.227   8.347
43447SOL    HW130367   8.345   4.218   8.251
43447SOL    HW230368   8.418   4.145   8.378
43448SOL     OW30369   7.987   3.788   7.960
43448SOL    HW130370   7.906   3.789   8.018
43448SOL    HW230371   7.990   3.871   7.905
43449SOL     OW30372   8.882   4.912   7.489
43449SOL    HW130373   8.914   4.836   7.546
43449SOL    HW230374   8.790   4.939   7.519
43450SOL     OW30375   7.745   3.759   7.619
43450SOL    HW130376   7.794   3.843   7.598
43450SOL    HW230377   7.807   3.694   7.664
43451SOL     OW30378   8.383   3.960   7.928
43451SOL    HW130379   8.335   4.001   7.850
43451SOL    HW230380   8.482   3.958   7.909
43452SOL     OW30381   8.524   4.407   8.912
43452SOL    HW130382   8.444   4.346   8.915
43452SOL    HW230383   8.605   4.354   8.888
43453SOL     OW30384   8.675   5.294   8.241
43453SOL    HW130385   8.696   5.368   8.176
43453SOL    HW230386   8.743   5.294   8.314
43454SOL     OW30387   7.907   4.876   8.189
43454SOL    HW130388   7.836   4.849   8.254
43454SOL    HW230389   7.881   4.848   8.096
43455SOL     OW30390   8.719   5.521   8.039
43455SOL    HW130391   8.763   5.585   7.975
43455SOL    HW230392   8.669   5.573   8.109
43456SOL     OW30393   8.480   4.273   7.464
43456SOL    HW130394   8.439   4.355   7.425
43456SOL    HW230395   8.544   4.299   7.537
43457SOL     OW30396   7.526   4.280   8.834
43457SOL    HW130397   7.618   4.279   8.793
43457SOL    HW230398   7.520   4.354   8.901
43458SOL     OW30399   8.009   3.946   8.595
43458SOL    HW130400   8.047   3.862   8.632
43458SOL    HW230401   7.921   3.965   8.639
43459SOL     OW30402   8.314   4.178   8.090
43459SOL    HW130403   8.282   4.250   8.028
43459SOL    HW230404   8.338   4.097   8.037
43460SOL     OW30405   8.465   3.763   8.201
43460SOL    HW130406   8.393   3.768   8.132
43460SOL    HW230407   8.441   3.694   8.270
43461SOL     OW30408   8.877   4.897   8.315
43461SOL    HW130409   8.822   4.813   8.308
43461SOL    HW230410   8.903   4.926   8.223
43462SOL     OW30411   8.914   4.314   8.440
43462SOL    HW130412   8.884   4.219   8.447
43462SOL    HW230413   8.987   4.330   8.506
43463SOL     OW30414   9.305   4.557   7.825
43463SOL    HW130415   9.347   4.493   7.889
43463SOL    HW230416   9.267   4.506   7.747
43464SOL     OW30417   7.936   5.109   7.622
43464SOL    HW130418   7.849   5.094   7.669
43464SOL    HW230419   7.919   5.135   7.527
43465SOL     OW30420   9.112   5.004   8.105
43465SOL    HW130421   9.211   5.012   8.119
43465SOL    HW230422   9.067   5.088   8.136
43466SOL     OW30423   8.838   4.299   7.526
43466SOL    HW130424   8.784   4.278   7.607
43466SOL    HW230425   8.929   4.258   7.535
43467SOL     OW30426   7.975   3.980   7.776
43467SOL    HW130427   8.002   3.921   7.701
43467SOL    HW230428   7.975   4.075   7.745
43468SOL     OW30429   9.202   4.947   9.036
43468SOL    HW130430   9.293   4.908   9.023
43468SOL    HW230431   9.210   5.043   9.060
43469SOL     OW30432   8.512   5.071   8.788
43469SOL    HW130433   8.432   5.048   8.843
43469SOL    HW230434   8.595   5.045   8.837
43470SOL     OW30435   9.040   5.353   9.073
43470SOL    HW130436   9.067   5.387   8.983
43470SOL    HW230437   9.119   5.315   9.119
43471SOL     OW30438   8.559   4.919   8.548
43471SOL    HW130439   8.519   4.963   8.629
43471SOL    HW230440   8.518   4.956   8.465
43472SOL     OW30441   9.086   4.823   8.527
43472SOL    HW130442   9.091   4.904   8.586
43472SOL    HW230443   9.000   4.825   8.476
43473SOL     OW30444   8.363   3.813   8.850
43473SOL    HW130445   8.388   3.793   8.755
43473SOL    HW230446   8.435   3.869   8.892
43474SOL     OW30447   8.428   4.840   9.167
43474SOL    HW130448   8.329   4.846   9.177
43474SOL    HW230449   8.451   4.760   9.111
43475SOL     OW30450   8.153   4.774   7.816
43475SOL    HW130451   8.139   4.781   7.915
43475SOL    HW230452   8.237   4.723   7.798
43476SOL     OW30453   7.858   4.537   8.699
43476SOL    HW130454   7.944   4.549   8.749
43476SOL    HW230455   7.816   4.450   8.726
43477SOL     OW30456   8.722   4.110   8.710
43477SOL    HW130457   8.743   4.184   8.774
43477SOL    HW230458   8.633   4.127   8.667
43478SOL     OW30459   7.512   5.288   8.779
43478SOL    HW130460   7.466   5.370   8.745
43478SOL    HW230461   7.610   5.307   8.788
43479SOL     OW30462   7.815   4.824   7.949
43479SOL    HW130463   7.808   4.907   7.893
43479SOL    HW230464   7.819   4.744   7.889
43480SOL     OW30465   8.014   4.261   8.313
43480SOL    HW130466   8.026   4.327   8.239
43480SOL    HW230467   8.060   4.295   8.396
43481SOL     OW30468   8.700   5.072   7.836
43481SOL    HW130469   8.750   5.149   7.876
43481SOL    HW230470   8.605   5.074   7.868
43482SOL     OW30471   8.720   5.169   8.590
43482SOL    HW130472   8.767   5.182   8.677
43482SOL    HW230473   8.654   5.095   8.599
43483SOL     OW30474   9.030   4.363   7.920
43483SOL    HW130475   8.999   4.424   7.993
43483SOL    HW230476   9.080   4.415   7.851
43484SOL     OW30477   7.802   5.234   8.777
43484SOL    HW130478   7.781   5.190   8.690
43484SOL    HW230479   7.899   5.260   8.780
43485SOL     OW30480   7.850   4.475   9.046
43485SOL    HW130481   7.918   4.530   8.999
43485SOL    HW230482   7.890   4.387   9.073
43486SOL     OW30483   9.035   4.503   9.118
43486SOL    HW130484   8.943   4.541   9.113
43486SOL    HW230485   9.095   4.550   9.053
43487SOL     OW30486   8.461   3.829   9.218
43487SOL    HW130487   8.467   3.914   9.166
43487SOL    HW230488   8.493   3.753   9.161
43488SOL     OW30489   7.952   3.774   9.188
43488SOL    HW130490   7.910   3.717   9.118
43488SOL    HW230491   7.886   3.843   9.220
43489SOL     OW30492   8.021   4.594   8.477
43489SOL    HW130493   8.065   4.683   8.468
43489SOL    HW230494   7.958   4.594   8.554
43490SOL     OW30495   8.808   4.586   8.493
43490SOL    HW130496   8.733   4.586   8.427
43490SOL    HW230497   8.845   4.494   8.502
43491SOL     OW30498   8.657   4.249   7.723
43491SOL    HW130499   8.670   4.165   7.777
43491SOL    HW230500   8.628   4.323   7.783
43492SOL     OW30501   7.755   3.937   8.679
43492SOL    HW130502   7.732   3.974   8.769
43492SOL    HW230503   7.725   3.842   8.673
43493SOL     OW30504   7.485   5.034   8.730
43493SOL    HW130505   7.538   4.985   8.798
43493SOL    HW230506   7.507   5.132   8.735
43494SOL     OW30507   8.180   4.358   8.512
43494SOL    HW130508   8.239   4.332   8.436
43494SOL    HW230509   8.152   4.454   8.501
43495SOL     OW30510   9.176   4.659   9.302
43495SOL    HW130511   9.130   4.652   9.213
43495SOL    HW230512   9.114   4.703   9.368
43496SOL     OW30513   7.755   3.787   8.066
43496SOL    HW130514   7.744   3.881   8.099
43496SOL    HW230515   7.750   3.724   8.143
43497SOL     OW30516   9.070   4.091   7.822
43497SOL    HW130517   9.072   4.015   7.886
43497SOL    HW230518   9.022   4.168   7.862
43498SOL     OW30519   8.471   4.490   8.414
43498SOL    HW130520   8.486   4.511   8.510
43498SOL    HW230521   8.441   4.395   8.405
43499SOL     OW30522   8.428   5.297   9.148
43499SOL    HW130523   8.408   5.341   9.060
43499SOL    HW230524   8.467   5.206   9.132
43500SOL     OW30525   9.307   5.242   9.053
43500SOL    HW130526   9.321   5.269   8.958
43500SOL    HW230527   9.390   5.264   9.106
43501SOL     OW30528   7.798   4.622   9.252
43501SOL    HW130529   7.874   4.666   9.300
43501SOL    HW230530   7.833   4.575   9.170
43502SOL     OW30531   8.988   3.998   7.573
43502SOL    HW130532   8.927   3.923   7.596
43502SOL    HW230533   9.010   4.050   7.656
43503SOL     OW30534   8.751   4.562   7.490
43503SOL    HW130535   8.785   4.469   7.505
43503SOL    HW230536   8.769   4.589   7.395
43504SOL     OW30537   8.516   5.057   8.297
43504SOL    HW130538   8.523   4.973   8.242
43504SOL    HW230539   8.578   5.126   8.261
43505SOL     OW30540   7.767   4.534   8.397
43505SOL    HW130541   7.860   4.570   8.402
43505SOL    HW230542   7.761   4.449   8.449
43506SOL     OW30543   7.787   4.233   8.454
43506SOL    HW130544   7.735   4.150   8.437
43506SOL    HW230545   7.864   4.238   8.390
43507SOL     OW30546   8.586   4.104   9.126
43507SOL    HW130547   8.541   4.167   9.190
43507SOL    HW230548   8.679   4.135   9.109
43508SOL     OW30549   8.608   3.931   8.925
43508SOL    HW130550   8.608   3.995   9.002
43508SOL    HW230551   8.636   3.979   8.842
43509SOL     OW30552   7.456   5.050   7.648
43509SOL    HW130553   7.363   5.071   7.617
43509SOL    HW230554   7.466   4.951   7.661
43510SOL     OW30555   7.536   5.525   8.375
43510SOL    HW130556   7.494   5.439   8.348
43510SOL    HW230557   7.630   5.528   8.341
43511SOL     OW30558   7.952   5.292   8.358
43511SOL    HW130559   8.018   5.366   8.367
43511SOL    HW230560   7.996   5.213   8.316
43512SOL     OW30561   8.450   4.520   8.686
43512SOL    HW130562   8.491   4.488   8.772
43512SOL    HW230563   8.354   4.493   8.683
43513SOL     OW30564   7.488   4.268   8.562
43513SOL    HW130565   7.573   4.235   8.521
43513SOL    HW230566   7.501   4.283   8.660
43514SOL     OW30567   7.637   4.244   9.170
43514SOL    HW130568   7.696   4.204   9.100
43514SOL    HW230569   7.579   4.315   9.129
43515SOL     OW30570   8.817   4.674   9.108
43515SOL    HW130571   8.856   4.763   9.128
43515SOL    HW230572   8.827   4.654   9.011
43516SOL     OW30573   8.263   4.296   7.773
43516SOL    HW130574   8.270   4.207   7.727
43516SOL    HW230575   8.169   4.330   7.765
43517SOL     OW30576   9.105   4.328   8.654
43517SOL    HW130577   9.067   4.259   8.716
43517SOL    HW230578   9.187   4.292   8.610
43518SOL     OW30579   7.700   5.288   9.192
43518SOL    HW130580   7.670   5.345   9.268
43518SOL    HW230581   7.693   5.191   9.218
43519SOL     OW30582   8.119   4.188   8.717
43519SOL    HW130583   8.085   4.099   8.687
43519SOL    HW230584   8.145   4.242   8.637
43520SOL     OW30585   8.378   5.402   8.913
43520SOL    HW130586   8.354   5.384   8.818
43520SOL    HW230587   8.408   5.496   8.923
43521SOL     OW30588   7.921   4.224   7.639
43521SOL    HW130589   7.982   4.304   7.643
43521SOL    HW230590   7.826   4.255   7.646
43522SOL     OW30591   7.607   4.861   8.914
43522SOL    HW130592   7.629   4.800   8.990
43522SOL    HW230593   7.617   4.812   8.828
43523SOL     OW30594   8.795   4.783   8.682
43523SOL    HW130595   8.819   4.720   8.608
43523SOL    HW230596   8.705   4.823   8.664
43524SOL     OW30597   8.750   4.579   7.757
43524SOL    HW130598   8.664   4.548   7.799
43524SOL    HW230599   8.746   4.565   7.658
43525SOL     OW30600   9.207   5.471   8.602
43525SOL    HW130601   9.268   5.501   8.529
43525SOL    HW230602   9.169   5.382   8.580
43526SOL     OW30603   8.700   5.455   8.576
43526SOL    HW130604   8.784   5.460   8.522
43526SOL    HW230605   8.677   5.359   8.594
43527SOL     OW30606   7.531   4.982   8.470
43527SOL    HW130607   7.526   4.981   8.570
43527SOL    HW230608   7.448   4.941   8.432
43528SOL     OW30609   8.136   5.386   9.164
43528SOL    HW130610   8.080   5.467   9.173
43528SOL    HW230611   8.188   5.390   9.078
43529SOL     OW30612   9.174   3.859   7.971
43529SOL    HW130613   9.247   3.842   7.904
43529SOL    HW230614   9.143   3.772   8.009
43530SOL     OW30615   8.836   5.297   7.925
43530SOL    HW130616   8.903   5.309   7.851
43530SOL    HW230617   8.796   5.386   7.948
43531SOL     OW30618   7.578   5.518   9.299
43531SOL    HW130619   7.537   5.444   9.352
43531SOL    HW230620   7.642   5.569   9.357
43532SOL     OW30621   8.728   4.651   8.120
43532SOL    HW130622   8.788   4.570   8.122
43532SOL    HW230623   8.768   4.720   8.060
43533SOL     OW30624   8.278   4.997   8.870
43533SOL    HW130625   8.273   5.030   8.965
43533SOL    HW230626   8.192   5.016   8.824
43534SOL     OW30627   8.120   5.340   7.602
43534SOL    HW130628   8.129   5.350   7.503
43534SOL    HW230629   8.080   5.251   7.623
43535SOL     OW30630   9.098   5.444   8.842
43535SOL    HW130631   9.151   5.454   8.758
43535SOL    HW230632   9.071   5.534   8.876
43536SOL     OW30633   9.289   3.899   8.411
43536SOL    HW130634   9.328   3.814   8.375
43536SOL    HW230635   9.191   3.901   8.392
43537SOL     OW30636   7.711   4.050   8.168
43537SOL    HW130637   7.632   4.101   8.134
43537SOL    HW230638   7.702   4.035   8.266
43538SOL     OW30639   8.642   5.336   7.479
43538SOL    HW130640   8.648   5.243   7.516
43538SOL    HW230641   8.583   5.336   7.399
43539SOL     OW30642   8.270   4.726   8.820
43539SOL    HW130643   8.310   4.725   8.728
43539SOL    HW230644   8.280   4.818   8.860
43540SOL     OW30645   8.364   4.634   7.739
43540SOL    HW130646   8.427   4.672   7.671
43540SOL    HW230647   8.404   4.551   7.778
43541SOL     OW30648   8.952   5.331   7.492
43541SOL    HW130649   8.860   5.368   7.499
43541SOL    HW230650   8.990   5.351   7.402
43542SOL     OW30651   7.820   5.012   8.938
43542SOL    HW130652   7.807   5.105   8.904
43542SOL    HW230653   7.736   4.960   8.925
43543SOL     OW30654   9.062   5.016   8.737
43543SOL    HW130655   9.122   5.019   8.817
43543SOL    HW230656   8.987   5.080   8.750
43544SOL     OW30657   8.487   4.822   8.144
43544SOL    HW130658   8.417   4.775   8.198
43544SOL    HW230659   8.546   4.754   8.101
43545SOL     OW30660   8.462   3.960   8.419
43545SOL    HW130661   8.454   3.924   8.326
43545SOL    HW230662   8.460   3.884   8.484
43546SOL     OW30663   8.038   5.211   7.939
43546SOL    HW130664   8.080   5.153   7.869
43546SOL    HW230665   7.994   5.290   7.895
43547SOL     OW30666   9.157   4.109   8.829
43547SOL    HW130667   9.230   4.178   8.833
43547SOL    HW230668   9.185   4.034   8.770
43548SOL     OW30669   7.703   5.072   7.738
43548SOL    HW130670   7.607   5.073   7.711
43548SOL    HW230671   7.715   5.125   7.822
43549SOL     OW30672   7.553   4.737   9.174
43549SOL    HW130673   7.476   4.704   9.228
43549SOL    HW230674   7.638   4.707   9.216
43550SOL     OW30675   8.120   3.927   8.937
43550SOL    HW130676   8.210   3.911   8.897
43550SOL    HW230677   8.128   3.932   9.036
43551SOL     OW30678   7.523   4.069   7.481
43551SOL    HW130679   7.431   4.041   7.452
43551SOL    HW230680   7.554   4.146   7.425
43552SOL     OW30681   8.888   4.580   8.846
43552SOL    HW130682   8.831   4.632   8.783
43552SOL    HW230683   8.984   4.592   8.822
43553SOL     OW30684   7.520   3.890   7.766
43553SOL    HW130685   7.503   3.973   7.712
43553SOL    HW230686   7.610   3.853   7.744
43554SOL     OW30687   8.631   5.059   7.567
43554SOL    HW130688   8.532   5.048   7.569
43554SOL    HW230689   8.665   5.074   7.660
43555SOL     OW30690   8.061   4.566   8.879
43555SOL    HW130691   8.117   4.647   8.862
43555SOL    HW230692   8.120   4.486   8.882
43556SOL     OW30693   8.941   5.491   8.407
43556SOL    HW130694   8.974   5.555   8.338
43556SOL    HW230695   9.007   5.485   8.482
43557SOL     OW30696   8.164   4.289   9.156
43557SOL    HW130697   8.183   4.354   9.230
43557SOL    HW230698   8.224   4.209   9.165
43558SOL     OW30699   8.898   4.944   9.081
43558SOL    HW130700   8.889   4.934   9.180
43558SOL    HW230701   8.994   4.937   9.055
43559SOL     OW30702   7.838   5.465   9.008
43559SOL    HW130703   7.747   5.506   9.006
43559SOL    HW230704   7.831   5.371   9.040
43560SOL     OW30705   9.122   4.607   8.702
43560SOL    HW130706   9.095   4.518   8.665
43560SOL    HW230707   9.123   4.675   8.629
43561SOL     OW30708   8.673   4.049   7.897
43561SOL    HW130709   8.738   3.975   7.886
43561SOL    HW230710   8.693   4.099   7.981
43562SOL     OW30711   8.042   4.469   8.100
43562SOL    HW130712   8.092   4.554   8.081
43562SOL    HW230713   7.954   4.471   8.052
43563SOL     OW30714   9.225   4.066   9.090
43563SOL    HW130715   9.208   4.097   8.996
43563SOL    HW230716   9.141   4.029   9.128
43564SOL     OW30717   9.178   4.658   8.965
43564SOL    HW130718   9.216   4.749   8.980
43564SOL    HW230719   9.170   4.641   8.866
43565SOL     OW30720   8.307   5.098   7.464
43565SOL    HW130721   8.261   5.113   7.552
43565SOL    HW230722   8.351   5.183   7.434
43566SOL     OW30723   8.109   5.514   8.401
43566SOL    HW130724   8.063   5.602   8.388
43566SOL    HW230725   8.208   5.526   8.394
43567SOL     OW30726   8.307   4.680   8.309
43567SOL    HW130727   8.361   4.611   8.357
43567SOL    HW230728   8.275   4.749   8.375
43568SOL     OW30729   8.531   4.708   7.535
43568SOL    HW130730   8.508   4.761   7.453
43568SOL    HW230731   8.612   4.652   7.516
43569SOL     OW30732   9.309   5.293   8.299
43569SOL    HW130733   9.238   5.281   8.229
43569SOL    HW230734   9.310   5.214   8.359
43570SOL     OW30735   7.669   5.038   9.292
43570SOL    HW130736   7.604   4.965   9.271
43570SOL    HW230737   7.673   5.052   9.390
43571SOL     OW30738   7.527   4.964   8.101
43571SOL    HW130739   7.526   4.917   8.189
43571SOL    HW230740   7.609   4.936   8.050
43572SOL     OW30741   8.120   5.115   9.072
43572SOL    HW130742   8.042   5.065   9.110
43572SOL    HW230743   8.117   5.210   9.103
43573SOL     OW30744   9.272   3.916   8.675
43573SOL    HW130745   9.268   3.826   8.719
43573SOL    HW230746   9.275   3.905   8.576
43574SOL     OW30747   7.876   4.148   7.968
43574SOL    HW130748   7.906   4.076   7.906
43574SOL    HW230749   7.837   4.108   8.051
43575SOL     OW30750   9.153   5.211   8.552
43575SOL    HW130751   9.060   5.186   8.525
43575SOL    HW230752   9.179   5.161   8.634
43576SOL     OW30753   7.765   4.271   8.728
43576SOL    HW130754   7.803   4.212   8.800
43576SOL    HW230755   7.805   4.245   8.640
43577SOL     OW30756   8.260   5.310   8.135
43577SOL    HW130757   8.292   5.320   8.041
43577SOL    HW230758   8.181   5.248   8.137
43578SOL     OW30759   8.872   3.938   8.560
43578SOL    HW130760   8.924   3.873   8.615
43578SOL    HW230761   8.823   4.001   8.621
43579SOL     OW30762   8.449   3.758   8.602
43579SOL    HW130763   8.386   3.686   8.571
43579SOL    HW230764   8.542   3.722   8.602
43580SOL     OW30765   8.218   5.054   7.749
43580SOL    HW130766   8.172   4.967   7.766
43580SOL    HW230767   8.309   5.051   7.790
43581SOL     OW30768   8.066   5.291   8.732
43581SOL    HW130769   8.061   5.373   8.789
43581SOL    HW230770   8.155   5.288   8.687
43582SOL     OW30771   8.800   3.776   7.616
43582SOL    HW130772   8.835   3.735   7.532
43582SOL    HW230773   8.710   3.738   7.636
43583SOL     OW30774   8.748   4.177   8.139
43583SOL    HW130775   8.689   4.257   8.143
43583SOL    HW230776   8.763   4.142   8.232
43584SOL     OW30777   9.041   3.945   8.330
43584SOL    HW130778   8.957   3.944   8.384
43584SOL    HW230779   9.043   4.028   8.274
43585SOL     OW30780   7.487   4.801   7.748
43585SOL    HW130781   7.586   4.790   7.739
43585SOL    HW230782   7.447   4.715   7.780
43586SOL     OW30783   8.323   5.370   7.785
43586SOL    HW130784   8.246   5.335   7.731
43586SOL    HW230785   8.291   5.441   7.847
43587SOL     OW30786   7.678   4.352   9.423
43587SOL    HW130787   7.585   4.350   9.460
43587SOL    HW230788   7.679   4.313   9.331
43588SOL     OW30789   7.673   3.999  10.306
43588SOL    HW130790   7.708   3.982  10.398
43588SOL    HW230791   7.585   3.954  10.294
43589SOL     OW30792   7.467   4.092   9.957
43589SOL    HW130793   7.385   4.135   9.996
43589SOL    HW230794   7.439   4.019   9.894
43590SOL     OW30795   8.017   4.999  10.475
43590SOL    HW130796   7.924   4.992  10.438
43590SOL    HW230797   8.028   5.088  10.519
43591SOL     OW30798   9.003   5.235  10.013
43591SOL    HW130799   8.946   5.219  10.094
43591SOL    HW230800   8.944   5.245   9.933
43592SOL     OW30801   8.583   4.427  10.027
43592SOL    HW130802   8.640   4.505  10.002
43592SOL    HW230803   8.523   4.453  10.103
43593SOL     OW30804   9.203   4.331   9.541
43593SOL    HW130805   9.191   4.318   9.442
43593SOL    HW230806   9.173   4.250   9.590
43594SOL     OW30807   8.216   4.868  10.333
43594SOL    HW130808   8.138   4.885  10.393
43594SOL    HW230809   8.250   4.955  10.297
43595SOL     OW30810   8.298   4.522  11.133
43595SOL    HW130811   8.294   4.598  11.198
43595SOL    HW230812   8.320   4.558  11.042
43596SOL     OW30813   8.133   4.736   9.975
43596SOL    HW130814   8.202   4.720  10.045
43596SOL    HW230815   8.060   4.793  10.013
43597SOL     OW30816   8.134   4.885  11.113
43597SOL    HW130817   8.194   4.964  11.127
43597SOL    HW230818   8.048   4.916  11.072
43598SOL     OW30819   7.783   5.159  10.371
43598SOL    HW130820   7.705   5.128  10.318
43598SOL    HW230821   7.841   5.217  10.314
43599SOL     OW30822   8.908   5.229  10.649
43599SOL    HW130823   8.932   5.323  10.675
43599SOL    HW230824   8.892   5.175  10.731
43600SOL     OW30825   7.886   4.116  10.809
43600SOL    HW130826   7.968   4.060  10.818
43600SOL    HW230827   7.805   4.058  10.813
43601SOL     OW30828   9.051   4.171  10.047
43601SOL    HW130829   8.977   4.217   9.997
43601SOL    HW230830   9.102   4.239  10.100
43602SOL     OW30831   7.679   5.437   9.793
43602SOL    HW130832   7.713   5.514   9.847
43602SOL    HW230833   7.723   5.437   9.703
43603SOL     OW30834   8.575   5.065  11.000
43603SOL    HW130835   8.622   5.065  11.088
43603SOL    HW230836   8.527   4.978  10.989
43604SOL     OW30837   7.678   5.158   9.848
43604SOL    HW130838   7.652   5.254   9.848
43604SOL    HW230839   7.607   5.104   9.893
43605SOL     OW30840   7.688   4.815  10.196
43605SOL    HW130841   7.702   4.731  10.248
43605SOL    HW230842   7.633   4.879  10.251
43606SOL     OW30843   8.068   5.510  10.749
43606SOL    HW130844   7.976   5.493  10.784
43606SOL    HW230845   8.096   5.602  10.775
43607SOL     OW30846   8.054   4.688   9.433
43607SOL    HW130847   8.061   4.772   9.379
43607SOL    HW230848   8.100   4.701   9.521
43608SOL     OW30849   9.042   3.838  10.790
43608SOL    HW130850   9.024   3.905  10.718
43608SOL    HW230851   9.039   3.884  10.879
43609SOL     OW30852   7.570   4.367   9.873
43609SOL    HW130853   7.525   4.279   9.890
43609SOL    HW230854   7.569   4.421   9.957
43610SOL     OW30855   9.290   5.491   9.669
43610SOL    HW130856   9.344   5.462   9.749
43610SOL    HW230857   9.320   5.581   9.640
43611SOL     OW30858   7.475   5.320   9.427
43611SOL    HW130859   7.456   5.224   9.448
43611SOL    HW230860   7.442   5.378   9.502
43612SOL     OW30861   9.137   4.646   9.922
43612SOL    HW130862   9.232   4.617   9.930
43612SOL    HW230863   9.129   4.711   9.847
43613SOL     OW30864   9.089   4.832   9.742
43613SOL    HW130865   9.175   4.834   9.690
43613SOL    HW230866   9.103   4.879   9.830
43614SOL     OW30867   7.561   4.461  10.907
43614SOL    HW130868   7.649   4.448  10.952
43614SOL    HW230869   7.548   4.558  10.885
43615SOL     OW30870   8.061   5.089  10.036
43615SOL    HW130871   8.012   5.002  10.045
43615SOL    HW230872   8.038   5.132   9.949
43616SOL     OW30873   8.741   4.952  10.733
43616SOL    HW130874   8.778   4.879  10.675
43616SOL    HW230875   8.793   4.957  10.818
43617SOL     OW30876   8.257   3.728   9.812
43617SOL    HW130877   8.297   3.819   9.803
43617SOL    HW230878   8.157   3.736   9.818
43618SOL     OW30879   7.645   4.700  10.574
43618SOL    HW130880   7.734   4.655  10.560
43618SOL    HW230881   7.572   4.635  10.555
43619SOL     OW30882   8.973   4.723   9.500
43619SOL    HW130883   8.910   4.647   9.513
43619SOL    HW230884   9.021   4.741   9.586
43620SOL     OW30885   8.635   5.516  10.926
43620SOL    HW130886   8.659   5.576  10.850
43620SOL    HW230887   8.642   5.421  10.896
43621SOL     OW30888   7.765   3.975  11.111
43621SOL    HW130889   7.836   4.046  11.117
43621SOL    HW230890   7.677   4.014  11.139
43622SOL     OW30891   8.914   5.141  10.263
43622SOL    HW130892   8.855   5.147  10.343
43622SOL    HW230893   8.899   5.053  10.217
43623SOL     OW30894   9.115   5.438   9.882
43623SOL    HW130895   9.074   5.415   9.794
43623SOL    HW230896   9.097   5.364   9.947
43624SOL     OW30897   8.046   4.453   9.580
43624SOL    HW130898   8.070   4.522   9.512
43624SOL    HW230899   7.968   4.486   9.634
43625SOL     OW30900   8.729   4.069  10.254
43625SOL    HW130901   8.643   4.019  10.241
43625SOL    HW230902   8.791   4.015  10.310
43626SOL     OW30903   9.024   5.386   9.617
43626SOL    HW130904   9.113   5.432   9.620
43626SOL    HW230905   9.003   5.362   9.522
43627SOL     OW30906   8.255   4.329  10.775
43627SOL    HW130907   8.208   4.326  10.864
43627SOL    HW230908   8.204   4.274  10.709
43628SOL     OW30909   8.842   4.193  10.984
43628SOL    HW130910   8.822   4.236  11.072
43628SOL    HW230911   8.920   4.131  10.993
43629SOL     OW30912   8.421   4.614  10.882
43629SOL    HW130913   8.467   4.530  10.853
43629SOL    HW230914   8.365   4.648  10.807
43630SOL     OW30915   8.439   4.134  10.552
43630SOL    HW130916   8.362   4.168  10.606
43630SOL    HW230917   8.405   4.083  10.473
43631SOL     OW30918   8.489   4.425   9.739
43631SOL    HW130919   8.515   4.421   9.835
43631SOL    HW230920   8.404   4.374   9.725
43632SOL     OW30921   7.524   4.535  10.099
43632SOL    HW130922   7.623   4.523  10.108
43632SOL    HW230923   7.500   4.630  10.120
43633SOL     OW30924   7.578   5.545  10.881
43633SOL    HW130925   7.568   5.530  10.980
43633SOL    HW230926   7.492   5.581  10.845
43634SOL     OW30927   8.313   4.072   9.505
43634SOL    HW130928   8.372   4.135   9.456
43634SOL    HW230929   8.332   3.978   9.476
43635SOL     OW30930   9.167   4.309  11.141
43635SOL    HW130931   9.141   4.398  11.105
43635SOL    HW230932   9.165   4.241  11.068
43636SOL     OW30933   8.810   4.868   9.855
43636SOL    HW130934   8.893   4.839   9.807
43636SOL    HW230935   8.761   4.935   9.799
43637SOL     OW30936   7.998   3.920  10.195
43637SOL    HW130937   7.993   3.915  10.295
43637SOL    HW230938   8.000   4.016  10.166
43638SOL     OW30939   8.456   5.180   9.787
43638SOL    HW130940   8.410   5.252   9.735
43638SOL    HW230941   8.452   5.200   9.885
43639SOL     OW30942   7.799   5.525  10.163
43639SOL    HW130943   7.849   5.439  10.169
43639SOL    HW230944   7.864   5.602  10.160
43640SOL     OW30945   9.243   4.790  10.183
43640SOL    HW130946   9.181   4.775  10.107
43640SOL    HW230947   9.191   4.801  10.268
43641SOL     OW30948   8.675   5.274  10.816
43641SOL    HW130949   8.681   5.197  10.880
43641SOL    HW230950   8.623   5.248  10.736
43642SOL     OW30951   7.769   4.667   9.552
43642SOL    HW130952   7.851   4.706   9.510
43642SOL    HW230953   7.742   4.585   9.503
43643SOL     OW30954   8.906   4.459  10.038
43643SOL    HW130955   8.901   4.394  10.113
43643SOL    HW230956   8.986   4.518  10.051
43644SOL     OW30957   7.909   4.990  11.037
43644SOL    HW130958   7.859   4.991  10.951
43644SOL    HW230959   7.846   4.972  11.113
43645SOL     OW30960   8.559   5.500   9.547
43645SOL    HW130961   8.499   5.438   9.597
43645SOL    HW230962   8.590   5.456   9.462
43646SOL     OW30963   7.650   4.009  10.808
43646SOL    HW130964   7.570   4.069  10.795
43646SOL    HW230965   7.640   3.960  10.894
43647SOL     OW30966   9.080   5.101   9.391
43647SOL    HW130967   9.048   5.195   9.381
43647SOL    HW230968   9.004   5.038   9.379
43648SOL     OW30969   7.912   5.467   9.633
43648SOL    HW130970   7.945   5.506   9.719
43648SOL    HW230971   7.988   5.460   9.568
43649SOL     OW30972   8.848   3.831   9.736
43649SOL    HW130973   8.824   3.794   9.646
43649SOL    HW230974   8.947   3.847   9.740
43650SOL     OW30975   7.697   5.509  10.551
43650SOL    HW130976   7.754   5.444  10.601
43650SOL    HW230977   7.681   5.476  10.458
43651SOL     OW30978   8.388   5.422  10.214
43651SOL    HW130979   8.468   5.365  10.235
43651SOL    HW230980   8.339   5.382  10.137
43652SOL     OW30981   7.830   4.424   9.790
43652SOL    HW130982   7.875   4.334   9.787
43652SOL    HW230983   7.736   4.413   9.823
43653SOL     OW30984   8.995   3.946  11.039
43653SOL    HW130985   8.990   3.983  11.131
43653SOL    HW230986   8.923   3.877  11.027
43654SOL     OW30987   8.062   3.846   9.427
43654SOL    HW130988   8.160   3.824   9.434
43654SOL    HW230989   8.031   3.829   9.334
43655SOL     OW30990   8.229   3.988  11.059
43655SOL    HW130991   8.296   3.927  11.102
43655SOL    HW230992   8.156   4.007  11.124
43656SOL     OW30993   8.336   5.238  10.505
43656SOL    HW130994   8.313   5.213  10.411
43656SOL    HW230995   8.397   5.169  10.544
43657SOL     OW30996   8.799   4.314  10.743
43657SOL    HW130997   8.827   4.271  10.828
43657SOL    HW230998   8.824   4.410  10.744
43658SOL     OW30999   8.251   5.126  10.234
43658SOL    HW131000   8.341   5.140  10.192
43658SOL    HW231001   8.180   5.128  10.163
43659SOL     OW31002   8.370   4.227  10.209
43659SOL    HW131003   8.345   4.218  10.113
43659SOL    HW231004   8.418   4.145  10.240
43660SOL     OW31005   7.987   3.788   9.822
43660SOL    HW131006   7.906   3.789   9.880
43660SOL    HW231007   7.990   3.871   9.767
43661SOL     OW31008   8.882   4.912   9.351
43661SOL    HW131009   8.914   4.836   9.408
43661SOL    HW231010   8.790   4.939   9.381
43662SOL     OW31011   7.745   3.759   9.481
43662SOL    HW131012   7.794   3.843   9.460
43662SOL    HW231013   7.807   3.694   9.526
43663SOL     OW31014   8.383   3.960   9.790
43663SOL    HW131015   8.335   4.001   9.712
43663SOL    HW231016   8.482   3.958   9.771
43664SOL     OW31017   8.524   4.407  10.774
43664SOL    HW131018   8.444   4.346  10.777
43664SOL    HW231019   8.605   4.354  10.750
43665SOL     OW31020   8.675   5.294  10.103
43665SOL    HW131021   8.696   5.368  10.038
43665SOL    HW231022   8.743   5.294  10.176
43666SOL     OW31023   7.907   4.876  10.051
43666SOL    HW131024   7.836   4.849  10.116
43666SOL    HW231025   7.881   4.848   9.958
43667SOL     OW31026   8.719   5.521   9.901
43667SOL    HW131027   8.763   5.585   9.837
43667SOL    HW231028   8.669   5.573   9.971
43668SOL     OW31029   8.480   4.273   9.326
43668SOL    HW131030   8.439   4.355   9.287
43668SOL    HW231031   8.544   4.299   9.399
43669SOL     OW31032   7.526   4.280  10.696
43669SOL    HW131033   7.618   4.279  10.655
43669SOL    HW231034   7.520   4.354  10.763
43670SOL     OW31035   8.009   3.946  10.457
43670SOL    HW131036   8.047   3.862  10.494
43670SOL    HW231037   7.921   3.965  10.501
43671SOL     OW31038   8.314   4.178   9.952
43671SOL    HW131039   8.282   4.250   9.890
43671SOL    HW231040   8.338   4.097   9.899
43672SOL     OW31041   8.465   3.763  10.063
43672SOL    HW131042   8.393   3.768   9.994
43672SOL    HW231043   8.441   3.694  10.132
43673SOL     OW31044   8.877   4.897  10.177
43673SOL    HW131045   8.822   4.813  10.170
43673SOL    HW231046   8.903   4.926  10.085
43674SOL     OW31047   8.914   4.314  10.302
43674SOL    HW131048   8.884   4.219  10.309
43674SOL    HW231049   8.987   4.330  10.368
43675SOL     OW31050   9.305   4.557   9.687
43675SOL    HW131051   9.347   4.493   9.751
43675SOL    HW231052   9.267   4.506   9.609
43676SOL     OW31053   7.936   5.109   9.484
43676SOL    HW131054   7.849   5.094   9.531
43676SOL    HW231055   7.919   5.135   9.389
43677SOL     OW31056   9.112   5.004   9.967
43677SOL    HW131057   9.211   5.012   9.981
43677SOL    HW231058   9.067   5.088   9.998
43678SOL     OW31059   8.838   4.299   9.388
43678SOL    HW131060   8.784   4.278   9.469
43678SOL    HW231061   8.929   4.258   9.397
43679SOL     OW31062   7.975   3.980   9.638
43679SOL    HW131063   8.002   3.921   9.563
43679SOL    HW231064   7.975   4.075   9.607
43680SOL     OW31065   9.202   4.947  10.898
43680SOL    HW131066   9.293   4.908  10.885
43680SOL    HW231067   9.210   5.043  10.922
43681SOL     OW31068   8.512   5.071  10.650
43681SOL    HW131069   8.432   5.048  10.705
43681SOL    HW231070   8.595   5.045  10.699
43682SOL     OW31071   9.040   5.353  10.935
43682SOL    HW131072   9.067   5.387  10.845
43682SOL    HW231073   9.119   5.315  10.981
43683SOL     OW31074   8.559   4.919  10.410
43683SOL    HW131075   8.519   4.963  10.491
43683SOL    HW231076   8.518   4.956  10.327
43684SOL     OW31077   9.086   4.823  10.389
43684SOL    HW131078   9.091   4.904  10.448
43684SOL    HW231079   9.000   4.825  10.338
43685SOL     OW31080   8.363   3.813  10.712
43685SOL    HW131081   8.388   3.793  10.617
43685SOL    HW231082   8.435   3.869  10.754
43686SOL     OW31083   8.428   4.840  11.029
43686SOL    HW131084   8.329   4.846  11.039
43686SOL    HW231085   8.451   4.760  10.973
43687SOL     OW31086   8.153   4.774   9.678
43687SOL    HW131087   8.139   4.781   9.777
43687SOL    HW231088   8.237   4.723   9.660
43688SOL     OW31089   7.858   4.537  10.561
43688SOL    HW131090   7.944   4.549  10.611
43688SOL    HW231091   7.816   4.450  10.588
43689SOL     OW31092   8.722   4.110  10.572
43689SOL    HW131093   8.743   4.184  10.636
43689SOL    HW231094   8.633   4.127  10.529
43690SOL     OW31095   7.512   5.288  10.641
43690SOL    HW131096   7.466   5.370  10.607
43690SOL    HW231097   7.610   5.307  10.650
43691SOL     OW31098   7.815   4.824   9.811
43691SOL    HW131099   7.808   4.907   9.755
43691SOL    HW231100   7.819   4.744   9.751
43692SOL     OW31101   8.014   4.261  10.175
43692SOL    HW131102   8.026   4.327  10.101
43692SOL    HW231103   8.060   4.295  10.258
43693SOL     OW31104   8.700   5.072   9.698
43693SOL    HW131105   8.750   5.149   9.738
43693SOL    HW231106   8.605   5.074   9.730
43694SOL     OW31107   8.720   5.169  10.452
43694SOL    HW131108   8.767   5.182  10.539
43694SOL    HW231109   8.654   5.095  10.461
43695SOL     OW31110   9.030   4.363   9.782
43695SOL    HW131111   8.999   4.424   9.855
43695SOL    HW231112   9.080   4.415   9.713
43696SOL     OW31113   7.802   5.234  10.639
43696SOL    HW131114   7.781   5.190  10.552
43696SOL    HW231115   7.899   5.260  10.642
43697SOL     OW31116   7.850   4.475  10.908
43697SOL    HW131117   7.918   4.530  10.861
43697SOL    HW231118   7.890   4.387  10.935
43698SOL     OW31119   9.035   4.503  10.980
43698SOL    HW131120   8.943   4.541  10.975
43698SOL    HW231121   9.095   4.550  10.915
43699SOL     OW31122   8.461   3.829  11.080
43699SOL    HW131123   8.467   3.914  11.028
43699SOL    HW231124   8.493   3.753  11.023
43700SOL     OW31125   7.952   3.774  11.050
43700SOL    HW131126   7.910   3.717  10.980
43700SOL    HW231127   7.886   3.843  11.082
43701SOL     OW31128   8.021   4.594  10.339
43701SOL    HW131129   8.065   4.683  10.330
43701SOL    HW231130   7.958   4.594  10.416
43702SOL     OW31131   8.808   4.586  10.355
43702SOL    HW131132   8.733   4.586  10.289
43702SOL    HW231133   8.845   4.494  10.364
43703SOL     OW31134   8.657   4.249   9.585
43703SOL    HW131135   8.670   4.165   9.639
43703SOL    HW231136   8.628   4.323   9.645
43704SOL     OW31137   7.755   3.937  10.541
43704SOL    HW131138   7.732   3.974  10.631
43704SOL    HW231139   7.725   3.842  10.535
43705SOL     OW31140   7.485   5.034  10.592
43705SOL    HW131141   7.538   4.985  10.660
43705SOL    HW231142   7.507   5.132  10.597
43706SOL     OW31143   8.180   4.358  10.374
43706SOL    HW131144   8.239   4.332  10.298
43706SOL    HW231145   8.152   4.454  10.363
43707SOL     OW31146   9.176   4.659  11.164
43707SOL    HW131147   9.130   4.652  11.075
43707SOL    HW231148   9.114   4.703  11.230
43708SOL     OW31149   7.755   3.787   9.928
43708SOL    HW131150   7.744   3.881   9.961
43708SOL    HW231151   7.750   3.724  10.005
43709SOL     OW31152   9.070   4.091   9.684
43709SOL    HW131153   9.072   4.015   9.748
43709SOL    HW231154   9.022   4.168   9.724
43710SOL     OW31155   8.471   4.490  10.276
43710SOL    HW131156   8.486   4.511  10.372
43710SOL    HW231157   8.441   4.395  10.267
43711SOL     OW31158   8.428   5.297  11.010
43711SOL    HW131159   8.408   5.341  10.922
43711SOL    HW231160   8.467   5.206  10.994
43712SOL     OW31161   9.307   5.242  10.915
43712SOL    HW131162   9.321   5.269  10.820
43712SOL    HW231163   9.390   5.264  10.968
43713SOL     OW31164   7.798   4.622  11.114
43713SOL    HW131165   7.874   4.666  11.162
43713SOL    HW231166   7.833   4.575  11.032
43714SOL     OW31167   8.988   3.998   9.435
43714SOL    HW131168   8.927   3.923   9.458
43714SOL    HW231169   9.010   4.050   9.518
43715SOL     OW31170   8.751   4.562   9.352
43715SOL    HW131171   8.785   4.469   9.367
43715SOL    HW231172   8.769   4.589   9.257
43716SOL     OW31173   8.516   5.057  10.159
43716SOL    HW131174   8.523   4.973  10.104
43716SOL    HW231175   8.578   5.126  10.123
43717SOL     OW31176   7.767   4.534  10.259
43717SOL    HW131177   7.860   4.570  10.264
43717SOL    HW231178   7.761   4.449  10.311
43718SOL     OW31179   7.787   4.233  10.316
43718SOL    HW131180   7.735   4.150  10.299
43718SOL    HW231181   7.864   4.238  10.252
43719SOL     OW31182   8.586   4.104  10.988
43719SOL    HW131183   8.541   4.167  11.052
43719SOL    HW231184   8.679   4.135  10.971
43720SOL     OW31185   8.608   3.931  10.787
43720SOL    HW131186   8.608   3.995  10.864
43720SOL    HW231187   8.636   3.979  10.704
43721SOL     OW31188   7.456   5.050   9.510
43721SOL    HW131189   7.363   5.071   9.479
43721SOL    HW231190   7.466   4.951   9.523
43722SOL     OW31191   7.536   5.525  10.237
43722SOL    HW131192   7.494   5.439  10.210
43722SOL    HW231193   7.630   5.528  10.203
43723SOL     OW31194   7.952   5.292  10.220
43723SOL    HW131195   8.018   5.366  10.229
43723SOL    HW231196   7.996   5.213  10.178
43724SOL     OW31197   8.450   4.520  10.548
43724SOL    HW131198   8.491   4.488  10.634
43724SOL    HW231199   8.354   4.493  10.545
43725SOL     OW31200   7.488   4.268  10.424
43725SOL    HW131201   7.573   4.235  10.383
43725SOL    HW231202   7.501   4.283  10.522
43726SOL     OW31203   7.637   4.244  11.032
43726SOL    HW131204   7.696   4.204  10.962
43726SOL    HW231205   7.579   4.315  10.991
43727SOL     OW31206   8.817   4.674  10.970
43727SOL    HW131207   8.856   4.763  10.990
43727SOL    HW231208   8.827   4.654  10.873
43728SOL     OW31209   8.263   4.296   9.635
43728SOL    HW131210   8.270   4.207   9.589
43728SOL    HW231211   8.169   4.330   9.627
43729SOL     OW31212   9.105   4.328  10.516
43729SOL    HW131213   9.067   4.259  10.578
43729SOL    HW231214   9.187   4.292  10.472
43730SOL     OW31215   7.700   5.288  11.054
43730SOL    HW131216   7.670   5.345  11.130
43730SOL    HW231217   7.693   5.191  11.080
43731SOL     OW31218   8.119   4.188  10.579
43731SOL    HW131219   8.085   4.099  10.549
43731SOL    HW231220   8.145   4.242  10.499
43732SOL     OW31221   8.378   5.402  10.775
43732SOL    HW131222   8.354   5.384  10.680
43732SOL    HW231223   8.408   5.496  10.785
43733SOL     OW31224   7.921   4.224   9.501
43733SOL    HW131225   7.982   4.304   9.505
43733SOL    HW231226   7.826   4.255   9.508
43734SOL     OW31227   7.607   4.861  10.776
43734SOL    HW131228   7.629   4.800  10.852
43734SOL    HW231229   7.617   4.812  10.690
43735SOL     OW31230   8.795   4.783  10.544
43735SOL    HW131231   8.819   4.720  10.470
43735SOL    HW231232   8.705   4.823  10.526
43736SOL     OW31233   8.750   4.579   9.619
43736SOL    HW131234   8.664   4.548   9.661
43736SOL    HW231235   8.746   4.565   9.520
43737SOL     OW31236   9.207   5.471  10.464
43737SOL    HW131237   9.268   5.501  10.391
43737SOL    HW231238   9.169   5.382  10.442
43738SOL     OW31239   8.700   5.455  10.438
43738SOL    HW131240   8.784   5.460  10.384
43738SOL    HW231241   8.677   5.359  10.456
43739SOL     OW31242   7.531   4.982  10.332
43739SOL    HW131243   7.526   4.981  10.432
43739SOL    HW231244   7.448   4.941  10.294
43740SOL     OW31245   8.136   5.386  11.026
43740SOL    HW131246   8.080   5.467  11.035
43740SOL    HW231247   8.188   5.390  10.940
43741SOL     OW31248   9.174   3.859   9.833
43741SOL    HW131249   9.247   3.842   9.766
43741SOL    HW231250   9.143   3.772   9.871
43742SOL     OW31251   8.836   5.297   9.787
43742SOL    HW131252   8.903   5.309   9.713
43742SOL    HW231253   8.796   5.386   9.810
43743SOL     OW31254   7.578   5.518  11.161
43743SOL    HW131255   7.537   5.444  11.214
43743SOL    HW231256   7.642   5.569  11.219
43744SOL     OW31257   8.728   4.651   9.982
43744SOL    HW131258   8.788   4.570   9.984
43744SOL    HW231259   8.768   4.720   9.922
43745SOL     OW31260   8.278   4.997  10.732
43745SOL    HW131261   8.273   5.030  10.827
43745SOL    HW231262   8.192   5.016  10.686
43746SOL     OW31263   8.120   5.340   9.464
43746SOL    HW131264   8.129   5.350   9.365
43746SOL    HW231265   8.080   5.251   9.485
43747SOL     OW31266   9.098   5.444  10.704
43747SOL    HW131267   9.151   5.454  10.620
43747SOL    HW231268   9.071   5.534  10.738
43748SOL     OW31269   9.289   3.899  10.273
43748SOL    HW131270   9.328   3.814  10.237
43748SOL    HW231271   9.191   3.901  10.254
43749SOL     OW31272   7.711   4.050  10.030
43749SOL    HW131273   7.632   4.101   9.996
43749SOL    HW231274   7.702   4.035  10.128
43750SOL     OW31275   8.642   5.336   9.341
43750SOL    HW131276   8.648   5.243   9.378
43750SOL    HW231277   8.583   5.336   9.261
43751SOL     OW31278   8.270   4.726  10.682
43751SOL    HW131279   8.310   4.725  10.590
43751SOL    HW231280   8.280   4.818  10.722
43752SOL     OW31281   8.364   4.634   9.601
43752SOL    HW131282   8.427   4.672   9.533
43752SOL    HW231283   8.404   4.551   9.640
43753SOL     OW31284   8.952   5.331   9.354
43753SOL    HW131285   8.860   5.368   9.361
43753SOL    HW231286   8.990   5.351   9.264
43754SOL     OW31287   7.820   5.012  10.800
43754SOL    HW131288   7.807   5.105  10.766
43754SOL    HW231289   7.736   4.960  10.787
43755SOL     OW31290   9.062   5.016  10.599
43755SOL    HW131291   9.122   5.019  10.679
43755SOL    HW231292   8.987   5.080  10.612
43756SOL     OW31293   8.487   4.822  10.006
43756SOL    HW131294   8.417   4.775  10.060
43756SOL    HW231295   8.546   4.754   9.963
43757SOL     OW31296   8.462   3.960  10.281
43757SOL    HW131297   8.454   3.924  10.188
43757SOL    HW231298   8.460   3.884  10.346
43758SOL     OW31299   8.038   5.211   9.801
43758SOL    HW131300   8.080   5.153   9.731
43758SOL    HW231301   7.994   5.290   9.757
43759SOL     OW31302   9.157   4.109  10.691
43759SOL    HW131303   9.230   4.178  10.695
43759SOL    HW231304   9.185   4.034  10.632
43760SOL     OW31305   7.703   5.072   9.600
43760SOL    HW131306   7.607   5.073   9.573
43760SOL    HW231307   7.715   5.125   9.684
43761SOL     OW31308   7.553   4.737  11.036
43761SOL    HW131309   7.476   4.704  11.090
43761SOL    HW231310   7.638   4.707  11.078
43762SOL     OW31311   8.120   3.927  10.799
43762SOL    HW131312   8.210   3.911  10.759
43762SOL    HW231313   8.128   3.932  10.898
43763SOL     OW31314   7.523   4.069   9.343
43763SOL    HW131315   7.431   4.041   9.314
43763SOL    HW231316   7.554   4.146   9.287
43764SOL     OW31317   8.888   4.580  10.708
43764SOL    HW131318   8.831   4.632  10.645
43764SOL    HW231319   8.984   4.592  10.684
43765SOL     OW31320   7.520   3.890   9.628
43765SOL    HW131321   7.503   3.973   9.574
43765SOL    HW231322   7.610   3.853   9.606
43766SOL     OW31323   8.631   5.059   9.429
43766SOL    HW131324   8.532   5.048   9.431
43766SOL    HW231325   8.665   5.074   9.522
43767SOL     OW31326   8.061   4.566  10.741
43767SOL    HW131327   8.117   4.647  10.724
43767SOL    HW231328   8.120   4.486  10.744
43768SOL     OW31329   8.941   5.491  10.269
43768SOL    HW131330   8.974   5.555  10.200
43768SOL    HW231331   9.007   5.485  10.344
43769SOL     OW31332   8.164   4.289  11.018
43769SOL    HW131333   8.183   4.354  11.092
43769SOL    HW231334   8.224   4.209  11.027
43770SOL     OW31335   8.898   4.944  10.943
43770SOL    HW131336   8.889   4.934  11.042
43770SOL    HW231337   8.994   4.937  10.917
43771SOL     OW31338   7.838   5.465  10.870
43771SOL    HW131339   7.747   5.506  10.868
43771SOL    HW231340   7.831   5.371  10.902
43772SOL     OW31341   9.122   4.607  10.564
43772SOL    HW131342   9.095   4.518  10.527
43772SOL    HW231343   9.123   4.675  10.491
43773SOL     OW31344   8.673   4.049   9.759
43773SOL    HW131345   8.738   3.975   9.748
43773SOL    HW231346   8.693   4.099   9.843
43774SOL     OW31347   8.042   4.469   9.962
43774SOL    HW131348   8.092   4.554   9.943
43774SOL    HW231349   7.954   4.471   9.914
43775SOL     OW31350   9.225   4.066  10.952
43775SOL    HW131351   9.208   4.097  10.858
43775SOL    HW231352   9.141   4.029  10.990
43776SOL     OW31353   9.178   4.658  10.827
43776SOL    HW131354   9.216   4.749  10.842
43776SOL    HW231355   9.170   4.641  10.728
43777SOL     OW31356   8.307   5.098   9.326
43777SOL    HW131357   8.261   5.113   9.414
43777SOL    HW231358   8.351   5.183   9.296
43778SOL     OW31359   8.109   5.514  10.263
43778SOL    HW131360   8.063   5.602  10.250
43778SOL    HW231361   8.208   5.526  10.256
43779SOL     OW31362   8.307   4.680  10.171
43779SOL    HW131363   8.361   4.611  10.219
43779SOL    HW231364   8.275   4.749  10.237
43780SOL     OW31365   8.531   4.708   9.397
43780SOL    HW131366   8.508   4.761   9.315
43780SOL    HW231367   8.612   4.652   9.378
43781SOL     OW31368   9.309   5.293  10.161
43781SOL    HW131369   9.238   5.281  10.091
43781SOL    HW231370   9.310   5.214  10.221
43782SOL     OW31371   7.669   5.038  11.154
43782SOL    HW131372   7.604   4.965  11.133
43782SOL    HW231373   7.673   5.052  11.252
43783SOL     OW31374   7.527   4.964   9.963
43783SOL    HW131375   7.526   4.917  10.051
43783SOL    HW231376   7.609   4.936   9.912
43784SOL     OW31377   8.120   5.115  10.934
43784SOL    HW131378   8.042   5.065  10.972
43784SOL    HW231379   8.117   5.210  10.965
43785SOL     OW31380   9.272   3.916  10.537
43785SOL    HW131381   9.268   3.826  10.581
43785SOL    HW231382   9.275   3.905  10.438
43786SOL     OW31383   7.876   4.148   9.830
43786SOL    HW131384   7.906   4.076   9.768
43786SOL    HW231385   7.837   4.108   9.913
43787SOL     OW31386   9.153   5.211  10.414
43787SOL    HW131387   9.060   5.186  10.387
43787SOL    HW231388   9.179   5.161  10.496
43788SOL     OW31389   7.765   4.271  10.590
43788SOL    HW131390   7.803   4.212  10.662
43788SOL    HW231391   7.805   4.245  10.502
43789SOL     OW31392   8.260   5.310   9.997
43789SOL    HW131393   8.292   5.320   9.903
43789SOL    HW231394   8.181   5.248   9.999
43790SOL     OW31395   8.872   3.938  10.422
43790SOL    HW131396   8.924   3.873  10.477
43790SOL    HW231397   8.823   4.001  10.483
43791SOL     OW31398   8.449   3.758  10.464
43791SOL    HW131399   8.386   3.686  10.433
43791SOL    HW231400   8.542   3.722  10.464
43792SOL     OW31401   8.218   5.054   9.611
43792SOL    HW131402   8.172   4.967   9.628
43792SOL    HW231403   8.309   5.051   9.652
43793SOL     OW31404   8.066   5.291  10.594
43793SOL    HW131405   8.061   5.373  10.651
43793SOL    HW231406   8.155   5.288  10.549
43794SOL     OW31407   8.800   3.776   9.478
43794SOL    HW131408   8.835   3.735   9.394
43794SOL    HW231409   8.710   3.738   9.498
43795SOL     OW31410   8.748   4.177  10.001
43795SOL    HW131411   8.689   4.257  10.005
43795SOL    HW231412   8.763   4.142  10.094
43796SOL     OW31413   9.041   3.945  10.192
43796SOL    HW131414   8.957   3.944  10.246
43796SOL    HW231415   9.043   4.028  10.136
43797SOL     OW31416   7.487   4.801   9.610
43797SOL    HW131417   7.586   4.790   9.601
43797SOL    HW231418   7.447   4.715   9.642
43798SOL     OW31419   8.323   5.370   9.647
43798SOL    HW131420   8.246   5.335   9.593
43798SOL    HW231421   8.291   5.441   9.709
43799SOL     OW31422   7.678   4.352  11.285
43799SOL    HW131423   7.585   4.350  11.322
43799SOL    HW231424   7.679   4.313  11.193
43800SOL     OW31425   7.673   3.999  12.168
43800SOL    HW131426   7.708   3.982  12.260
43800SOL    HW231427   7.585   3.954  12.156
43801SOL     OW31428   7.467   4.092  11.819
43801SOL    HW131429   7.385   4.135  11.858
43801SOL    HW231430   7.439   4.019  11.756
43802SOL     OW31431   8.017   4.999  12.337
43802SOL    HW131432   7.924   4.992  12.300
43802SOL    HW231433   8.028   5.088  12.381
43803SOL     OW31434   9.003   5.235  11.875
43803SOL    HW131435   8.946   5.219  11.956
43803SOL    HW231436   8.944   5.245  11.795
43804SOL     OW31437   8.583   4.427  11.889
43804SOL    HW131438   8.640   4.505  11.864
43804SOL    HW231439   8.523   4.453  11.965
43805SOL     OW31440   9.203   4.331  11.403
43805SOL    HW131441   9.191   4.318  11.304
43805SOL    HW231442   9.173   4.250  11.452
43806SOL     OW31443   8.216   4.868  12.195
43806SOL    HW131444   8.138   4.885  12.255
43806SOL    HW231445   8.250   4.955  12.159
43807SOL     OW31446   8.133   4.736  11.837
43807SOL    HW131447   8.202   4.720  11.907
43807SOL    HW231448   8.060   4.793  11.875
43808SOL     OW31449   7.783   5.159  12.233
43808SOL    HW131450   7.705   5.128  12.180
43808SOL    HW231451   7.841   5.217  12.176
43809SOL     OW31452   8.908   5.229  12.511
43809SOL    HW131453   8.932   5.323  12.537
43809SOL    HW231454   8.892   5.175  12.593
43810SOL     OW31455   7.886   4.116  12.671
43810SOL    HW131456   7.968   4.060  12.680
43810SOL    HW231457   7.805   4.058  12.675
43811SOL     OW31458   9.051   4.171  11.909
43811SOL    HW131459   8.977   4.217  11.859
43811SOL    HW231460   9.102   4.239  11.962
43812SOL     OW31461   7.679   5.437  11.655
43812SOL    HW131462   7.713   5.514  11.709
43812SOL    HW231463   7.723   5.437  11.565
43813SOL     OW31464   7.678   5.158  11.710
43813SOL    HW131465   7.652   5.254  11.710
43813SOL    HW231466   7.607   5.104  11.755
43814SOL     OW31467   7.688   4.815  12.058
43814SOL    HW131468   7.702   4.731  12.110
43814SOL    HW231469   7.633   4.879  12.113
43815SOL     OW31470   8.068   5.510  12.611
43815SOL    HW131471   7.976   5.493  12.646
43815SOL    HW231472   8.096   5.602  12.637
43816SOL     OW31473   8.054   4.688  11.295
43816SOL    HW131474   8.061   4.772  11.241
43816SOL    HW231475   8.100   4.701  11.383
43817SOL     OW31476   9.042   3.838  12.652
43817SOL    HW131477   9.024   3.905  12.580
43817SOL    HW231478   9.039   3.884  12.741
43818SOL     OW31479   7.570   4.367  11.735
43818SOL    HW131480   7.525   4.279  11.752
43818SOL    HW231481   7.569   4.421  11.819
43819SOL     OW31482   9.290   5.491  11.531
43819SOL    HW131483   9.344   5.462  11.611
43819SOL    HW231484   9.320   5.581  11.502
43820SOL     OW31485   7.475   5.320  11.289
43820SOL    HW131486   7.456   5.224  11.310
43820SOL    HW231487   7.442   5.378  11.364
43821SOL     OW31488   9.137   4.646  11.784
43821SOL    HW131489   9.232   4.617  11.792
43821SOL    HW231490   9.129   4.711  11.709
43822SOL     OW31491   9.089   4.832  11.604
43822SOL    HW131492   9.175   4.834  11.552
43822SOL    HW231493   9.103   4.879  11.692
43823SOL     OW31494   8.061   5.089  11.898
43823SOL    HW131495   8.012   5.002  11.907
43823SOL    HW231496   8.038   5.132  11.811
43824SOL     OW31497   8.257   3.728  11.674
43824SOL    HW131498   8.297   3.819  11.665
43824SOL    HW231499   8.157   3.736  11.680
43825SOL     OW31500   7.645   4.700  12.436
43825SOL    HW131501   7.734   4.655  12.422
43825SOL    HW231502   7.572   4.635  12.417
43826SOL     OW31503   8.973   4.723  11.362
43826SOL    HW131504   8.910   4.647  11.375
43826SOL    HW231505   9.021   4.741  11.448
43827SOL     OW31506   7.765   3.975  12.973
43827SOL    HW131507   7.836   4.046  12.979
43827SOL    HW231508   7.677   4.014  13.001
43828SOL     OW31509   8.914   5.141  12.125
43828SOL    HW131510   8.855   5.147  12.205
43828SOL    HW231511   8.899   5.053  12.079
43829SOL     OW31512   9.115   5.438  11.744
43829SOL    HW131513   9.074   5.415  11.656
43829SOL    HW231514   9.097   5.364  11.809
43830SOL     OW31515   8.046   4.453  11.442
43830SOL    HW131516   8.070   4.522  11.374
43830SOL    HW231517   7.968   4.486  11.496
43831SOL     OW31518   8.729   4.069  12.116
43831SOL    HW131519   8.643   4.019  12.103
43831SOL    HW231520   8.791   4.015  12.172
43832SOL     OW31521   9.024   5.386  11.479
43832SOL    HW131522   9.113   5.432  11.482
43832SOL    HW231523   9.003   5.362  11.384
43833SOL     OW31524   8.255   4.329  12.637
43833SOL    HW131525   8.208   4.326  12.726
43833SOL    HW231526   8.204   4.274  12.571
43834SOL     OW31527   8.439   4.134  12.414
43834SOL    HW131528   8.362   4.168  12.468
43834SOL    HW231529   8.405   4.083  12.335
43835SOL     OW31530   8.489   4.425  11.601
43835SOL    HW131531   8.515   4.421  11.697
43835SOL    HW231532   8.404   4.374  11.587
43836SOL     OW31533   7.524   4.535  11.961
43836SOL    HW131534   7.623   4.523  11.970
43836SOL    HW231535   7.500   4.630  11.982
43837SOL     OW31536   7.578   5.545  12.743
43837SOL    HW131537   7.568   5.530  12.842
43837SOL    HW231538   7.492   5.581  12.707
43838SOL     OW31539   8.313   4.072  11.367
43838SOL    HW131540   8.372   4.135  11.318
43838SOL    HW231541   8.332   3.978  11.338
43839SOL     OW31542   8.810   4.868  11.717
43839SOL    HW131543   8.893   4.839  11.669
43839SOL    HW231544   8.761   4.935  11.661
43840SOL     OW31545   7.998   3.920  12.057
43840SOL    HW131546   7.993   3.915  12.157
43840SOL    HW231547   8.000   4.016  12.028
43841SOL     OW31548   8.456   5.180  11.649
43841SOL    HW131549   8.410   5.252  11.597
43841SOL    HW231550   8.452   5.200  11.747
43842SOL     OW31551   7.799   5.525  12.025
43842SOL    HW131552   7.849   5.439  12.031
43842SOL    HW231553   7.864   5.602  12.022
43843SOL     OW31554   9.243   4.790  12.045
43843SOL    HW131555   9.181   4.775  11.969
43843SOL    HW231556   9.191   4.801  12.130
43844SOL     OW31557   7.769   4.667  11.414
43844SOL    HW131558   7.851   4.706  11.372
43844SOL    HW231559   7.742   4.585  11.365
43845SOL     OW31560   8.906   4.459  11.900
43845SOL    HW131561   8.901   4.394  11.975
43845SOL    HW231562   8.986   4.518  11.913
43846SOL     OW31563   8.559   5.500  11.409
43846SOL    HW131564   8.499   5.438  11.459
43846SOL    HW231565   8.590   5.456  11.324
43847SOL     OW31566   7.650   4.009  12.670
43847SOL    HW131567   7.570   4.069  12.657
43847SOL    HW231568   7.640   3.960  12.756
43848SOL     OW31569   9.080   5.101  11.253
43848SOL    HW131570   9.048   5.195  11.243
43848SOL    HW231571   9.004   5.038  11.241
43849SOL     OW31572   7.912   5.467  11.495
43849SOL    HW131573   7.945   5.506  11.581
43849SOL    HW231574   7.988   5.460  11.430
43850SOL     OW31575   8.848   3.831  11.598
43850SOL    HW131576   8.824   3.794  11.508
43850SOL    HW231577   8.947   3.847  11.602
43851SOL     OW31578   7.697   5.509  12.413
43851SOL    HW131579   7.754   5.444  12.463
43851SOL    HW231580   7.681   5.476  12.320
43852SOL     OW31581   8.388   5.422  12.076
43852SOL    HW131582   8.468   5.365  12.097
43852SOL    HW231583   8.339   5.382  11.999
43853SOL     OW31584   7.830   4.424  11.652
43853SOL    HW131585   7.875   4.334  11.649
43853SOL    HW231586   7.736   4.413  11.685
43854SOL     OW31587   8.062   3.846  11.289
43854SOL    HW131588   8.160   3.824  11.296
43854SOL    HW231589   8.031   3.829  11.196
43855SOL     OW31590   8.336   5.238  12.367
43855SOL    HW131591   8.313   5.213  12.273
43855SOL    HW231592   8.397   5.169  12.406
43856SOL     OW31593   8.251   5.126  12.096
43856SOL    HW131594   8.341   5.140  12.054
43856SOL    HW231595   8.180   5.128  12.025
43857SOL     OW31596   8.370   4.227  12.071
43857SOL    HW131597   8.345   4.218  11.975
43857SOL    HW231598   8.418   4.145  12.102
43858SOL     OW31599   7.987   3.788  11.684
43858SOL    HW131600   7.906   3.789  11.742
43858SOL    HW231601   7.990   3.871  11.629
43859SOL     OW31602   8.882   4.912  11.213
43859SOL    HW131603   8.914   4.836  11.270
43859SOL    HW231604   8.790   4.939  11.243
43860SOL     OW31605   7.745   3.759  11.343
43860SOL    HW131606   7.794   3.843  11.322
43860SOL    HW231607   7.807   3.694  11.388
43861SOL     OW31608   8.383   3.960  11.652
43861SOL    HW131609   8.335   4.001  11.574
43861SOL    HW231610   8.482   3.958  11.633
43862SOL     OW31611   8.675   5.294  11.965
43862SOL    HW131612   8.696   5.368  11.900
43862SOL    HW231613   8.743   5.294  12.038
43863SOL     OW31614   7.907   4.876  11.913
43863SOL    HW131615   7.836   4.849  11.978
43863SOL    HW231616   7.881   4.848  11.820
43864SOL     OW31617   8.719   5.521  11.763
43864SOL    HW131618   8.763   5.585  11.699
43864SOL    HW231619   8.669   5.573  11.833
43865SOL     OW31620   8.480   4.273  11.188
43865SOL    HW131621   8.439   4.355  11.149
43865SOL    HW231622   8.544   4.299  11.261
43866SOL     OW31623   7.526   4.280  12.558
43866SOL    HW131624   7.618   4.279  12.517
43866SOL    HW231625   7.520   4.354  12.625
43867SOL     OW31626   8.009   3.946  12.319
43867SOL    HW131627   8.047   3.862  12.356
43867SOL    HW231628   7.921   3.965  12.363
43868SOL     OW31629   8.314   4.178  11.814
43868SOL    HW131630   8.282   4.250  11.752
43868SOL    HW231631   8.338   4.097  11.761
43869SOL     OW31632   8.465   3.763  11.925
43869SOL    HW131633   8.393   3.768  11.856
43869SOL    HW231634   8.441   3.694  11.994
43870SOL     OW31635   8.877   4.897  12.039
43870SOL    HW131636   8.822   4.813  12.032
43870SOL    HW231637   8.903   4.926  11.947
43871SOL     OW31638   8.914   4.314  12.164
43871SOL    HW131639   8.884   4.219  12.171
43871SOL    HW231640   8.987   4.330  12.230
43872SOL     OW31641   9.305   4.557  11.549
43872SOL    HW131642   9.347   4.493  11.613
43872SOL    HW231643   9.267   4.506  11.471
43873SOL     OW31644   7.936   5.109  11.346
43873SOL    HW131645   7.849   5.094  11.393
43873SOL    HW231646   7.919   5.135  11.251
43874SOL     OW31647   9.112   5.004  11.829
43874SOL    HW131648   9.211   5.012  11.843
43874SOL    HW231649   9.067   5.088  11.860
43875SOL     OW31650   8.838   4.299  11.250
43875SOL    HW131651   8.784   4.278  11.331
43875SOL    HW231652   8.929   4.258  11.259
43876SOL     OW31653   7.975   3.980  11.500
43876SOL    HW131654   8.002   3.921  11.425
43876SOL    HW231655   7.975   4.075  11.469
43877SOL     OW31656   8.512   5.071  12.512
43877SOL    HW131657   8.432   5.048  12.567
43877SOL    HW231658   8.595   5.045  12.561
43878SOL     OW31659   8.559   4.919  12.272
43878SOL    HW131660   8.519   4.963  12.353
43878SOL    HW231661   8.518   4.956  12.189
43879SOL     OW31662   9.086   4.823  12.251
43879SOL    HW131663   9.091   4.904  12.310
43879SOL    HW231664   9.000   4.825  12.200
43880SOL     OW31665   8.363   3.813  12.574
43880SOL    HW131666   8.388   3.793  12.479
43880SOL    HW231667   8.435   3.869  12.616
43881SOL     OW31668   8.153   4.774  11.540
43881SOL    HW131669   8.139   4.781  11.639
43881SOL    HW231670   8.237   4.723  11.522
43882SOL     OW31671   7.858   4.537  12.423
43882SOL    HW131672   7.944   4.549  12.473
43882SOL    HW231673   7.816   4.450  12.450
43883SOL     OW31674   8.722   4.110  12.434
43883SOL    HW131675   8.743   4.184  12.498
43883SOL    HW231676   8.633   4.127  12.391
43884SOL     OW31677   7.512   5.288  12.503
43884SOL    HW131678   7.466   5.370  12.469
43884SOL    HW231679   7.610   5.307  12.512
43885SOL     OW31680   7.815   4.824  11.673
43885SOL    HW131681   7.808   4.907  11.617
43885SOL    HW231682   7.819   4.744  11.613
43886SOL     OW31683   8.014   4.261  12.037
43886SOL    HW131684   8.026   4.327  11.963
43886SOL    HW231685   8.060   4.295  12.120
43887SOL     OW31686   8.700   5.072  11.560
43887SOL    HW131687   8.750   5.149  11.600
43887SOL    HW231688   8.605   5.074  11.592
43888SOL     OW31689   8.720   5.169  12.314
43888SOL    HW131690   8.767   5.182  12.401
43888SOL    HW231691   8.654   5.095  12.323
43889SOL     OW31692   9.030   4.363  11.644
43889SOL    HW131693   8.999   4.424  11.717
43889SOL    HW231694   9.080   4.415  11.575
43890SOL     OW31695   7.802   5.234  12.501
43890SOL    HW131696   7.781   5.190  12.414
43890SOL    HW231697   7.899   5.260  12.504
43891SOL     OW31698   7.850   4.475  12.770
43891SOL    HW131699   7.918   4.530  12.723
43891SOL    HW231700   7.890   4.387  12.797
43892SOL     OW31701   9.035   4.503  12.842
43892SOL    HW131702   8.943   4.541  12.837
43892SOL    HW231703   9.095   4.550  12.777
43893SOL     OW31704   8.021   4.594  12.201
43893SOL    HW131705   8.065   4.683  12.192
43893SOL    HW231706   7.958   4.594  12.278
43894SOL     OW31707   8.808   4.586  12.217
43894SOL    HW131708   8.733   4.586  12.151
43894SOL    HW231709   8.845   4.494  12.226
43895SOL     OW31710   8.657   4.249  11.447
43895SOL    HW131711   8.670   4.165  11.501
43895SOL    HW231712   8.628   4.323  11.507
43896SOL     OW31713   7.755   3.937  12.403
43896SOL    HW131714   7.732   3.974  12.493
43896SOL    HW231715   7.725   3.842  12.397
43897SOL     OW31716   7.485   5.034  12.454
43897SOL    HW131717   7.538   4.985  12.522
43897SOL    HW231718   7.507   5.132  12.459
43898SOL     OW31719   8.180   4.358  12.236
43898SOL    HW131720   8.239   4.332  12.160
43898SOL    HW231721   8.152   4.454  12.225
43899SOL     OW31722   7.755   3.787  11.790
43899SOL    HW131723   7.744   3.881  11.823
43899SOL    HW231724   7.750   3.724  11.867
43900SOL     OW31725   9.070   4.091  11.546
43900SOL    HW131726   9.072   4.015  11.610
43900SOL    HW231727   9.022   4.168  11.586
43901SOL     OW31728   8.471   4.490  12.138
43901SOL    HW131729   8.486   4.511  12.234
43901SOL    HW231730   8.441   4.395  12.129
43902SOL     OW31731   8.428   5.297  12.872
43902SOL    HW131732   8.408   5.341  12.784
43902SOL    HW231733   8.467   5.206  12.856
43903SOL     OW31734   8.988   3.998  11.297
43903SOL    HW131735   8.927   3.923  11.320
43903SOL    HW231736   9.010   4.050  11.380
43904SOL     OW31737   8.751   4.562  11.214
43904SOL    HW131738   8.785   4.469  11.229
43904SOL    HW231739   8.769   4.589  11.119
43905SOL     OW31740   8.516   5.057  12.021
43905SOL    HW131741   8.523   4.973  11.966
43905SOL    HW231742   8.578   5.126  11.985
43906SOL     OW31743   7.767   4.534  12.121
43906SOL    HW131744   7.860   4.570  12.126
43906SOL    HW231745   7.761   4.449  12.173
43907SOL     OW31746   7.787   4.233  12.178
43907SOL    HW131747   7.735   4.150  12.161
43907SOL    HW231748   7.864   4.238  12.114
43908SOL     OW31749   8.586   4.104  12.850
43908SOL    HW131750   8.541   4.167  12.914
43908SOL    HW231751   8.679   4.135  12.833
43909SOL     OW31752   8.608   3.931  12.649
43909SOL    HW131753   8.608   3.995  12.726
43909SOL    HW231754   8.636   3.979  12.566
43910SOL     OW31755   7.456   5.050  11.372
43910SOL    HW131756   7.363   5.071  11.341
43910SOL    HW231757   7.466   4.951  11.385
43911SOL     OW31758   7.536   5.525  12.099
43911SOL    HW131759   7.494   5.439  12.072
43911SOL    HW231760   7.630   5.528  12.065
43912SOL     OW31761   7.952   5.292  12.082
43912SOL    HW131762   8.018   5.366  12.091
43912SOL    HW231763   7.996   5.213  12.040
43913SOL     OW31764   8.450   4.520  12.410
43913SOL    HW131765   8.491   4.488  12.496
43913SOL    HW231766   8.354   4.493  12.407
43914SOL     OW31767   7.488   4.268  12.286
43914SOL    HW131768   7.573   4.235  12.245
43914SOL    HW231769   7.501   4.283  12.384
43915SOL     OW31770   8.263   4.296  11.497
43915SOL    HW131771   8.270   4.207  11.451
43915SOL    HW231772   8.169   4.330  11.489
43916SOL     OW31773   9.105   4.328  12.378
43916SOL    HW131774   9.067   4.259  12.440
43916SOL    HW231775   9.187   4.292  12.334
43917SOL     OW31776   8.119   4.188  12.441
43917SOL    HW131777   8.085   4.099  12.411
43917SOL    HW231778   8.145   4.242  12.361
43918SOL     OW31779   8.378   5.402  12.637
43918SOL    HW131780   8.354   5.384  12.542
43918SOL    HW231781   8.408   5.496  12.647
43919SOL     OW31782   7.921   4.224  11.363
43919SOL    HW131783   7.982   4.304  11.367
43919SOL    HW231784   7.826   4.255  11.370
43920SOL     OW31785   7.607   4.861  12.638
43920SOL    HW131786   7.629   4.800  12.714
43920SOL    HW231787   7.617   4.812  12.552
43921SOL     OW31788   8.795   4.783  12.406
43921SOL    HW131789   8.819   4.720  12.332
43921SOL    HW231790   8.705   4.823  12.388
43922SOL     OW31791   8.750   4.579  11.481
43922SOL    HW131792   8.664   4.548  11.523
43922SOL    HW231793   8.746   4.565  11.382
43923SOL     OW31794   9.207   5.471  12.326
43923SOL    HW131795   9.268   5.501  12.253
43923SOL    HW231796   9.169   5.382  12.304
43924SOL     OW31797   8.700   5.455  12.300
43924SOL    HW131798   8.784   5.460  12.246
43924SOL    HW231799   8.677   5.359  12.318
43925SOL     OW31800   7.531   4.982  12.194
43925SOL    HW131801   7.526   4.981  12.294
43925SOL    HW231802   7.448   4.941  12.156
43926SOL     OW31803   9.174   3.859  11.695
43926SOL    HW131804   9.247   3.842  11.628
43926SOL    HW231805   9.143   3.772  11.733
43927SOL     OW31806   8.836   5.297  11.649
43927SOL    HW131807   8.903   5.309  11.575
43927SOL    HW231808   8.796   5.386  11.672
43928SOL     OW31809   8.728   4.651  11.844
43928SOL    HW131810   8.788   4.570  11.846
43928SOL    HW231811   8.768   4.720  11.784
43929SOL     OW31812   8.120   5.340  11.326
43929SOL    HW131813   8.129   5.350  11.227
43929SOL    HW231814   8.080   5.251  11.347
43930SOL     OW31815   9.098   5.444  12.566
43930SOL    HW131816   9.151   5.454  12.482
43930SOL    HW231817   9.071   5.534  12.600
43931SOL     OW31818   9.289   3.899  12.135
43931SOL    HW131819   9.328   3.814  12.099
43931SOL    HW231820   9.191   3.901  12.116
43932SOL     OW31821   7.711   4.050  11.892
43932SOL    HW131822   7.632   4.101  11.858
43932SOL    HW231823   7.702   4.035  11.990
43933SOL     OW31824   8.642   5.336  11.203
43933SOL    HW131825   8.648   5.243  11.240
43933SOL    HW231826   8.583   5.336  11.123
43934SOL     OW31827   8.270   4.726  12.544
43934SOL    HW131828   8.310   4.725  12.452
43934SOL    HW231829   8.280   4.818  12.584
43935SOL     OW31830   8.364   4.634  11.463
43935SOL    HW131831   8.427   4.672  11.395
43935SOL    HW231832   8.404   4.551  11.502
43936SOL     OW31833   8.952   5.331  11.216
43936SOL    HW131834   8.860   5.368  11.223
43936SOL    HW231835   8.990   5.351  11.126
43937SOL     OW31836   7.820   5.012  12.662
43937SOL    HW131837   7.807   5.105  12.628
43937SOL    HW231838   7.736   4.960  12.649
43938SOL     OW31839   9.062   5.016  12.461
43938SOL    HW131840   9.122   5.019  12.541
43938SOL    HW231841   8.987   5.080  12.474
43939SOL     OW31842   8.487   4.822  11.868
43939SOL    HW131843   8.417   4.775  11.922
43939SOL    HW231844   8.546   4.754  11.825
43940SOL     OW31845   8.462   3.960  12.143
43940SOL    HW131846   8.454   3.924  12.050
43940SOL    HW231847   8.460   3.884  12.208
43941SOL     OW31848   8.038   5.211  11.663
43941SOL    HW131849   8.080   5.153  11.593
43941SOL    HW231850   7.994   5.290  11.619
43942SOL     OW31851   9.157   4.109  12.553
43942SOL    HW131852   9.230   4.178  12.557
43942SOL    HW231853   9.185   4.034  12.494
43943SOL     OW31854   7.703   5.072  11.462
43943SOL    HW131855   7.607   5.073  11.435
43943SOL    HW231856   7.715   5.125  11.546
43944SOL     OW31857   7.523   4.069  11.205
43944SOL    HW131858   7.431   4.041  11.176
43944SOL    HW231859   7.554   4.146  11.149
43945SOL     OW31860   8.888   4.580  12.570
43945SOL    HW131861   8.831   4.632  12.507
43945SOL    HW231862   8.984   4.592  12.546
43946SOL     OW31863   7.520   3.890  11.490
43946SOL    HW131864   7.503   3.973  11.436
43946SOL    HW231865   7.610   3.853  11.468
43947SOL     OW31866   8.631   5.059  11.291
43947SOL    HW131867   8.532   5.048  11.293
43947SOL    HW231868   8.665   5.074  11.384
43948SOL     OW31869   8.061   4.566  12.603
43948SOL    HW131870   8.117   4.647  12.586
43948SOL    HW231871   8.120   4.486  12.606
43949SOL     OW31872   8.941   5.491  12.131
43949SOL    HW131873   8.974   5.555  12.062
43949SOL    HW231874   9.007   5.485  12.206
43950SOL     OW31875   7.838   5.465  12.732
43950SOL    HW131876   7.747   5.506  12.730
43950SOL    HW231877   7.831   5.371  12.764
43951SOL     OW31878   9.122   4.607  12.426
43951SOL    HW131879   9.095   4.518  12.389
43951SOL    HW231880   9.123   4.675  12.353
43952SOL     OW31881   8.673   4.049  11.621
43952SOL    HW131882   8.738   3.975  11.610
43952SOL    HW231883   8.693   4.099  11.705
43953SOL     OW31884   8.042   4.469  11.824
43953SOL    HW131885   8.092   4.554  11.805
43953SOL    HW231886   7.954   4.471  11.776
43954SOL     OW31887   9.225   4.066  12.814
43954SOL    HW131888   9.208   4.097  12.720
43954SOL    HW231889   9.141   4.029  12.852
43955SOL     OW31890   9.178   4.658  12.689
43955SOL    HW131891   9.216   4.749  12.704
43955SOL    HW231892   9.170   4.641  12.590
43956SOL     OW31893   8.307   5.098  11.188
43956SOL    HW131894   8.261   5.113  11.276
43956SOL    HW231895   8.351   5.183  11.158
43957SOL     OW31896   8.109   5.514  12.125
43957SOL    HW131897   8.063   5.602  12.112
43957SOL    HW231898   8.208   5.526  12.118
43958SOL     OW31899   8.307   4.680  12.033
43958SOL    HW131900   8.361   4.611  12.081
43958SOL    HW231901   8.275   4.749  12.099
43959SOL     OW31902   8.531   4.708  11.259
43959SOL    HW131903   8.508   4.761  11.177
43959SOL    HW231904   8.612   4.652  11.240
43960SOL     OW31905   9.309   5.293  12.023
43960SOL    HW131906   9.238   5.281  11.953
43960SOL    HW231907   9.310   5.214  12.083
43961SOL     OW31908   7.527   4.964  11.825
43961SOL    HW131909   7.526   4.917  11.913
43961SOL    HW231910   7.609   4.936  11.774
43962SOL     OW31911   9.272   3.916  12.399
43962SOL    HW131912   9.268   3.826  12.443
43962SOL    HW231913   9.275   3.905  12.300
43963SOL     OW31914   7.876   4.148  11.692
43963SOL    HW131915   7.906   4.076  11.630
43963SOL    HW231916   7.837   4.108  11.775
43964SOL     OW31917   9.153   5.211  12.276
43964SOL    HW131918   9.060   5.186  12.249
43964SOL    HW231919   9.179   5.161  12.358
43965SOL     OW31920   7.765   4.271  12.452
43965SOL    HW131921   7.803   4.212  12.524
43965SOL    HW231922   7.805   4.245  12.364
43966SOL     OW31923   8.260   5.310  11.859
43966SOL    HW131924   8.292   5.320  11.765
43966SOL    HW231925   8.181   5.248  11.861
43967SOL     OW31926   8.872   3.938  12.284
43967SOL    HW131927   8.924   3.873  12.339
43967SOL    HW231928   8.823   4.001  12.345
43968SOL     OW31929   8.449   3.758  12.326
43968SOL    HW131930   8.386   3.686  12.295
43968SOL    HW231931   8.542   3.722  12.326
43969SOL     OW31932   8.218   5.054  11.473
43969SOL    HW131933   8.172   4.967  11.490
43969SOL    HW231934   8.309   5.051  11.514
43970SOL     OW31935   8.066   5.291  12.456
43970SOL    HW131936   8.061   5.373  12.513
43970SOL    HW231937   8.155   5.288  12.411
43971SOL     OW31938   8.800   3.776  11.340
43971SOL    HW131939   8.835   3.735  11.256
43971SOL    HW231940   8.710   3.738  11.360
43972SOL     OW31941   8.748   4.177  11.863
43972SOL    HW131942   8.689   4.257  11.867
43972SOL    HW231943   8.763   4.142  11.956
43973SOL     OW31944   9.041   3.945  12.054
43973SOL    HW131945   8.957   3.944  12.108
43973SOL    HW231946   9.043   4.028  11.998
43974SOL     OW31947   7.487   4.801  11.472
43974SOL    HW131948   7.586   4.790  11.463
43974SOL    HW231949   7.447   4.715  11.504
43975SOL     OW31950   8.323   5.370  11.509
43975SOL    HW131951   8.246   5.335  11.455
43975SOL    HW231952   8.291   5.441  11.571
43976SOL     OW31953   7.678   6.214   0.113
43976SOL    HW131954   7.585   6.212   0.150
43976SOL    HW231955   7.679   6.175   0.021
43977SOL     OW31956   7.673   5.861   0.996
43977SOL    HW131957   7.708   5.844   1.088
43977SOL    HW231958   7.585   5.816   0.984
43978SOL     OW31959   7.467   5.954   0.647
43978SOL    HW131960   7.385   5.997   0.686
43978SOL    HW231961   7.439   5.881   0.584
43979SOL     OW31962   8.017   6.861   1.165
43979SOL    HW131963   7.924   6.854   1.128
43979SOL    HW231964   8.028   6.950   1.209
43980SOL     OW31965   9.003   7.097   0.703
43980SOL    HW131966   8.946   7.081   0.784
43980SOL    HW231967   8.944   7.107   0.623
43981SOL     OW31968   8.583   6.289   0.717
43981SOL    HW131969   8.640   6.367   0.692
43981SOL    HW231970   8.523   6.315   0.793
43982SOL     OW31971   9.203   6.193   0.231
43982SOL    HW131972   9.191   6.180   0.132
43982SOL    HW231973   9.173   6.112   0.280
43983SOL     OW31974   8.216   6.730   1.023
43983SOL    HW131975   8.138   6.747   1.083
43983SOL    HW231976   8.250   6.817   0.987
43984SOL     OW31977   8.298   6.384   1.823
43984SOL    HW131978   8.294   6.460   1.888
43984SOL    HW231979   8.320   6.420   1.732
43985SOL     OW31980   8.133   6.598   0.665
43985SOL    HW131981   8.202   6.582   0.735
43985SOL    HW231982   8.060   6.655   0.703
43986SOL     OW31983   8.134   6.747   1.803
43986SOL    HW131984   8.194   6.826   1.817
43986SOL    HW231985   8.048   6.778   1.762
43987SOL     OW31986   7.783   7.021   1.061
43987SOL    HW131987   7.705   6.990   1.008
43987SOL    HW231988   7.841   7.079   1.004
43988SOL     OW31989   8.908   7.091   1.339
43988SOL    HW131990   8.932   7.185   1.365
43988SOL    HW231991   8.892   7.037   1.421
43989SOL     OW31992   7.886   5.978   1.499
43989SOL    HW131993   7.968   5.922   1.508
43989SOL    HW231994   7.805   5.920   1.503
43990SOL     OW31995   9.051   6.033   0.737
43990SOL    HW131996   8.977   6.079   0.687
43990SOL    HW231997   9.102   6.101   0.790
43991SOL     OW31998   7.679   7.299   0.483
43991SOL    HW131999   7.713   7.376   0.537
43991SOL    HW232000   7.723   7.299   0.393
43992SOL     OW32001   8.575   6.927   1.690
43992SOL    HW132002   8.622   6.927   1.778
43992SOL    HW232003   8.527   6.840   1.679
43993SOL     OW32004   7.678   7.020   0.538
43993SOL    HW132005   7.652   7.116   0.538
43993SOL    HW232006   7.607   6.966   0.583
43994SOL     OW32007   7.688   6.677   0.886
43994SOL    HW132008   7.702   6.593   0.938
43994SOL    HW232009   7.633   6.741   0.941
43995SOL     OW32010   8.068   7.372   1.439
43995SOL    HW132011   7.976   7.355   1.474
43995SOL    HW232012   8.096   7.464   1.465
43996SOL     OW32013   8.054   6.550   0.123
43996SOL    HW132014   8.061   6.634   0.069
43996SOL    HW232015   8.100   6.563   0.211
43997SOL     OW32016   9.042   5.700   1.480
43997SOL    HW132017   9.024   5.767   1.408
43997SOL    HW232018   9.039   5.746   1.569
43998SOL     OW32019   7.570   6.229   0.563
43998SOL    HW132020   7.525   6.141   0.580
43998SOL    HW232021   7.569   6.283   0.647
43999SOL     OW32022   9.290   7.353   0.359
43999SOL    HW132023   9.344   7.324   0.439
43999SOL    HW232024   9.320   7.443   0.330
44000SOL     OW32025   7.475   7.182   0.117
44000SOL    HW132026   7.456   7.086   0.138
44000SOL    HW232027   7.442   7.240   0.192
44001SOL     OW32028   9.137   6.508   0.612
44001SOL    HW132029   9.232   6.479   0.620
44001SOL    HW232030   9.129   6.573   0.537
44002SOL     OW32031   9.089   6.694   0.432
44002SOL    HW132032   9.175   6.696   0.380
44002SOL    HW232033   9.103   6.741   0.520
44003SOL     OW32034   7.561   6.323   1.597
44003SOL    HW132035   7.649   6.310   1.642
44003SOL    HW232036   7.548   6.420   1.575
44004SOL     OW32037   8.061   6.951   0.726
44004SOL    HW132038   8.012   6.864   0.735
44004SOL    HW232039   8.038   6.994   0.639
44005SOL     OW32040   8.741   6.814   1.423
44005SOL    HW132041   8.778   6.741   1.365
44005SOL    HW232042   8.793   6.819   1.508
44006SOL     OW32043   8.257   5.590   0.502
44006SOL    HW132044   8.297   5.681   0.493
44006SOL    HW232045   8.157   5.598   0.508
44007SOL     OW32046   7.645   6.562   1.264
44007SOL    HW132047   7.734   6.517   1.250
44007SOL    HW232048   7.572   6.497   1.245
44008SOL     OW32049   8.973   6.585   0.190
44008SOL    HW132050   8.910   6.509   0.203
44008SOL    HW232051   9.021   6.603   0.276
44009SOL     OW32052   8.635   7.378   1.616
44009SOL    HW132053   8.659   7.438   1.540
44009SOL    HW232054   8.642   7.283   1.586
44010SOL     OW32055   7.765   5.837   1.801
44010SOL    HW132056   7.836   5.908   1.807
44010SOL    HW232057   7.677   5.876   1.829
44011SOL     OW32058   8.914   7.003   0.953
44011SOL    HW132059   8.855   7.009   1.033
44011SOL    HW232060   8.899   6.915   0.907
44012SOL     OW32061   9.115   7.300   0.572
44012SOL    HW132062   9.074   7.277   0.484
44012SOL    HW232063   9.097   7.226   0.637
44013SOL     OW32064   8.046   6.315   0.270
44013SOL    HW132065   8.070   6.384   0.202
44013SOL    HW232066   7.968   6.348   0.324
44014SOL     OW32067   8.729   5.931   0.944
44014SOL    HW132068   8.643   5.881   0.931
44014SOL    HW232069   8.791   5.877   1.000
44015SOL     OW32070   9.024   7.248   0.307
44015SOL    HW132071   9.113   7.294   0.310
44015SOL    HW232072   9.003   7.224   0.212
44016SOL     OW32073   8.255   6.191   1.465
44016SOL    HW132074   8.208   6.188   1.554
44016SOL    HW232075   8.204   6.136   1.399
44017SOL     OW32076   8.842   6.055   1.674
44017SOL    HW132077   8.822   6.098   1.762
44017SOL    HW232078   8.920   5.993   1.683
44018SOL     OW32079   8.421   6.476   1.572
44018SOL    HW132080   8.467   6.392   1.543
44018SOL    HW232081   8.365   6.510   1.497
44019SOL     OW32082   8.439   5.996   1.242
44019SOL    HW132083   8.362   6.030   1.296
44019SOL    HW232084   8.405   5.945   1.163
44020SOL     OW32085   8.489   6.287   0.429
44020SOL    HW132086   8.515   6.283   0.525
44020SOL    HW232087   8.404   6.236   0.415
44021SOL     OW32088   7.524   6.397   0.789
44021SOL    HW132089   7.623   6.385   0.798
44021SOL    HW232090   7.500   6.492   0.810
44022SOL     OW32091   7.578   7.407   1.571
44022SOL    HW132092   7.568   7.392   1.670
44022SOL    HW232093   7.492   7.443   1.535
44023SOL     OW32094   8.313   5.934   0.195
44023SOL    HW132095   8.372   5.997   0.146
44023SOL    HW232096   8.332   5.840   0.166
44024SOL     OW32097   9.167   6.171   1.831
44024SOL    HW132098   9.141   6.260   1.795
44024SOL    HW232099   9.165   6.103   1.758
44025SOL     OW32100   8.810   6.730   0.545
44025SOL    HW132101   8.893   6.701   0.497
44025SOL    HW232102   8.761   6.797   0.489
44026SOL     OW32103   7.998   5.782   0.885
44026SOL    HW132104   7.993   5.777   0.985
44026SOL    HW232105   8.000   5.878   0.856
44027SOL     OW32106   8.456   7.042   0.477
44027SOL    HW132107   8.410   7.114   0.425
44027SOL    HW232108   8.452   7.062   0.575
44028SOL     OW32109   7.799   7.387   0.853
44028SOL    HW132110   7.849   7.301   0.859
44028SOL    HW232111   7.864   7.464   0.850
44029SOL     OW32112   9.243   6.652   0.873
44029SOL    HW132113   9.181   6.637   0.797
44029SOL    HW232114   9.191   6.663   0.958
44030SOL     OW32115   8.675   7.136   1.506
44030SOL    HW132116   8.681   7.059   1.570
44030SOL    HW232117   8.623   7.110   1.426
44031SOL     OW32118   7.769   6.529   0.242
44031SOL    HW132119   7.851   6.568   0.200
44031SOL    HW232120   7.742   6.447   0.193
44032SOL     OW32121   8.906   6.321   0.728
44032SOL    HW132122   8.901   6.256   0.803
44032SOL    HW232123   8.986   6.380   0.741
44033SOL     OW32124   7.909   6.852   1.727
44033SOL    HW132125   7.859   6.853   1.641
44033SOL    HW232126   7.846   6.834   1.803
44034SOL     OW32127   8.559   7.362   0.237
44034SOL    HW132128   8.499   7.300   0.287
44034SOL    HW232129   8.590   7.318   0.152
44035SOL     OW32130   7.650   5.871   1.498
44035SOL    HW132131   7.570   5.931   1.485
44035SOL    HW232132   7.640   5.822   1.584
44036SOL     OW32133   9.080   6.963   0.081
44036SOL    HW132134   9.048   7.057   0.071
44036SOL    HW232135   9.004   6.900   0.069
44037SOL     OW32136   7.912   7.329   0.323
44037SOL    HW132137   7.945   7.368   0.409
44037SOL    HW232138   7.988   7.322   0.258
44038SOL     OW32139   8.848   5.693   0.426
44038SOL    HW132140   8.824   5.656   0.336
44038SOL    HW232141   8.947   5.709   0.430
44039SOL     OW32142   7.697   7.371   1.241
44039SOL    HW132143   7.754   7.306   1.291
44039SOL    HW232144   7.681   7.338   1.148
44040SOL     OW32145   8.388   7.284   0.904
44040SOL    HW132146   8.468   7.227   0.925
44040SOL    HW232147   8.339   7.244   0.827
44041SOL     OW32148   7.830   6.286   0.480
44041SOL    HW132149   7.875   6.196   0.477
44041SOL    HW232150   7.736   6.275   0.513
44042SOL     OW32151   8.995   5.808   1.729
44042SOL    HW132152   8.990   5.845   1.821
44042SOL    HW232153   8.923   5.739   1.717
44043SOL     OW32154   8.062   5.708   0.117
44043SOL    HW132155   8.160   5.686   0.124
44043SOL    HW232156   8.031   5.691   0.024
44044SOL     OW32157   8.229   5.850   1.749
44044SOL    HW132158   8.296   5.789   1.792
44044SOL    HW232159   8.156   5.869   1.814
44045SOL     OW32160   8.336   7.100   1.195
44045SOL    HW132161   8.313   7.075   1.101
44045SOL    HW232162   8.397   7.031   1.234
44046SOL     OW32163   8.799   6.176   1.433
44046SOL    HW132164   8.827   6.133   1.518
44046SOL    HW232165   8.824   6.272   1.434
44047SOL     OW32166   8.251   6.988   0.924
44047SOL    HW132167   8.341   7.002   0.882
44047SOL    HW232168   8.180   6.990   0.853
44048SOL     OW32169   8.370   6.089   0.899
44048SOL    HW132170   8.345   6.080   0.803
44048SOL    HW232171   8.418   6.007   0.930
44049SOL     OW32172   7.987   5.650   0.512
44049SOL    HW132173   7.906   5.651   0.570
44049SOL    HW232174   7.990   5.733   0.457
44050SOL     OW32175   8.882   6.774   0.041
44050SOL    HW132176   8.914   6.698   0.098
44050SOL    HW232177   8.790   6.801   0.071
44051SOL     OW32178   7.745   5.621   0.171
44051SOL    HW132179   7.794   5.705   0.150
44051SOL    HW232180   7.807   5.556   0.216
44052SOL     OW32181   8.383   5.822   0.480
44052SOL    HW132182   8.335   5.863   0.402
44052SOL    HW232183   8.482   5.820   0.461
44053SOL     OW32184   8.524   6.269   1.464
44053SOL    HW132185   8.444   6.208   1.467
44053SOL    HW232186   8.605   6.216   1.440
44054SOL     OW32187   8.675   7.156   0.793
44054SOL    HW132188   8.696   7.230   0.728
44054SOL    HW232189   8.743   7.156   0.866
44055SOL     OW32190   7.907   6.738   0.741
44055SOL    HW132191   7.836   6.711   0.806
44055SOL    HW232192   7.881   6.710   0.648
44056SOL     OW32193   8.719   7.383   0.591
44056SOL    HW132194   8.763   7.447   0.527
44056SOL    HW232195   8.669   7.435   0.661
44057SOL     OW32196   8.480   6.135   0.016
44057SOL    HW132197   8.439   6.217  -0.023
44057SOL    HW232198   8.544   6.161   0.089
44058SOL     OW32199   7.526   6.142   1.386
44058SOL    HW132200   7.618   6.141   1.345
44058SOL    HW232201   7.520   6.216   1.453
44059SOL     OW32202   8.009   5.808   1.147
44059SOL    HW132203   8.047   5.724   1.184
44059SOL    HW232204   7.921   5.827   1.191
44060SOL     OW32205   8.314   6.040   0.642
44060SOL    HW132206   8.282   6.112   0.580
44060SOL    HW232207   8.338   5.959   0.589
44061SOL     OW32208   8.465   5.625   0.753
44061SOL    HW132209   8.393   5.630   0.684
44061SOL    HW232210   8.441   5.556   0.822
44062SOL     OW32211   8.877   6.759   0.867
44062SOL    HW132212   8.822   6.675   0.860
44062SOL    HW232213   8.903   6.788   0.775
44063SOL     OW32214   8.914   6.176   0.992
44063SOL    HW132215   8.884   6.081   0.999
44063SOL    HW232216   8.987   6.192   1.058
44064SOL     OW32217   9.305   6.419   0.377
44064SOL    HW132218   9.347   6.355   0.441
44064SOL    HW232219   9.267   6.368   0.299
44065SOL     OW32220   7.936   6.971   0.174
44065SOL    HW132221   7.849   6.956   0.221
44065SOL    HW232222   7.919   6.997   0.079
44066SOL     OW32223   9.112   6.866   0.657
44066SOL    HW132224   9.211   6.874   0.671
44066SOL    HW232225   9.067   6.950   0.688
44067SOL     OW32226   8.838   6.161   0.078
44067SOL    HW132227   8.784   6.140   0.159
44067SOL    HW232228   8.929   6.120   0.087
44068SOL     OW32229   7.975   5.842   0.328
44068SOL    HW132230   8.002   5.783   0.253
44068SOL    HW232231   7.975   5.937   0.297
44069SOL     OW32232   9.202   6.809   1.588
44069SOL    HW132233   9.293   6.770   1.575
44069SOL    HW232234   9.210   6.905   1.612
44070SOL     OW32235   8.512   6.933   1.340
44070SOL    HW132236   8.432   6.910   1.395
44070SOL    HW232237   8.595   6.907   1.389
44071SOL     OW32238   9.040   7.215   1.625
44071SOL    HW132239   9.067   7.249   1.535
44071SOL    HW232240   9.119   7.177   1.671
44072SOL     OW32241   8.559   6.781   1.100
44072SOL    HW132242   8.519   6.825   1.181
44072SOL    HW232243   8.518   6.818   1.017
44073SOL     OW32244   9.086   6.685   1.079
44073SOL    HW132245   9.091   6.766   1.138
44073SOL    HW232246   9.000   6.687   1.028
44074SOL     OW32247   8.363   5.675   1.402
44074SOL    HW132248   8.388   5.655   1.307
44074SOL    HW232249   8.435   5.731   1.444
44075SOL     OW32250   8.428   6.702   1.719
44075SOL    HW132251   8.329   6.708   1.729
44075SOL    HW232252   8.451   6.622   1.663
44076SOL     OW32253   8.153   6.636   0.368
44076SOL    HW132254   8.139   6.643   0.467
44076SOL    HW232255   8.237   6.585   0.350
44077SOL     OW32256   7.858   6.399   1.251
44077SOL    HW132257   7.944   6.411   1.301
44077SOL    HW232258   7.816   6.312   1.278
44078SOL     OW32259   8.722   5.972   1.262
44078SOL    HW132260   8.743   6.046   1.326
44078SOL    HW232261   8.633   5.989   1.219
44079SOL     OW32262   7.512   7.150   1.331
44079SOL    HW132263   7.466   7.232   1.297
44079SOL    HW232264   7.610   7.169   1.340
44080SOL     OW32265   7.815   6.686   0.501
44080SOL    HW132266   7.808   6.769   0.445
44080SOL    HW232267   7.819   6.606   0.441
44081SOL     OW32268   8.014   6.123   0.865
44081SOL    HW132269   8.026   6.189   0.791
44081SOL    HW232270   8.060   6.157   0.948
44082SOL     OW32271   8.700   6.934   0.388
44082SOL    HW132272   8.750   7.011   0.428
44082SOL    HW232273   8.605   6.936   0.420
44083SOL     OW32274   8.720   7.031   1.142
44083SOL    HW132275   8.767   7.044   1.229
44083SOL    HW232276   8.654   6.957   1.151
44084SOL     OW32277   9.030   6.225   0.472
44084SOL    HW132278   8.999   6.286   0.545
44084SOL    HW232279   9.080   6.277   0.403
44085SOL     OW32280   7.802   7.096   1.329
44085SOL    HW132281   7.781   7.052   1.242
44085SOL    HW232282   7.899   7.122   1.332
44086SOL     OW32283   7.850   6.337   1.598
44086SOL    HW132284   7.918   6.392   1.551
44086SOL    HW232285   7.890   6.249   1.625
44087SOL     OW32286   9.035   6.365   1.670
44087SOL    HW132287   8.943   6.403   1.665
44087SOL    HW232288   9.095   6.412   1.605
44088SOL     OW32289   8.461   5.691   1.770
44088SOL    HW132290   8.467   5.776   1.718
44088SOL    HW232291   8.493   5.615   1.713
44089SOL     OW32292   7.952   5.636   1.740
44089SOL    HW132293   7.910   5.579   1.670
44089SOL    HW232294   7.886   5.705   1.772
44090SOL     OW32295   8.021   6.456   1.029
44090SOL    HW132296   8.065   6.545   1.020
44090SOL    HW232297   7.958   6.456   1.106
44091SOL     OW32298   8.808   6.448   1.045
44091SOL    HW132299   8.733   6.448   0.979
44091SOL    HW232300   8.845   6.356   1.054
44092SOL     OW32301   8.657   6.111   0.275
44092SOL    HW132302   8.670   6.027   0.329
44092SOL    HW232303   8.628   6.185   0.335
44093SOL     OW32304   7.755   5.799   1.231
44093SOL    HW132305   7.732   5.836   1.321
44093SOL    HW232306   7.725   5.704   1.225
44094SOL     OW32307   7.485   6.896   1.282
44094SOL    HW132308   7.538   6.847   1.350
44094SOL    HW232309   7.507   6.994   1.287
44095SOL     OW32310   8.180   6.220   1.064
44095SOL    HW132311   8.239   6.194   0.988
44095SOL    HW232312   8.152   6.316   1.053
44096SOL     OW32313   9.176   6.521   1.854
44096SOL    HW132314   9.130   6.514   1.765
44096SOL    HW232315   9.114   6.565   1.920
44097SOL     OW32316   7.755   5.649   0.618
44097SOL    HW132317   7.744   5.743   0.651
44097SOL    HW232318   7.750   5.586   0.695
44098SOL     OW32319   9.070   5.953   0.374
44098SOL    HW132320   9.072   5.877   0.438
44098SOL    HW232321   9.022   6.030   0.414
44099SOL     OW32322   8.471   6.352   0.966
44099SOL    HW132323   8.486   6.373   1.062
44099SOL    HW232324   8.441   6.257   0.957
44100SOL     OW32325   8.428   7.159   1.700
44100SOL    HW132326   8.408   7.203   1.612
44100SOL    HW232327   8.467   7.068   1.684
44101SOL     OW32328   9.307   7.104   1.605
44101SOL    HW132329   9.321   7.131   1.510
44101SOL    HW232330   9.390   7.126   1.658
44102SOL     OW32331   7.798   6.484   1.804
44102SOL    HW132332   7.874   6.528   1.852
44102SOL    HW232333   7.833   6.437   1.722
44103SOL     OW32334   8.988   5.860   0.125
44103SOL    HW132335   8.927   5.785   0.148
44103SOL    HW232336   9.010   5.912   0.208
44104SOL     OW32337   8.751   6.424   0.042
44104SOL    HW132338   8.785   6.331   0.057
44104SOL    HW232339   8.769   6.451  -0.053
44105SOL     OW32340   8.516   6.919   0.849
44105SOL    HW132341   8.523   6.835   0.794
44105SOL    HW232342   8.578   6.988   0.813
44106SOL     OW32343   7.767   6.396   0.949
44106SOL    HW132344   7.860   6.432   0.954
44106SOL    HW232345   7.761   6.311   1.001
44107SOL     OW32346   7.787   6.095   1.006
44107SOL    HW132347   7.735   6.012   0.989
44107SOL    HW232348   7.864   6.100   0.942
44108SOL     OW32349   8.586   5.966   1.678
44108SOL    HW132350   8.541   6.029   1.742
44108SOL    HW232351   8.679   5.997   1.661
44109SOL     OW32352   8.608   5.793   1.477
44109SOL    HW132353   8.608   5.857   1.554
44109SOL    HW232354   8.636   5.841   1.394
44110SOL     OW32355   7.456   6.912   0.200
44110SOL    HW132356   7.363   6.933   0.169
44110SOL    HW232357   7.466   6.813   0.213
44111SOL     OW32358   7.536   7.387   0.927
44111SOL    HW132359   7.494   7.301   0.900
44111SOL    HW232360   7.630   7.390   0.893
44112SOL     OW32361   7.952   7.154   0.910
44112SOL    HW132362   8.018   7.228   0.919
44112SOL    HW232363   7.996   7.075   0.868
44113SOL     OW32364   8.450   6.382   1.238
44113SOL    HW132365   8.491   6.350   1.324
44113SOL    HW232366   8.354   6.355   1.235
44114SOL     OW32367   7.488   6.130   1.114
44114SOL    HW132368   7.573   6.097   1.073
44114SOL    HW232369   7.501   6.145   1.212
44115SOL     OW32370   7.637   6.106   1.722
44115SOL    HW132371   7.696   6.066   1.652
44115SOL    HW232372   7.579   6.177   1.681
44116SOL     OW32373   8.817   6.536   1.660
44116SOL    HW132374   8.856   6.625   1.680
44116SOL    HW232375   8.827   6.516   1.563
44117SOL     OW32376   8.263   6.158   0.325
44117SOL    HW132377   8.270   6.069   0.279
44117SOL    HW232378   8.169   6.192   0.317
44118SOL     OW32379   9.105   6.190   1.206
44118SOL    HW132380   9.067   6.121   1.268
44118SOL    HW232381   9.187   6.154   1.162
44119SOL     OW32382   7.700   7.150   1.744
44119SOL    HW132383   7.670   7.207   1.820
44119SOL    HW232384   7.693   7.053   1.770
44120SOL     OW32385   8.119   6.050   1.269
44120SOL    HW132386   8.085   5.961   1.239
44120SOL    HW232387   8.145   6.104   1.189
44121SOL     OW32388   8.378   7.264   1.465
44121SOL    HW132389   8.354   7.246   1.370
44121SOL    HW232390   8.408   7.358   1.475
44122SOL     OW32391   7.921   6.086   0.191
44122SOL    HW132392   7.982   6.166   0.195
44122SOL    HW232393   7.826   6.117   0.198
44123SOL     OW32394   7.607   6.723   1.466
44123SOL    HW132395   7.629   6.662   1.542
44123SOL    HW232396   7.617   6.674   1.380
44124SOL     OW32397   8.795   6.645   1.234
44124SOL    HW132398   8.819   6.582   1.160
44124SOL    HW232399   8.705   6.685   1.216
44125SOL     OW32400   8.750   6.441   0.309
44125SOL    HW132401   8.664   6.410   0.351
44125SOL    HW232402   8.746   6.427   0.210
44126SOL     OW32403   9.207   7.333   1.154
44126SOL    HW132404   9.268   7.363   1.081
44126SOL    HW232405   9.169   7.244   1.132
44127SOL     OW32406   8.700   7.317   1.128
44127SOL    HW132407   8.784   7.322   1.074
44127SOL    HW232408   8.677   7.221   1.146
44128SOL     OW32409   7.531   6.844   1.022
44128SOL    HW132410   7.526   6.843   1.122
44128SOL    HW232411   7.448   6.803   0.984
44129SOL     OW32412   8.136   7.248   1.716
44129SOL    HW132413   8.080   7.329   1.725
44129SOL    HW232414   8.188   7.252   1.630
44130SOL     OW32415   8.351   5.672   0.133
44130SOL    HW132416   8.402   5.673   0.047
44130SOL    HW232417   8.407   5.630   0.204
44131SOL     OW32418   9.174   5.721   0.523
44131SOL    HW132419   9.247   5.704   0.456
44131SOL    HW232420   9.143   5.634   0.561
44132SOL     OW32421   8.836   7.159   0.477
44132SOL    HW132422   8.903   7.171   0.403
44132SOL    HW232423   8.796   7.248   0.500
44133SOL     OW32424   7.578   7.380   1.851
44133SOL    HW132425   7.537   7.306   1.904
44133SOL    HW232426   7.642   7.431   1.909
44134SOL     OW32427   8.728   6.513   0.672
44134SOL    HW132428   8.788   6.432   0.674
44134SOL    HW232429   8.768   6.582   0.612
44135SOL     OW32430   8.278   6.859   1.422
44135SOL    HW132431   8.273   6.892   1.517
44135SOL    HW232432   8.192   6.878   1.376
44136SOL     OW32433   8.120   7.202   0.154
44136SOL    HW132434   8.129   7.212   0.055
44136SOL    HW232435   8.080   7.113   0.175
44137SOL     OW32436   9.098   7.306   1.394
44137SOL    HW132437   9.151   7.316   1.310
44137SOL    HW232438   9.071   7.396   1.428
44138SOL     OW32439   9.289   5.761   0.963
44138SOL    HW132440   9.328   5.676   0.927
44138SOL    HW232441   9.191   5.763   0.944
44139SOL     OW32442   7.711   5.912   0.720
44139SOL    HW132443   7.632   5.963   0.686
44139SOL    HW232444   7.702   5.897   0.818
44140SOL     OW32445   8.642   7.198   0.031
44140SOL    HW132446   8.648   7.105   0.068
44140SOL    HW232447   8.583   7.198  -0.049
44141SOL     OW32448   8.270   6.588   1.372
44141SOL    HW132449   8.310   6.587   1.280
44141SOL    HW232450   8.280   6.680   1.412
44142SOL     OW32451   8.364   6.496   0.291
44142SOL    HW132452   8.427   6.534   0.223
44142SOL    HW232453   8.404   6.413   0.330
44143SOL     OW32454   8.952   7.193   0.044
44143SOL    HW132455   8.860   7.230   0.051
44143SOL    HW232456   8.990   7.213  -0.046
44144SOL     OW32457   7.820   6.874   1.490
44144SOL    HW132458   7.807   6.967   1.456
44144SOL    HW232459   7.736   6.822   1.477
44145SOL     OW32460   9.062   6.878   1.289
44145SOL    HW132461   9.122   6.881   1.369
44145SOL    HW232462   8.987   6.942   1.302
44146SOL     OW32463   8.487   6.684   0.696
44146SOL    HW132464   8.417   6.637   0.750
44146SOL    HW232465   8.546   6.616   0.653
44147SOL     OW32466   8.462   5.822   0.971
44147SOL    HW132467   8.454   5.786   0.878
44147SOL    HW232468   8.460   5.746   1.036
44148SOL     OW32469   8.038   7.073   0.491
44148SOL    HW132470   8.080   7.015   0.421
44148SOL    HW232471   7.994   7.152   0.447
44149SOL     OW32472   9.157   5.971   1.381
44149SOL    HW132473   9.230   6.040   1.385
44149SOL    HW232474   9.185   5.896   1.322
44150SOL     OW32475   7.703   6.934   0.290
44150SOL    HW132476   7.607   6.935   0.263
44150SOL    HW232477   7.715   6.987   0.374
44151SOL     OW32478   7.553   6.599   1.726
44151SOL    HW132479   7.476   6.566   1.780
44151SOL    HW232480   7.638   6.569   1.768
44152SOL     OW32481   8.120   5.789   1.489
44152SOL    HW132482   8.210   5.773   1.449
44152SOL    HW232483   8.128   5.794   1.588
44153SOL     OW32484   7.523   5.931   0.033
44153SOL    HW132485   7.431   5.903   0.004
44153SOL    HW232486   7.554   6.008  -0.023
44154SOL     OW32487   8.888   6.442   1.398
44154SOL    HW132488   8.831   6.494   1.335
44154SOL    HW232489   8.984   6.454   1.374
44155SOL     OW32490   7.520   5.752   0.318
44155SOL    HW132491   7.503   5.835   0.264
44155SOL    HW232492   7.610   5.715   0.296
44156SOL     OW32493   8.631   6.921   0.119
44156SOL    HW132494   8.532   6.910   0.121
44156SOL    HW232495   8.665   6.936   0.212
44157SOL     OW32496   8.061   6.428   1.431
44157SOL    HW132497   8.117   6.509   1.414
44157SOL    HW232498   8.120   6.348   1.434
44158SOL     OW32499   8.941   7.353   0.959
44158SOL    HW132500   8.974   7.417   0.890
44158SOL    HW232501   9.007   7.347   1.034
44159SOL     OW32502   8.164   6.151   1.708
44159SOL    HW132503   8.183   6.216   1.782
44159SOL    HW232504   8.224   6.071   1.717
44160SOL     OW32505   8.898   6.806   1.633
44160SOL    HW132506   8.889   6.796   1.732
44160SOL    HW232507   8.994   6.799   1.607
44161SOL     OW32508   7.838   7.327   1.560
44161SOL    HW132509   7.747   7.368   1.558
44161SOL    HW232510   7.831   7.233   1.592
44162SOL     OW32511   9.122   6.469   1.254
44162SOL    HW132512   9.095   6.380   1.217
44162SOL    HW232513   9.123   6.537   1.181
44163SOL     OW32514   8.673   5.911   0.449
44163SOL    HW132515   8.738   5.837   0.438
44163SOL    HW232516   8.693   5.961   0.533
44164SOL     OW32517   8.042   6.331   0.652
44164SOL    HW132518   8.092   6.416   0.633
44164SOL    HW232519   7.954   6.333   0.604
44165SOL     OW32520   9.225   5.928   1.642
44165SOL    HW132521   9.208   5.959   1.548
44165SOL    HW232522   9.141   5.891   1.680
44166SOL     OW32523   9.178   6.520   1.517
44166SOL    HW132524   9.216   6.611   1.532
44166SOL    HW232525   9.170   6.503   1.418
44167SOL     OW32526   8.307   6.960   0.016
44167SOL    HW132527   8.261   6.975   0.104
44167SOL    HW232528   8.351   7.045  -0.014
44168SOL     OW32529   8.109   7.376   0.953
44168SOL    HW132530   8.063   7.464   0.940
44168SOL    HW232531   8.208   7.388   0.946
44169SOL     OW32532   8.307   6.542   0.861
44169SOL    HW132533   8.361   6.473   0.909
44169SOL    HW232534   8.275   6.611   0.927
44170SOL     OW32535   8.531   6.570   0.087
44170SOL    HW132536   8.508   6.623   0.005
44170SOL    HW232537   8.612   6.514   0.068
44171SOL     OW32538   9.309   7.155   0.851
44171SOL    HW132539   9.238   7.143   0.781
44171SOL    HW232540   9.310   7.076   0.911
44172SOL     OW32541   7.669   6.900   1.844
44172SOL    HW132542   7.604   6.827   1.823
44172SOL    HW232543   7.673   6.914   1.942
44173SOL     OW32544   7.527   6.826   0.653
44173SOL    HW132545   7.526   6.779   0.741
44173SOL    HW232546   7.609   6.798   0.602
44174SOL     OW32547   8.120   6.977   1.624
44174SOL    HW132548   8.042   6.927   1.662
44174SOL    HW232549   8.117   7.072   1.655
44175SOL     OW32550   9.272   5.778   1.227
44175SOL    HW132551   9.268   5.688   1.271
44175SOL    HW232552   9.275   5.767   1.128
44176SOL     OW32553   7.876   6.010   0.520
44176SOL    HW132554   7.906   5.938   0.458
44176SOL    HW232555   7.837   5.970   0.603
44177SOL     OW32556   9.153   7.073   1.104
44177SOL    HW132557   9.060   7.048   1.077
44177SOL    HW232558   9.179   7.023   1.186
44178SOL     OW32559   7.765   6.133   1.280
44178SOL    HW132560   7.803   6.074   1.352
44178SOL    HW232561   7.805   6.107   1.192
44179SOL     OW32562   8.260   7.172   0.687
44179SOL    HW132563   8.292   7.182   0.593
44179SOL    HW232564   8.181   7.110   0.689
44180SOL     OW32565   8.872   5.800   1.112
44180SOL    HW132566   8.924   5.735   1.167
44180SOL    HW232567   8.823   5.863   1.173
44181SOL     OW32568   8.449   5.620   1.154
44181SOL    HW132569   8.386   5.548   1.123
44181SOL    HW232570   8.542   5.584   1.154
44182SOL     OW32571   8.218   6.916   0.301
44182SOL    HW132572   8.172   6.829   0.318
44182SOL    HW232573   8.309   6.913   0.342
44183SOL     OW32574   8.066   7.153   1.284
44183SOL    HW132575   8.061   7.235   1.341
44183SOL    HW232576   8.155   7.150   1.239
44184SOL     OW32577   8.800   5.638   0.168
44184SOL    HW132578   8.835   5.597   0.084
44184SOL    HW232579   8.710   5.600   0.188
44185SOL     OW32580   8.748   6.039   0.691
44185SOL    HW132581   8.689   6.119   0.695
44185SOL    HW232582   8.763   6.004   0.784
44186SOL     OW32583   9.041   5.807   0.882
44186SOL    HW132584   8.957   5.806   0.936
44186SOL    HW232585   9.043   5.890   0.826
44187SOL     OW32586   7.487   6.663   0.300
44187SOL    HW132587   7.586   6.652   0.291
44187SOL    HW232588   7.447   6.577   0.332
44188SOL     OW32589   8.323   7.232   0.337
44188SOL    HW132590   8.246   7.197   0.283
44188SOL    HW232591   8.291   7.303   0.399
44189SOL     OW32592   7.678   6.214   1.975
44189SOL    HW132593   7.585   6.212   2.012
44189SOL    HW232594   7.679   6.175   1.883
44190SOL     OW32595   7.673   5.861   2.858
44190SOL    HW132596   7.708   5.844   2.950
44190SOL    HW232597   7.585   5.816   2.846
44191SOL     OW32598   7.467   5.954   2.509
44191SOL    HW132599   7.385   5.997   2.548
44191SOL    HW232600   7.439   5.881   2.446
44192SOL     OW32601   8.017   6.861   3.027
44192SOL    HW132602   7.924   6.854   2.990
44192SOL    HW232603   8.028   6.950   3.071
44193SOL     OW32604   9.003   7.097   2.565
44193SOL    HW132605   8.946   7.081   2.646
44193SOL    HW232606   8.944   7.107   2.485
44194SOL     OW32607   8.583   6.289   2.579
44194SOL    HW132608   8.640   6.367   2.554
44194SOL    HW232609   8.523   6.315   2.655
44195SOL     OW32610   9.203   6.193   2.093
44195SOL    HW132611   9.191   6.180   1.994
44195SOL    HW232612   9.173   6.112   2.142
44196SOL     OW32613   8.216   6.730   2.885
44196SOL    HW132614   8.138   6.747   2.945
44196SOL    HW232615   8.250   6.817   2.849
44197SOL     OW32616   8.298   6.384   3.685
44197SOL    HW132617   8.294   6.460   3.750
44197SOL    HW232618   8.320   6.420   3.594
44198SOL     OW32619   8.133   6.598   2.527
44198SOL    HW132620   8.202   6.582   2.597
44198SOL    HW232621   8.060   6.655   2.565
44199SOL     OW32622   8.134   6.747   3.665
44199SOL    HW132623   8.194   6.826   3.679
44199SOL    HW232624   8.048   6.778   3.624
44200SOL     OW32625   7.783   7.021   2.923
44200SOL    HW132626   7.705   6.990   2.870
44200SOL    HW232627   7.841   7.079   2.866
44201SOL     OW32628   8.908   7.091   3.201
44201SOL    HW132629   8.932   7.185   3.227
44201SOL    HW232630   8.892   7.037   3.283
44202SOL     OW32631   7.886   5.978   3.361
44202SOL    HW132632   7.968   5.922   3.370
44202SOL    HW232633   7.805   5.920   3.365
44203SOL     OW32634   9.051   6.033   2.599
44203SOL    HW132635   8.977   6.079   2.549
44203SOL    HW232636   9.102   6.101   2.652
44204SOL     OW32637   7.679   7.299   2.345
44204SOL    HW132638   7.713   7.376   2.399
44204SOL    HW232639   7.723   7.299   2.255
44205SOL     OW32640   8.575   6.927   3.552
44205SOL    HW132641   8.622   6.927   3.640
44205SOL    HW232642   8.527   6.840   3.541
44206SOL     OW32643   7.678   7.020   2.400
44206SOL    HW132644   7.652   7.116   2.400
44206SOL    HW232645   7.607   6.966   2.445
44207SOL     OW32646   7.688   6.677   2.748
44207SOL    HW132647   7.702   6.593   2.800
44207SOL    HW232648   7.633   6.741   2.803
44208SOL     OW32649   8.068   7.372   3.301
44208SOL    HW132650   7.976   7.355   3.336
44208SOL    HW232651   8.096   7.464   3.327
44209SOL     OW32652   8.054   6.550   1.985
44209SOL    HW132653   8.061   6.634   1.931
44209SOL    HW232654   8.100   6.563   2.073
44210SOL     OW32655   9.042   5.700   3.342
44210SOL    HW132656   9.024   5.767   3.270
44210SOL    HW232657   9.039   5.746   3.431
44211SOL     OW32658   7.570   6.229   2.425
44211SOL    HW132659   7.525   6.141   2.442
44211SOL    HW232660   7.569   6.283   2.509
44212SOL     OW32661   9.290   7.353   2.221
44212SOL    HW132662   9.344   7.324   2.301
44212SOL    HW232663   9.320   7.443   2.192
44213SOL     OW32664   7.475   7.182   1.979
44213SOL    HW132665   7.456   7.086   2.000
44213SOL    HW232666   7.442   7.240   2.054
44214SOL     OW32667   9.137   6.508   2.474
44214SOL    HW132668   9.232   6.479   2.482
44214SOL    HW232669   9.129   6.573   2.399
44215SOL     OW32670   9.089   6.694   2.294
44215SOL    HW132671   9.175   6.696   2.242
44215SOL    HW232672   9.103   6.741   2.382
44216SOL     OW32673   7.561   6.323   3.459
44216SOL    HW132674   7.649   6.310   3.504
44216SOL    HW232675   7.548   6.420   3.437
44217SOL     OW32676   8.061   6.951   2.588
44217SOL    HW132677   8.012   6.864   2.597
44217SOL    HW232678   8.038   6.994   2.501
44218SOL     OW32679   8.741   6.814   3.285
44218SOL    HW132680   8.778   6.741   3.227
44218SOL    HW232681   8.793   6.819   3.370
44219SOL     OW32682   8.257   5.590   2.364
44219SOL    HW132683   8.297   5.681   2.355
44219SOL    HW232684   8.157   5.598   2.370
44220SOL     OW32685   7.645   6.562   3.126
44220SOL    HW132686   7.734   6.517   3.112
44220SOL    HW232687   7.572   6.497   3.107
44221SOL     OW32688   8.973   6.585   2.052
44221SOL    HW132689   8.910   6.509   2.065
44221SOL    HW232690   9.021   6.603   2.138
44222SOL     OW32691   8.635   7.378   3.478
44222SOL    HW132692   8.659   7.438   3.402
44222SOL    HW232693   8.642   7.283   3.448
44223SOL     OW32694   7.765   5.837   3.663
44223SOL    HW132695   7.836   5.908   3.669
44223SOL    HW232696   7.677   5.876   3.691
44224SOL     OW32697   8.914   7.003   2.815
44224SOL    HW132698   8.855   7.009   2.895
44224SOL    HW232699   8.899   6.915   2.769
44225SOL     OW32700   9.115   7.300   2.434
44225SOL    HW132701   9.074   7.277   2.346
44225SOL    HW232702   9.097   7.226   2.499
44226SOL     OW32703   8.046   6.315   2.132
44226SOL    HW132704   8.070   6.384   2.064
44226SOL    HW232705   7.968   6.348   2.186
44227SOL     OW32706   8.729   5.931   2.806
44227SOL    HW132707   8.643   5.881   2.793
44227SOL    HW232708   8.791   5.877   2.862
44228SOL     OW32709   9.024   7.248   2.169
44228SOL    HW132710   9.113   7.294   2.172
44228SOL    HW232711   9.003   7.224   2.074
44229SOL     OW32712   8.255   6.191   3.327
44229SOL    HW132713   8.208   6.188   3.416
44229SOL    HW232714   8.204   6.136   3.261
44230SOL     OW32715   8.842   6.055   3.536
44230SOL    HW132716   8.822   6.098   3.624
44230SOL    HW232717   8.920   5.993   3.545
44231SOL     OW32718   8.421   6.476   3.434
44231SOL    HW132719   8.467   6.392   3.405
44231SOL    HW232720   8.365   6.510   3.359
44232SOL     OW32721   8.439   5.996   3.104
44232SOL    HW132722   8.362   6.030   3.158
44232SOL    HW232723   8.405   5.945   3.025
44233SOL     OW32724   8.489   6.287   2.291
44233SOL    HW132725   8.515   6.283   2.387
44233SOL    HW232726   8.404   6.236   2.277
44234SOL     OW32727   7.524   6.397   2.651
44234SOL    HW132728   7.623   6.385   2.660
44234SOL    HW232729   7.500   6.492   2.672
44235SOL     OW32730   7.578   7.407   3.433
44235SOL    HW132731   7.568   7.392   3.532
44235SOL    HW232732   7.492   7.443   3.397
44236SOL     OW32733   8.313   5.934   2.057
44236SOL    HW132734   8.372   5.997   2.008
44236SOL    HW232735   8.332   5.840   2.028
44237SOL     OW32736   9.167   6.171   3.693
44237SOL    HW132737   9.141   6.260   3.657
44237SOL    HW232738   9.165   6.103   3.620
44238SOL     OW32739   8.810   6.730   2.407
44238SOL    HW132740   8.893   6.701   2.359
44238SOL    HW232741   8.761   6.797   2.351
44239SOL     OW32742   7.998   5.782   2.747
44239SOL    HW132743   7.993   5.777   2.847
44239SOL    HW232744   8.000   5.878   2.718
44240SOL     OW32745   8.456   7.042   2.339
44240SOL    HW132746   8.410   7.114   2.287
44240SOL    HW232747   8.452   7.062   2.437
44241SOL     OW32748   7.799   7.387   2.715
44241SOL    HW132749   7.849   7.301   2.721
44241SOL    HW232750   7.864   7.464   2.712
44242SOL     OW32751   9.243   6.652   2.735
44242SOL    HW132752   9.181   6.637   2.659
44242SOL    HW232753   9.191   6.663   2.820
44243SOL     OW32754   8.675   7.136   3.368
44243SOL    HW132755   8.681   7.059   3.432
44243SOL    HW232756   8.623   7.110   3.288
44244SOL     OW32757   7.769   6.529   2.104
44244SOL    HW132758   7.851   6.568   2.062
44244SOL    HW232759   7.742   6.447   2.055
44245SOL     OW32760   8.906   6.321   2.590
44245SOL    HW132761   8.901   6.256   2.665
44245SOL    HW232762   8.986   6.380   2.603
44246SOL     OW32763   7.909   6.852   3.589
44246SOL    HW132764   7.859   6.853   3.503
44246SOL    HW232765   7.846   6.834   3.665
44247SOL     OW32766   8.559   7.362   2.099
44247SOL    HW132767   8.499   7.300   2.149
44247SOL    HW232768   8.590   7.318   2.014
44248SOL     OW32769   7.650   5.871   3.360
44248SOL    HW132770   7.570   5.931   3.347
44248SOL    HW232771   7.640   5.822   3.446
44249SOL     OW32772   9.080   6.963   1.943
44249SOL    HW132773   9.048   7.057   1.933
44249SOL    HW232774   9.004   6.900   1.931
44250SOL     OW32775   7.912   7.329   2.185
44250SOL    HW132776   7.945   7.368   2.271
44250SOL    HW232777   7.988   7.322   2.120
44251SOL     OW32778   8.848   5.693   2.288
44251SOL    HW132779   8.824   5.656   2.198
44251SOL    HW232780   8.947   5.709   2.292
44252SOL     OW32781   7.697   7.371   3.103
44252SOL    HW132782   7.754   7.306   3.153
44252SOL    HW232783   7.681   7.338   3.010
44253SOL     OW32784   8.388   7.284   2.766
44253SOL    HW132785   8.468   7.227   2.787
44253SOL    HW232786   8.339   7.244   2.689
44254SOL     OW32787   7.830   6.286   2.342
44254SOL    HW132788   7.875   6.196   2.339
44254SOL    HW232789   7.736   6.275   2.375
44255SOL     OW32790   8.995   5.808   3.591
44255SOL    HW132791   8.990   5.845   3.683
44255SOL    HW232792   8.923   5.739   3.579
44256SOL     OW32793   8.062   5.708   1.979
44256SOL    HW132794   8.160   5.686   1.986
44256SOL    HW232795   8.031   5.691   1.886
44257SOL     OW32796   8.229   5.850   3.611
44257SOL    HW132797   8.296   5.789   3.654
44257SOL    HW232798   8.156   5.869   3.676
44258SOL     OW32799   8.336   7.100   3.057
44258SOL    HW132800   8.313   7.075   2.963
44258SOL    HW232801   8.397   7.031   3.096
44259SOL     OW32802   8.799   6.176   3.295
44259SOL    HW132803   8.827   6.133   3.380
44259SOL    HW232804   8.824   6.272   3.296
44260SOL     OW32805   8.251   6.988   2.786
44260SOL    HW132806   8.341   7.002   2.744
44260SOL    HW232807   8.180   6.990   2.715
44261SOL     OW32808   8.370   6.089   2.761
44261SOL    HW132809   8.345   6.080   2.665
44261SOL    HW232810   8.418   6.007   2.792
44262SOL     OW32811   7.987   5.650   2.374
44262SOL    HW132812   7.906   5.651   2.432
44262SOL    HW232813   7.990   5.733   2.319
44263SOL     OW32814   8.882   6.774   1.903
44263SOL    HW132815   8.914   6.698   1.960
44263SOL    HW232816   8.790   6.801   1.933
44264SOL     OW32817   7.745   5.621   2.033
44264SOL    HW132818   7.794   5.705   2.012
44264SOL    HW232819   7.807   5.556   2.078
44265SOL     OW32820   8.383   5.822   2.342
44265SOL    HW132821   8.335   5.863   2.264
44265SOL    HW232822   8.482   5.820   2.323
44266SOL     OW32823   8.524   6.269   3.326
44266SOL    HW132824   8.444   6.208   3.329
44266SOL    HW232825   8.605   6.216   3.302
44267SOL     OW32826   8.675   7.156   2.655
44267SOL    HW132827   8.696   7.230   2.590
44267SOL    HW232828   8.743   7.156   2.728
44268SOL     OW32829   7.907   6.738   2.603
44268SOL    HW132830   7.836   6.711   2.668
44268SOL    HW232831   7.881   6.710   2.510
44269SOL     OW32832   8.719   7.383   2.453
44269SOL    HW132833   8.763   7.447   2.389
44269SOL    HW232834   8.669   7.435   2.523
44270SOL     OW32835   8.480   6.135   1.878
44270SOL    HW132836   8.439   6.217   1.839
44270SOL    HW232837   8.544   6.161   1.951
44271SOL     OW32838   7.526   6.142   3.248
44271SOL    HW132839   7.618   6.141   3.207
44271SOL    HW232840   7.520   6.216   3.315
44272SOL     OW32841   8.009   5.808   3.009
44272SOL    HW132842   8.047   5.724   3.046
44272SOL    HW232843   7.921   5.827   3.053
44273SOL     OW32844   8.314   6.040   2.504
44273SOL    HW132845   8.282   6.112   2.442
44273SOL    HW232846   8.338   5.959   2.451
44274SOL     OW32847   8.465   5.625   2.615
44274SOL    HW132848   8.393   5.630   2.546
44274SOL    HW232849   8.441   5.556   2.684
44275SOL     OW32850   8.877   6.759   2.729
44275SOL    HW132851   8.822   6.675   2.722
44275SOL    HW232852   8.903   6.788   2.637
44276SOL     OW32853   8.914   6.176   2.854
44276SOL    HW132854   8.884   6.081   2.861
44276SOL    HW232855   8.987   6.192   2.920
44277SOL     OW32856   9.305   6.419   2.239
44277SOL    HW132857   9.347   6.355   2.303
44277SOL    HW232858   9.267   6.368   2.161
44278SOL     OW32859   7.936   6.971   2.036
44278SOL    HW132860   7.849   6.956   2.083
44278SOL    HW232861   7.919   6.997   1.941
44279SOL     OW32862   9.112   6.866   2.519
44279SOL    HW132863   9.211   6.874   2.533
44279SOL    HW232864   9.067   6.950   2.550
44280SOL     OW32865   8.838   6.161   1.940
44280SOL    HW132866   8.784   6.140   2.021
44280SOL    HW232867   8.929   6.120   1.949
44281SOL     OW32868   7.975   5.842   2.190
44281SOL    HW132869   8.002   5.783   2.115
44281SOL    HW232870   7.975   5.937   2.159
44282SOL     OW32871   9.202   6.809   3.450
44282SOL    HW132872   9.293   6.770   3.437
44282SOL    HW232873   9.210   6.905   3.474
44283SOL     OW32874   8.512   6.933   3.202
44283SOL    HW132875   8.432   6.910   3.257
44283SOL    HW232876   8.595   6.907   3.251
44284SOL     OW32877   9.040   7.215   3.487
44284SOL    HW132878   9.067   7.249   3.397
44284SOL    HW232879   9.119   7.177   3.533
44285SOL     OW32880   8.559   6.781   2.962
44285SOL    HW132881   8.519   6.825   3.043
44285SOL    HW232882   8.518   6.818   2.879
44286SOL     OW32883   9.086   6.685   2.941
44286SOL    HW132884   9.091   6.766   3.000
44286SOL    HW232885   9.000   6.687   2.890
44287SOL     OW32886   8.363   5.675   3.264
44287SOL    HW132887   8.388   5.655   3.169
44287SOL    HW232888   8.435   5.731   3.306
44288SOL     OW32889   8.428   6.702   3.581
44288SOL    HW132890   8.329   6.708   3.591
44288SOL    HW232891   8.451   6.622   3.525
44289SOL     OW32892   8.153   6.636   2.230
44289SOL    HW132893   8.139   6.643   2.329
44289SOL    HW232894   8.237   6.585   2.212
44290SOL     OW32895   7.858   6.399   3.113
44290SOL    HW132896   7.944   6.411   3.163
44290SOL    HW232897   7.816   6.312   3.140
44291SOL     OW32898   8.722   5.972   3.124
44291SOL    HW132899   8.743   6.046   3.188
44291SOL    HW232900   8.633   5.989   3.081
44292SOL     OW32901   7.512   7.150   3.193
44292SOL    HW132902   7.466   7.232   3.159
44292SOL    HW232903   7.610   7.169   3.202
44293SOL     OW32904   7.815   6.686   2.363
44293SOL    HW132905   7.808   6.769   2.307
44293SOL    HW232906   7.819   6.606   2.303
44294SOL     OW32907   8.014   6.123   2.727
44294SOL    HW132908   8.026   6.189   2.653
44294SOL    HW232909   8.060   6.157   2.810
44295SOL     OW32910   8.700   6.934   2.250
44295SOL    HW132911   8.750   7.011   2.290
44295SOL    HW232912   8.605   6.936   2.282
44296SOL     OW32913   8.720   7.031   3.004
44296SOL    HW132914   8.767   7.044   3.091
44296SOL    HW232915   8.654   6.957   3.013
44297SOL     OW32916   9.030   6.225   2.334
44297SOL    HW132917   8.999   6.286   2.407
44297SOL    HW232918   9.080   6.277   2.265
44298SOL     OW32919   7.802   7.096   3.191
44298SOL    HW132920   7.781   7.052   3.104
44298SOL    HW232921   7.899   7.122   3.194
44299SOL     OW32922   7.850   6.337   3.460
44299SOL    HW132923   7.918   6.392   3.413
44299SOL    HW232924   7.890   6.249   3.487
44300SOL     OW32925   9.035   6.365   3.532
44300SOL    HW132926   8.943   6.403   3.527
44300SOL    HW232927   9.095   6.412   3.467
44301SOL     OW32928   8.461   5.691   3.632
44301SOL    HW132929   8.467   5.776   3.580
44301SOL    HW232930   8.493   5.615   3.575
44302SOL     OW32931   7.952   5.636   3.602
44302SOL    HW132932   7.910   5.579   3.532
44302SOL    HW232933   7.886   5.705   3.634
44303SOL     OW32934   8.021   6.456   2.891
44303SOL    HW132935   8.065   6.545   2.882
44303SOL    HW232936   7.958   6.456   2.968
44304SOL     OW32937   8.808   6.448   2.907
44304SOL    HW132938   8.733   6.448   2.841
44304SOL    HW232939   8.845   6.356   2.916
44305SOL     OW32940   8.657   6.111   2.137
44305SOL    HW132941   8.670   6.027   2.191
44305SOL    HW232942   8.628   6.185   2.197
44306SOL     OW32943   7.755   5.799   3.093
44306SOL    HW132944   7.732   5.836   3.183
44306SOL    HW232945   7.725   5.704   3.087
44307SOL     OW32946   7.485   6.896   3.144
44307SOL    HW132947   7.538   6.847   3.212
44307SOL    HW232948   7.507   6.994   3.149
44308SOL     OW32949   8.180   6.220   2.926
44308SOL    HW132950   8.239   6.194   2.850
44308SOL    HW232951   8.152   6.316   2.915
44309SOL     OW32952   9.176   6.521   3.716
44309SOL    HW132953   9.130   6.514   3.627
44309SOL    HW232954   9.114   6.565   3.782
44310SOL     OW32955   7.755   5.649   2.480
44310SOL    HW132956   7.744   5.743   2.513
44310SOL    HW232957   7.750   5.586   2.557
44311SOL     OW32958   9.070   5.953   2.236
44311SOL    HW132959   9.072   5.877   2.300
44311SOL    HW232960   9.022   6.030   2.276
44312SOL     OW32961   8.471   6.352   2.828
44312SOL    HW132962   8.486   6.373   2.924
44312SOL    HW232963   8.441   6.257   2.819
44313SOL     OW32964   8.428   7.159   3.562
44313SOL    HW132965   8.408   7.203   3.474
44313SOL    HW232966   8.467   7.068   3.546
44314SOL     OW32967   9.307   7.104   3.467
44314SOL    HW132968   9.321   7.131   3.372
44314SOL    HW232969   9.390   7.126   3.520
44315SOL     OW32970   7.798   6.484   3.666
44315SOL    HW132971   7.874   6.528   3.714
44315SOL    HW232972   7.833   6.437   3.584
44316SOL     OW32973   8.988   5.860   1.987
44316SOL    HW132974   8.927   5.785   2.010
44316SOL    HW232975   9.010   5.912   2.070
44317SOL     OW32976   8.751   6.424   1.904
44317SOL    HW132977   8.785   6.331   1.919
44317SOL    HW232978   8.769   6.451   1.809
44318SOL     OW32979   8.516   6.919   2.711
44318SOL    HW132980   8.523   6.835   2.656
44318SOL    HW232981   8.578   6.988   2.675
44319SOL     OW32982   7.767   6.396   2.811
44319SOL    HW132983   7.860   6.432   2.816
44319SOL    HW232984   7.761   6.311   2.863
44320SOL     OW32985   7.787   6.095   2.868
44320SOL    HW132986   7.735   6.012   2.851
44320SOL    HW232987   7.864   6.100   2.804
44321SOL     OW32988   8.586   5.966   3.540
44321SOL    HW132989   8.541   6.029   3.604
44321SOL    HW232990   8.679   5.997   3.523
44322SOL     OW32991   8.608   5.793   3.339
44322SOL    HW132992   8.608   5.857   3.416
44322SOL    HW232993   8.636   5.841   3.256
44323SOL     OW32994   7.456   6.912   2.062
44323SOL    HW132995   7.363   6.933   2.031
44323SOL    HW232996   7.466   6.813   2.075
44324SOL     OW32997   7.536   7.387   2.789
44324SOL    HW132998   7.494   7.301   2.762
44324SOL    HW232999   7.630   7.390   2.755
44325SOL     OW33000   7.952   7.154   2.772
44325SOL    HW133001   8.018   7.228   2.781
44325SOL    HW233002   7.996   7.075   2.730
44326SOL     OW33003   8.450   6.382   3.100
44326SOL    HW133004   8.491   6.350   3.186
44326SOL    HW233005   8.354   6.355   3.097
44327SOL     OW33006   7.488   6.130   2.976
44327SOL    HW133007   7.573   6.097   2.935
44327SOL    HW233008   7.501   6.145   3.074
44328SOL     OW33009   7.637   6.106   3.584
44328SOL    HW133010   7.696   6.066   3.514
44328SOL    HW233011   7.579   6.177   3.543
44329SOL     OW33012   8.817   6.536   3.522
44329SOL    HW133013   8.856   6.625   3.542
44329SOL    HW233014   8.827   6.516   3.425
44330SOL     OW33015   8.263   6.158   2.187
44330SOL    HW133016   8.270   6.069   2.141
44330SOL    HW233017   8.169   6.192   2.179
44331SOL     OW33018   9.105   6.190   3.068
44331SOL    HW133019   9.067   6.121   3.130
44331SOL    HW233020   9.187   6.154   3.024
44332SOL     OW33021   7.700   7.150   3.606
44332SOL    HW133022   7.670   7.207   3.682
44332SOL    HW233023   7.693   7.053   3.632
44333SOL     OW33024   8.119   6.050   3.131
44333SOL    HW133025   8.085   5.961   3.101
44333SOL    HW233026   8.145   6.104   3.051
44334SOL     OW33027   8.378   7.264   3.327
44334SOL    HW133028   8.354   7.246   3.232
44334SOL    HW233029   8.408   7.358   3.337
44335SOL     OW33030   7.921   6.086   2.053
44335SOL    HW133031   7.982   6.166   2.057
44335SOL    HW233032   7.826   6.117   2.060
44336SOL     OW33033   7.607   6.723   3.328
44336SOL    HW133034   7.629   6.662   3.404
44336SOL    HW233035   7.617   6.674   3.242
44337SOL     OW33036   8.795   6.645   3.096
44337SOL    HW133037   8.819   6.582   3.022
44337SOL    HW233038   8.705   6.685   3.078
44338SOL     OW33039   8.750   6.441   2.171
44338SOL    HW133040   8.664   6.410   2.213
44338SOL    HW233041   8.746   6.427   2.072
44339SOL     OW33042   9.207   7.333   3.016
44339SOL    HW133043   9.268   7.363   2.943
44339SOL    HW233044   9.169   7.244   2.994
44340SOL     OW33045   8.700   7.317   2.990
44340SOL    HW133046   8.784   7.322   2.936
44340SOL    HW233047   8.677   7.221   3.008
44341SOL     OW33048   7.531   6.844   2.884
44341SOL    HW133049   7.526   6.843   2.984
44341SOL    HW233050   7.448   6.803   2.846
44342SOL     OW33051   8.136   7.248   3.578
44342SOL    HW133052   8.080   7.329   3.587
44342SOL    HW233053   8.188   7.252   3.492
44343SOL     OW33054   9.174   5.721   2.385
44343SOL    HW133055   9.247   5.704   2.318
44343SOL    HW233056   9.143   5.634   2.423
44344SOL     OW33057   8.836   7.159   2.339
44344SOL    HW133058   8.903   7.171   2.265
44344SOL    HW233059   8.796   7.248   2.362
44345SOL     OW33060   7.578   7.380   3.713
44345SOL    HW133061   7.537   7.306   3.766
44345SOL    HW233062   7.642   7.431   3.771
44346SOL     OW33063   8.728   6.513   2.534
44346SOL    HW133064   8.788   6.432   2.536
44346SOL    HW233065   8.768   6.582   2.474
44347SOL     OW33066   8.278   6.859   3.284
44347SOL    HW133067   8.273   6.892   3.379
44347SOL    HW233068   8.192   6.878   3.238
44348SOL     OW33069   8.120   7.202   2.016
44348SOL    HW133070   8.129   7.212   1.917
44348SOL    HW233071   8.080   7.113   2.037
44349SOL     OW33072   9.098   7.306   3.256
44349SOL    HW133073   9.151   7.316   3.172
44349SOL    HW233074   9.071   7.396   3.290
44350SOL     OW33075   9.289   5.761   2.825
44350SOL    HW133076   9.328   5.676   2.789
44350SOL    HW233077   9.191   5.763   2.806
44351SOL     OW33078   7.711   5.912   2.582
44351SOL    HW133079   7.632   5.963   2.548
44351SOL    HW233080   7.702   5.897   2.680
44352SOL     OW33081   8.642   7.198   1.893
44352SOL    HW133082   8.648   7.105   1.930
44352SOL    HW233083   8.583   7.198   1.813
44353SOL     OW33084   8.270   6.588   3.234
44353SOL    HW133085   8.310   6.587   3.142
44353SOL    HW233086   8.280   6.680   3.274
44354SOL     OW33087   8.364   6.496   2.153
44354SOL    HW133088   8.427   6.534   2.085
44354SOL    HW233089   8.404   6.413   2.192
44355SOL     OW33090   8.952   7.193   1.906
44355SOL    HW133091   8.860   7.230   1.913
44355SOL    HW233092   8.990   7.213   1.816
44356SOL     OW33093   7.820   6.874   3.352
44356SOL    HW133094   7.807   6.967   3.318
44356SOL    HW233095   7.736   6.822   3.339
44357SOL     OW33096   9.062   6.878   3.151
44357SOL    HW133097   9.122   6.881   3.231
44357SOL    HW233098   8.987   6.942   3.164
44358SOL     OW33099   8.487   6.684   2.558
44358SOL    HW133100   8.417   6.637   2.612
44358SOL    HW233101   8.546   6.616   2.515
44359SOL     OW33102   8.462   5.822   2.833
44359SOL    HW133103   8.454   5.786   2.740
44359SOL    HW233104   8.460   5.746   2.898
44360SOL     OW33105   8.038   7.073   2.353
44360SOL    HW133106   8.080   7.015   2.283
44360SOL    HW233107   7.994   7.152   2.309
44361SOL     OW33108   9.157   5.971   3.243
44361SOL    HW133109   9.230   6.040   3.247
44361SOL    HW233110   9.185   5.896   3.184
44362SOL     OW33111   7.703   6.934   2.152
44362SOL    HW133112   7.607   6.935   2.125
44362SOL    HW233113   7.715   6.987   2.236
44363SOL     OW33114   7.553   6.599   3.588
44363SOL    HW133115   7.476   6.566   3.642
44363SOL    HW233116   7.638   6.569   3.630
44364SOL     OW33117   8.120   5.789   3.351
44364SOL    HW133118   8.210   5.773   3.311
44364SOL    HW233119   8.128   5.794   3.450
44365SOL     OW33120   7.523   5.931   1.895
44365SOL    HW133121   7.431   5.903   1.866
44365SOL    HW233122   7.554   6.008   1.839
44366SOL     OW33123   8.888   6.442   3.260
44366SOL    HW133124   8.831   6.494   3.197
44366SOL    HW233125   8.984   6.454   3.236
44367SOL     OW33126   7.520   5.752   2.180
44367SOL    HW133127   7.503   5.835   2.126
44367SOL    HW233128   7.610   5.715   2.158
44368SOL     OW33129   8.631   6.921   1.981
44368SOL    HW133130   8.532   6.910   1.983
44368SOL    HW233131   8.665   6.936   2.074
44369SOL     OW33132   8.061   6.428   3.293
44369SOL    HW133133   8.117   6.509   3.276
44369SOL    HW233134   8.120   6.348   3.296
44370SOL     OW33135   8.941   7.353   2.821
44370SOL    HW133136   8.974   7.417   2.752
44370SOL    HW233137   9.007   7.347   2.896
44371SOL     OW33138   8.164   6.151   3.570
44371SOL    HW133139   8.183   6.216   3.644
44371SOL    HW233140   8.224   6.071   3.579
44372SOL     OW33141   8.898   6.806   3.495
44372SOL    HW133142   8.889   6.796   3.594
44372SOL    HW233143   8.994   6.799   3.469
44373SOL     OW33144   7.838   7.327   3.422
44373SOL    HW133145   7.747   7.368   3.420
44373SOL    HW233146   7.831   7.233   3.454
44374SOL     OW33147   9.122   6.469   3.116
44374SOL    HW133148   9.095   6.380   3.079
44374SOL    HW233149   9.123   6.537   3.043
44375SOL     OW33150   8.673   5.911   2.311
44375SOL    HW133151   8.738   5.837   2.300
44375SOL    HW233152   8.693   5.961   2.395
44376SOL     OW33153   8.042   6.331   2.514
44376SOL    HW133154   8.092   6.416   2.495
44376SOL    HW233155   7.954   6.333   2.466
44377SOL     OW33156   9.225   5.928   3.504
44377SOL    HW133157   9.208   5.959   3.410
44377SOL    HW233158   9.141   5.891   3.542
44378SOL     OW33159   9.178   6.520   3.379
44378SOL    HW133160   9.216   6.611   3.394
44378SOL    HW233161   9.170   6.503   3.280
44379SOL     OW33162   8.307   6.960   1.878
44379SOL    HW133163   8.261   6.975   1.966
44379SOL    HW233164   8.351   7.045   1.848
44380SOL     OW33165   8.109   7.376   2.815
44380SOL    HW133166   8.063   7.464   2.802
44380SOL    HW233167   8.208   7.388   2.808
44381SOL     OW33168   8.307   6.542   2.723
44381SOL    HW133169   8.361   6.473   2.771
44381SOL    HW233170   8.275   6.611   2.789
44382SOL     OW33171   8.531   6.570   1.949
44382SOL    HW133172   8.508   6.623   1.867
44382SOL    HW233173   8.612   6.514   1.930
44383SOL     OW33174   9.309   7.155   2.713
44383SOL    HW133175   9.238   7.143   2.643
44383SOL    HW233176   9.310   7.076   2.773
44384SOL     OW33177   7.669   6.900   3.706
44384SOL    HW133178   7.604   6.827   3.685
44384SOL    HW233179   7.673   6.914   3.804
44385SOL     OW33180   7.527   6.826   2.515
44385SOL    HW133181   7.526   6.779   2.603
44385SOL    HW233182   7.609   6.798   2.464
44386SOL     OW33183   8.120   6.977   3.486
44386SOL    HW133184   8.042   6.927   3.524
44386SOL    HW233185   8.117   7.072   3.517
44387SOL     OW33186   9.272   5.778   3.089
44387SOL    HW133187   9.268   5.688   3.133
44387SOL    HW233188   9.275   5.767   2.990
44388SOL     OW33189   7.876   6.010   2.382
44388SOL    HW133190   7.906   5.938   2.320
44388SOL    HW233191   7.837   5.970   2.465
44389SOL     OW33192   9.153   7.073   2.966
44389SOL    HW133193   9.060   7.048   2.939
44389SOL    HW233194   9.179   7.023   3.048
44390SOL     OW33195   7.765   6.133   3.142
44390SOL    HW133196   7.803   6.074   3.214
44390SOL    HW233197   7.805   6.107   3.054
44391SOL     OW33198   8.260   7.172   2.549
44391SOL    HW133199   8.292   7.182   2.455
44391SOL    HW233200   8.181   7.110   2.551
44392SOL     OW33201   8.872   5.800   2.974
44392SOL    HW133202   8.924   5.735   3.029
44392SOL    HW233203   8.823   5.863   3.035
44393SOL     OW33204   8.449   5.620   3.016
44393SOL    HW133205   8.386   5.548   2.985
44393SOL    HW233206   8.542   5.584   3.016
44394SOL     OW33207   8.218   6.916   2.163
44394SOL    HW133208   8.172   6.829   2.180
44394SOL    HW233209   8.309   6.913   2.204
44395SOL     OW33210   8.066   7.153   3.146
44395SOL    HW133211   8.061   7.235   3.203
44395SOL    HW233212   8.155   7.150   3.101
44396SOL     OW33213   8.800   5.638   2.030
44396SOL    HW133214   8.835   5.597   1.946
44396SOL    HW233215   8.710   5.600   2.050
44397SOL     OW33216   8.748   6.039   2.553
44397SOL    HW133217   8.689   6.119   2.557
44397SOL    HW233218   8.763   6.004   2.646
44398SOL     OW33219   9.041   5.807   2.744
44398SOL    HW133220   8.957   5.806   2.798
44398SOL    HW233221   9.043   5.890   2.688
44399SOL     OW33222   7.487   6.663   2.162
44399SOL    HW133223   7.586   6.652   2.153
44399SOL    HW233224   7.447   6.577   2.194
44400SOL     OW33225   8.323   7.232   2.199
44400SOL    HW133226   8.246   7.197   2.145
44400SOL    HW233227   8.291   7.303   2.261
44401SOL     OW33228   7.678   6.214   3.837
44401SOL    HW133229   7.585   6.212   3.874
44401SOL    HW233230   7.679   6.175   3.745
44402SOL     OW33231   7.673   5.861   4.720
44402SOL    HW133232   7.708   5.844   4.812
44402SOL    HW233233   7.585   5.816   4.708
44403SOL     OW33234   7.467   5.954   4.371
44403SOL    HW133235   7.385   5.997   4.410
44403SOL    HW233236   7.439   5.881   4.308
44404SOL     OW33237   8.017   6.861   4.889
44404SOL    HW133238   7.924   6.854   4.852
44404SOL    HW233239   8.028   6.950   4.933
44405SOL     OW33240   9.003   7.097   4.427
44405SOL    HW133241   8.946   7.081   4.508
44405SOL    HW233242   8.944   7.107   4.347
44406SOL     OW33243   8.583   6.289   4.441
44406SOL    HW133244   8.640   6.367   4.416
44406SOL    HW233245   8.523   6.315   4.517
44407SOL     OW33246   9.203   6.193   3.955
44407SOL    HW133247   9.191   6.180   3.856
44407SOL    HW233248   9.173   6.112   4.004
44408SOL     OW33249   8.216   6.730   4.747
44408SOL    HW133250   8.138   6.747   4.807
44408SOL    HW233251   8.250   6.817   4.711
44409SOL     OW33252   8.298   6.384   5.547
44409SOL    HW133253   8.294   6.460   5.612
44409SOL    HW233254   8.320   6.420   5.456
44410SOL     OW33255   8.133   6.598   4.389
44410SOL    HW133256   8.202   6.582   4.459
44410SOL    HW233257   8.060   6.655   4.427
44411SOL     OW33258   8.134   6.747   5.527
44411SOL    HW133259   8.194   6.826   5.541
44411SOL    HW233260   8.048   6.778   5.486
44412SOL     OW33261   7.783   7.021   4.785
44412SOL    HW133262   7.705   6.990   4.732
44412SOL    HW233263   7.841   7.079   4.728
44413SOL     OW33264   8.908   7.091   5.063
44413SOL    HW133265   8.932   7.185   5.089
44413SOL    HW233266   8.892   7.037   5.145
44414SOL     OW33267   7.886   5.978   5.223
44414SOL    HW133268   7.968   5.922   5.232
44414SOL    HW233269   7.805   5.920   5.227
44415SOL     OW33270   9.051   6.033   4.461
44415SOL    HW133271   8.977   6.079   4.411
44415SOL    HW233272   9.102   6.101   4.514
44416SOL     OW33273   7.679   7.299   4.207
44416SOL    HW133274   7.713   7.376   4.261
44416SOL    HW233275   7.723   7.299   4.117
44417SOL     OW33276   8.575   6.927   5.414
44417SOL    HW133277   8.622   6.927   5.502
44417SOL    HW233278   8.527   6.840   5.403
44418SOL     OW33279   7.678   7.020   4.262
44418SOL    HW133280   7.652   7.116   4.262
44418SOL    HW233281   7.607   6.966   4.307
44419SOL     OW33282   7.688   6.677   4.610
44419SOL    HW133283   7.702   6.593   4.662
44419SOL    HW233284   7.633   6.741   4.665
44420SOL     OW33285   8.068   7.372   5.163
44420SOL    HW133286   7.976   7.355   5.198
44420SOL    HW233287   8.096   7.464   5.189
44421SOL     OW33288   8.054   6.550   3.847
44421SOL    HW133289   8.061   6.634   3.793
44421SOL    HW233290   8.100   6.563   3.935
44422SOL     OW33291   9.042   5.700   5.204
44422SOL    HW133292   9.024   5.767   5.132
44422SOL    HW233293   9.039   5.746   5.293
44423SOL     OW33294   7.570   6.229   4.287
44423SOL    HW133295   7.525   6.141   4.304
44423SOL    HW233296   7.569   6.283   4.371
44424SOL     OW33297   9.290   7.353   4.083
44424SOL    HW133298   9.344   7.324   4.163
44424SOL    HW233299   9.320   7.443   4.054
44425SOL     OW33300   7.475   7.182   3.841
44425SOL    HW133301   7.456   7.086   3.862
44425SOL    HW233302   7.442   7.240   3.916
44426SOL     OW33303   9.137   6.508   4.336
44426SOL    HW133304   9.232   6.479   4.344
44426SOL    HW233305   9.129   6.573   4.261
44427SOL     OW33306   9.089   6.694   4.156
44427SOL    HW133307   9.175   6.696   4.104
44427SOL    HW233308   9.103   6.741   4.244
44428SOL     OW33309   7.561   6.323   5.321
44428SOL    HW133310   7.649   6.310   5.366
44428SOL    HW233311   7.548   6.420   5.299
44429SOL     OW33312   8.061   6.951   4.450
44429SOL    HW133313   8.012   6.864   4.459
44429SOL    HW233314   8.038   6.994   4.363
44430SOL     OW33315   8.741   6.814   5.147
44430SOL    HW133316   8.778   6.741   5.089
44430SOL    HW233317   8.793   6.819   5.232
44431SOL     OW33318   8.257   5.590   4.226
44431SOL    HW133319   8.297   5.681   4.217
44431SOL    HW233320   8.157   5.598   4.232
44432SOL     OW33321   7.645   6.562   4.988
44432SOL    HW133322   7.734   6.517   4.974
44432SOL    HW233323   7.572   6.497   4.969
44433SOL     OW33324   8.973   6.585   3.914
44433SOL    HW133325   8.910   6.509   3.927
44433SOL    HW233326   9.021   6.603   4.000
44434SOL     OW33327   8.635   7.378   5.340
44434SOL    HW133328   8.659   7.438   5.264
44434SOL    HW233329   8.642   7.283   5.310
44435SOL     OW33330   7.765   5.837   5.525
44435SOL    HW133331   7.836   5.908   5.531
44435SOL    HW233332   7.677   5.876   5.553
44436SOL     OW33333   8.914   7.003   4.677
44436SOL    HW133334   8.855   7.009   4.757
44436SOL    HW233335   8.899   6.915   4.631
44437SOL     OW33336   9.115   7.300   4.296
44437SOL    HW133337   9.074   7.277   4.208
44437SOL    HW233338   9.097   7.226   4.361
44438SOL     OW33339   8.046   6.315   3.994
44438SOL    HW133340   8.070   6.384   3.926
44438SOL    HW233341   7.968   6.348   4.048
44439SOL     OW33342   8.729   5.931   4.668
44439SOL    HW133343   8.643   5.881   4.655
44439SOL    HW233344   8.791   5.877   4.724
44440SOL     OW33345   9.024   7.248   4.031
44440SOL    HW133346   9.113   7.294   4.034
44440SOL    HW233347   9.003   7.224   3.936
44441SOL     OW33348   8.255   6.191   5.189
44441SOL    HW133349   8.208   6.188   5.278
44441SOL    HW233350   8.204   6.136   5.123
44442SOL     OW33351   8.842   6.055   5.398
44442SOL    HW133352   8.822   6.098   5.486
44442SOL    HW233353   8.920   5.993   5.407
44443SOL     OW33354   8.421   6.476   5.296
44443SOL    HW133355   8.467   6.392   5.267
44443SOL    HW233356   8.365   6.510   5.221
44444SOL     OW33357   8.439   5.996   4.966
44444SOL    HW133358   8.362   6.030   5.020
44444SOL    HW233359   8.405   5.945   4.887
44445SOL     OW33360   8.489   6.287   4.153
44445SOL    HW133361   8.515   6.283   4.249
44445SOL    HW233362   8.404   6.236   4.139
44446SOL     OW33363   7.524   6.397   4.513
44446SOL    HW133364   7.623   6.385   4.522
44446SOL    HW233365   7.500   6.492   4.534
44447SOL     OW33366   7.578   7.407   5.295
44447SOL    HW133367   7.568   7.392   5.394
44447SOL    HW233368   7.492   7.443   5.259
44448SOL     OW33369   8.313   5.934   3.919
44448SOL    HW133370   8.372   5.997   3.870
44448SOL    HW233371   8.332   5.840   3.890
44449SOL     OW33372   9.167   6.171   5.555
44449SOL    HW133373   9.141   6.260   5.519
44449SOL    HW233374   9.165   6.103   5.482
44450SOL     OW33375   8.810   6.730   4.269
44450SOL    HW133376   8.893   6.701   4.221
44450SOL    HW233377   8.761   6.797   4.213
44451SOL     OW33378   7.998   5.782   4.609
44451SOL    HW133379   7.993   5.777   4.709
44451SOL    HW233380   8.000   5.878   4.580
44452SOL     OW33381   8.456   7.042   4.201
44452SOL    HW133382   8.410   7.114   4.149
44452SOL    HW233383   8.452   7.062   4.299
44453SOL     OW33384   7.799   7.387   4.577
44453SOL    HW133385   7.849   7.301   4.583
44453SOL    HW233386   7.864   7.464   4.574
44454SOL     OW33387   9.243   6.652   4.597
44454SOL    HW133388   9.181   6.637   4.521
44454SOL    HW233389   9.191   6.663   4.682
44455SOL     OW33390   8.675   7.136   5.230
44455SOL    HW133391   8.681   7.059   5.294
44455SOL    HW233392   8.623   7.110   5.150
44456SOL     OW33393   7.769   6.529   3.966
44456SOL    HW133394   7.851   6.568   3.924
44456SOL    HW233395   7.742   6.447   3.917
44457SOL     OW33396   8.906   6.321   4.452
44457SOL    HW133397   8.901   6.256   4.527
44457SOL    HW233398   8.986   6.380   4.465
44458SOL     OW33399   7.909   6.852   5.451
44458SOL    HW133400   7.859   6.853   5.365
44458SOL    HW233401   7.846   6.834   5.527
44459SOL     OW33402   8.559   7.362   3.961
44459SOL    HW133403   8.499   7.300   4.011
44459SOL    HW233404   8.590   7.318   3.876
44460SOL     OW33405   7.650   5.871   5.222
44460SOL    HW133406   7.570   5.931   5.209
44460SOL    HW233407   7.640   5.822   5.308
44461SOL     OW33408   9.080   6.963   3.805
44461SOL    HW133409   9.048   7.057   3.795
44461SOL    HW233410   9.004   6.900   3.793
44462SOL     OW33411   7.912   7.329   4.047
44462SOL    HW133412   7.945   7.368   4.133
44462SOL    HW233413   7.988   7.322   3.982
44463SOL     OW33414   8.848   5.693   4.150
44463SOL    HW133415   8.824   5.656   4.060
44463SOL    HW233416   8.947   5.709   4.154
44464SOL     OW33417   7.697   7.371   4.965
44464SOL    HW133418   7.754   7.306   5.015
44464SOL    HW233419   7.681   7.338   4.872
44465SOL     OW33420   8.388   7.284   4.628
44465SOL    HW133421   8.468   7.227   4.649
44465SOL    HW233422   8.339   7.244   4.551
44466SOL     OW33423   7.830   6.286   4.204
44466SOL    HW133424   7.875   6.196   4.201
44466SOL    HW233425   7.736   6.275   4.237
44467SOL     OW33426   8.995   5.808   5.453
44467SOL    HW133427   8.990   5.845   5.545
44467SOL    HW233428   8.923   5.739   5.441
44468SOL     OW33429   8.062   5.708   3.841
44468SOL    HW133430   8.160   5.686   3.848
44468SOL    HW233431   8.031   5.691   3.748
44469SOL     OW33432   8.229   5.850   5.473
44469SOL    HW133433   8.296   5.789   5.516
44469SOL    HW233434   8.156   5.869   5.538
44470SOL     OW33435   8.336   7.100   4.919
44470SOL    HW133436   8.313   7.075   4.825
44470SOL    HW233437   8.397   7.031   4.958
44471SOL     OW33438   8.799   6.176   5.157
44471SOL    HW133439   8.827   6.133   5.242
44471SOL    HW233440   8.824   6.272   5.158
44472SOL     OW33441   8.251   6.988   4.648
44472SOL    HW133442   8.341   7.002   4.606
44472SOL    HW233443   8.180   6.990   4.577
44473SOL     OW33444   8.370   6.089   4.623
44473SOL    HW133445   8.345   6.080   4.527
44473SOL    HW233446   8.418   6.007   4.654
44474SOL     OW33447   7.987   5.650   4.236
44474SOL    HW133448   7.906   5.651   4.294
44474SOL    HW233449   7.990   5.733   4.181
44475SOL     OW33450   8.882   6.774   3.765
44475SOL    HW133451   8.914   6.698   3.822
44475SOL    HW233452   8.790   6.801   3.795
44476SOL     OW33453   7.745   5.621   3.895
44476SOL    HW133454   7.794   5.705   3.874
44476SOL    HW233455   7.807   5.556   3.940
44477SOL     OW33456   8.383   5.822   4.204
44477SOL    HW133457   8.335   5.863   4.126
44477SOL    HW233458   8.482   5.820   4.185
44478SOL     OW33459   8.524   6.269   5.188
44478SOL    HW133460   8.444   6.208   5.191
44478SOL    HW233461   8.605   6.216   5.164
44479SOL     OW33462   8.675   7.156   4.517
44479SOL    HW133463   8.696   7.230   4.452
44479SOL    HW233464   8.743   7.156   4.590
44480SOL     OW33465   7.907   6.738   4.465
44480SOL    HW133466   7.836   6.711   4.530
44480SOL    HW233467   7.881   6.710   4.372
44481SOL     OW33468   8.719   7.383   4.315
44481SOL    HW133469   8.763   7.447   4.251
44481SOL    HW233470   8.669   7.435   4.385
44482SOL     OW33471   8.480   6.135   3.740
44482SOL    HW133472   8.439   6.217   3.701
44482SOL    HW233473   8.544   6.161   3.813
44483SOL     OW33474   7.526   6.142   5.110
44483SOL    HW133475   7.618   6.141   5.069
44483SOL    HW233476   7.520   6.216   5.177
44484SOL     OW33477   8.009   5.808   4.871
44484SOL    HW133478   8.047   5.724   4.908
44484SOL    HW233479   7.921   5.827   4.915
44485SOL     OW33480   8.314   6.040   4.366
44485SOL    HW133481   8.282   6.112   4.304
44485SOL    HW233482   8.338   5.959   4.313
44486SOL     OW33483   8.465   5.625   4.477
44486SOL    HW133484   8.393   5.630   4.408
44486SOL    HW233485   8.441   5.556   4.546
44487SOL     OW33486   8.877   6.759   4.591
44487SOL    HW133487   8.822   6.675   4.584
44487SOL    HW233488   8.903   6.788   4.499
44488SOL     OW33489   8.914   6.176   4.716
44488SOL    HW133490   8.884   6.081   4.723
44488SOL    HW233491   8.987   6.192   4.782
44489SOL     OW33492   9.305   6.419   4.101
44489SOL    HW133493   9.347   6.355   4.165
44489SOL    HW233494   9.267   6.368   4.023
44490SOL     OW33495   7.936   6.971   3.898
44490SOL    HW133496   7.849   6.956   3.945
44490SOL    HW233497   7.919   6.997   3.803
44491SOL     OW33498   9.112   6.866   4.381
44491SOL    HW133499   9.211   6.874   4.395
44491SOL    HW233500   9.067   6.950   4.412
44492SOL     OW33501   8.838   6.161   3.802
44492SOL    HW133502   8.784   6.140   3.883
44492SOL    HW233503   8.929   6.120   3.811
44493SOL     OW33504   7.975   5.842   4.052
44493SOL    HW133505   8.002   5.783   3.977
44493SOL    HW233506   7.975   5.937   4.021
44494SOL     OW33507   9.202   6.809   5.312
44494SOL    HW133508   9.293   6.770   5.299
44494SOL    HW233509   9.210   6.905   5.336
44495SOL     OW33510   8.512   6.933   5.064
44495SOL    HW133511   8.432   6.910   5.119
44495SOL    HW233512   8.595   6.907   5.113
44496SOL     OW33513   9.040   7.215   5.349
44496SOL    HW133514   9.067   7.249   5.259
44496SOL    HW233515   9.119   7.177   5.395
44497SOL     OW33516   8.559   6.781   4.824
44497SOL    HW133517   8.519   6.825   4.905
44497SOL    HW233518   8.518   6.818   4.741
44498SOL     OW33519   9.086   6.685   4.803
44498SOL    HW133520   9.091   6.766   4.862
44498SOL    HW233521   9.000   6.687   4.752
44499SOL     OW33522   8.363   5.675   5.126
44499SOL    HW133523   8.388   5.655   5.031
44499SOL    HW233524   8.435   5.731   5.168
44500SOL     OW33525   8.428   6.702   5.443
44500SOL    HW133526   8.329   6.708   5.453
44500SOL    HW233527   8.451   6.622   5.387
44501SOL     OW33528   8.153   6.636   4.092
44501SOL    HW133529   8.139   6.643   4.191
44501SOL    HW233530   8.237   6.585   4.074
44502SOL     OW33531   7.858   6.399   4.975
44502SOL    HW133532   7.944   6.411   5.025
44502SOL    HW233533   7.816   6.312   5.002
44503SOL     OW33534   8.722   5.972   4.986
44503SOL    HW133535   8.743   6.046   5.050
44503SOL    HW233536   8.633   5.989   4.943
44504SOL     OW33537   7.512   7.150   5.055
44504SOL    HW133538   7.466   7.232   5.021
44504SOL    HW233539   7.610   7.169   5.064
44505SOL     OW33540   7.815   6.686   4.225
44505SOL    HW133541   7.808   6.769   4.169
44505SOL    HW233542   7.819   6.606   4.165
44506SOL     OW33543   8.014   6.123   4.589
44506SOL    HW133544   8.026   6.189   4.515
44506SOL    HW233545   8.060   6.157   4.672
44507SOL     OW33546   8.700   6.934   4.112
44507SOL    HW133547   8.750   7.011   4.152
44507SOL    HW233548   8.605   6.936   4.144
44508SOL     OW33549   8.720   7.031   4.866
44508SOL    HW133550   8.767   7.044   4.953
44508SOL    HW233551   8.654   6.957   4.875
44509SOL     OW33552   9.030   6.225   4.196
44509SOL    HW133553   8.999   6.286   4.269
44509SOL    HW233554   9.080   6.277   4.127
44510SOL     OW33555   7.802   7.096   5.053
44510SOL    HW133556   7.781   7.052   4.966
44510SOL    HW233557   7.899   7.122   5.056
44511SOL     OW33558   7.850   6.337   5.322
44511SOL    HW133559   7.918   6.392   5.275
44511SOL    HW233560   7.890   6.249   5.349
44512SOL     OW33561   9.035   6.365   5.394
44512SOL    HW133562   8.943   6.403   5.389
44512SOL    HW233563   9.095   6.412   5.329
44513SOL     OW33564   8.461   5.691   5.494
44513SOL    HW133565   8.467   5.776   5.442
44513SOL    HW233566   8.493   5.615   5.437
44514SOL     OW33567   7.952   5.636   5.464
44514SOL    HW133568   7.910   5.579   5.394
44514SOL    HW233569   7.886   5.705   5.496
44515SOL     OW33570   8.021   6.456   4.753
44515SOL    HW133571   8.065   6.545   4.744
44515SOL    HW233572   7.958   6.456   4.830
44516SOL     OW33573   8.808   6.448   4.769
44516SOL    HW133574   8.733   6.448   4.703
44516SOL    HW233575   8.845   6.356   4.778
44517SOL     OW33576   8.657   6.111   3.999
44517SOL    HW133577   8.670   6.027   4.053
44517SOL    HW233578   8.628   6.185   4.059
44518SOL     OW33579   7.755   5.799   4.955
44518SOL    HW133580   7.732   5.836   5.045
44518SOL    HW233581   7.725   5.704   4.949
44519SOL     OW33582   7.485   6.896   5.006
44519SOL    HW133583   7.538   6.847   5.074
44519SOL    HW233584   7.507   6.994   5.011
44520SOL     OW33585   8.180   6.220   4.788
44520SOL    HW133586   8.239   6.194   4.712
44520SOL    HW233587   8.152   6.316   4.777
44521SOL     OW33588   9.176   6.521   5.578
44521SOL    HW133589   9.130   6.514   5.489
44521SOL    HW233590   9.114   6.565   5.644
44522SOL     OW33591   7.755   5.649   4.342
44522SOL    HW133592   7.744   5.743   4.375
44522SOL    HW233593   7.750   5.586   4.419
44523SOL     OW33594   9.070   5.953   4.098
44523SOL    HW133595   9.072   5.877   4.162
44523SOL    HW233596   9.022   6.030   4.138
44524SOL     OW33597   8.471   6.352   4.690
44524SOL    HW133598   8.486   6.373   4.786
44524SOL    HW233599   8.441   6.257   4.681
44525SOL     OW33600   8.428   7.159   5.424
44525SOL    HW133601   8.408   7.203   5.336
44525SOL    HW233602   8.467   7.068   5.408
44526SOL     OW33603   9.307   7.104   5.329
44526SOL    HW133604   9.321   7.131   5.234
44526SOL    HW233605   9.390   7.126   5.382
44527SOL     OW33606   7.798   6.484   5.528
44527SOL    HW133607   7.874   6.528   5.576
44527SOL    HW233608   7.833   6.437   5.446
44528SOL     OW33609   8.988   5.860   3.849
44528SOL    HW133610   8.927   5.785   3.872
44528SOL    HW233611   9.010   5.912   3.932
44529SOL     OW33612   8.751   6.424   3.766
44529SOL    HW133613   8.785   6.331   3.781
44529SOL    HW233614   8.769   6.451   3.671
44530SOL     OW33615   8.516   6.919   4.573
44530SOL    HW133616   8.523   6.835   4.518
44530SOL    HW233617   8.578   6.988   4.537
44531SOL     OW33618   7.767   6.396   4.673
44531SOL    HW133619   7.860   6.432   4.678
44531SOL    HW233620   7.761   6.311   4.725
44532SOL     OW33621   7.787   6.095   4.730
44532SOL    HW133622   7.735   6.012   4.713
44532SOL    HW233623   7.864   6.100   4.666
44533SOL     OW33624   8.586   5.966   5.402
44533SOL    HW133625   8.541   6.029   5.466
44533SOL    HW233626   8.679   5.997   5.385
44534SOL     OW33627   8.608   5.793   5.201
44534SOL    HW133628   8.608   5.857   5.278
44534SOL    HW233629   8.636   5.841   5.118
44535SOL     OW33630   7.456   6.912   3.924
44535SOL    HW133631   7.363   6.933   3.893
44535SOL    HW233632   7.466   6.813   3.937
44536SOL     OW33633   7.536   7.387   4.651
44536SOL    HW133634   7.494   7.301   4.624
44536SOL    HW233635   7.630   7.390   4.617
44537SOL     OW33636   7.952   7.154   4.634
44537SOL    HW133637   8.018   7.228   4.643
44537SOL    HW233638   7.996   7.075   4.592
44538SOL     OW33639   8.450   6.382   4.962
44538SOL    HW133640   8.491   6.350   5.048
44538SOL    HW233641   8.354   6.355   4.959
44539SOL     OW33642   7.488   6.130   4.838
44539SOL    HW133643   7.573   6.097   4.797
44539SOL    HW233644   7.501   6.145   4.936
44540SOL     OW33645   7.637   6.106   5.446
44540SOL    HW133646   7.696   6.066   5.376
44540SOL    HW233647   7.579   6.177   5.405
44541SOL     OW33648   8.817   6.536   5.384
44541SOL    HW133649   8.856   6.625   5.404
44541SOL    HW233650   8.827   6.516   5.287
44542SOL     OW33651   8.263   6.158   4.049
44542SOL    HW133652   8.270   6.069   4.003
44542SOL    HW233653   8.169   6.192   4.041
44543SOL     OW33654   9.105   6.190   4.930
44543SOL    HW133655   9.067   6.121   4.992
44543SOL    HW233656   9.187   6.154   4.886
44544SOL     OW33657   7.700   7.150   5.468
44544SOL    HW133658   7.670   7.207   5.544
44544SOL    HW233659   7.693   7.053   5.494
44545SOL     OW33660   8.119   6.050   4.993
44545SOL    HW133661   8.085   5.961   4.963
44545SOL    HW233662   8.145   6.104   4.913
44546SOL     OW33663   8.378   7.264   5.189
44546SOL    HW133664   8.354   7.246   5.094
44546SOL    HW233665   8.408   7.358   5.199
44547SOL     OW33666   7.921   6.086   3.915
44547SOL    HW133667   7.982   6.166   3.919
44547SOL    HW233668   7.826   6.117   3.922
44548SOL     OW33669   7.607   6.723   5.190
44548SOL    HW133670   7.629   6.662   5.266
44548SOL    HW233671   7.617   6.674   5.104
44549SOL     OW33672   8.795   6.645   4.958
44549SOL    HW133673   8.819   6.582   4.884
44549SOL    HW233674   8.705   6.685   4.940
44550SOL     OW33675   8.750   6.441   4.033
44550SOL    HW133676   8.664   6.410   4.075
44550SOL    HW233677   8.746   6.427   3.934
44551SOL     OW33678   9.207   7.333   4.878
44551SOL    HW133679   9.268   7.363   4.805
44551SOL    HW233680   9.169   7.244   4.856
44552SOL     OW33681   8.700   7.317   4.852
44552SOL    HW133682   8.784   7.322   4.798
44552SOL    HW233683   8.677   7.221   4.870
44553SOL     OW33684   7.531   6.844   4.746
44553SOL    HW133685   7.526   6.843   4.846
44553SOL    HW233686   7.448   6.803   4.708
44554SOL     OW33687   8.136   7.248   5.440
44554SOL    HW133688   8.080   7.329   5.449
44554SOL    HW233689   8.188   7.252   5.354
44555SOL     OW33690   9.174   5.721   4.247
44555SOL    HW133691   9.247   5.704   4.180
44555SOL    HW233692   9.143   5.634   4.285
44556SOL     OW33693   8.836   7.159   4.201
44556SOL    HW133694   8.903   7.171   4.127
44556SOL    HW233695   8.796   7.248   4.224
44557SOL     OW33696   7.578   7.380   5.575
44557SOL    HW133697   7.537   7.306   5.628
44557SOL    HW233698   7.642   7.431   5.633
44558SOL     OW33699   8.728   6.513   4.396
44558SOL    HW133700   8.788   6.432   4.398
44558SOL    HW233701   8.768   6.582   4.336
44559SOL     OW33702   8.278   6.859   5.146
44559SOL    HW133703   8.273   6.892   5.241
44559SOL    HW233704   8.192   6.878   5.100
44560SOL     OW33705   8.120   7.202   3.878
44560SOL    HW133706   8.129   7.212   3.779
44560SOL    HW233707   8.080   7.113   3.899
44561SOL     OW33708   9.098   7.306   5.118
44561SOL    HW133709   9.151   7.316   5.034
44561SOL    HW233710   9.071   7.396   5.152
44562SOL     OW33711   9.289   5.761   4.687
44562SOL    HW133712   9.328   5.676   4.651
44562SOL    HW233713   9.191   5.763   4.668
44563SOL     OW33714   7.711   5.912   4.444
44563SOL    HW133715   7.632   5.963   4.410
44563SOL    HW233716   7.702   5.897   4.542
44564SOL     OW33717   8.642   7.198   3.755
44564SOL    HW133718   8.648   7.105   3.792
44564SOL    HW233719   8.583   7.198   3.675
44565SOL     OW33720   8.270   6.588   5.096
44565SOL    HW133721   8.310   6.587   5.004
44565SOL    HW233722   8.280   6.680   5.136
44566SOL     OW33723   8.364   6.496   4.015
44566SOL    HW133724   8.427   6.534   3.947
44566SOL    HW233725   8.404   6.413   4.054
44567SOL     OW33726   8.952   7.193   3.768
44567SOL    HW133727   8.860   7.230   3.775
44567SOL    HW233728   8.990   7.213   3.678
44568SOL     OW33729   7.820   6.874   5.214
44568SOL    HW133730   7.807   6.967   5.180
44568SOL    HW233731   7.736   6.822   5.201
44569SOL     OW33732   9.062   6.878   5.013
44569SOL    HW133733   9.122   6.881   5.093
44569SOL    HW233734   8.987   6.942   5.026
44570SOL     OW33735   8.487   6.684   4.420
44570SOL    HW133736   8.417   6.637   4.474
44570SOL    HW233737   8.546   6.616   4.377
44571SOL     OW33738   8.462   5.822   4.695
44571SOL    HW133739   8.454   5.786   4.602
44571SOL    HW233740   8.460   5.746   4.760
44572SOL     OW33741   8.038   7.073   4.215
44572SOL    HW133742   8.080   7.015   4.145
44572SOL    HW233743   7.994   7.152   4.171
44573SOL     OW33744   9.157   5.971   5.105
44573SOL    HW133745   9.230   6.040   5.109
44573SOL    HW233746   9.185   5.896   5.046
44574SOL     OW33747   7.703   6.934   4.014
44574SOL    HW133748   7.607   6.935   3.987
44574SOL    HW233749   7.715   6.987   4.098
44575SOL     OW33750   7.553   6.599   5.450
44575SOL    HW133751   7.476   6.566   5.504
44575SOL    HW233752   7.638   6.569   5.492
44576SOL     OW33753   8.120   5.789   5.213
44576SOL    HW133754   8.210   5.773   5.173
44576SOL    HW233755   8.128   5.794   5.312
44577SOL     OW33756   7.523   5.931   3.757
44577SOL    HW133757   7.431   5.903   3.728
44577SOL    HW233758   7.554   6.008   3.701
44578SOL     OW33759   8.888   6.442   5.122
44578SOL    HW133760   8.831   6.494   5.059
44578SOL    HW233761   8.984   6.454   5.098
44579SOL     OW33762   7.520   5.752   4.042
44579SOL    HW133763   7.503   5.835   3.988
44579SOL    HW233764   7.610   5.715   4.020
44580SOL     OW33765   8.631   6.921   3.843
44580SOL    HW133766   8.532   6.910   3.845
44580SOL    HW233767   8.665   6.936   3.936
44581SOL     OW33768   8.061   6.428   5.155
44581SOL    HW133769   8.117   6.509   5.138
44581SOL    HW233770   8.120   6.348   5.158
44582SOL     OW33771   8.941   7.353   4.683
44582SOL    HW133772   8.974   7.417   4.614
44582SOL    HW233773   9.007   7.347   4.758
44583SOL     OW33774   8.164   6.151   5.432
44583SOL    HW133775   8.183   6.216   5.506
44583SOL    HW233776   8.224   6.071   5.441
44584SOL     OW33777   8.898   6.806   5.357
44584SOL    HW133778   8.889   6.796   5.456
44584SOL    HW233779   8.994   6.799   5.331
44585SOL     OW33780   7.838   7.327   5.284
44585SOL    HW133781   7.747   7.368   5.282
44585SOL    HW233782   7.831   7.233   5.316
44586SOL     OW33783   9.122   6.469   4.978
44586SOL    HW133784   9.095   6.380   4.941
44586SOL    HW233785   9.123   6.537   4.905
44587SOL     OW33786   8.673   5.911   4.173
44587SOL    HW133787   8.738   5.837   4.162
44587SOL    HW233788   8.693   5.961   4.257
44588SOL     OW33789   8.042   6.331   4.376
44588SOL    HW133790   8.092   6.416   4.357
44588SOL    HW233791   7.954   6.333   4.328
44589SOL     OW33792   9.225   5.928   5.366
44589SOL    HW133793   9.208   5.959   5.272
44589SOL    HW233794   9.141   5.891   5.404
44590SOL     OW33795   9.178   6.520   5.241
44590SOL    HW133796   9.216   6.611   5.256
44590SOL    HW233797   9.170   6.503   5.142
44591SOL     OW33798   8.307   6.960   3.740
44591SOL    HW133799   8.261   6.975   3.828
44591SOL    HW233800   8.351   7.045   3.710
44592SOL     OW33801   8.109   7.376   4.677
44592SOL    HW133802   8.063   7.464   4.664
44592SOL    HW233803   8.208   7.388   4.670
44593SOL     OW33804   8.307   6.542   4.585
44593SOL    HW133805   8.361   6.473   4.633
44593SOL    HW233806   8.275   6.611   4.651
44594SOL     OW33807   8.531   6.570   3.811
44594SOL    HW133808   8.508   6.623   3.729
44594SOL    HW233809   8.612   6.514   3.792
44595SOL     OW33810   9.309   7.155   4.575
44595SOL    HW133811   9.238   7.143   4.505
44595SOL    HW233812   9.310   7.076   4.635
44596SOL     OW33813   7.669   6.900   5.568
44596SOL    HW133814   7.604   6.827   5.547
44596SOL    HW233815   7.673   6.914   5.666
44597SOL     OW33816   7.527   6.826   4.377
44597SOL    HW133817   7.526   6.779   4.465
44597SOL    HW233818   7.609   6.798   4.326
44598SOL     OW33819   8.120   6.977   5.348
44598SOL    HW133820   8.042   6.927   5.386
44598SOL    HW233821   8.117   7.072   5.379
44599SOL     OW33822   9.272   5.778   4.951
44599SOL    HW133823   9.268   5.688   4.995
44599SOL    HW233824   9.275   5.767   4.852
44600SOL     OW33825   7.876   6.010   4.244
44600SOL    HW133826   7.906   5.938   4.182
44600SOL    HW233827   7.837   5.970   4.327
44601SOL     OW33828   9.153   7.073   4.828
44601SOL    HW133829   9.060   7.048   4.801
44601SOL    HW233830   9.179   7.023   4.910
44602SOL     OW33831   7.765   6.133   5.004
44602SOL    HW133832   7.803   6.074   5.076
44602SOL    HW233833   7.805   6.107   4.916
44603SOL     OW33834   8.260   7.172   4.411
44603SOL    HW133835   8.292   7.182   4.317
44603SOL    HW233836   8.181   7.110   4.413
44604SOL     OW33837   8.872   5.800   4.836
44604SOL    HW133838   8.924   5.735   4.891
44604SOL    HW233839   8.823   5.863   4.897
44605SOL     OW33840   8.449   5.620   4.878
44605SOL    HW133841   8.386   5.548   4.847
44605SOL    HW233842   8.542   5.584   4.878
44606SOL     OW33843   8.218   6.916   4.025
44606SOL    HW133844   8.172   6.829   4.042
44606SOL    HW233845   8.309   6.913   4.066
44607SOL     OW33846   8.066   7.153   5.008
44607SOL    HW133847   8.061   7.235   5.065
44607SOL    HW233848   8.155   7.150   4.963
44608SOL     OW33849   8.800   5.638   3.892
44608SOL    HW133850   8.835   5.597   3.808
44608SOL    HW233851   8.710   5.600   3.912
44609SOL     OW33852   8.748   6.039   4.415
44609SOL    HW133853   8.689   6.119   4.419
44609SOL    HW233854   8.763   6.004   4.508
44610SOL     OW33855   9.041   5.807   4.606
44610SOL    HW133856   8.957   5.806   4.660
44610SOL    HW233857   9.043   5.890   4.550
44611SOL     OW33858   7.487   6.663   4.024
44611SOL    HW133859   7.586   6.652   4.015
44611SOL    HW233860   7.447   6.577   4.056
44612SOL     OW33861   8.323   7.232   4.061
44612SOL    HW133862   8.246   7.197   4.007
44612SOL    HW233863   8.291   7.303   4.123
44613SOL     OW33864   7.678   6.214   5.699
44613SOL    HW133865   7.585   6.212   5.736
44613SOL    HW233866   7.679   6.175   5.607
44614SOL     OW33867   7.673   5.861   6.582
44614SOL    HW133868   7.708   5.844   6.674
44614SOL    HW233869   7.585   5.816   6.570
44615SOL     OW33870   7.467   5.954   6.233
44615SOL    HW133871   7.385   5.997   6.272
44615SOL    HW233872   7.439   5.881   6.170
44616SOL     OW33873   8.017   6.861   6.751
44616SOL    HW133874   7.924   6.854   6.714
44616SOL    HW233875   8.028   6.950   6.795
44617SOL     OW33876   9.003   7.097   6.289
44617SOL    HW133877   8.946   7.081   6.370
44617SOL    HW233878   8.944   7.107   6.209
44618SOL     OW33879   8.583   6.289   6.303
44618SOL    HW133880   8.640   6.367   6.278
44618SOL    HW233881   8.523   6.315   6.379
44619SOL     OW33882   9.203   6.193   5.817
44619SOL    HW133883   9.191   6.180   5.718
44619SOL    HW233884   9.173   6.112   5.866
44620SOL     OW33885   8.216   6.730   6.609
44620SOL    HW133886   8.138   6.747   6.669
44620SOL    HW233887   8.250   6.817   6.573
44621SOL     OW33888   8.298   6.384   7.409
44621SOL    HW133889   8.294   6.460   7.474
44621SOL    HW233890   8.320   6.420   7.318
44622SOL     OW33891   8.133   6.598   6.251
44622SOL    HW133892   8.202   6.582   6.321
44622SOL    HW233893   8.060   6.655   6.289
44623SOL     OW33894   8.134   6.747   7.389
44623SOL    HW133895   8.194   6.826   7.403
44623SOL    HW233896   8.048   6.778   7.348
44624SOL     OW33897   7.783   7.021   6.647
44624SOL    HW133898   7.705   6.990   6.594
44624SOL    HW233899   7.841   7.079   6.590
44625SOL     OW33900   8.908   7.091   6.925
44625SOL    HW133901   8.932   7.185   6.951
44625SOL    HW233902   8.892   7.037   7.007
44626SOL     OW33903   7.886   5.978   7.085
44626SOL    HW133904   7.968   5.922   7.094
44626SOL    HW233905   7.805   5.920   7.089
44627SOL     OW33906   9.051   6.033   6.323
44627SOL    HW133907   8.977   6.079   6.273
44627SOL    HW233908   9.102   6.101   6.376
44628SOL     OW33909   7.679   7.299   6.069
44628SOL    HW133910   7.713   7.376   6.123
44628SOL    HW233911   7.723   7.299   5.979
44629SOL     OW33912   8.575   6.927   7.276
44629SOL    HW133913   8.622   6.927   7.364
44629SOL    HW233914   8.527   6.840   7.265
44630SOL     OW33915   7.678   7.020   6.124
44630SOL    HW133916   7.652   7.116   6.124
44630SOL    HW233917   7.607   6.966   6.169
44631SOL     OW33918   7.688   6.677   6.472
44631SOL    HW133919   7.702   6.593   6.524
44631SOL    HW233920   7.633   6.741   6.527
44632SOL     OW33921   8.068   7.372   7.025
44632SOL    HW133922   7.976   7.355   7.060
44632SOL    HW233923   8.096   7.464   7.051
44633SOL     OW33924   8.054   6.550   5.709
44633SOL    HW133925   8.061   6.634   5.655
44633SOL    HW233926   8.100   6.563   5.797
44634SOL     OW33927   9.042   5.700   7.066
44634SOL    HW133928   9.024   5.767   6.994
44634SOL    HW233929   9.039   5.746   7.155
44635SOL     OW33930   7.570   6.229   6.149
44635SOL    HW133931   7.525   6.141   6.166
44635SOL    HW233932   7.569   6.283   6.233
44636SOL     OW33933   9.290   7.353   5.945
44636SOL    HW133934   9.344   7.324   6.025
44636SOL    HW233935   9.320   7.443   5.916
44637SOL     OW33936   7.475   7.182   5.703
44637SOL    HW133937   7.456   7.086   5.724
44637SOL    HW233938   7.442   7.240   5.778
44638SOL     OW33939   9.137   6.508   6.198
44638SOL    HW133940   9.232   6.479   6.206
44638SOL    HW233941   9.129   6.573   6.123
44639SOL     OW33942   9.089   6.694   6.018
44639SOL    HW133943   9.175   6.696   5.966
44639SOL    HW233944   9.103   6.741   6.106
44640SOL     OW33945   7.561   6.323   7.183
44640SOL    HW133946   7.649   6.310   7.228
44640SOL    HW233947   7.548   6.420   7.161
44641SOL     OW33948   8.061   6.951   6.312
44641SOL    HW133949   8.012   6.864   6.321
44641SOL    HW233950   8.038   6.994   6.225
44642SOL     OW33951   8.741   6.814   7.009
44642SOL    HW133952   8.778   6.741   6.951
44642SOL    HW233953   8.793   6.819   7.094
44643SOL     OW33954   8.257   5.590   6.088
44643SOL    HW133955   8.297   5.681   6.079
44643SOL    HW233956   8.157   5.598   6.094
44644SOL     OW33957   7.645   6.562   6.850
44644SOL    HW133958   7.734   6.517   6.836
44644SOL    HW233959   7.572   6.497   6.831
44645SOL     OW33960   8.973   6.585   5.776
44645SOL    HW133961   8.910   6.509   5.789
44645SOL    HW233962   9.021   6.603   5.862
44646SOL     OW33963   8.635   7.378   7.202
44646SOL    HW133964   8.659   7.438   7.126
44646SOL    HW233965   8.642   7.283   7.172
44647SOL     OW33966   7.765   5.837   7.387
44647SOL    HW133967   7.836   5.908   7.393
44647SOL    HW233968   7.677   5.876   7.415
44648SOL     OW33969   8.914   7.003   6.539
44648SOL    HW133970   8.855   7.009   6.619
44648SOL    HW233971   8.899   6.915   6.493
44649SOL     OW33972   9.115   7.300   6.158
44649SOL    HW133973   9.074   7.277   6.070
44649SOL    HW233974   9.097   7.226   6.223
44650SOL     OW33975   8.046   6.315   5.856
44650SOL    HW133976   8.070   6.384   5.788
44650SOL    HW233977   7.968   6.348   5.910
44651SOL     OW33978   8.729   5.931   6.530
44651SOL    HW133979   8.643   5.881   6.517
44651SOL    HW233980   8.791   5.877   6.586
44652SOL     OW33981   9.024   7.248   5.893
44652SOL    HW133982   9.113   7.294   5.896
44652SOL    HW233983   9.003   7.224   5.798
44653SOL     OW33984   8.255   6.191   7.051
44653SOL    HW133985   8.208   6.188   7.140
44653SOL    HW233986   8.204   6.136   6.985
44654SOL     OW33987   8.842   6.055   7.260
44654SOL    HW133988   8.822   6.098   7.348
44654SOL    HW233989   8.920   5.993   7.269
44655SOL     OW33990   8.421   6.476   7.158
44655SOL    HW133991   8.467   6.392   7.129
44655SOL    HW233992   8.365   6.510   7.083
44656SOL     OW33993   8.439   5.996   6.828
44656SOL    HW133994   8.362   6.030   6.882
44656SOL    HW233995   8.405   5.945   6.749
44657SOL     OW33996   8.489   6.287   6.015
44657SOL    HW133997   8.515   6.283   6.111
44657SOL    HW233998   8.404   6.236   6.001
44658SOL     OW33999   7.524   6.397   6.375
44658SOL    HW134000   7.623   6.385   6.384
44658SOL    HW234001   7.500   6.492   6.396
44659SOL     OW34002   7.578   7.407   7.157
44659SOL    HW134003   7.568   7.392   7.256
44659SOL    HW234004   7.492   7.443   7.121
44660SOL     OW34005   8.313   5.934   5.781
44660SOL    HW134006   8.372   5.997   5.732
44660SOL    HW234007   8.332   5.840   5.752
44661SOL     OW34008   9.167   6.171   7.417
44661SOL    HW134009   9.141   6.260   7.381
44661SOL    HW234010   9.165   6.103   7.344
44662SOL     OW34011   8.810   6.730   6.131
44662SOL    HW134012   8.893   6.701   6.083
44662SOL    HW234013   8.761   6.797   6.075
44663SOL     OW34014   7.998   5.782   6.471
44663SOL    HW134015   7.993   5.777   6.571
44663SOL    HW234016   8.000   5.878   6.442
44664SOL     OW34017   8.456   7.042   6.063
44664SOL    HW134018   8.410   7.114   6.011
44664SOL    HW234019   8.452   7.062   6.161
44665SOL     OW34020   7.799   7.387   6.439
44665SOL    HW134021   7.849   7.301   6.445
44665SOL    HW234022   7.864   7.464   6.436
44666SOL     OW34023   9.243   6.652   6.459
44666SOL    HW134024   9.181   6.637   6.383
44666SOL    HW234025   9.191   6.663   6.544
44667SOL     OW34026   8.675   7.136   7.092
44667SOL    HW134027   8.681   7.059   7.156
44667SOL    HW234028   8.623   7.110   7.012
44668SOL     OW34029   7.769   6.529   5.828
44668SOL    HW134030   7.851   6.568   5.786
44668SOL    HW234031   7.742   6.447   5.779
44669SOL     OW34032   8.906   6.321   6.314
44669SOL    HW134033   8.901   6.256   6.389
44669SOL    HW234034   8.986   6.380   6.327
44670SOL     OW34035   7.909   6.852   7.313
44670SOL    HW134036   7.859   6.853   7.227
44670SOL    HW234037   7.846   6.834   7.389
44671SOL     OW34038   8.559   7.362   5.823
44671SOL    HW134039   8.499   7.300   5.873
44671SOL    HW234040   8.590   7.318   5.738
44672SOL     OW34041   7.650   5.871   7.084
44672SOL    HW134042   7.570   5.931   7.071
44672SOL    HW234043   7.640   5.822   7.170
44673SOL     OW34044   9.080   6.963   5.667
44673SOL    HW134045   9.048   7.057   5.657
44673SOL    HW234046   9.004   6.900   5.655
44674SOL     OW34047   7.912   7.329   5.909
44674SOL    HW134048   7.945   7.368   5.995
44674SOL    HW234049   7.988   7.322   5.844
44675SOL     OW34050   8.848   5.693   6.012
44675SOL    HW134051   8.824   5.656   5.922
44675SOL    HW234052   8.947   5.709   6.016
44676SOL     OW34053   7.697   7.371   6.827
44676SOL    HW134054   7.754   7.306   6.877
44676SOL    HW234055   7.681   7.338   6.734
44677SOL     OW34056   8.388   7.284   6.490
44677SOL    HW134057   8.468   7.227   6.511
44677SOL    HW234058   8.339   7.244   6.413
44678SOL     OW34059   7.830   6.286   6.066
44678SOL    HW134060   7.875   6.196   6.063
44678SOL    HW234061   7.736   6.275   6.099
44679SOL     OW34062   8.995   5.808   7.315
44679SOL    HW134063   8.990   5.845   7.407
44679SOL    HW234064   8.923   5.739   7.303
44680SOL     OW34065   8.062   5.708   5.703
44680SOL    HW134066   8.160   5.686   5.710
44680SOL    HW234067   8.031   5.691   5.610
44681SOL     OW34068   8.229   5.850   7.335
44681SOL    HW134069   8.296   5.789   7.378
44681SOL    HW234070   8.156   5.869   7.400
44682SOL     OW34071   8.336   7.100   6.781
44682SOL    HW134072   8.313   7.075   6.687
44682SOL    HW234073   8.397   7.031   6.820
44683SOL     OW34074   8.799   6.176   7.019
44683SOL    HW134075   8.827   6.133   7.104
44683SOL    HW234076   8.824   6.272   7.020
44684SOL     OW34077   8.251   6.988   6.510
44684SOL    HW134078   8.341   7.002   6.468
44684SOL    HW234079   8.180   6.990   6.439
44685SOL     OW34080   8.370   6.089   6.485
44685SOL    HW134081   8.345   6.080   6.389
44685SOL    HW234082   8.418   6.007   6.516
44686SOL     OW34083   7.987   5.650   6.098
44686SOL    HW134084   7.906   5.651   6.156
44686SOL    HW234085   7.990   5.733   6.043
44687SOL     OW34086   8.882   6.774   5.627
44687SOL    HW134087   8.914   6.698   5.684
44687SOL    HW234088   8.790   6.801   5.657
44688SOL     OW34089   7.745   5.621   5.757
44688SOL    HW134090   7.794   5.705   5.736
44688SOL    HW234091   7.807   5.556   5.802
44689SOL     OW34092   8.383   5.822   6.066
44689SOL    HW134093   8.335   5.863   5.988
44689SOL    HW234094   8.482   5.820   6.047
44690SOL     OW34095   8.524   6.269   7.050
44690SOL    HW134096   8.444   6.208   7.053
44690SOL    HW234097   8.605   6.216   7.026
44691SOL     OW34098   8.675   7.156   6.379
44691SOL    HW134099   8.696   7.230   6.314
44691SOL    HW234100   8.743   7.156   6.452
44692SOL     OW34101   7.907   6.738   6.327
44692SOL    HW134102   7.836   6.711   6.392
44692SOL    HW234103   7.881   6.710   6.234
44693SOL     OW34104   8.719   7.383   6.177
44693SOL    HW134105   8.763   7.447   6.113
44693SOL    HW234106   8.669   7.435   6.247
44694SOL     OW34107   8.480   6.135   5.602
44694SOL    HW134108   8.439   6.217   5.563
44694SOL    HW234109   8.544   6.161   5.675
44695SOL     OW34110   7.526   6.142   6.972
44695SOL    HW134111   7.618   6.141   6.931
44695SOL    HW234112   7.520   6.216   7.039
44696SOL     OW34113   8.009   5.808   6.733
44696SOL    HW134114   8.047   5.724   6.770
44696SOL    HW234115   7.921   5.827   6.777
44697SOL     OW34116   8.314   6.040   6.228
44697SOL    HW134117   8.282   6.112   6.166
44697SOL    HW234118   8.338   5.959   6.175
44698SOL     OW34119   8.465   5.625   6.339
44698SOL    HW134120   8.393   5.630   6.270
44698SOL    HW234121   8.441   5.556   6.408
44699SOL     OW34122   8.877   6.759   6.453
44699SOL    HW134123   8.822   6.675   6.446
44699SOL    HW234124   8.903   6.788   6.361
44700SOL     OW34125   8.914   6.176   6.578
44700SOL    HW134126   8.884   6.081   6.585
44700SOL    HW234127   8.987   6.192   6.644
44701SOL     OW34128   9.305   6.419   5.963
44701SOL    HW134129   9.347   6.355   6.027
44701SOL    HW234130   9.267   6.368   5.885
44702SOL     OW34131   7.936   6.971   5.760
44702SOL    HW134132   7.849   6.956   5.807
44702SOL    HW234133   7.919   6.997   5.665
44703SOL     OW34134   9.112   6.866   6.243
44703SOL    HW134135   9.211   6.874   6.257
44703SOL    HW234136   9.067   6.950   6.274
44704SOL     OW34137   8.838   6.161   5.664
44704SOL    HW134138   8.784   6.140   5.745
44704SOL    HW234139   8.929   6.120   5.673
44705SOL     OW34140   7.975   5.842   5.914
44705SOL    HW134141   8.002   5.783   5.839
44705SOL    HW234142   7.975   5.937   5.883
44706SOL     OW34143   9.202   6.809   7.174
44706SOL    HW134144   9.293   6.770   7.161
44706SOL    HW234145   9.210   6.905   7.198
44707SOL     OW34146   8.512   6.933   6.926
44707SOL    HW134147   8.432   6.910   6.981
44707SOL    HW234148   8.595   6.907   6.975
44708SOL     OW34149   9.040   7.215   7.211
44708SOL    HW134150   9.067   7.249   7.121
44708SOL    HW234151   9.119   7.177   7.257
44709SOL     OW34152   8.559   6.781   6.686
44709SOL    HW134153   8.519   6.825   6.767
44709SOL    HW234154   8.518   6.818   6.603
44710SOL     OW34155   9.086   6.685   6.665
44710SOL    HW134156   9.091   6.766   6.724
44710SOL    HW234157   9.000   6.687   6.614
44711SOL     OW34158   8.363   5.675   6.988
44711SOL    HW134159   8.388   5.655   6.893
44711SOL    HW234160   8.435   5.731   7.030
44712SOL     OW34161   8.428   6.702   7.305
44712SOL    HW134162   8.329   6.708   7.315
44712SOL    HW234163   8.451   6.622   7.249
44713SOL     OW34164   8.153   6.636   5.954
44713SOL    HW134165   8.139   6.643   6.053
44713SOL    HW234166   8.237   6.585   5.936
44714SOL     OW34167   7.858   6.399   6.837
44714SOL    HW134168   7.944   6.411   6.887
44714SOL    HW234169   7.816   6.312   6.864
44715SOL     OW34170   8.722   5.972   6.848
44715SOL    HW134171   8.743   6.046   6.912
44715SOL    HW234172   8.633   5.989   6.805
44716SOL     OW34173   7.512   7.150   6.917
44716SOL    HW134174   7.466   7.232   6.883
44716SOL    HW234175   7.610   7.169   6.926
44717SOL     OW34176   7.815   6.686   6.087
44717SOL    HW134177   7.808   6.769   6.031
44717SOL    HW234178   7.819   6.606   6.027
44718SOL     OW34179   8.014   6.123   6.451
44718SOL    HW134180   8.026   6.189   6.377
44718SOL    HW234181   8.060   6.157   6.534
44719SOL     OW34182   8.700   6.934   5.974
44719SOL    HW134183   8.750   7.011   6.014
44719SOL    HW234184   8.605   6.936   6.006
44720SOL     OW34185   8.720   7.031   6.728
44720SOL    HW134186   8.767   7.044   6.815
44720SOL    HW234187   8.654   6.957   6.737
44721SOL     OW34188   9.030   6.225   6.058
44721SOL    HW134189   8.999   6.286   6.131
44721SOL    HW234190   9.080   6.277   5.989
44722SOL     OW34191   7.802   7.096   6.915
44722SOL    HW134192   7.781   7.052   6.828
44722SOL    HW234193   7.899   7.122   6.918
44723SOL     OW34194   7.850   6.337   7.184
44723SOL    HW134195   7.918   6.392   7.137
44723SOL    HW234196   7.890   6.249   7.211
44724SOL     OW34197   9.035   6.365   7.256
44724SOL    HW134198   8.943   6.403   7.251
44724SOL    HW234199   9.095   6.412   7.191
44725SOL     OW34200   8.461   5.691   7.356
44725SOL    HW134201   8.467   5.776   7.304
44725SOL    HW234202   8.493   5.615   7.299
44726SOL     OW34203   7.952   5.636   7.326
44726SOL    HW134204   7.910   5.579   7.256
44726SOL    HW234205   7.886   5.705   7.358
44727SOL     OW34206   8.021   6.456   6.615
44727SOL    HW134207   8.065   6.545   6.606
44727SOL    HW234208   7.958   6.456   6.692
44728SOL     OW34209   8.808   6.448   6.631
44728SOL    HW134210   8.733   6.448   6.565
44728SOL    HW234211   8.845   6.356   6.640
44729SOL     OW34212   8.657   6.111   5.861
44729SOL    HW134213   8.670   6.027   5.915
44729SOL    HW234214   8.628   6.185   5.921
44730SOL     OW34215   7.755   5.799   6.817
44730SOL    HW134216   7.732   5.836   6.907
44730SOL    HW234217   7.725   5.704   6.811
44731SOL     OW34218   7.485   6.896   6.868
44731SOL    HW134219   7.538   6.847   6.936
44731SOL    HW234220   7.507   6.994   6.873
44732SOL     OW34221   8.180   6.220   6.650
44732SOL    HW134222   8.239   6.194   6.574
44732SOL    HW234223   8.152   6.316   6.639
44733SOL     OW34224   9.176   6.521   7.440
44733SOL    HW134225   9.130   6.514   7.351
44733SOL    HW234226   9.114   6.565   7.506
44734SOL     OW34227   7.755   5.649   6.204
44734SOL    HW134228   7.744   5.743   6.237
44734SOL    HW234229   7.750   5.586   6.281
44735SOL     OW34230   9.070   5.953   5.960
44735SOL    HW134231   9.072   5.877   6.024
44735SOL    HW234232   9.022   6.030   6.000
44736SOL     OW34233   8.471   6.352   6.552
44736SOL    HW134234   8.486   6.373   6.648
44736SOL    HW234235   8.441   6.257   6.543
44737SOL     OW34236   8.428   7.159   7.286
44737SOL    HW134237   8.408   7.203   7.198
44737SOL    HW234238   8.467   7.068   7.270
44738SOL     OW34239   9.307   7.104   7.191
44738SOL    HW134240   9.321   7.131   7.096
44738SOL    HW234241   9.390   7.126   7.244
44739SOL     OW34242   7.798   6.484   7.390
44739SOL    HW134243   7.874   6.528   7.438
44739SOL    HW234244   7.833   6.437   7.308
44740SOL     OW34245   8.988   5.860   5.711
44740SOL    HW134246   8.927   5.785   5.734
44740SOL    HW234247   9.010   5.912   5.794
44741SOL     OW34248   8.751   6.424   5.628
44741SOL    HW134249   8.785   6.331   5.643
44741SOL    HW234250   8.769   6.451   5.533
44742SOL     OW34251   8.516   6.919   6.435
44742SOL    HW134252   8.523   6.835   6.380
44742SOL    HW234253   8.578   6.988   6.399
44743SOL     OW34254   7.767   6.396   6.535
44743SOL    HW134255   7.860   6.432   6.540
44743SOL    HW234256   7.761   6.311   6.587
44744SOL     OW34257   7.787   6.095   6.592
44744SOL    HW134258   7.735   6.012   6.575
44744SOL    HW234259   7.864   6.100   6.528
44745SOL     OW34260   8.586   5.966   7.264
44745SOL    HW134261   8.541   6.029   7.328
44745SOL    HW234262   8.679   5.997   7.247
44746SOL     OW34263   8.608   5.793   7.063
44746SOL    HW134264   8.608   5.857   7.140
44746SOL    HW234265   8.636   5.841   6.980
44747SOL     OW34266   7.456   6.912   5.786
44747SOL    HW134267   7.363   6.933   5.755
44747SOL    HW234268   7.466   6.813   5.799
44748SOL     OW34269   7.536   7.387   6.513
44748SOL    HW134270   7.494   7.301   6.486
44748SOL    HW234271   7.630   7.390   6.479
44749SOL     OW34272   7.952   7.154   6.496
44749SOL    HW134273   8.018   7.228   6.505
44749SOL    HW234274   7.996   7.075   6.454
44750SOL     OW34275   8.450   6.382   6.824
44750SOL    HW134276   8.491   6.350   6.910
44750SOL    HW234277   8.354   6.355   6.821
44751SOL     OW34278   7.488   6.130   6.700
44751SOL    HW134279   7.573   6.097   6.659
44751SOL    HW234280   7.501   6.145   6.798
44752SOL     OW34281   7.637   6.106   7.308
44752SOL    HW134282   7.696   6.066   7.238
44752SOL    HW234283   7.579   6.177   7.267
44753SOL     OW34284   8.817   6.536   7.246
44753SOL    HW134285   8.856   6.625   7.266
44753SOL    HW234286   8.827   6.516   7.149
44754SOL     OW34287   8.263   6.158   5.911
44754SOL    HW134288   8.270   6.069   5.865
44754SOL    HW234289   8.169   6.192   5.903
44755SOL     OW34290   9.105   6.190   6.792
44755SOL    HW134291   9.067   6.121   6.854
44755SOL    HW234292   9.187   6.154   6.748
44756SOL     OW34293   7.700   7.150   7.330
44756SOL    HW134294   7.670   7.207   7.406
44756SOL    HW234295   7.693   7.053   7.356
44757SOL     OW34296   8.119   6.050   6.855
44757SOL    HW134297   8.085   5.961   6.825
44757SOL    HW234298   8.145   6.104   6.775
44758SOL     OW34299   8.378   7.264   7.051
44758SOL    HW134300   8.354   7.246   6.956
44758SOL    HW234301   8.408   7.358   7.061
44759SOL     OW34302   7.921   6.086   5.777
44759SOL    HW134303   7.982   6.166   5.781
44759SOL    HW234304   7.826   6.117   5.784
44760SOL     OW34305   7.607   6.723   7.052
44760SOL    HW134306   7.629   6.662   7.128
44760SOL    HW234307   7.617   6.674   6.966
44761SOL     OW34308   8.795   6.645   6.820
44761SOL    HW134309   8.819   6.582   6.746
44761SOL    HW234310   8.705   6.685   6.802
44762SOL     OW34311   8.750   6.441   5.895
44762SOL    HW134312   8.664   6.410   5.937
44762SOL    HW234313   8.746   6.427   5.796
44763SOL     OW34314   9.207   7.333   6.740
44763SOL    HW134315   9.268   7.363   6.667
44763SOL    HW234316   9.169   7.244   6.718
44764SOL     OW34317   8.700   7.317   6.714
44764SOL    HW134318   8.784   7.322   6.660
44764SOL    HW234319   8.677   7.221   6.732
44765SOL     OW34320   7.531   6.844   6.608
44765SOL    HW134321   7.526   6.843   6.708
44765SOL    HW234322   7.448   6.803   6.570
44766SOL     OW34323   8.136   7.248   7.302
44766SOL    HW134324   8.080   7.329   7.311
44766SOL    HW234325   8.188   7.252   7.216
44767SOL     OW34326   9.174   5.721   6.109
44767SOL    HW134327   9.247   5.704   6.042
44767SOL    HW234328   9.143   5.634   6.147
44768SOL     OW34329   8.836   7.159   6.063
44768SOL    HW134330   8.903   7.171   5.989
44768SOL    HW234331   8.796   7.248   6.086
44769SOL     OW34332   7.578   7.380   7.437
44769SOL    HW134333   7.537   7.306   7.490
44769SOL    HW234334   7.642   7.431   7.495
44770SOL     OW34335   8.728   6.513   6.258
44770SOL    HW134336   8.788   6.432   6.260
44770SOL    HW234337   8.768   6.582   6.198
44771SOL     OW34338   8.278   6.859   7.008
44771SOL    HW134339   8.273   6.892   7.103
44771SOL    HW234340   8.192   6.878   6.962
44772SOL     OW34341   8.120   7.202   5.740
44772SOL    HW134342   8.129   7.212   5.641
44772SOL    HW234343   8.080   7.113   5.761
44773SOL     OW34344   9.098   7.306   6.980
44773SOL    HW134345   9.151   7.316   6.896
44773SOL    HW234346   9.071   7.396   7.014
44774SOL     OW34347   9.289   5.761   6.549
44774SOL    HW134348   9.328   5.676   6.513
44774SOL    HW234349   9.191   5.763   6.530
44775SOL     OW34350   7.711   5.912   6.306
44775SOL    HW134351   7.632   5.963   6.272
44775SOL    HW234352   7.702   5.897   6.404
44776SOL     OW34353   8.642   7.198   5.617
44776SOL    HW134354   8.648   7.105   5.654
44776SOL    HW234355   8.583   7.198   5.537
44777SOL     OW34356   8.270   6.588   6.958
44777SOL    HW134357   8.310   6.587   6.866
44777SOL    HW234358   8.280   6.680   6.998
44778SOL     OW34359   8.364   6.496   5.877
44778SOL    HW134360   8.427   6.534   5.809
44778SOL    HW234361   8.404   6.413   5.916
44779SOL     OW34362   8.952   7.193   5.630
44779SOL    HW134363   8.860   7.230   5.637
44779SOL    HW234364   8.990   7.213   5.540
44780SOL     OW34365   7.820   6.874   7.076
44780SOL    HW134366   7.807   6.967   7.042
44780SOL    HW234367   7.736   6.822   7.063
44781SOL     OW34368   9.062   6.878   6.875
44781SOL    HW134369   9.122   6.881   6.955
44781SOL    HW234370   8.987   6.942   6.888
44782SOL     OW34371   8.487   6.684   6.282
44782SOL    HW134372   8.417   6.637   6.336
44782SOL    HW234373   8.546   6.616   6.239
44783SOL     OW34374   8.462   5.822   6.557
44783SOL    HW134375   8.454   5.786   6.464
44783SOL    HW234376   8.460   5.746   6.622
44784SOL     OW34377   8.038   7.073   6.077
44784SOL    HW134378   8.080   7.015   6.007
44784SOL    HW234379   7.994   7.152   6.033
44785SOL     OW34380   9.157   5.971   6.967
44785SOL    HW134381   9.230   6.040   6.971
44785SOL    HW234382   9.185   5.896   6.908
44786SOL     OW34383   7.703   6.934   5.876
44786SOL    HW134384   7.607   6.935   5.849
44786SOL    HW234385   7.715   6.987   5.960
44787SOL     OW34386   7.553   6.599   7.312
44787SOL    HW134387   7.476   6.566   7.366
44787SOL    HW234388   7.638   6.569   7.354
44788SOL     OW34389   8.120   5.789   7.075
44788SOL    HW134390   8.210   5.773   7.035
44788SOL    HW234391   8.128   5.794   7.174
44789SOL     OW34392   7.523   5.931   5.619
44789SOL    HW134393   7.431   5.903   5.590
44789SOL    HW234394   7.554   6.008   5.563
44790SOL     OW34395   8.888   6.442   6.984
44790SOL    HW134396   8.831   6.494   6.921
44790SOL    HW234397   8.984   6.454   6.960
44791SOL     OW34398   7.520   5.752   5.904
44791SOL    HW134399   7.503   5.835   5.850
44791SOL    HW234400   7.610   5.715   5.882
44792SOL     OW34401   8.631   6.921   5.705
44792SOL    HW134402   8.532   6.910   5.707
44792SOL    HW234403   8.665   6.936   5.798
44793SOL     OW34404   8.061   6.428   7.017
44793SOL    HW134405   8.117   6.509   7.000
44793SOL    HW234406   8.120   6.348   7.020
44794SOL     OW34407   8.941   7.353   6.545
44794SOL    HW134408   8.974   7.417   6.476
44794SOL    HW234409   9.007   7.347   6.620
44795SOL     OW34410   8.164   6.151   7.294
44795SOL    HW134411   8.183   6.216   7.368
44795SOL    HW234412   8.224   6.071   7.303
44796SOL     OW34413   8.898   6.806   7.219
44796SOL    HW134414   8.889   6.796   7.318
44796SOL    HW234415   8.994   6.799   7.193
44797SOL     OW34416   7.838   7.327   7.146
44797SOL    HW134417   7.747   7.368   7.144
44797SOL    HW234418   7.831   7.233   7.178
44798SOL     OW34419   9.122   6.469   6.840
44798SOL    HW134420   9.095   6.380   6.803
44798SOL    HW234421   9.123   6.537   6.767
44799SOL     OW34422   8.673   5.911   6.035
44799SOL    HW134423   8.738   5.837   6.024
44799SOL    HW234424   8.693   5.961   6.119
44800SOL     OW34425   8.042   6.331   6.238
44800SOL    HW134426   8.092   6.416   6.219
44800SOL    HW234427   7.954   6.333   6.190
44801SOL     OW34428   9.225   5.928   7.228
44801SOL    HW134429   9.208   5.959   7.134
44801SOL    HW234430   9.141   5.891   7.266
44802SOL     OW34431   9.178   6.520   7.103
44802SOL    HW134432   9.216   6.611   7.118
44802SOL    HW234433   9.170   6.503   7.004
44803SOL     OW34434   8.307   6.960   5.602
44803SOL    HW134435   8.261   6.975   5.690
44803SOL    HW234436   8.351   7.045   5.572
44804SOL     OW34437   8.109   7.376   6.539
44804SOL    HW134438   8.063   7.464   6.526
44804SOL    HW234439   8.208   7.388   6.532
44805SOL     OW34440   8.307   6.542   6.447
44805SOL    HW134441   8.361   6.473   6.495
44805SOL    HW234442   8.275   6.611   6.513
44806SOL     OW34443   8.531   6.570   5.673
44806SOL    HW134444   8.508   6.623   5.591
44806SOL    HW234445   8.612   6.514   5.654
44807SOL     OW34446   9.309   7.155   6.437
44807SOL    HW134447   9.238   7.143   6.367
44807SOL    HW234448   9.310   7.076   6.497
44808SOL     OW34449   7.669   6.900   7.430
44808SOL    HW134450   7.604   6.827   7.409
44808SOL    HW234451   7.673   6.914   7.528
44809SOL     OW34452   7.527   6.826   6.239
44809SOL    HW134453   7.526   6.779   6.327
44809SOL    HW234454   7.609   6.798   6.188
44810SOL     OW34455   8.120   6.977   7.210
44810SOL    HW134456   8.042   6.927   7.248
44810SOL    HW234457   8.117   7.072   7.241
44811SOL     OW34458   9.272   5.778   6.813
44811SOL    HW134459   9.268   5.688   6.857
44811SOL    HW234460   9.275   5.767   6.714
44812SOL     OW34461   7.876   6.010   6.106
44812SOL    HW134462   7.906   5.938   6.044
44812SOL    HW234463   7.837   5.970   6.189
44813SOL     OW34464   9.153   7.073   6.690
44813SOL    HW134465   9.060   7.048   6.663
44813SOL    HW234466   9.179   7.023   6.772
44814SOL     OW34467   7.765   6.133   6.866
44814SOL    HW134468   7.803   6.074   6.938
44814SOL    HW234469   7.805   6.107   6.778
44815SOL     OW34470   8.260   7.172   6.273
44815SOL    HW134471   8.292   7.182   6.179
44815SOL    HW234472   8.181   7.110   6.275
44816SOL     OW34473   8.872   5.800   6.698
44816SOL    HW134474   8.924   5.735   6.753
44816SOL    HW234475   8.823   5.863   6.759
44817SOL     OW34476   8.449   5.620   6.740
44817SOL    HW134477   8.386   5.548   6.709
44817SOL    HW234478   8.542   5.584   6.740
44818SOL     OW34479   8.218   6.916   5.887
44818SOL    HW134480   8.172   6.829   5.904
44818SOL    HW234481   8.309   6.913   5.928
44819SOL     OW34482   8.066   7.153   6.870
44819SOL    HW134483   8.061   7.235   6.927
44819SOL    HW234484   8.155   7.150   6.825
44820SOL     OW34485   8.800   5.638   5.754
44820SOL    HW134486   8.835   5.597   5.670
44820SOL    HW234487   8.710   5.600   5.774
44821SOL     OW34488   8.748   6.039   6.277
44821SOL    HW134489   8.689   6.119   6.281
44821SOL    HW234490   8.763   6.004   6.370
44822SOL     OW34491   9.041   5.807   6.468
44822SOL    HW134492   8.957   5.806   6.522
44822SOL    HW234493   9.043   5.890   6.412
44823SOL     OW34494   7.487   6.663   5.886
44823SOL    HW134495   7.586   6.652   5.877
44823SOL    HW234496   7.447   6.577   5.918
44824SOL     OW34497   8.323   7.232   5.923
44824SOL    HW134498   8.246   7.197   5.869
44824SOL    HW234499   8.291   7.303   5.985
44825SOL     OW34500   7.678   6.214   7.561
44825SOL    HW134501   7.585   6.212   7.598
44825SOL    HW234502   7.679   6.175   7.469
44826SOL     OW34503   7.673   5.861   8.444
44826SOL    HW134504   7.708   5.844   8.536
44826SOL    HW234505   7.585   5.816   8.432
44827SOL     OW34506   7.467   5.954   8.095
44827SOL    HW134507   7.385   5.997   8.134
44827SOL    HW234508   7.439   5.881   8.032
44828SOL     OW34509   8.017   6.861   8.613
44828SOL    HW134510   7.924   6.854   8.576
44828SOL    HW234511   8.028   6.950   8.657
44829SOL     OW34512   9.003   7.097   8.151
44829SOL    HW134513   8.946   7.081   8.232
44829SOL    HW234514   8.944   7.107   8.071
44830SOL     OW34515   8.583   6.289   8.165
44830SOL    HW134516   8.640   6.367   8.140
44830SOL    HW234517   8.523   6.315   8.241
44831SOL     OW34518   9.203   6.193   7.679
44831SOL    HW134519   9.191   6.180   7.580
44831SOL    HW234520   9.173   6.112   7.728
44832SOL     OW34521   8.216   6.730   8.471
44832SOL    HW134522   8.138   6.747   8.531
44832SOL    HW234523   8.250   6.817   8.435
44833SOL     OW34524   8.298   6.384   9.271
44833SOL    HW134525   8.294   6.460   9.336
44833SOL    HW234526   8.320   6.420   9.180
44834SOL     OW34527   8.133   6.598   8.113
44834SOL    HW134528   8.202   6.582   8.183
44834SOL    HW234529   8.060   6.655   8.151
44835SOL     OW34530   8.134   6.747   9.251
44835SOL    HW134531   8.194   6.826   9.265
44835SOL    HW234532   8.048   6.778   9.210
44836SOL     OW34533   7.783   7.021   8.509
44836SOL    HW134534   7.705   6.990   8.456
44836SOL    HW234535   7.841   7.079   8.452
44837SOL     OW34536   8.908   7.091   8.787
44837SOL    HW134537   8.932   7.185   8.813
44837SOL    HW234538   8.892   7.037   8.869
44838SOL     OW34539   7.886   5.978   8.947
44838SOL    HW134540   7.968   5.922   8.956
44838SOL    HW234541   7.805   5.920   8.951
44839SOL     OW34542   9.051   6.033   8.185
44839SOL    HW134543   8.977   6.079   8.135
44839SOL    HW234544   9.102   6.101   8.238
44840SOL     OW34545   7.679   7.299   7.931
44840SOL    HW134546   7.713   7.376   7.985
44840SOL    HW234547   7.723   7.299   7.841
44841SOL     OW34548   8.575   6.927   9.138
44841SOL    HW134549   8.622   6.927   9.226
44841SOL    HW234550   8.527   6.840   9.127
44842SOL     OW34551   7.678   7.020   7.986
44842SOL    HW134552   7.652   7.116   7.986
44842SOL    HW234553   7.607   6.966   8.031
44843SOL     OW34554   7.688   6.677   8.334
44843SOL    HW134555   7.702   6.593   8.386
44843SOL    HW234556   7.633   6.741   8.389
44844SOL     OW34557   8.068   7.372   8.887
44844SOL    HW134558   7.976   7.355   8.922
44844SOL    HW234559   8.096   7.464   8.913
44845SOL     OW34560   8.054   6.550   7.571
44845SOL    HW134561   8.061   6.634   7.517
44845SOL    HW234562   8.100   6.563   7.659
44846SOL     OW34563   9.042   5.700   8.928
44846SOL    HW134564   9.024   5.767   8.856
44846SOL    HW234565   9.039   5.746   9.017
44847SOL     OW34566   7.570   6.229   8.011
44847SOL    HW134567   7.525   6.141   8.028
44847SOL    HW234568   7.569   6.283   8.095
44848SOL     OW34569   9.290   7.353   7.807
44848SOL    HW134570   9.344   7.324   7.887
44848SOL    HW234571   9.320   7.443   7.778
44849SOL     OW34572   7.475   7.182   7.565
44849SOL    HW134573   7.456   7.086   7.586
44849SOL    HW234574   7.442   7.240   7.640
44850SOL     OW34575   9.137   6.508   8.060
44850SOL    HW134576   9.232   6.479   8.068
44850SOL    HW234577   9.129   6.573   7.985
44851SOL     OW34578   9.089   6.694   7.880
44851SOL    HW134579   9.175   6.696   7.828
44851SOL    HW234580   9.103   6.741   7.968
44852SOL     OW34581   7.561   6.323   9.045
44852SOL    HW134582   7.649   6.310   9.090
44852SOL    HW234583   7.548   6.420   9.023
44853SOL     OW34584   8.061   6.951   8.174
44853SOL    HW134585   8.012   6.864   8.183
44853SOL    HW234586   8.038   6.994   8.087
44854SOL     OW34587   8.741   6.814   8.871
44854SOL    HW134588   8.778   6.741   8.813
44854SOL    HW234589   8.793   6.819   8.956
44855SOL     OW34590   8.257   5.590   7.950
44855SOL    HW134591   8.297   5.681   7.941
44855SOL    HW234592   8.157   5.598   7.956
44856SOL     OW34593   7.645   6.562   8.712
44856SOL    HW134594   7.734   6.517   8.698
44856SOL    HW234595   7.572   6.497   8.693
44857SOL     OW34596   8.973   6.585   7.638
44857SOL    HW134597   8.910   6.509   7.651
44857SOL    HW234598   9.021   6.603   7.724
44858SOL     OW34599   8.635   7.378   9.064
44858SOL    HW134600   8.659   7.438   8.988
44858SOL    HW234601   8.642   7.283   9.034
44859SOL     OW34602   7.765   5.837   9.249
44859SOL    HW134603   7.836   5.908   9.255
44859SOL    HW234604   7.677   5.876   9.277
44860SOL     OW34605   8.914   7.003   8.401
44860SOL    HW134606   8.855   7.009   8.481
44860SOL    HW234607   8.899   6.915   8.355
44861SOL     OW34608   9.115   7.300   8.020
44861SOL    HW134609   9.074   7.277   7.932
44861SOL    HW234610   9.097   7.226   8.085
44862SOL     OW34611   8.046   6.315   7.718
44862SOL    HW134612   8.070   6.384   7.650
44862SOL    HW234613   7.968   6.348   7.772
44863SOL     OW34614   8.729   5.931   8.392
44863SOL    HW134615   8.643   5.881   8.379
44863SOL    HW234616   8.791   5.877   8.448
44864SOL     OW34617   9.024   7.248   7.755
44864SOL    HW134618   9.113   7.294   7.758
44864SOL    HW234619   9.003   7.224   7.660
44865SOL     OW34620   8.255   6.191   8.913
44865SOL    HW134621   8.208   6.188   9.002
44865SOL    HW234622   8.204   6.136   8.847
44866SOL     OW34623   8.842   6.055   9.122
44866SOL    HW134624   8.822   6.098   9.210
44866SOL    HW234625   8.920   5.993   9.131
44867SOL     OW34626   8.421   6.476   9.020
44867SOL    HW134627   8.467   6.392   8.991
44867SOL    HW234628   8.365   6.510   8.945
44868SOL     OW34629   8.439   5.996   8.690
44868SOL    HW134630   8.362   6.030   8.744
44868SOL    HW234631   8.405   5.945   8.611
44869SOL     OW34632   8.489   6.287   7.877
44869SOL    HW134633   8.515   6.283   7.973
44869SOL    HW234634   8.404   6.236   7.863
44870SOL     OW34635   7.524   6.397   8.237
44870SOL    HW134636   7.623   6.385   8.246
44870SOL    HW234637   7.500   6.492   8.258
44871SOL     OW34638   7.578   7.407   9.019
44871SOL    HW134639   7.568   7.392   9.118
44871SOL    HW234640   7.492   7.443   8.983
44872SOL     OW34641   8.313   5.934   7.643
44872SOL    HW134642   8.372   5.997   7.594
44872SOL    HW234643   8.332   5.840   7.614
44873SOL     OW34644   9.167   6.171   9.279
44873SOL    HW134645   9.141   6.260   9.243
44873SOL    HW234646   9.165   6.103   9.206
44874SOL     OW34647   8.810   6.730   7.993
44874SOL    HW134648   8.893   6.701   7.945
44874SOL    HW234649   8.761   6.797   7.937
44875SOL     OW34650   7.998   5.782   8.333
44875SOL    HW134651   7.993   5.777   8.433
44875SOL    HW234652   8.000   5.878   8.304
44876SOL     OW34653   8.456   7.042   7.925
44876SOL    HW134654   8.410   7.114   7.873
44876SOL    HW234655   8.452   7.062   8.023
44877SOL     OW34656   7.799   7.387   8.301
44877SOL    HW134657   7.849   7.301   8.307
44877SOL    HW234658   7.864   7.464   8.298
44878SOL     OW34659   9.243   6.652   8.321
44878SOL    HW134660   9.181   6.637   8.245
44878SOL    HW234661   9.191   6.663   8.406
44879SOL     OW34662   8.675   7.136   8.954
44879SOL    HW134663   8.681   7.059   9.018
44879SOL    HW234664   8.623   7.110   8.874
44880SOL     OW34665   7.769   6.529   7.690
44880SOL    HW134666   7.851   6.568   7.648
44880SOL    HW234667   7.742   6.447   7.641
44881SOL     OW34668   8.906   6.321   8.176
44881SOL    HW134669   8.901   6.256   8.251
44881SOL    HW234670   8.986   6.380   8.189
44882SOL     OW34671   7.909   6.852   9.175
44882SOL    HW134672   7.859   6.853   9.089
44882SOL    HW234673   7.846   6.834   9.251
44883SOL     OW34674   8.559   7.362   7.685
44883SOL    HW134675   8.499   7.300   7.735
44883SOL    HW234676   8.590   7.318   7.600
44884SOL     OW34677   7.650   5.871   8.946
44884SOL    HW134678   7.570   5.931   8.933
44884SOL    HW234679   7.640   5.822   9.032
44885SOL     OW34680   9.080   6.963   7.529
44885SOL    HW134681   9.048   7.057   7.519
44885SOL    HW234682   9.004   6.900   7.517
44886SOL     OW34683   7.912   7.329   7.771
44886SOL    HW134684   7.945   7.368   7.857
44886SOL    HW234685   7.988   7.322   7.706
44887SOL     OW34686   8.848   5.693   7.874
44887SOL    HW134687   8.824   5.656   7.784
44887SOL    HW234688   8.947   5.709   7.878
44888SOL     OW34689   7.697   7.371   8.689
44888SOL    HW134690   7.754   7.306   8.739
44888SOL    HW234691   7.681   7.338   8.596
44889SOL     OW34692   8.388   7.284   8.352
44889SOL    HW134693   8.468   7.227   8.373
44889SOL    HW234694   8.339   7.244   8.275
44890SOL     OW34695   7.830   6.286   7.928
44890SOL    HW134696   7.875   6.196   7.925
44890SOL    HW234697   7.736   6.275   7.961
44891SOL     OW34698   8.995   5.808   9.177
44891SOL    HW134699   8.990   5.845   9.269
44891SOL    HW234700   8.923   5.739   9.165
44892SOL     OW34701   8.062   5.708   7.565
44892SOL    HW134702   8.160   5.686   7.572
44892SOL    HW234703   8.031   5.691   7.472
44893SOL     OW34704   8.229   5.850   9.197
44893SOL    HW134705   8.296   5.789   9.240
44893SOL    HW234706   8.156   5.869   9.262
44894SOL     OW34707   8.336   7.100   8.643
44894SOL    HW134708   8.313   7.075   8.549
44894SOL    HW234709   8.397   7.031   8.682
44895SOL     OW34710   8.799   6.176   8.881
44895SOL    HW134711   8.827   6.133   8.966
44895SOL    HW234712   8.824   6.272   8.882
44896SOL     OW34713   8.251   6.988   8.372
44896SOL    HW134714   8.341   7.002   8.330
44896SOL    HW234715   8.180   6.990   8.301
44897SOL     OW34716   8.370   6.089   8.347
44897SOL    HW134717   8.345   6.080   8.251
44897SOL    HW234718   8.418   6.007   8.378
44898SOL     OW34719   7.987   5.650   7.960
44898SOL    HW134720   7.906   5.651   8.018
44898SOL    HW234721   7.990   5.733   7.905
44899SOL     OW34722   8.882   6.774   7.489
44899SOL    HW134723   8.914   6.698   7.546
44899SOL    HW234724   8.790   6.801   7.519
44900SOL     OW34725   7.745   5.621   7.619
44900SOL    HW134726   7.794   5.705   7.598
44900SOL    HW234727   7.807   5.556   7.664
44901SOL     OW34728   8.383   5.822   7.928
44901SOL    HW134729   8.335   5.863   7.850
44901SOL    HW234730   8.482   5.820   7.909
44902SOL     OW34731   8.524   6.269   8.912
44902SOL    HW134732   8.444   6.208   8.915
44902SOL    HW234733   8.605   6.216   8.888
44903SOL     OW34734   8.675   7.156   8.241
44903SOL    HW134735   8.696   7.230   8.176
44903SOL    HW234736   8.743   7.156   8.314
44904SOL     OW34737   7.907   6.738   8.189
44904SOL    HW134738   7.836   6.711   8.254
44904SOL    HW234739   7.881   6.710   8.096
44905SOL     OW34740   8.719   7.383   8.039
44905SOL    HW134741   8.763   7.447   7.975
44905SOL    HW234742   8.669   7.435   8.109
44906SOL     OW34743   8.480   6.135   7.464
44906SOL    HW134744   8.439   6.217   7.425
44906SOL    HW234745   8.544   6.161   7.537
44907SOL     OW34746   7.526   6.142   8.834
44907SOL    HW134747   7.618   6.141   8.793
44907SOL    HW234748   7.520   6.216   8.901
44908SOL     OW34749   8.009   5.808   8.595
44908SOL    HW134750   8.047   5.724   8.632
44908SOL    HW234751   7.921   5.827   8.639
44909SOL     OW34752   8.314   6.040   8.090
44909SOL    HW134753   8.282   6.112   8.028
44909SOL    HW234754   8.338   5.959   8.037
44910SOL     OW34755   8.465   5.625   8.201
44910SOL    HW134756   8.393   5.630   8.132
44910SOL    HW234757   8.441   5.556   8.270
44911SOL     OW34758   8.877   6.759   8.315
44911SOL    HW134759   8.822   6.675   8.308
44911SOL    HW234760   8.903   6.788   8.223
44912SOL     OW34761   8.914   6.176   8.440
44912SOL    HW134762   8.884   6.081   8.447
44912SOL    HW234763   8.987   6.192   8.506
44913SOL     OW34764   9.305   6.419   7.825
44913SOL    HW134765   9.347   6.355   7.889
44913SOL    HW234766   9.267   6.368   7.747
44914SOL     OW34767   7.936   6.971   7.622
44914SOL    HW134768   7.849   6.956   7.669
44914SOL    HW234769   7.919   6.997   7.527
44915SOL     OW34770   9.112   6.866   8.105
44915SOL    HW134771   9.211   6.874   8.119
44915SOL    HW234772   9.067   6.950   8.136
44916SOL     OW34773   8.838   6.161   7.526
44916SOL    HW134774   8.784   6.140   7.607
44916SOL    HW234775   8.929   6.120   7.535
44917SOL     OW34776   7.975   5.842   7.776
44917SOL    HW134777   8.002   5.783   7.701
44917SOL    HW234778   7.975   5.937   7.745
44918SOL     OW34779   9.202   6.809   9.036
44918SOL    HW134780   9.293   6.770   9.023
44918SOL    HW234781   9.210   6.905   9.060
44919SOL     OW34782   8.512   6.933   8.788
44919SOL    HW134783   8.432   6.910   8.843
44919SOL    HW234784   8.595   6.907   8.837
44920SOL     OW34785   9.040   7.215   9.073
44920SOL    HW134786   9.067   7.249   8.983
44920SOL    HW234787   9.119   7.177   9.119
44921SOL     OW34788   8.559   6.781   8.548
44921SOL    HW134789   8.519   6.825   8.629
44921SOL    HW234790   8.518   6.818   8.465
44922SOL     OW34791   9.086   6.685   8.527
44922SOL    HW134792   9.091   6.766   8.586
44922SOL    HW234793   9.000   6.687   8.476
44923SOL     OW34794   8.363   5.675   8.850
44923SOL    HW134795   8.388   5.655   8.755
44923SOL    HW234796   8.435   5.731   8.892
44924SOL     OW34797   8.428   6.702   9.167
44924SOL    HW134798   8.329   6.708   9.177
44924SOL    HW234799   8.451   6.622   9.111
44925SOL     OW34800   8.153   6.636   7.816
44925SOL    HW134801   8.139   6.643   7.915
44925SOL    HW234802   8.237   6.585   7.798
44926SOL     OW34803   7.858   6.399   8.699
44926SOL    HW134804   7.944   6.411   8.749
44926SOL    HW234805   7.816   6.312   8.726
44927SOL     OW34806   8.722   5.972   8.710
44927SOL    HW134807   8.743   6.046   8.774
44927SOL    HW234808   8.633   5.989   8.667
44928SOL     OW34809   7.512   7.150   8.779
44928SOL    HW134810   7.466   7.232   8.745
44928SOL    HW234811   7.610   7.169   8.788
44929SOL     OW34812   7.815   6.686   7.949
44929SOL    HW134813   7.808   6.769   7.893
44929SOL    HW234814   7.819   6.606   7.889
44930SOL     OW34815   8.014   6.123   8.313
44930SOL    HW134816   8.026   6.189   8.239
44930SOL    HW234817   8.060   6.157   8.396
44931SOL     OW34818   8.700   6.934   7.836
44931SOL    HW134819   8.750   7.011   7.876
44931SOL    HW234820   8.605   6.936   7.868
44932SOL     OW34821   8.720   7.031   8.590
44932SOL    HW134822   8.767   7.044   8.677
44932SOL    HW234823   8.654   6.957   8.599
44933SOL     OW34824   9.030   6.225   7.920
44933SOL    HW134825   8.999   6.286   7.993
44933SOL    HW234826   9.080   6.277   7.851
44934SOL     OW34827   7.802   7.096   8.777
44934SOL    HW134828   7.781   7.052   8.690
44934SOL    HW234829   7.899   7.122   8.780
44935SOL     OW34830   7.850   6.337   9.046
44935SOL    HW134831   7.918   6.392   8.999
44935SOL    HW234832   7.890   6.249   9.073
44936SOL     OW34833   9.035   6.365   9.118
44936SOL    HW134834   8.943   6.403   9.113
44936SOL    HW234835   9.095   6.412   9.053
44937SOL     OW34836   8.461   5.691   9.218
44937SOL    HW134837   8.467   5.776   9.166
44937SOL    HW234838   8.493   5.615   9.161
44938SOL     OW34839   7.952   5.636   9.188
44938SOL    HW134840   7.910   5.579   9.118
44938SOL    HW234841   7.886   5.705   9.220
44939SOL     OW34842   8.021   6.456   8.477
44939SOL    HW134843   8.065   6.545   8.468
44939SOL    HW234844   7.958   6.456   8.554
44940SOL     OW34845   8.808   6.448   8.493
44940SOL    HW134846   8.733   6.448   8.427
44940SOL    HW234847   8.845   6.356   8.502
44941SOL     OW34848   8.657   6.111   7.723
44941SOL    HW134849   8.670   6.027   7.777
44941SOL    HW234850   8.628   6.185   7.783
44942SOL     OW34851   7.755   5.799   8.679
44942SOL    HW134852   7.732   5.836   8.769
44942SOL    HW234853   7.725   5.704   8.673
44943SOL     OW34854   7.485   6.896   8.730
44943SOL    HW134855   7.538   6.847   8.798
44943SOL    HW234856   7.507   6.994   8.735
44944SOL     OW34857   8.180   6.220   8.512
44944SOL    HW134858   8.239   6.194   8.436
44944SOL    HW234859   8.152   6.316   8.501
44945SOL     OW34860   9.176   6.521   9.302
44945SOL    HW134861   9.130   6.514   9.213
44945SOL    HW234862   9.114   6.565   9.368
44946SOL     OW34863   7.755   5.649   8.066
44946SOL    HW134864   7.744   5.743   8.099
44946SOL    HW234865   7.750   5.586   8.143
44947SOL     OW34866   9.070   5.953   7.822
44947SOL    HW134867   9.072   5.877   7.886
44947SOL    HW234868   9.022   6.030   7.862
44948SOL     OW34869   8.471   6.352   8.414
44948SOL    HW134870   8.486   6.373   8.510
44948SOL    HW234871   8.441   6.257   8.405
44949SOL     OW34872   8.428   7.159   9.148
44949SOL    HW134873   8.408   7.203   9.060
44949SOL    HW234874   8.467   7.068   9.132
44950SOL     OW34875   9.307   7.104   9.053
44950SOL    HW134876   9.321   7.131   8.958
44950SOL    HW234877   9.390   7.126   9.106
44951SOL     OW34878   7.798   6.484   9.252
44951SOL    HW134879   7.874   6.528   9.300
44951SOL    HW234880   7.833   6.437   9.170
44952SOL     OW34881   8.988   5.860   7.573
44952SOL    HW134882   8.927   5.785   7.596
44952SOL    HW234883   9.010   5.912   7.656
44953SOL     OW34884   8.751   6.424   7.490
44953SOL    HW134885   8.785   6.331   7.505
44953SOL    HW234886   8.769   6.451   7.395
44954SOL     OW34887   8.516   6.919   8.297
44954SOL    HW134888   8.523   6.835   8.242
44954SOL    HW234889   8.578   6.988   8.261
44955SOL     OW34890   7.767   6.396   8.397
44955SOL    HW134891   7.860   6.432   8.402
44955SOL    HW234892   7.761   6.311   8.449
44956SOL     OW34893   7.787   6.095   8.454
44956SOL    HW134894   7.735   6.012   8.437
44956SOL    HW234895   7.864   6.100   8.390
44957SOL     OW34896   8.586   5.966   9.126
44957SOL    HW134897   8.541   6.029   9.190
44957SOL    HW234898   8.679   5.997   9.109
44958SOL     OW34899   8.608   5.793   8.925
44958SOL    HW134900   8.608   5.857   9.002
44958SOL    HW234901   8.636   5.841   8.842
44959SOL     OW34902   7.456   6.912   7.648
44959SOL    HW134903   7.363   6.933   7.617
44959SOL    HW234904   7.466   6.813   7.661
44960SOL     OW34905   7.536   7.387   8.375
44960SOL    HW134906   7.494   7.301   8.348
44960SOL    HW234907   7.630   7.390   8.341
44961SOL     OW34908   7.952   7.154   8.358
44961SOL    HW134909   8.018   7.228   8.367
44961SOL    HW234910   7.996   7.075   8.316
44962SOL     OW34911   8.450   6.382   8.686
44962SOL    HW134912   8.491   6.350   8.772
44962SOL    HW234913   8.354   6.355   8.683
44963SOL     OW34914   7.488   6.130   8.562
44963SOL    HW134915   7.573   6.097   8.521
44963SOL    HW234916   7.501   6.145   8.660
44964SOL     OW34917   7.637   6.106   9.170
44964SOL    HW134918   7.696   6.066   9.100
44964SOL    HW234919   7.579   6.177   9.129
44965SOL     OW34920   8.817   6.536   9.108
44965SOL    HW134921   8.856   6.625   9.128
44965SOL    HW234922   8.827   6.516   9.011
44966SOL     OW34923   8.263   6.158   7.773
44966SOL    HW134924   8.270   6.069   7.727
44966SOL    HW234925   8.169   6.192   7.765
44967SOL     OW34926   9.105   6.190   8.654
44967SOL    HW134927   9.067   6.121   8.716
44967SOL    HW234928   9.187   6.154   8.610
44968SOL     OW34929   7.700   7.150   9.192
44968SOL    HW134930   7.670   7.207   9.268
44968SOL    HW234931   7.693   7.053   9.218
44969SOL     OW34932   8.119   6.050   8.717
44969SOL    HW134933   8.085   5.961   8.687
44969SOL    HW234934   8.145   6.104   8.637
44970SOL     OW34935   8.378   7.264   8.913
44970SOL    HW134936   8.354   7.246   8.818
44970SOL    HW234937   8.408   7.358   8.923
44971SOL     OW34938   7.921   6.086   7.639
44971SOL    HW134939   7.982   6.166   7.643
44971SOL    HW234940   7.826   6.117   7.646
44972SOL     OW34941   7.607   6.723   8.914
44972SOL    HW134942   7.629   6.662   8.990
44972SOL    HW234943   7.617   6.674   8.828
44973SOL     OW34944   8.795   6.645   8.682
44973SOL    HW134945   8.819   6.582   8.608
44973SOL    HW234946   8.705   6.685   8.664
44974SOL     OW34947   8.750   6.441   7.757
44974SOL    HW134948   8.664   6.410   7.799
44974SOL    HW234949   8.746   6.427   7.658
44975SOL     OW34950   9.207   7.333   8.602
44975SOL    HW134951   9.268   7.363   8.529
44975SOL    HW234952   9.169   7.244   8.580
44976SOL     OW34953   8.700   7.317   8.576
44976SOL    HW134954   8.784   7.322   8.522
44976SOL    HW234955   8.677   7.221   8.594
44977SOL     OW34956   7.531   6.844   8.470
44977SOL    HW134957   7.526   6.843   8.570
44977SOL    HW234958   7.448   6.803   8.432
44978SOL     OW34959   8.136   7.248   9.164
44978SOL    HW134960   8.080   7.329   9.173
44978SOL    HW234961   8.188   7.252   9.078
44979SOL     OW34962   9.174   5.721   7.971
44979SOL    HW134963   9.247   5.704   7.904
44979SOL    HW234964   9.143   5.634   8.009
44980SOL     OW34965   8.836   7.159   7.925
44980SOL    HW134966   8.903   7.171   7.851
44980SOL    HW234967   8.796   7.248   7.948
44981SOL     OW34968   7.578   7.380   9.299
44981SOL    HW134969   7.537   7.306   9.352
44981SOL    HW234970   7.642   7.431   9.357
44982SOL     OW34971   8.728   6.513   8.120
44982SOL    HW134972   8.788   6.432   8.122
44982SOL    HW234973   8.768   6.582   8.060
44983SOL     OW34974   8.278   6.859   8.870
44983SOL    HW134975   8.273   6.892   8.965
44983SOL    HW234976   8.192   6.878   8.824
44984SOL     OW34977   8.120   7.202   7.602
44984SOL    HW134978   8.129   7.212   7.503
44984SOL    HW234979   8.080   7.113   7.623
44985SOL     OW34980   9.098   7.306   8.842
44985SOL    HW134981   9.151   7.316   8.758
44985SOL    HW234982   9.071   7.396   8.876
44986SOL     OW34983   9.289   5.761   8.411
44986SOL    HW134984   9.328   5.676   8.375
44986SOL    HW234985   9.191   5.763   8.392
44987SOL     OW34986   7.711   5.912   8.168
44987SOL    HW134987   7.632   5.963   8.134
44987SOL    HW234988   7.702   5.897   8.266
44988SOL     OW34989   8.642   7.198   7.479
44988SOL    HW134990   8.648   7.105   7.516
44988SOL    HW234991   8.583   7.198   7.399
44989SOL     OW34992   8.270   6.588   8.820
44989SOL    HW134993   8.310   6.587   8.728
44989SOL    HW234994   8.280   6.680   8.860
44990SOL     OW34995   8.364   6.496   7.739
44990SOL    HW134996   8.427   6.534   7.671
44990SOL    HW234997   8.404   6.413   7.778
44991SOL     OW34998   8.952   7.193   7.492
44991SOL    HW134999   8.860   7.230   7.499
44991SOL    HW235000   8.990   7.213   7.402
44992SOL     OW35001   7.820   6.874   8.938
44992SOL    HW135002   7.807   6.967   8.904
44992SOL    HW235003   7.736   6.822   8.925
44993SOL     OW35004   9.062   6.878   8.737
44993SOL    HW135005   9.122   6.881   8.817
44993SOL    HW235006   8.987   6.942   8.750
44994SOL     OW35007   8.487   6.684   8.144
44994SOL    HW135008   8.417   6.637   8.198
44994SOL    HW235009   8.546   6.616   8.101
44995SOL     OW35010   8.462   5.822   8.419
44995SOL    HW135011   8.454   5.786   8.326
44995SOL    HW235012   8.460   5.746   8.484
44996SOL     OW35013   8.038   7.073   7.939
44996SOL    HW135014   8.080   7.015   7.869
44996SOL    HW235015   7.994   7.152   7.895
44997SOL     OW35016   9.157   5.971   8.829
44997SOL    HW135017   9.230   6.040   8.833
44997SOL    HW235018   9.185   5.896   8.770
44998SOL     OW35019   7.703   6.934   7.738
44998SOL    HW135020   7.607   6.935   7.711
44998SOL    HW235021   7.715   6.987   7.822
44999SOL     OW35022   7.553   6.599   9.174
44999SOL    HW135023   7.476   6.566   9.228
44999SOL    HW235024   7.638   6.569   9.216
45000SOL     OW35025   8.120   5.789   8.937
45000SOL    HW135026   8.210   5.773   8.897
45000SOL    HW235027   8.128   5.794   9.036
45001SOL     OW35028   7.523   5.931   7.481
45001SOL    HW135029   7.431   5.903   7.452
45001SOL    HW235030   7.554   6.008   7.425
45002SOL     OW35031   8.888   6.442   8.846
45002SOL    HW135032   8.831   6.494   8.783
45002SOL    HW235033   8.984   6.454   8.822
45003SOL     OW35034   7.520   5.752   7.766
45003SOL    HW135035   7.503   5.835   7.712
45003SOL    HW235036   7.610   5.715   7.744
45004SOL     OW35037   8.631   6.921   7.567
45004SOL    HW135038   8.532   6.910   7.569
45004SOL    HW235039   8.665   6.936   7.660
45005SOL     OW35040   8.061   6.428   8.879
45005SOL    HW135041   8.117   6.509   8.862
45005SOL    HW235042   8.120   6.348   8.882
45006SOL     OW35043   8.941   7.353   8.407
45006SOL    HW135044   8.974   7.417   8.338
45006SOL    HW235045   9.007   7.347   8.482
45007SOL     OW35046   8.164   6.151   9.156
45007SOL    HW135047   8.183   6.216   9.230
45007SOL    HW235048   8.224   6.071   9.165
45008SOL     OW35049   8.898   6.806   9.081
45008SOL    HW135050   8.889   6.796   9.180
45008SOL    HW235051   8.994   6.799   9.055
45009SOL     OW35052   7.838   7.327   9.008
45009SOL    HW135053   7.747   7.368   9.006
45009SOL    HW235054   7.831   7.233   9.040
45010SOL     OW35055   9.122   6.469   8.702
45010SOL    HW135056   9.095   6.380   8.665
45010SOL    HW235057   9.123   6.537   8.629
45011SOL     OW35058   8.673   5.911   7.897
45011SOL    HW135059   8.738   5.837   7.886
45011SOL    HW235060   8.693   5.961   7.981
45012SOL     OW35061   8.042   6.331   8.100
45012SOL    HW135062   8.092   6.416   8.081
45012SOL    HW235063   7.954   6.333   8.052
45013SOL     OW35064   9.225   5.928   9.090
45013SOL    HW135065   9.208   5.959   8.996
45013SOL    HW235066   9.141   5.891   9.128
45014SOL     OW35067   9.178   6.520   8.965
45014SOL    HW135068   9.216   6.611   8.980
45014SOL    HW235069   9.170   6.503   8.866
45015SOL     OW35070   8.307   6.960   7.464
45015SOL    HW135071   8.261   6.975   7.552
45015SOL    HW235072   8.351   7.045   7.434
45016SOL     OW35073   8.109   7.376   8.401
45016SOL    HW135074   8.063   7.464   8.388
45016SOL    HW235075   8.208   7.388   8.394
45017SOL     OW35076   8.307   6.542   8.309
45017SOL    HW135077   8.361   6.473   8.357
45017SOL    HW235078   8.275   6.611   8.375
45018SOL     OW35079   8.531   6.570   7.535
45018SOL    HW135080   8.508   6.623   7.453
45018SOL    HW235081   8.612   6.514   7.516
45019SOL     OW35082   9.309   7.155   8.299
45019SOL    HW135083   9.238   7.143   8.229
45019SOL    HW235084   9.310   7.076   8.359
45020SOL     OW35085   7.669   6.900   9.292
45020SOL    HW135086   7.604   6.827   9.271
45020SOL    HW235087   7.673   6.914   9.390
45021SOL     OW35088   7.527   6.826   8.101
45021SOL    HW135089   7.526   6.779   8.189
45021SOL    HW235090   7.609   6.798   8.050
45022SOL     OW35091   8.120   6.977   9.072
45022SOL    HW135092   8.042   6.927   9.110
45022SOL    HW235093   8.117   7.072   9.103
45023SOL     OW35094   9.272   5.778   8.675
45023SOL    HW135095   9.268   5.688   8.719
45023SOL    HW235096   9.275   5.767   8.576
45024SOL     OW35097   7.876   6.010   7.968
45024SOL    HW135098   7.906   5.938   7.906
45024SOL    HW235099   7.837   5.970   8.051
45025SOL     OW35100   9.153   7.073   8.552
45025SOL    HW135101   9.060   7.048   8.525
45025SOL    HW235102   9.179   7.023   8.634
45026SOL     OW35103   7.765   6.133   8.728
45026SOL    HW135104   7.803   6.074   8.800
45026SOL    HW235105   7.805   6.107   8.640
45027SOL     OW35106   8.260   7.172   8.135
45027SOL    HW135107   8.292   7.182   8.041
45027SOL    HW235108   8.181   7.110   8.137
45028SOL     OW35109   8.872   5.800   8.560
45028SOL    HW135110   8.924   5.735   8.615
45028SOL    HW235111   8.823   5.863   8.621
45029SOL     OW35112   8.449   5.620   8.602
45029SOL    HW135113   8.386   5.548   8.571
45029SOL    HW235114   8.542   5.584   8.602
45030SOL     OW35115   8.218   6.916   7.749
45030SOL    HW135116   8.172   6.829   7.766
45030SOL    HW235117   8.309   6.913   7.790
45031SOL     OW35118   8.066   7.153   8.732
45031SOL    HW135119   8.061   7.235   8.789
45031SOL    HW235120   8.155   7.150   8.687
45032SOL     OW35121   8.800   5.638   7.616
45032SOL    HW135122   8.835   5.597   7.532
45032SOL    HW235123   8.710   5.600   7.636
45033SOL     OW35124   8.748   6.039   8.139
45033SOL    HW135125   8.689   6.119   8.143
45033SOL    HW235126   8.763   6.004   8.232
45034SOL     OW35127   9.041   5.807   8.330
45034SOL    HW135128   8.957   5.806   8.384
45034SOL    HW235129   9.043   5.890   8.274
45035SOL     OW35130   7.487   6.663   7.748
45035SOL    HW135131   7.586   6.652   7.739
45035SOL    HW235132   7.447   6.577   7.780
45036SOL     OW35133   8.323   7.232   7.785
45036SOL    HW135134   8.246   7.197   7.731
45036SOL    HW235135   8.291   7.303   7.847
45037SOL     OW35136   7.678   6.214   9.423
45037SOL    HW135137   7.585   6.212   9.460
45037SOL    HW235138   7.679   6.175   9.331
45038SOL     OW35139   7.673   5.861  10.306
45038SOL    HW135140   7.708   5.844  10.398
45038SOL    HW235141   7.585   5.816  10.294
45039SOL     OW35142   7.467   5.954   9.957
45039SOL    HW135143   7.385   5.997   9.996
45039SOL    HW235144   7.439   5.881   9.894
45040SOL     OW35145   8.017   6.861  10.475
45040SOL    HW135146   7.924   6.854  10.438
45040SOL    HW235147   8.028   6.950  10.519
45041SOL     OW35148   9.003   7.097  10.013
45041SOL    HW135149   8.946   7.081  10.094
45041SOL    HW235150   8.944   7.107   9.933
45042SOL     OW35151   8.583   6.289  10.027
45042SOL    HW135152   8.640   6.367  10.002
45042SOL    HW235153   8.523   6.315  10.103
45043SOL     OW35154   9.203   6.193   9.541
45043SOL    HW135155   9.191   6.180   9.442
45043SOL    HW235156   9.173   6.112   9.590
45044SOL     OW35157   8.216   6.730  10.333
45044SOL    HW135158   8.138   6.747  10.393
45044SOL    HW235159   8.250   6.817  10.297
45045SOL     OW35160   8.298   6.384  11.133
45045SOL    HW135161   8.294   6.460  11.198
45045SOL    HW235162   8.320   6.420  11.042
45046SOL     OW35163   8.133   6.598   9.975
45046SOL    HW135164   8.202   6.582  10.045
45046SOL    HW235165   8.060   6.655  10.013
45047SOL     OW35166   8.134   6.747  11.113
45047SOL    HW135167   8.194   6.826  11.127
45047SOL    HW235168   8.048   6.778  11.072
45048SOL     OW35169   7.783   7.021  10.371
45048SOL    HW135170   7.705   6.990  10.318
45048SOL    HW235171   7.841   7.079  10.314
45049SOL     OW35172   8.908   7.091  10.649
45049SOL    HW135173   8.932   7.185  10.675
45049SOL    HW235174   8.892   7.037  10.731
45050SOL     OW35175   7.886   5.978  10.809
45050SOL    HW135176   7.968   5.922  10.818
45050SOL    HW235177   7.805   5.920  10.813
45051SOL     OW35178   9.051   6.033  10.047
45051SOL    HW135179   8.977   6.079   9.997
45051SOL    HW235180   9.102   6.101  10.100
45052SOL     OW35181   7.679   7.299   9.793
45052SOL    HW135182   7.713   7.376   9.847
45052SOL    HW235183   7.723   7.299   9.703
45053SOL     OW35184   8.575   6.927  11.000
45053SOL    HW135185   8.622   6.927  11.088
45053SOL    HW235186   8.527   6.840  10.989
45054SOL     OW35187   7.678   7.020   9.848
45054SOL    HW135188   7.652   7.116   9.848
45054SOL    HW235189   7.607   6.966   9.893
45055SOL     OW35190   7.688   6.677  10.196
45055SOL    HW135191   7.702   6.593  10.248
45055SOL    HW235192   7.633   6.741  10.251
45056SOL     OW35193   8.068   7.372  10.749
45056SOL    HW135194   7.976   7.355  10.784
45056SOL    HW235195   8.096   7.464  10.775
45057SOL     OW35196   8.054   6.550   9.433
45057SOL    HW135197   8.061   6.634   9.379
45057SOL    HW235198   8.100   6.563   9.521
45058SOL     OW35199   9.042   5.700  10.790
45058SOL    HW135200   9.024   5.767  10.718
45058SOL    HW235201   9.039   5.746  10.879
45059SOL     OW35202   7.570   6.229   9.873
45059SOL    HW135203   7.525   6.141   9.890
45059SOL    HW235204   7.569   6.283   9.957
45060SOL     OW35205   9.290   7.353   9.669
45060SOL    HW135206   9.344   7.324   9.749
45060SOL    HW235207   9.320   7.443   9.640
45061SOL     OW35208   7.475   7.182   9.427
45061SOL    HW135209   7.456   7.086   9.448
45061SOL    HW235210   7.442   7.240   9.502
45062SOL     OW35211   9.137   6.508   9.922
45062SOL    HW135212   9.232   6.479   9.930
45062SOL    HW235213   9.129   6.573   9.847
45063SOL     OW35214   9.089   6.694   9.742
45063SOL    HW135215   9.175   6.696   9.690
45063SOL    HW235216   9.103   6.741   9.830
45064SOL     OW35217   7.561   6.323  10.907
45064SOL    HW135218   7.649   6.310  10.952
45064SOL    HW235219   7.548   6.420  10.885
45065SOL     OW35220   8.061   6.951  10.036
45065SOL    HW135221   8.012   6.864  10.045
45065SOL    HW235222   8.038   6.994   9.949
45066SOL     OW35223   8.741   6.814  10.733
45066SOL    HW135224   8.778   6.741  10.675
45066SOL    HW235225   8.793   6.819  10.818
45067SOL     OW35226   8.257   5.590   9.812
45067SOL    HW135227   8.297   5.681   9.803
45067SOL    HW235228   8.157   5.598   9.818
45068SOL     OW35229   7.645   6.562  10.574
45068SOL    HW135230   7.734   6.517  10.560
45068SOL    HW235231   7.572   6.497  10.555
45069SOL     OW35232   8.973   6.585   9.500
45069SOL    HW135233   8.910   6.509   9.513
45069SOL    HW235234   9.021   6.603   9.586
45070SOL     OW35235   8.635   7.378  10.926
45070SOL    HW135236   8.659   7.438  10.850
45070SOL    HW235237   8.642   7.283  10.896
45071SOL     OW35238   7.765   5.837  11.111
45071SOL    HW135239   7.836   5.908  11.117
45071SOL    HW235240   7.677   5.876  11.139
45072SOL     OW35241   8.914   7.003  10.263
45072SOL    HW135242   8.855   7.009  10.343
45072SOL    HW235243   8.899   6.915  10.217
45073SOL     OW35244   9.115   7.300   9.882
45073SOL    HW135245   9.074   7.277   9.794
45073SOL    HW235246   9.097   7.226   9.947
45074SOL     OW35247   8.046   6.315   9.580
45074SOL    HW135248   8.070   6.384   9.512
45074SOL    HW235249   7.968   6.348   9.634
45075SOL     OW35250   8.729   5.931  10.254
45075SOL    HW135251   8.643   5.881  10.241
45075SOL    HW235252   8.791   5.877  10.310
45076SOL     OW35253   9.024   7.248   9.617
45076SOL    HW135254   9.113   7.294   9.620
45076SOL    HW235255   9.003   7.224   9.522
45077SOL     OW35256   8.255   6.191  10.775
45077SOL    HW135257   8.208   6.188  10.864
45077SOL    HW235258   8.204   6.136  10.709
45078SOL     OW35259   8.842   6.055  10.984
45078SOL    HW135260   8.822   6.098  11.072
45078SOL    HW235261   8.920   5.993  10.993
45079SOL     OW35262   8.421   6.476  10.882
45079SOL    HW135263   8.467   6.392  10.853
45079SOL    HW235264   8.365   6.510  10.807
45080SOL     OW35265   8.439   5.996  10.552
45080SOL    HW135266   8.362   6.030  10.606
45080SOL    HW235267   8.405   5.945  10.473
45081SOL     OW35268   8.489   6.287   9.739
45081SOL    HW135269   8.515   6.283   9.835
45081SOL    HW235270   8.404   6.236   9.725
45082SOL     OW35271   7.524   6.397  10.099
45082SOL    HW135272   7.623   6.385  10.108
45082SOL    HW235273   7.500   6.492  10.120
45083SOL     OW35274   7.578   7.407  10.881
45083SOL    HW135275   7.568   7.392  10.980
45083SOL    HW235276   7.492   7.443  10.845
45084SOL     OW35277   8.313   5.934   9.505
45084SOL    HW135278   8.372   5.997   9.456
45084SOL    HW235279   8.332   5.840   9.476
45085SOL     OW35280   9.167   6.171  11.141
45085SOL    HW135281   9.141   6.260  11.105
45085SOL    HW235282   9.165   6.103  11.068
45086SOL     OW35283   8.810   6.730   9.855
45086SOL    HW135284   8.893   6.701   9.807
45086SOL    HW235285   8.761   6.797   9.799
45087SOL     OW35286   7.998   5.782  10.195
45087SOL    HW135287   7.993   5.777  10.295
45087SOL    HW235288   8.000   5.878  10.166
45088SOL     OW35289   8.456   7.042   9.787
45088SOL    HW135290   8.410   7.114   9.735
45088SOL    HW235291   8.452   7.062   9.885
45089SOL     OW35292   7.799   7.387  10.163
45089SOL    HW135293   7.849   7.301  10.169
45089SOL    HW235294   7.864   7.464  10.160
45090SOL     OW35295   9.243   6.652  10.183
45090SOL    HW135296   9.181   6.637  10.107
45090SOL    HW235297   9.191   6.663  10.268
45091SOL     OW35298   8.675   7.136  10.816
45091SOL    HW135299   8.681   7.059  10.880
45091SOL    HW235300   8.623   7.110  10.736
45092SOL     OW35301   7.769   6.529   9.552
45092SOL    HW135302   7.851   6.568   9.510
45092SOL    HW235303   7.742   6.447   9.503
45093SOL     OW35304   8.906   6.321  10.038
45093SOL    HW135305   8.901   6.256  10.113
45093SOL    HW235306   8.986   6.380  10.051
45094SOL     OW35307   7.909   6.852  11.037
45094SOL    HW135308   7.859   6.853  10.951
45094SOL    HW235309   7.846   6.834  11.113
45095SOL     OW35310   8.559   7.362   9.547
45095SOL    HW135311   8.499   7.300   9.597
45095SOL    HW235312   8.590   7.318   9.462
45096SOL     OW35313   7.650   5.871  10.808
45096SOL    HW135314   7.570   5.931  10.795
45096SOL    HW235315   7.640   5.822  10.894
45097SOL     OW35316   9.080   6.963   9.391
45097SOL    HW135317   9.048   7.057   9.381
45097SOL    HW235318   9.004   6.900   9.379
45098SOL     OW35319   7.912   7.329   9.633
45098SOL    HW135320   7.945   7.368   9.719
45098SOL    HW235321   7.988   7.322   9.568
45099SOL     OW35322   8.848   5.693   9.736
45099SOL    HW135323   8.824   5.656   9.646
45099SOL    HW235324   8.947   5.709   9.740
45100SOL     OW35325   7.697   7.371  10.551
45100SOL    HW135326   7.754   7.306  10.601
45100SOL    HW235327   7.681   7.338  10.458
45101SOL     OW35328   8.388   7.284  10.214
45101SOL    HW135329   8.468   7.227  10.235
45101SOL    HW235330   8.339   7.244  10.137
45102SOL     OW35331   7.830   6.286   9.790
45102SOL    HW135332   7.875   6.196   9.787
45102SOL    HW235333   7.736   6.275   9.823
45103SOL     OW35334   8.995   5.808  11.039
45103SOL    HW135335   8.990   5.845  11.131
45103SOL    HW235336   8.923   5.739  11.027
45104SOL     OW35337   8.062   5.708   9.427
45104SOL    HW135338   8.160   5.686   9.434
45104SOL    HW235339   8.031   5.691   9.334
45105SOL     OW35340   8.229   5.850  11.059
45105SOL    HW135341   8.296   5.789  11.102
45105SOL    HW235342   8.156   5.869  11.124
45106SOL     OW35343   8.336   7.100  10.505
45106SOL    HW135344   8.313   7.075  10.411
45106SOL    HW235345   8.397   7.031  10.544
45107SOL     OW35346   8.799   6.176  10.743
45107SOL    HW135347   8.827   6.133  10.828
45107SOL    HW235348   8.824   6.272  10.744
45108SOL     OW35349   8.251   6.988  10.234
45108SOL    HW135350   8.341   7.002  10.192
45108SOL    HW235351   8.180   6.990  10.163
45109SOL     OW35352   8.370   6.089  10.209
45109SOL    HW135353   8.345   6.080  10.113
45109SOL    HW235354   8.418   6.007  10.240
45110SOL     OW35355   7.987   5.650   9.822
45110SOL    HW135356   7.906   5.651   9.880
45110SOL    HW235357   7.990   5.733   9.767
45111SOL     OW35358   8.882   6.774   9.351
45111SOL    HW135359   8.914   6.698   9.408
45111SOL    HW235360   8.790   6.801   9.381
45112SOL     OW35361   7.745   5.621   9.481
45112SOL    HW135362   7.794   5.705   9.460
45112SOL    HW235363   7.807   5.556   9.526
45113SOL     OW35364   8.383   5.822   9.790
45113SOL    HW135365   8.335   5.863   9.712
45113SOL    HW235366   8.482   5.820   9.771
45114SOL     OW35367   8.524   6.269  10.774
45114SOL    HW135368   8.444   6.208  10.777
45114SOL    HW235369   8.605   6.216  10.750
45115SOL     OW35370   8.675   7.156  10.103
45115SOL    HW135371   8.696   7.230  10.038
45115SOL    HW235372   8.743   7.156  10.176
45116SOL     OW35373   7.907   6.738  10.051
45116SOL    HW135374   7.836   6.711  10.116
45116SOL    HW235375   7.881   6.710   9.958
45117SOL     OW35376   8.719   7.383   9.901
45117SOL    HW135377   8.763   7.447   9.837
45117SOL    HW235378   8.669   7.435   9.971
45118SOL     OW35379   8.480   6.135   9.326
45118SOL    HW135380   8.439   6.217   9.287
45118SOL    HW235381   8.544   6.161   9.399
45119SOL     OW35382   7.526   6.142  10.696
45119SOL    HW135383   7.618   6.141  10.655
45119SOL    HW235384   7.520   6.216  10.763
45120SOL     OW35385   8.009   5.808  10.457
45120SOL    HW135386   8.047   5.724  10.494
45120SOL    HW235387   7.921   5.827  10.501
45121SOL     OW35388   8.314   6.040   9.952
45121SOL    HW135389   8.282   6.112   9.890
45121SOL    HW235390   8.338   5.959   9.899
45122SOL     OW35391   8.465   5.625  10.063
45122SOL    HW135392   8.393   5.630   9.994
45122SOL    HW235393   8.441   5.556  10.132
45123SOL     OW35394   8.877   6.759  10.177
45123SOL    HW135395   8.822   6.675  10.170
45123SOL    HW235396   8.903   6.788  10.085
45124SOL     OW35397   8.914   6.176  10.302
45124SOL    HW135398   8.884   6.081  10.309
45124SOL    HW235399   8.987   6.192  10.368
45125SOL     OW35400   9.305   6.419   9.687
45125SOL    HW135401   9.347   6.355   9.751
45125SOL    HW235402   9.267   6.368   9.609
45126SOL     OW35403   7.936   6.971   9.484
45126SOL    HW135404   7.849   6.956   9.531
45126SOL    HW235405   7.919   6.997   9.389
45127SOL     OW35406   9.112   6.866   9.967
45127SOL    HW135407   9.211   6.874   9.981
45127SOL    HW235408   9.067   6.950   9.998
45128SOL     OW35409   8.838   6.161   9.388
45128SOL    HW135410   8.784   6.140   9.469
45128SOL    HW235411   8.929   6.120   9.397
45129SOL     OW35412   7.975   5.842   9.638
45129SOL    HW135413   8.002   5.783   9.563
45129SOL    HW235414   7.975   5.937   9.607
45130SOL     OW35415   9.202   6.809  10.898
45130SOL    HW135416   9.293   6.770  10.885
45130SOL    HW235417   9.210   6.905  10.922
45131SOL     OW35418   8.512   6.933  10.650
45131SOL    HW135419   8.432   6.910  10.705
45131SOL    HW235420   8.595   6.907  10.699
45132SOL     OW35421   9.040   7.215  10.935
45132SOL    HW135422   9.067   7.249  10.845
45132SOL    HW235423   9.119   7.177  10.981
45133SOL     OW35424   8.559   6.781  10.410
45133SOL    HW135425   8.519   6.825  10.491
45133SOL    HW235426   8.518   6.818  10.327
45134SOL     OW35427   9.086   6.685  10.389
45134SOL    HW135428   9.091   6.766  10.448
45134SOL    HW235429   9.000   6.687  10.338
45135SOL     OW35430   8.363   5.675  10.712
45135SOL    HW135431   8.388   5.655  10.617
45135SOL    HW235432   8.435   5.731  10.754
45136SOL     OW35433   8.428   6.702  11.029
45136SOL    HW135434   8.329   6.708  11.039
45136SOL    HW235435   8.451   6.622  10.973
45137SOL     OW35436   8.153   6.636   9.678
45137SOL    HW135437   8.139   6.643   9.777
45137SOL    HW235438   8.237   6.585   9.660
45138SOL     OW35439   7.858   6.399  10.561
45138SOL    HW135440   7.944   6.411  10.611
45138SOL    HW235441   7.816   6.312  10.588
45139SOL     OW35442   8.722   5.972  10.572
45139SOL    HW135443   8.743   6.046  10.636
45139SOL    HW235444   8.633   5.989  10.529
45140SOL     OW35445   7.512   7.150  10.641
45140SOL    HW135446   7.466   7.232  10.607
45140SOL    HW235447   7.610   7.169  10.650
45141SOL     OW35448   7.815   6.686   9.811
45141SOL    HW135449   7.808   6.769   9.755
45141SOL    HW235450   7.819   6.606   9.751
45142SOL     OW35451   8.014   6.123  10.175
45142SOL    HW135452   8.026   6.189  10.101
45142SOL    HW235453   8.060   6.157  10.258
45143SOL     OW35454   8.700   6.934   9.698
45143SOL    HW135455   8.750   7.011   9.738
45143SOL    HW235456   8.605   6.936   9.730
45144SOL     OW35457   8.720   7.031  10.452
45144SOL    HW135458   8.767   7.044  10.539
45144SOL    HW235459   8.654   6.957  10.461
45145SOL     OW35460   9.030   6.225   9.782
45145SOL    HW135461   8.999   6.286   9.855
45145SOL    HW235462   9.080   6.277   9.713
45146SOL     OW35463   7.802   7.096  10.639
45146SOL    HW135464   7.781   7.052  10.552
45146SOL    HW235465   7.899   7.122  10.642
45147SOL     OW35466   7.850   6.337  10.908
45147SOL    HW135467   7.918   6.392  10.861
45147SOL    HW235468   7.890   6.249  10.935
45148SOL     OW35469   9.035   6.365  10.980
45148SOL    HW135470   8.943   6.403  10.975
45148SOL    HW235471   9.095   6.412  10.915
45149SOL     OW35472   8.461   5.691  11.080
45149SOL    HW135473   8.467   5.776  11.028
45149SOL    HW235474   8.493   5.615  11.023
45150SOL     OW35475   7.952   5.636  11.050
45150SOL    HW135476   7.910   5.579  10.980
45150SOL    HW235477   7.886   5.705  11.082
45151SOL     OW35478   8.021   6.456  10.339
45151SOL    HW135479   8.065   6.545  10.330
45151SOL    HW235480   7.958   6.456  10.416
45152SOL     OW35481   8.808   6.448  10.355
45152SOL    HW135482   8.733   6.448  10.289
45152SOL    HW235483   8.845   6.356  10.364
45153SOL     OW35484   8.657   6.111   9.585
45153SOL    HW135485   8.670   6.027   9.639
45153SOL    HW235486   8.628   6.185   9.645
45154SOL     OW35487   7.755   5.799  10.541
45154SOL    HW135488   7.732   5.836  10.631
45154SOL    HW235489   7.725   5.704  10.535
45155SOL     OW35490   7.485   6.896  10.592
45155SOL    HW135491   7.538   6.847  10.660
45155SOL    HW235492   7.507   6.994  10.597
45156SOL     OW35493   8.180   6.220  10.374
45156SOL    HW135494   8.239   6.194  10.298
45156SOL    HW235495   8.152   6.316  10.363
45157SOL     OW35496   9.176   6.521  11.164
45157SOL    HW135497   9.130   6.514  11.075
45157SOL    HW235498   9.114   6.565  11.230
45158SOL     OW35499   7.755   5.649   9.928
45158SOL    HW135500   7.744   5.743   9.961
45158SOL    HW235501   7.750   5.586  10.005
45159SOL     OW35502   9.070   5.953   9.684
45159SOL    HW135503   9.072   5.877   9.748
45159SOL    HW235504   9.022   6.030   9.724
45160SOL     OW35505   8.471   6.352  10.276
45160SOL    HW135506   8.486   6.373  10.372
45160SOL    HW235507   8.441   6.257  10.267
45161SOL     OW35508   8.428   7.159  11.010
45161SOL    HW135509   8.408   7.203  10.922
45161SOL    HW235510   8.467   7.068  10.994
45162SOL     OW35511   9.307   7.104  10.915
45162SOL    HW135512   9.321   7.131  10.820
45162SOL    HW235513   9.390   7.126  10.968
45163SOL     OW35514   7.798   6.484  11.114
45163SOL    HW135515   7.874   6.528  11.162
45163SOL    HW235516   7.833   6.437  11.032
45164SOL     OW35517   8.988   5.860   9.435
45164SOL    HW135518   8.927   5.785   9.458
45164SOL    HW235519   9.010   5.912   9.518
45165SOL     OW35520   8.751   6.424   9.352
45165SOL    HW135521   8.785   6.331   9.367
45165SOL    HW235522   8.769   6.451   9.257
45166SOL     OW35523   8.516   6.919  10.159
45166SOL    HW135524   8.523   6.835  10.104
45166SOL    HW235525   8.578   6.988  10.123
45167SOL     OW35526   7.767   6.396  10.259
45167SOL    HW135527   7.860   6.432  10.264
45167SOL    HW235528   7.761   6.311  10.311
45168SOL     OW35529   7.787   6.095  10.316
45168SOL    HW135530   7.735   6.012  10.299
45168SOL    HW235531   7.864   6.100  10.252
45169SOL     OW35532   8.586   5.966  10.988
45169SOL    HW135533   8.541   6.029  11.052
45169SOL    HW235534   8.679   5.997  10.971
45170SOL     OW35535   8.608   5.793  10.787
45170SOL    HW135536   8.608   5.857  10.864
45170SOL    HW235537   8.636   5.841  10.704
45171SOL     OW35538   7.456   6.912   9.510
45171SOL    HW135539   7.363   6.933   9.479
45171SOL    HW235540   7.466   6.813   9.523
45172SOL     OW35541   7.536   7.387  10.237
45172SOL    HW135542   7.494   7.301  10.210
45172SOL    HW235543   7.630   7.390  10.203
45173SOL     OW35544   7.952   7.154  10.220
45173SOL    HW135545   8.018   7.228  10.229
45173SOL    HW235546   7.996   7.075  10.178
45174SOL     OW35547   8.450   6.382  10.548
45174SOL    HW135548   8.491   6.350  10.634
45174SOL    HW235549   8.354   6.355  10.545
45175SOL     OW35550   7.488   6.130  10.424
45175SOL    HW135551   7.573   6.097  10.383
45175SOL    HW235552   7.501   6.145  10.522
45176SOL     OW35553   7.637   6.106  11.032
45176SOL    HW135554   7.696   6.066  10.962
45176SOL    HW235555   7.579   6.177  10.991
45177SOL     OW35556   8.817   6.536  10.970
45177SOL    HW135557   8.856   6.625  10.990
45177SOL    HW235558   8.827   6.516  10.873
45178SOL     OW35559   8.263   6.158   9.635
45178SOL    HW135560   8.270   6.069   9.589
45178SOL    HW235561   8.169   6.192   9.627
45179SOL     OW35562   9.105   6.190  10.516
45179SOL    HW135563   9.067   6.121  10.578
45179SOL    HW235564   9.187   6.154  10.472
45180SOL     OW35565   7.700   7.150  11.054
45180SOL    HW135566   7.670   7.207  11.130
45180SOL    HW235567   7.693   7.053  11.080
45181SOL     OW35568   8.119   6.050  10.579
45181SOL    HW135569   8.085   5.961  10.549
45181SOL    HW235570   8.145   6.104  10.499
45182SOL     OW35571   8.378   7.264  10.775
45182SOL    HW135572   8.354   7.246  10.680
45182SOL    HW235573   8.408   7.358  10.785
45183SOL     OW35574   7.921   6.086   9.501
45183SOL    HW135575   7.982   6.166   9.505
45183SOL    HW235576   7.826   6.117   9.508
45184SOL     OW35577   7.607   6.723  10.776
45184SOL    HW135578   7.629   6.662  10.852
45184SOL    HW235579   7.617   6.674  10.690
45185SOL     OW35580   8.795   6.645  10.544
45185SOL    HW135581   8.819   6.582  10.470
45185SOL    HW235582   8.705   6.685  10.526
45186SOL     OW35583   8.750   6.441   9.619
45186SOL    HW135584   8.664   6.410   9.661
45186SOL    HW235585   8.746   6.427   9.520
45187SOL     OW35586   9.207   7.333  10.464
45187SOL    HW135587   9.268   7.363  10.391
45187SOL    HW235588   9.169   7.244  10.442
45188SOL     OW35589   8.700   7.317  10.438
45188SOL    HW135590   8.784   7.322  10.384
45188SOL    HW235591   8.677   7.221  10.456
45189SOL     OW35592   7.531   6.844  10.332
45189SOL    HW135593   7.526   6.843  10.432
45189SOL    HW235594   7.448   6.803  10.294
45190SOL     OW35595   8.136   7.248  11.026
45190SOL    HW135596   8.080   7.329  11.035
45190SOL    HW235597   8.188   7.252  10.940
45191SOL     OW35598   9.174   5.721   9.833
45191SOL    HW135599   9.247   5.704   9.766
45191SOL    HW235600   9.143   5.634   9.871
45192SOL     OW35601   8.836   7.159   9.787
45192SOL    HW135602   8.903   7.171   9.713
45192SOL    HW235603   8.796   7.248   9.810
45193SOL     OW35604   7.578   7.380  11.161
45193SOL    HW135605   7.537   7.306  11.214
45193SOL    HW235606   7.642   7.431  11.219
45194SOL     OW35607   8.728   6.513   9.982
45194SOL    HW135608   8.788   6.432   9.984
45194SOL    HW235609   8.768   6.582   9.922
45195SOL     OW35610   8.278   6.859  10.732
45195SOL    HW135611   8.273   6.892  10.827
45195SOL    HW235612   8.192   6.878  10.686
45196SOL     OW35613   8.120   7.202   9.464
45196SOL    HW135614   8.129   7.212   9.365
45196SOL    HW235615   8.080   7.113   9.485
45197SOL     OW35616   9.098   7.306  10.704
45197SOL    HW135617   9.151   7.316  10.620
45197SOL    HW235618   9.071   7.396  10.738
45198SOL     OW35619   9.289   5.761  10.273
45198SOL    HW135620   9.328   5.676  10.237
45198SOL    HW235621   9.191   5.763  10.254
45199SOL     OW35622   7.711   5.912  10.030
45199SOL    HW135623   7.632   5.963   9.996
45199SOL    HW235624   7.702   5.897  10.128
45200SOL     OW35625   8.642   7.198   9.341
45200SOL    HW135626   8.648   7.105   9.378
45200SOL    HW235627   8.583   7.198   9.261
45201SOL     OW35628   8.270   6.588  10.682
45201SOL    HW135629   8.310   6.587  10.590
45201SOL    HW235630   8.280   6.680  10.722
45202SOL     OW35631   8.364   6.496   9.601
45202SOL    HW135632   8.427   6.534   9.533
45202SOL    HW235633   8.404   6.413   9.640
45203SOL     OW35634   8.952   7.193   9.354
45203SOL    HW135635   8.860   7.230   9.361
45203SOL    HW235636   8.990   7.213   9.264
45204SOL     OW35637   7.820   6.874  10.800
45204SOL    HW135638   7.807   6.967  10.766
45204SOL    HW235639   7.736   6.822  10.787
45205SOL     OW35640   9.062   6.878  10.599
45205SOL    HW135641   9.122   6.881  10.679
45205SOL    HW235642   8.987   6.942  10.612
45206SOL     OW35643   8.487   6.684  10.006
45206SOL    HW135644   8.417   6.637  10.060
45206SOL    HW235645   8.546   6.616   9.963
45207SOL     OW35646   8.462   5.822  10.281
45207SOL    HW135647   8.454   5.786  10.188
45207SOL    HW235648   8.460   5.746  10.346
45208SOL     OW35649   8.038   7.073   9.801
45208SOL    HW135650   8.080   7.015   9.731
45208SOL    HW235651   7.994   7.152   9.757
45209SOL     OW35652   9.157   5.971  10.691
45209SOL    HW135653   9.230   6.040  10.695
45209SOL    HW235654   9.185   5.896  10.632
45210SOL     OW35655   7.703   6.934   9.600
45210SOL    HW135656   7.607   6.935   9.573
45210SOL    HW235657   7.715   6.987   9.684
45211SOL     OW35658   7.553   6.599  11.036
45211SOL    HW135659   7.476   6.566  11.090
45211SOL    HW235660   7.638   6.569  11.078
45212SOL     OW35661   8.120   5.789  10.799
45212SOL    HW135662   8.210   5.773  10.759
45212SOL    HW235663   8.128   5.794  10.898
45213SOL     OW35664   7.523   5.931   9.343
45213SOL    HW135665   7.431   5.903   9.314
45213SOL    HW235666   7.554   6.008   9.287
45214SOL     OW35667   8.888   6.442  10.708
45214SOL    HW135668   8.831   6.494  10.645
45214SOL    HW235669   8.984   6.454  10.684
45215SOL     OW35670   7.520   5.752   9.628
45215SOL    HW135671   7.503   5.835   9.574
45215SOL    HW235672   7.610   5.715   9.606
45216SOL     OW35673   8.631   6.921   9.429
45216SOL    HW135674   8.532   6.910   9.431
45216SOL    HW235675   8.665   6.936   9.522
45217SOL     OW35676   8.061   6.428  10.741
45217SOL    HW135677   8.117   6.509  10.724
45217SOL    HW235678   8.120   6.348  10.744
45218SOL     OW35679   8.941   7.353  10.269
45218SOL    HW135680   8.974   7.417  10.200
45218SOL    HW235681   9.007   7.347  10.344
45219SOL     OW35682   8.164   6.151  11.018
45219SOL    HW135683   8.183   6.216  11.092
45219SOL    HW235684   8.224   6.071  11.027
45220SOL     OW35685   8.898   6.806  10.943
45220SOL    HW135686   8.889   6.796  11.042
45220SOL    HW235687   8.994   6.799  10.917
45221SOL     OW35688   7.838   7.327  10.870
45221SOL    HW135689   7.747   7.368  10.868
45221SOL    HW235690   7.831   7.233  10.902
45222SOL     OW35691   9.122   6.469  10.564
45222SOL    HW135692   9.095   6.380  10.527
45222SOL    HW235693   9.123   6.537  10.491
45223SOL     OW35694   8.673   5.911   9.759
45223SOL    HW135695   8.738   5.837   9.748
45223SOL    HW235696   8.693   5.961   9.843
45224SOL     OW35697   8.042   6.331   9.962
45224SOL    HW135698   8.092   6.416   9.943
45224SOL    HW235699   7.954   6.333   9.914
45225SOL     OW35700   9.225   5.928  10.952
45225SOL    HW135701   9.208   5.959  10.858
45225SOL    HW235702   9.141   5.891  10.990
45226SOL     OW35703   9.178   6.520  10.827
45226SOL    HW135704   9.216   6.611  10.842
45226SOL    HW235705   9.170   6.503  10.728
45227SOL     OW35706   8.307   6.960   9.326
45227SOL    HW135707   8.261   6.975   9.414
45227SOL    HW235708   8.351   7.045   9.296
45228SOL     OW35709   8.109   7.376  10.263
45228SOL    HW135710   8.063   7.464  10.250
45228SOL    HW235711   8.208   7.388  10.256
45229SOL     OW35712   8.307   6.542  10.171
45229SOL    HW135713   8.361   6.473  10.219
45229SOL    HW235714   8.275   6.611  10.237
45230SOL     OW35715   8.531   6.570   9.397
45230SOL    HW135716   8.508   6.623   9.315
45230SOL    HW235717   8.612   6.514   9.378
45231SOL     OW35718   9.309   7.155  10.161
45231SOL    HW135719   9.238   7.143  10.091
45231SOL    HW235720   9.310   7.076  10.221
45232SOL     OW35721   7.669   6.900  11.154
45232SOL    HW135722   7.604   6.827  11.133
45232SOL    HW235723   7.673   6.914  11.252
45233SOL     OW35724   7.527   6.826   9.963
45233SOL    HW135725   7.526   6.779  10.051
45233SOL    HW235726   7.609   6.798   9.912
45234SOL     OW35727   8.120   6.977  10.934
45234SOL    HW135728   8.042   6.927  10.972
45234SOL    HW235729   8.117   7.072  10.965
45235SOL     OW35730   9.272   5.778  10.537
45235SOL    HW135731   9.268   5.688  10.581
45235SOL    HW235732   9.275   5.767  10.438
45236SOL     OW35733   7.876   6.010   9.830
45236SOL    HW135734   7.906   5.938   9.768
45236SOL    HW235735   7.837   5.970   9.913
45237SOL     OW35736   9.153   7.073  10.414
45237SOL    HW135737   9.060   7.048  10.387
45237SOL    HW235738   9.179   7.023  10.496
45238SOL     OW35739   7.765   6.133  10.590
45238SOL    HW135740   7.803   6.074  10.662
45238SOL    HW235741   7.805   6.107  10.502
45239SOL     OW35742   8.260   7.172   9.997
45239SOL    HW135743   8.292   7.182   9.903
45239SOL    HW235744   8.181   7.110   9.999
45240SOL     OW35745   8.872   5.800  10.422
45240SOL    HW135746   8.924   5.735  10.477
45240SOL    HW235747   8.823   5.863  10.483
45241SOL     OW35748   8.449   5.620  10.464
45241SOL    HW135749   8.386   5.548  10.433
45241SOL    HW235750   8.542   5.584  10.464
45242SOL     OW35751   8.218   6.916   9.611
45242SOL    HW135752   8.172   6.829   9.628
45242SOL    HW235753   8.309   6.913   9.652
45243SOL     OW35754   8.066   7.153  10.594
45243SOL    HW135755   8.061   7.235  10.651
45243SOL    HW235756   8.155   7.150  10.549
45244SOL     OW35757   8.800   5.638   9.478
45244SOL    HW135758   8.835   5.597   9.394
45244SOL    HW235759   8.710   5.600   9.498
45245SOL     OW35760   8.748   6.039  10.001
45245SOL    HW135761   8.689   6.119  10.005
45245SOL    HW235762   8.763   6.004  10.094
45246SOL     OW35763   9.041   5.807  10.192
45246SOL    HW135764   8.957   5.806  10.246
45246SOL    HW235765   9.043   5.890  10.136
45247SOL     OW35766   7.487   6.663   9.610
45247SOL    HW135767   7.586   6.652   9.601
45247SOL    HW235768   7.447   6.577   9.642
45248SOL     OW35769   8.323   7.232   9.647
45248SOL    HW135770   8.246   7.197   9.593
45248SOL    HW235771   8.291   7.303   9.709
45249SOL     OW35772   7.678   6.214  11.285
45249SOL    HW135773   7.585   6.212  11.322
45249SOL    HW235774   7.679   6.175  11.193
45250SOL     OW35775   7.673   5.861  12.168
45250SOL    HW135776   7.708   5.844  12.260
45250SOL    HW235777   7.585   5.816  12.156
45251SOL     OW35778   7.467   5.954  11.819
45251SOL    HW135779   7.385   5.997  11.858
45251SOL    HW235780   7.439   5.881  11.756
45252SOL     OW35781   8.017   6.861  12.337
45252SOL    HW135782   7.924   6.854  12.300
45252SOL    HW235783   8.028   6.950  12.381
45253SOL     OW35784   9.003   7.097  11.875
45253SOL    HW135785   8.946   7.081  11.956
45253SOL    HW235786   8.944   7.107  11.795
45254SOL     OW35787   8.583   6.289  11.889
45254SOL    HW135788   8.640   6.367  11.864
45254SOL    HW235789   8.523   6.315  11.965
45255SOL     OW35790   9.203   6.193  11.403
45255SOL    HW135791   9.191   6.180  11.304
45255SOL    HW235792   9.173   6.112  11.452
45256SOL     OW35793   8.216   6.730  12.195
45256SOL    HW135794   8.138   6.747  12.255
45256SOL    HW235795   8.250   6.817  12.159
45257SOL     OW35796   8.133   6.598  11.837
45257SOL    HW135797   8.202   6.582  11.907
45257SOL    HW235798   8.060   6.655  11.875
45258SOL     OW35799   7.783   7.021  12.233
45258SOL    HW135800   7.705   6.990  12.180
45258SOL    HW235801   7.841   7.079  12.176
45259SOL     OW35802   8.908   7.091  12.511
45259SOL    HW135803   8.932   7.185  12.537
45259SOL    HW235804   8.892   7.037  12.593
45260SOL     OW35805   7.886   5.978  12.671
45260SOL    HW135806   7.968   5.922  12.680
45260SOL    HW235807   7.805   5.920  12.675
45261SOL     OW35808   9.051   6.033  11.909
45261SOL    HW135809   8.977   6.079  11.859
45261SOL    HW235810   9.102   6.101  11.962
45262SOL     OW35811   7.679   7.299  11.655
45262SOL    HW135812   7.713   7.376  11.709
45262SOL    HW235813   7.723   7.299  11.565
45263SOL     OW35814   7.678   7.020  11.710
45263SOL    HW135815   7.652   7.116  11.710
45263SOL    HW235816   7.607   6.966  11.755
45264SOL     OW35817   7.688   6.677  12.058
45264SOL    HW135818   7.702   6.593  12.110
45264SOL    HW235819   7.633   6.741  12.113
45265SOL     OW35820   8.068   7.372  12.611
45265SOL    HW135821   7.976   7.355  12.646
45265SOL    HW235822   8.096   7.464  12.637
45266SOL     OW35823   8.054   6.550  11.295
45266SOL    HW135824   8.061   6.634  11.241
45266SOL    HW235825   8.100   6.563  11.383
45267SOL     OW35826   9.042   5.700  12.652
45267SOL    HW135827   9.024   5.767  12.580
45267SOL    HW235828   9.039   5.746  12.741
45268SOL     OW35829   7.570   6.229  11.735
45268SOL    HW135830   7.525   6.141  11.752
45268SOL    HW235831   7.569   6.283  11.819
45269SOL     OW35832   9.290   7.353  11.531
45269SOL    HW135833   9.344   7.324  11.611
45269SOL    HW235834   9.320   7.443  11.502
45270SOL     OW35835   7.475   7.182  11.289
45270SOL    HW135836   7.456   7.086  11.310
45270SOL    HW235837   7.442   7.240  11.364
45271SOL     OW35838   9.137   6.508  11.784
45271SOL    HW135839   9.232   6.479  11.792
45271SOL    HW235840   9.129   6.573  11.709
45272SOL     OW35841   9.089   6.694  11.604
45272SOL    HW135842   9.175   6.696  11.552
45272SOL    HW235843   9.103   6.741  11.692
45273SOL     OW35844   8.061   6.951  11.898
45273SOL    HW135845   8.012   6.864  11.907
45273SOL    HW235846   8.038   6.994  11.811
45274SOL     OW35847   8.257   5.590  11.674
45274SOL    HW135848   8.297   5.681  11.665
45274SOL    HW235849   8.157   5.598  11.680
45275SOL     OW35850   7.645   6.562  12.436
45275SOL    HW135851   7.734   6.517  12.422
45275SOL    HW235852   7.572   6.497  12.417
45276SOL     OW35853   8.973   6.585  11.362
45276SOL    HW135854   8.910   6.509  11.375
45276SOL    HW235855   9.021   6.603  11.448
45277SOL     OW35856   7.765   5.837  12.973
45277SOL    HW135857   7.836   5.908  12.979
45277SOL    HW235858   7.677   5.876  13.001
45278SOL     OW35859   8.914   7.003  12.125
45278SOL    HW135860   8.855   7.009  12.205
45278SOL    HW235861   8.899   6.915  12.079
45279SOL     OW35862   9.115   7.300  11.744
45279SOL    HW135863   9.074   7.277  11.656
45279SOL    HW235864   9.097   7.226  11.809
45280SOL     OW35865   8.046   6.315  11.442
45280SOL    HW135866   8.070   6.384  11.374
45280SOL    HW235867   7.968   6.348  11.496
45281SOL     OW35868   8.729   5.931  12.116
45281SOL    HW135869   8.643   5.881  12.103
45281SOL    HW235870   8.791   5.877  12.172
45282SOL     OW35871   9.024   7.248  11.479
45282SOL    HW135872   9.113   7.294  11.482
45282SOL    HW235873   9.003   7.224  11.384
45283SOL     OW35874   8.255   6.191  12.637
45283SOL    HW135875   8.208   6.188  12.726
45283SOL    HW235876   8.204   6.136  12.571
45284SOL     OW35877   8.439   5.996  12.414
45284SOL    HW135878   8.362   6.030  12.468
45284SOL    HW235879   8.405   5.945  12.335
45285SOL     OW35880   8.489   6.287  11.601
45285SOL    HW135881   8.515   6.283  11.697
45285SOL    HW235882   8.404   6.236  11.587
45286SOL     OW35883   7.524   6.397  11.961
45286SOL    HW135884   7.623   6.385  11.970
45286SOL    HW235885   7.500   6.492  11.982
45287SOL     OW35886   7.578   7.407  12.743
45287SOL    HW135887   7.568   7.392  12.842
45287SOL    HW235888   7.492   7.443  12.707
45288SOL     OW35889   8.313   5.934  11.367
45288SOL    HW135890   8.372   5.997  11.318
45288SOL    HW235891   8.332   5.840  11.338
45289SOL     OW35892   8.810   6.730  11.717
45289SOL    HW135893   8.893   6.701  11.669
45289SOL    HW235894   8.761   6.797  11.661
45290SOL     OW35895   7.998   5.782  12.057
45290SOL    HW135896   7.993   5.777  12.157
45290SOL    HW235897   8.000   5.878  12.028
45291SOL     OW35898   8.456   7.042  11.649
45291SOL    HW135899   8.410   7.114  11.597
45291SOL    HW235900   8.452   7.062  11.747
45292SOL     OW35901   7.799   7.387  12.025
45292SOL    HW135902   7.849   7.301  12.031
45292SOL    HW235903   7.864   7.464  12.022
45293SOL     OW35904   9.243   6.652  12.045
45293SOL    HW135905   9.181   6.637  11.969
45293SOL    HW235906   9.191   6.663  12.130
45294SOL     OW35907   7.769   6.529  11.414
45294SOL    HW135908   7.851   6.568  11.372
45294SOL    HW235909   7.742   6.447  11.365
45295SOL     OW35910   8.906   6.321  11.900
45295SOL    HW135911   8.901   6.256  11.975
45295SOL    HW235912   8.986   6.380  11.913
45296SOL     OW35913   8.559   7.362  11.409
45296SOL    HW135914   8.499   7.300  11.459
45296SOL    HW235915   8.590   7.318  11.324
45297SOL     OW35916   9.080   6.963  11.253
45297SOL    HW135917   9.048   7.057  11.243
45297SOL    HW235918   9.004   6.900  11.241
45298SOL     OW35919   7.912   7.329  11.495
45298SOL    HW135920   7.945   7.368  11.581
45298SOL    HW235921   7.988   7.322  11.430
45299SOL     OW35922   8.848   5.693  11.598
45299SOL    HW135923   8.824   5.656  11.508
45299SOL    HW235924   8.947   5.709  11.602
45300SOL     OW35925   7.697   7.371  12.413
45300SOL    HW135926   7.754   7.306  12.463
45300SOL    HW235927   7.681   7.338  12.320
45301SOL     OW35928   8.388   7.284  12.076
45301SOL    HW135929   8.468   7.227  12.097
45301SOL    HW235930   8.339   7.244  11.999
45302SOL     OW35931   7.830   6.286  11.652
45302SOL    HW135932   7.875   6.196  11.649
45302SOL    HW235933   7.736   6.275  11.685
45303SOL     OW35934   8.062   5.708  11.289
45303SOL    HW135935   8.160   5.686  11.296
45303SOL    HW235936   8.031   5.691  11.196
45304SOL     OW35937   8.336   7.100  12.367
45304SOL    HW135938   8.313   7.075  12.273
45304SOL    HW235939   8.397   7.031  12.406
45305SOL     OW35940   8.251   6.988  12.096
45305SOL    HW135941   8.341   7.002  12.054
45305SOL    HW235942   8.180   6.990  12.025
45306SOL     OW35943   8.370   6.089  12.071
45306SOL    HW135944   8.345   6.080  11.975
45306SOL    HW235945   8.418   6.007  12.102
45307SOL     OW35946   7.987   5.650  11.684
45307SOL    HW135947   7.906   5.651  11.742
45307SOL    HW235948   7.990   5.733  11.629
45308SOL     OW35949   8.882   6.774  11.213
45308SOL    HW135950   8.914   6.698  11.270
45308SOL    HW235951   8.790   6.801  11.243
45309SOL     OW35952   7.745   5.621  11.343
45309SOL    HW135953   7.794   5.705  11.322
45309SOL    HW235954   7.807   5.556  11.388
45310SOL     OW35955   8.383   5.822  11.652
45310SOL    HW135956   8.335   5.863  11.574
45310SOL    HW235957   8.482   5.820  11.633
45311SOL     OW35958   8.675   7.156  11.965
45311SOL    HW135959   8.696   7.230  11.900
45311SOL    HW235960   8.743   7.156  12.038
45312SOL     OW35961   7.907   6.738  11.913
45312SOL    HW135962   7.836   6.711  11.978
45312SOL    HW235963   7.881   6.710  11.820
45313SOL     OW35964   8.719   7.383  11.763
45313SOL    HW135965   8.763   7.447  11.699
45313SOL    HW235966   8.669   7.435  11.833
45314SOL     OW35967   8.480   6.135  11.188
45314SOL    HW135968   8.439   6.217  11.149
45314SOL    HW235969   8.544   6.161  11.261
45315SOL     OW35970   7.526   6.142  12.558
45315SOL    HW135971   7.618   6.141  12.517
45315SOL    HW235972   7.520   6.216  12.625
45316SOL     OW35973   8.009   5.808  12.319
45316SOL    HW135974   8.047   5.724  12.356
45316SOL    HW235975   7.921   5.827  12.363
45317SOL     OW35976   8.314   6.040  11.814
45317SOL    HW135977   8.282   6.112  11.752
45317SOL    HW235978   8.338   5.959  11.761
45318SOL     OW35979   8.465   5.625  11.925
45318SOL    HW135980   8.393   5.630  11.856
45318SOL    HW235981   8.441   5.556  11.994
45319SOL     OW35982   8.877   6.759  12.039
45319SOL    HW135983   8.822   6.675  12.032
45319SOL    HW235984   8.903   6.788  11.947
45320SOL     OW35985   8.914   6.176  12.164
45320SOL    HW135986   8.884   6.081  12.171
45320SOL    HW235987   8.987   6.192  12.230
45321SOL     OW35988   9.305   6.419  11.549
45321SOL    HW135989   9.347   6.355  11.613
45321SOL    HW235990   9.267   6.368  11.471
45322SOL     OW35991   7.936   6.971  11.346
45322SOL    HW135992   7.849   6.956  11.393
45322SOL    HW235993   7.919   6.997  11.251
45323SOL     OW35994   9.112   6.866  11.829
45323SOL    HW135995   9.211   6.874  11.843
45323SOL    HW235996   9.067   6.950  11.860
45324SOL     OW35997   8.838   6.161  11.250
45324SOL    HW135998   8.784   6.140  11.331
45324SOL    HW235999   8.929   6.120  11.259
45325SOL     OW36000   7.975   5.842  11.500
45325SOL    HW136001   8.002   5.783  11.425
45325SOL    HW236002   7.975   5.937  11.469
45326SOL     OW36003   8.512   6.933  12.512
45326SOL    HW136004   8.432   6.910  12.567
45326SOL    HW236005   8.595   6.907  12.561
45327SOL     OW36006   8.559   6.781  12.272
45327SOL    HW136007   8.519   6.825  12.353
45327SOL    HW236008   8.518   6.818  12.189
45328SOL     OW36009   9.086   6.685  12.251
45328SOL    HW136010   9.091   6.766  12.310
45328SOL    HW236011   9.000   6.687  12.200
45329SOL     OW36012   8.363   5.675  12.574
45329SOL    HW136013   8.388   5.655  12.479
45329SOL    HW236014   8.435   5.731  12.616
45330SOL     OW36015   8.153   6.636  11.540
45330SOL    HW136016   8.139   6.643  11.639
45330SOL    HW236017   8.237   6.585  11.522
45331SOL     OW36018   7.858   6.399  12.423
45331SOL    HW136019   7.944   6.411  12.473
45331SOL    HW236020   7.816   6.312  12.450
45332SOL     OW36021   8.722   5.972  12.434
45332SOL    HW136022   8.743   6.046  12.498
45332SOL    HW236023   8.633   5.989  12.391
45333SOL     OW36024   7.512   7.150  12.503
45333SOL    HW136025   7.466   7.232  12.469
45333SOL    HW236026   7.610   7.169  12.512
45334SOL     OW36027   7.815   6.686  11.673
45334SOL    HW136028   7.808   6.769  11.617
45334SOL    HW236029   7.819   6.606  11.613
45335SOL     OW36030   8.014   6.123  12.037
45335SOL    HW136031   8.026   6.189  11.963
45335SOL    HW236032   8.060   6.157  12.120
45336SOL     OW36033   8.700   6.934  11.560
45336SOL    HW136034   8.750   7.011  11.600
45336SOL    HW236035   8.605   6.936  11.592
45337SOL     OW36036   8.720   7.031  12.314
45337SOL    HW136037   8.767   7.044  12.401
45337SOL    HW236038   8.654   6.957  12.323
45338SOL     OW36039   9.030   6.225  11.644
45338SOL    HW136040   8.999   6.286  11.717
45338SOL    HW236041   9.080   6.277  11.575
45339SOL     OW36042   7.802   7.096  12.501
45339SOL    HW136043   7.781   7.052  12.414
45339SOL    HW236044   7.899   7.122  12.504
45340SOL     OW36045   7.850   6.337  12.770
45340SOL    HW136046   7.918   6.392  12.723
45340SOL    HW236047   7.890   6.249  12.797
45341SOL     OW36048   9.035   6.365  12.842
45341SOL    HW136049   8.943   6.403  12.837
45341SOL    HW236050   9.095   6.412  12.777
45342SOL     OW36051   8.021   6.456  12.201
45342SOL    HW136052   8.065   6.545  12.192
45342SOL    HW236053   7.958   6.456  12.278
45343SOL     OW36054   8.808   6.448  12.217
45343SOL    HW136055   8.733   6.448  12.151
45343SOL    HW236056   8.845   6.356  12.226
45344SOL     OW36057   8.657   6.111  11.447
45344SOL    HW136058   8.670   6.027  11.501
45344SOL    HW236059   8.628   6.185  11.507
45345SOL     OW36060   7.755   5.799  12.403
45345SOL    HW136061   7.732   5.836  12.493
45345SOL    HW236062   7.725   5.704  12.397
45346SOL     OW36063   7.485   6.896  12.454
45346SOL    HW136064   7.538   6.847  12.522
45346SOL    HW236065   7.507   6.994  12.459
45347SOL     OW36066   8.180   6.220  12.236
45347SOL    HW136067   8.239   6.194  12.160
45347SOL    HW236068   8.152   6.316  12.225
45348SOL     OW36069   7.755   5.649  11.790
45348SOL    HW136070   7.744   5.743  11.823
45348SOL    HW236071   7.750   5.586  11.867
45349SOL     OW36072   9.070   5.953  11.546
45349SOL    HW136073   9.072   5.877  11.610
45349SOL    HW236074   9.022   6.030  11.586
45350SOL     OW36075   8.471   6.352  12.138
45350SOL    HW136076   8.486   6.373  12.234
45350SOL    HW236077   8.441   6.257  12.129
45351SOL     OW36078   8.428   7.159  12.872
45351SOL    HW136079   8.408   7.203  12.784
45351SOL    HW236080   8.467   7.068  12.856
45352SOL     OW36081   8.988   5.860  11.297
45352SOL    HW136082   8.927   5.785  11.320
45352SOL    HW236083   9.010   5.912  11.380
45353SOL     OW36084   8.751   6.424  11.214
45353SOL    HW136085   8.785   6.331  11.229
45353SOL    HW236086   8.769   6.451  11.119
45354SOL     OW36087   8.516   6.919  12.021
45354SOL    HW136088   8.523   6.835  11.966
45354SOL    HW236089   8.578   6.988  11.985
45355SOL     OW36090   7.767   6.396  12.121
45355SOL    HW136091   7.860   6.432  12.126
45355SOL    HW236092   7.761   6.311  12.173
45356SOL     OW36093   7.787   6.095  12.178
45356SOL    HW136094   7.735   6.012  12.161
45356SOL    HW236095   7.864   6.100  12.114
45357SOL     OW36096   8.586   5.966  12.850
45357SOL    HW136097   8.541   6.029  12.914
45357SOL    HW236098   8.679   5.997  12.833
45358SOL     OW36099   8.608   5.793  12.649
45358SOL    HW136100   8.608   5.857  12.726
45358SOL    HW236101   8.636   5.841  12.566
45359SOL     OW36102   7.456   6.912  11.372
45359SOL    HW136103   7.363   6.933  11.341
45359SOL    HW236104   7.466   6.813  11.385
45360SOL     OW36105   7.536   7.387  12.099
45360SOL    HW136106   7.494   7.301  12.072
45360SOL    HW236107   7.630   7.390  12.065
45361SOL     OW36108   7.952   7.154  12.082
45361SOL    HW136109   8.018   7.228  12.091
45361SOL    HW236110   7.996   7.075  12.040
45362SOL     OW36111   8.450   6.382  12.410
45362SOL    HW136112   8.491   6.350  12.496
45362SOL    HW236113   8.354   6.355  12.407
45363SOL     OW36114   7.488   6.130  12.286
45363SOL    HW136115   7.573   6.097  12.245
45363SOL    HW236116   7.501   6.145  12.384
45364SOL     OW36117   8.263   6.158  11.497
45364SOL    HW136118   8.270   6.069  11.451
45364SOL    HW236119   8.169   6.192  11.489
45365SOL     OW36120   9.105   6.190  12.378
45365SOL    HW136121   9.067   6.121  12.440
45365SOL    HW236122   9.187   6.154  12.334
45366SOL     OW36123   8.119   6.050  12.441
45366SOL    HW136124   8.085   5.961  12.411
45366SOL    HW236125   8.145   6.104  12.361
45367SOL     OW36126   8.378   7.264  12.637
45367SOL    HW136127   8.354   7.246  12.542
45367SOL    HW236128   8.408   7.358  12.647
45368SOL     OW36129   7.921   6.086  11.363
45368SOL    HW136130   7.982   6.166  11.367
45368SOL    HW236131   7.826   6.117  11.370
45369SOL     OW36132   7.607   6.723  12.638
45369SOL    HW136133   7.629   6.662  12.714
45369SOL    HW236134   7.617   6.674  12.552
45370SOL     OW36135   8.795   6.645  12.406
45370SOL    HW136136   8.819   6.582  12.332
45370SOL    HW236137   8.705   6.685  12.388
45371SOL     OW36138   8.750   6.441  11.481
45371SOL    HW136139   8.664   6.410  11.523
45371SOL    HW236140   8.746   6.427  11.382
45372SOL     OW36141   9.207   7.333  12.326
45372SOL    HW136142   9.268   7.363  12.253
45372SOL    HW236143   9.169   7.244  12.304
45373SOL     OW36144   8.700   7.317  12.300
45373SOL    HW136145   8.784   7.322  12.246
45373SOL    HW236146   8.677   7.221  12.318
45374SOL     OW36147   7.531   6.844  12.194
45374SOL    HW136148   7.526   6.843  12.294
45374SOL    HW236149   7.448   6.803  12.156
45375SOL     OW36150   9.174   5.721  11.695
45375SOL    HW136151   9.247   5.704  11.628
45375SOL    HW236152   9.143   5.634  11.733
45376SOL     OW36153   8.836   7.159  11.649
45376SOL    HW136154   8.903   7.171  11.575
45376SOL    HW236155   8.796   7.248  11.672
45377SOL     OW36156   8.728   6.513  11.844
45377SOL    HW136157   8.788   6.432  11.846
45377SOL    HW236158   8.768   6.582  11.784
45378SOL     OW36159   8.120   7.202  11.326
45378SOL    HW136160   8.129   7.212  11.227
45378SOL    HW236161   8.080   7.113  11.347
45379SOL     OW36162   9.098   7.306  12.566
45379SOL    HW136163   9.151   7.316  12.482
45379SOL    HW236164   9.071   7.396  12.600
45380SOL     OW36165   9.289   5.761  12.135
45380SOL    HW136166   9.328   5.676  12.099
45380SOL    HW236167   9.191   5.763  12.116
45381SOL     OW36168   7.711   5.912  11.892
45381SOL    HW136169   7.632   5.963  11.858
45381SOL    HW236170   7.702   5.897  11.990
45382SOL     OW36171   8.642   7.198  11.203
45382SOL    HW136172   8.648   7.105  11.240
45382SOL    HW236173   8.583   7.198  11.123
45383SOL     OW36174   8.270   6.588  12.544
45383SOL    HW136175   8.310   6.587  12.452
45383SOL    HW236176   8.280   6.680  12.584
45384SOL     OW36177   8.364   6.496  11.463
45384SOL    HW136178   8.427   6.534  11.395
45384SOL    HW236179   8.404   6.413  11.502
45385SOL     OW36180   8.952   7.193  11.216
45385SOL    HW136181   8.860   7.230  11.223
45385SOL    HW236182   8.990   7.213  11.126
45386SOL     OW36183   7.820   6.874  12.662
45386SOL    HW136184   7.807   6.967  12.628
45386SOL    HW236185   7.736   6.822  12.649
45387SOL     OW36186   9.062   6.878  12.461
45387SOL    HW136187   9.122   6.881  12.541
45387SOL    HW236188   8.987   6.942  12.474
45388SOL     OW36189   8.487   6.684  11.868
45388SOL    HW136190   8.417   6.637  11.922
45388SOL    HW236191   8.546   6.616  11.825
45389SOL     OW36192   8.462   5.822  12.143
45389SOL    HW136193   8.454   5.786  12.050
45389SOL    HW236194   8.460   5.746  12.208
45390SOL     OW36195   8.038   7.073  11.663
45390SOL    HW136196   8.080   7.015  11.593
45390SOL    HW236197   7.994   7.152  11.619
45391SOL     OW36198   9.157   5.971  12.553
45391SOL    HW136199   9.230   6.040  12.557
45391SOL    HW236200   9.185   5.896  12.494
45392SOL     OW36201   7.703   6.934  11.462
45392SOL    HW136202   7.607   6.935  11.435
45392SOL    HW236203   7.715   6.987  11.546
45393SOL     OW36204   7.523   5.931  11.205
45393SOL    HW136205   7.431   5.903  11.176
45393SOL    HW236206   7.554   6.008  11.149
45394SOL     OW36207   8.888   6.442  12.570
45394SOL    HW136208   8.831   6.494  12.507
45394SOL    HW236209   8.984   6.454  12.546
45395SOL     OW36210   7.520   5.752  11.490
45395SOL    HW136211   7.503   5.835  11.436
45395SOL    HW236212   7.610   5.715  11.468
45396SOL     OW36213   8.631   6.921  11.291
45396SOL    HW136214   8.532   6.910  11.293
45396SOL    HW236215   8.665   6.936  11.384
45397SOL     OW36216   8.061   6.428  12.603
45397SOL    HW136217   8.117   6.509  12.586
45397SOL    HW236218   8.120   6.348  12.606
45398SOL     OW36219   8.941   7.353  12.131
45398SOL    HW136220   8.974   7.417  12.062
45398SOL    HW236221   9.007   7.347  12.206
45399SOL     OW36222   7.838   7.327  12.732
45399SOL    HW136223   7.747   7.368  12.730
45399SOL    HW236224   7.831   7.233  12.764
45400SOL     OW36225   9.122   6.469  12.426
45400SOL    HW136226   9.095   6.380  12.389
45400SOL    HW236227   9.123   6.537  12.353
45401SOL     OW36228   8.673   5.911  11.621
45401SOL    HW136229   8.738   5.837  11.610
45401SOL    HW236230   8.693   5.961  11.705
45402SOL     OW36231   8.042   6.331  11.824
45402SOL    HW136232   8.092   6.416  11.805
45402SOL    HW236233   7.954   6.333  11.776
45403SOL     OW36234   9.178   6.520  12.689
45403SOL    HW136235   9.216   6.611  12.704
45403SOL    HW236236   9.170   6.503  12.590
45404SOL     OW36237   8.307   6.960  11.188
45404SOL    HW136238   8.261   6.975  11.276
45404SOL    HW236239   8.351   7.045  11.158
45405SOL     OW36240   8.109   7.376  12.125
45405SOL    HW136241   8.063   7.464  12.112
45405SOL    HW236242   8.208   7.388  12.118
45406SOL     OW36243   8.307   6.542  12.033
45406SOL    HW136244   8.361   6.473  12.081
45406SOL    HW236245   8.275   6.611  12.099
45407SOL     OW36246   8.531   6.570  11.259
45407SOL    HW136247   8.508   6.623  11.177
45407SOL    HW236248   8.612   6.514  11.240
45408SOL     OW36249   9.309   7.155  12.023
45408SOL    HW136250   9.238   7.143  11.953
45408SOL    HW236251   9.310   7.076  12.083
45409SOL     OW36252   7.527   6.826  11.825
45409SOL    HW136253   7.526   6.779  11.913
45409SOL    HW236254   7.609   6.798  11.774
45410SOL     OW36255   9.272   5.778  12.399
45410SOL    HW136256   9.268   5.688  12.443
45410SOL    HW236257   9.275   5.767  12.300
45411SOL     OW36258   7.876   6.010  11.692
45411SOL    HW136259   7.906   5.938  11.630
45411SOL    HW236260   7.837   5.970  11.775
45412SOL     OW36261   9.153   7.073  12.276
45412SOL    HW136262   9.060   7.048  12.249
45412SOL    HW236263   9.179   7.023  12.358
45413SOL     OW36264   7.765   6.133  12.452
45413SOL    HW136265   7.803   6.074  12.524
45413SOL    HW236266   7.805   6.107  12.364
45414SOL     OW36267   8.260   7.172  11.859
45414SOL    HW136268   8.292   7.182  11.765
45414SOL    HW236269   8.181   7.110  11.861
45415SOL     OW36270   8.872   5.800  12.284
45415SOL    HW136271   8.924   5.735  12.339
45415SOL    HW236272   8.823   5.863  12.345
45416SOL     OW36273   8.449   5.620  12.326
45416SOL    HW136274   8.386   5.548  12.295
45416SOL    HW236275   8.542   5.584  12.326
45417SOL     OW36276   8.218   6.916  11.473
45417SOL    HW136277   8.172   6.829  11.490
45417SOL    HW236278   8.309   6.913  11.514
45418SOL     OW36279   8.066   7.153  12.456
45418SOL    HW136280   8.061   7.235  12.513
45418SOL    HW236281   8.155   7.150  12.411
45419SOL     OW36282   8.800   5.638  11.340
45419SOL    HW136283   8.835   5.597  11.256
45419SOL    HW236284   8.710   5.600  11.360
45420SOL     OW36285   8.748   6.039  11.863
45420SOL    HW136286   8.689   6.119  11.867
45420SOL    HW236287   8.763   6.004  11.956
45421SOL     OW36288   9.041   5.807  12.054
45421SOL    HW136289   8.957   5.806  12.108
45421SOL    HW236290   9.043   5.890  11.998
45422SOL     OW36291   7.487   6.663  11.472
45422SOL    HW136292   7.586   6.652  11.463
45422SOL    HW236293   7.447   6.577  11.504
45423SOL     OW36294   8.323   7.232  11.509
45423SOL    HW136295   8.246   7.197  11.455
45423SOL    HW236296   8.291   7.303  11.571
45424SOL     OW36297   7.678   8.076   0.113
45424SOL    HW136298   7.585   8.074   0.150
45424SOL    HW236299   7.679   8.037   0.021
45425SOL     OW36300   7.673   7.723   0.996
45425SOL    HW136301   7.708   7.706   1.088
45425SOL    HW236302   7.585   7.678   0.984
45426SOL     OW36303   7.467   7.816   0.647
45426SOL    HW136304   7.385   7.859   0.686
45426SOL    HW236305   7.439   7.743   0.584
45427SOL     OW36306   8.017   8.723   1.165
45427SOL    HW136307   7.924   8.716   1.128
45427SOL    HW236308   8.028   8.812   1.209
45428SOL     OW36309   9.003   8.959   0.703
45428SOL    HW136310   8.946   8.943   0.784
45428SOL    HW236311   8.944   8.969   0.623
45429SOL     OW36312   8.583   8.151   0.717
45429SOL    HW136313   8.640   8.229   0.692
45429SOL    HW236314   8.523   8.177   0.793
45430SOL     OW36315   9.203   8.055   0.231
45430SOL    HW136316   9.191   8.042   0.132
45430SOL    HW236317   9.173   7.974   0.280
45431SOL     OW36318   8.216   8.592   1.023
45431SOL    HW136319   8.138   8.609   1.083
45431SOL    HW236320   8.250   8.679   0.987
45432SOL     OW36321   8.298   8.246   1.823
45432SOL    HW136322   8.294   8.322   1.888
45432SOL    HW236323   8.320   8.282   1.732
45433SOL     OW36324   8.133   8.460   0.665
45433SOL    HW136325   8.202   8.444   0.735
45433SOL    HW236326   8.060   8.517   0.703
45434SOL     OW36327   8.134   8.609   1.803
45434SOL    HW136328   8.194   8.688   1.817
45434SOL    HW236329   8.048   8.640   1.762
45435SOL     OW36330   7.783   8.883   1.061
45435SOL    HW136331   7.705   8.852   1.008
45435SOL    HW236332   7.841   8.941   1.004
45436SOL     OW36333   8.908   8.953   1.339
45436SOL    HW136334   8.932   9.047   1.365
45436SOL    HW236335   8.892   8.899   1.421
45437SOL     OW36336   7.886   7.840   1.499
45437SOL    HW136337   7.968   7.784   1.508
45437SOL    HW236338   7.805   7.782   1.503
45438SOL     OW36339   9.051   7.895   0.737
45438SOL    HW136340   8.977   7.941   0.687
45438SOL    HW236341   9.102   7.963   0.790
45439SOL     OW36342   7.679   9.161   0.483
45439SOL    HW136343   7.713   9.238   0.537
45439SOL    HW236344   7.723   9.161   0.393
45440SOL     OW36345   8.575   8.789   1.690
45440SOL    HW136346   8.622   8.789   1.778
45440SOL    HW236347   8.527   8.702   1.679
45441SOL     OW36348   7.678   8.882   0.538
45441SOL    HW136349   7.652   8.978   0.538
45441SOL    HW236350   7.607   8.828   0.583
45442SOL     OW36351   7.688   8.539   0.886
45442SOL    HW136352   7.702   8.455   0.938
45442SOL    HW236353   7.633   8.603   0.941
45443SOL     OW36354   8.068   9.234   1.439
45443SOL    HW136355   7.976   9.217   1.474
45443SOL    HW236356   8.096   9.326   1.465
45444SOL     OW36357   8.054   8.412   0.123
45444SOL    HW136358   8.061   8.496   0.069
45444SOL    HW236359   8.100   8.425   0.211
45445SOL     OW36360   9.042   7.562   1.480
45445SOL    HW136361   9.024   7.629   1.408
45445SOL    HW236362   9.039   7.608   1.569
45446SOL     OW36363   7.570   8.091   0.563
45446SOL    HW136364   7.525   8.003   0.580
45446SOL    HW236365   7.569   8.145   0.647
45447SOL     OW36366   9.290   9.215   0.359
45447SOL    HW136367   9.344   9.186   0.439
45447SOL    HW236368   9.320   9.305   0.330
45448SOL     OW36369   7.475   9.044   0.117
45448SOL    HW136370   7.456   8.948   0.138
45448SOL    HW236371   7.442   9.102   0.192
45449SOL     OW36372   9.137   8.370   0.612
45449SOL    HW136373   9.232   8.341   0.620
45449SOL    HW236374   9.129   8.435   0.537
45450SOL     OW36375   9.089   8.556   0.432
45450SOL    HW136376   9.175   8.558   0.380
45450SOL    HW236377   9.103   8.603   0.520
45451SOL     OW36378   7.561   8.185   1.597
45451SOL    HW136379   7.649   8.172   1.642
45451SOL    HW236380   7.548   8.282   1.575
45452SOL     OW36381   8.061   8.813   0.726
45452SOL    HW136382   8.012   8.726   0.735
45452SOL    HW236383   8.038   8.856   0.639
45453SOL     OW36384   8.741   8.676   1.423
45453SOL    HW136385   8.778   8.603   1.365
45453SOL    HW236386   8.793   8.681   1.508
45454SOL     OW36387   8.257   7.452   0.502
45454SOL    HW136388   8.297   7.543   0.493
45454SOL    HW236389   8.157   7.460   0.508
45455SOL     OW36390   7.645   8.424   1.264
45455SOL    HW136391   7.734   8.379   1.250
45455SOL    HW236392   7.572   8.359   1.245
45456SOL     OW36393   8.973   8.447   0.190
45456SOL    HW136394   8.910   8.371   0.203
45456SOL    HW236395   9.021   8.465   0.276
45457SOL     OW36396   8.635   9.240   1.616
45457SOL    HW136397   8.659   9.300   1.540
45457SOL    HW236398   8.642   9.145   1.586
45458SOL     OW36399   7.765   7.699   1.801
45458SOL    HW136400   7.836   7.770   1.807
45458SOL    HW236401   7.677   7.738   1.829
45459SOL     OW36402   8.914   8.865   0.953
45459SOL    HW136403   8.855   8.871   1.033
45459SOL    HW236404   8.899   8.777   0.907
45460SOL     OW36405   9.115   9.162   0.572
45460SOL    HW136406   9.074   9.139   0.484
45460SOL    HW236407   9.097   9.088   0.637
45461SOL     OW36408   8.046   8.177   0.270
45461SOL    HW136409   8.070   8.246   0.202
45461SOL    HW236410   7.968   8.210   0.324
45462SOL     OW36411   8.729   7.793   0.944
45462SOL    HW136412   8.643   7.743   0.931
45462SOL    HW236413   8.791   7.739   1.000
45463SOL     OW36414   9.024   9.110   0.307
45463SOL    HW136415   9.113   9.156   0.310
45463SOL    HW236416   9.003   9.086   0.212
45464SOL     OW36417   8.255   8.053   1.465
45464SOL    HW136418   8.208   8.050   1.554
45464SOL    HW236419   8.204   7.998   1.399
45465SOL     OW36420   8.842   7.917   1.674
45465SOL    HW136421   8.822   7.960   1.762
45465SOL    HW236422   8.920   7.855   1.683
45466SOL     OW36423   8.421   8.338   1.572
45466SOL    HW136424   8.467   8.254   1.543
45466SOL    HW236425   8.365   8.372   1.497
45467SOL     OW36426   8.439   7.858   1.242
45467SOL    HW136427   8.362   7.892   1.296
45467SOL    HW236428   8.405   7.807   1.163
45468SOL     OW36429   8.489   8.149   0.429
45468SOL    HW136430   8.515   8.145   0.525
45468SOL    HW236431   8.404   8.098   0.415
45469SOL     OW36432   7.524   8.259   0.789
45469SOL    HW136433   7.623   8.247   0.798
45469SOL    HW236434   7.500   8.354   0.810
45470SOL     OW36435   7.578   9.269   1.571
45470SOL    HW136436   7.568   9.254   1.670
45470SOL    HW236437   7.492   9.305   1.535
45471SOL     OW36438   8.313   7.796   0.195
45471SOL    HW136439   8.372   7.859   0.146
45471SOL    HW236440   8.332   7.702   0.166
45472SOL     OW36441   9.167   8.033   1.831
45472SOL    HW136442   9.141   8.122   1.795
45472SOL    HW236443   9.165   7.965   1.758
45473SOL     OW36444   8.810   8.592   0.545
45473SOL    HW136445   8.893   8.563   0.497
45473SOL    HW236446   8.761   8.659   0.489
45474SOL     OW36447   7.998   7.644   0.885
45474SOL    HW136448   7.993   7.639   0.985
45474SOL    HW236449   8.000   7.740   0.856
45475SOL     OW36450   8.456   8.904   0.477
45475SOL    HW136451   8.410   8.976   0.425
45475SOL    HW236452   8.452   8.924   0.575
45476SOL     OW36453   7.799   9.249   0.853
45476SOL    HW136454   7.849   9.163   0.859
45476SOL    HW236455   7.864   9.326   0.850
45477SOL     OW36456   9.243   8.514   0.873
45477SOL    HW136457   9.181   8.499   0.797
45477SOL    HW236458   9.191   8.525   0.958
45478SOL     OW36459   8.675   8.998   1.506
45478SOL    HW136460   8.681   8.921   1.570
45478SOL    HW236461   8.623   8.972   1.426
45479SOL     OW36462   7.769   8.391   0.242
45479SOL    HW136463   7.851   8.430   0.200
45479SOL    HW236464   7.742   8.309   0.193
45480SOL     OW36465   8.906   8.183   0.728
45480SOL    HW136466   8.901   8.118   0.803
45480SOL    HW236467   8.986   8.242   0.741
45481SOL     OW36468   7.909   8.714   1.727
45481SOL    HW136469   7.859   8.715   1.641
45481SOL    HW236470   7.846   8.696   1.803
45482SOL     OW36471   8.559   9.224   0.237
45482SOL    HW136472   8.499   9.162   0.287
45482SOL    HW236473   8.590   9.180   0.152
45483SOL     OW36474   7.650   7.733   1.498
45483SOL    HW136475   7.570   7.793   1.485
45483SOL    HW236476   7.640   7.684   1.584
45484SOL     OW36477   9.080   8.825   0.081
45484SOL    HW136478   9.048   8.919   0.071
45484SOL    HW236479   9.004   8.762   0.069
45485SOL     OW36480   7.912   9.191   0.323
45485SOL    HW136481   7.945   9.230   0.409
45485SOL    HW236482   7.988   9.184   0.258
45486SOL     OW36483   8.848   7.555   0.426
45486SOL    HW136484   8.824   7.518   0.336
45486SOL    HW236485   8.947   7.571   0.430
45487SOL     OW36486   7.697   9.233   1.241
45487SOL    HW136487   7.754   9.168   1.291
45487SOL    HW236488   7.681   9.200   1.148
45488SOL     OW36489   8.388   9.146   0.904
45488SOL    HW136490   8.468   9.089   0.925
45488SOL    HW236491   8.339   9.106   0.827
45489SOL     OW36492   7.830   8.148   0.480
45489SOL    HW136493   7.875   8.058   0.477
45489SOL    HW236494   7.736   8.137   0.513
45490SOL     OW36495   8.995   7.670   1.729
45490SOL    HW136496   8.990   7.707   1.821
45490SOL    HW236497   8.923   7.601   1.717
45491SOL     OW36498   8.062   7.570   0.117
45491SOL    HW136499   8.160   7.548   0.124
45491SOL    HW236500   8.031   7.553   0.024
45492SOL     OW36501   8.229   7.712   1.749
45492SOL    HW136502   8.296   7.651   1.792
45492SOL    HW236503   8.156   7.731   1.814
45493SOL     OW36504   8.336   8.962   1.195
45493SOL    HW136505   8.313   8.937   1.101
45493SOL    HW236506   8.397   8.893   1.234
45494SOL     OW36507   8.799   8.038   1.433
45494SOL    HW136508   8.827   7.995   1.518
45494SOL    HW236509   8.824   8.134   1.434
45495SOL     OW36510   8.251   8.850   0.924
45495SOL    HW136511   8.341   8.864   0.882
45495SOL    HW236512   8.180   8.852   0.853
45496SOL     OW36513   8.370   7.951   0.899
45496SOL    HW136514   8.345   7.942   0.803
45496SOL    HW236515   8.418   7.869   0.930
45497SOL     OW36516   7.987   7.512   0.512
45497SOL    HW136517   7.906   7.513   0.570
45497SOL    HW236518   7.990   7.595   0.457
45498SOL     OW36519   8.882   8.636   0.041
45498SOL    HW136520   8.914   8.560   0.098
45498SOL    HW236521   8.790   8.663   0.071
45499SOL     OW36522   7.745   7.483   0.171
45499SOL    HW136523   7.794   7.567   0.150
45499SOL    HW236524   7.807   7.418   0.216
45500SOL     OW36525   8.383   7.684   0.480
45500SOL    HW136526   8.335   7.725   0.402
45500SOL    HW236527   8.482   7.682   0.461
45501SOL     OW36528   8.524   8.131   1.464
45501SOL    HW136529   8.444   8.070   1.467
45501SOL    HW236530   8.605   8.078   1.440
45502SOL     OW36531   8.675   9.018   0.793
45502SOL    HW136532   8.696   9.092   0.728
45502SOL    HW236533   8.743   9.018   0.866
45503SOL     OW36534   7.907   8.600   0.741
45503SOL    HW136535   7.836   8.573   0.806
45503SOL    HW236536   7.881   8.572   0.648
45504SOL     OW36537   8.719   9.245   0.591
45504SOL    HW136538   8.763   9.309   0.527
45504SOL    HW236539   8.669   9.297   0.661
45505SOL     OW36540   8.480   7.997   0.016
45505SOL    HW136541   8.439   8.079  -0.023
45505SOL    HW236542   8.544   8.023   0.089
45506SOL     OW36543   7.526   8.004   1.386
45506SOL    HW136544   7.618   8.003   1.345
45506SOL    HW236545   7.520   8.078   1.453
45507SOL     OW36546   8.009   7.670   1.147
45507SOL    HW136547   8.047   7.586   1.184
45507SOL    HW236548   7.921   7.689   1.191
45508SOL     OW36549   8.314   7.902   0.642
45508SOL    HW136550   8.282   7.974   0.580
45508SOL    HW236551   8.338   7.821   0.589
45509SOL     OW36552   8.465   7.487   0.753
45509SOL    HW136553   8.393   7.492   0.684
45509SOL    HW236554   8.441   7.418   0.822
45510SOL     OW36555   8.877   8.621   0.867
45510SOL    HW136556   8.822   8.537   0.860
45510SOL    HW236557   8.903   8.650   0.775
45511SOL     OW36558   8.914   8.038   0.992
45511SOL    HW136559   8.884   7.943   0.999
45511SOL    HW236560   8.987   8.054   1.058
45512SOL     OW36561   9.305   8.281   0.377
45512SOL    HW136562   9.347   8.217   0.441
45512SOL    HW236563   9.267   8.230   0.299
45513SOL     OW36564   7.936   8.833   0.174
45513SOL    HW136565   7.849   8.818   0.221
45513SOL    HW236566   7.919   8.859   0.079
45514SOL     OW36567   9.112   8.728   0.657
45514SOL    HW136568   9.211   8.736   0.671
45514SOL    HW236569   9.067   8.812   0.688
45515SOL     OW36570   8.838   8.023   0.078
45515SOL    HW136571   8.784   8.002   0.159
45515SOL    HW236572   8.929   7.982   0.087
45516SOL     OW36573   7.975   7.704   0.328
45516SOL    HW136574   8.002   7.645   0.253
45516SOL    HW236575   7.975   7.799   0.297
45517SOL     OW36576   9.202   8.671   1.588
45517SOL    HW136577   9.293   8.632   1.575
45517SOL    HW236578   9.210   8.767   1.612
45518SOL     OW36579   8.512   8.795   1.340
45518SOL    HW136580   8.432   8.772   1.395
45518SOL    HW236581   8.595   8.769   1.389
45519SOL     OW36582   9.040   9.077   1.625
45519SOL    HW136583   9.067   9.111   1.535
45519SOL    HW236584   9.119   9.039   1.671
45520SOL     OW36585   8.559   8.643   1.100
45520SOL    HW136586   8.519   8.687   1.181
45520SOL    HW236587   8.518   8.680   1.017
45521SOL     OW36588   9.086   8.547   1.079
45521SOL    HW136589   9.091   8.628   1.138
45521SOL    HW236590   9.000   8.549   1.028
45522SOL     OW36591   8.363   7.537   1.402
45522SOL    HW136592   8.388   7.517   1.307
45522SOL    HW236593   8.435   7.593   1.444
45523SOL     OW36594   8.428   8.564   1.719
45523SOL    HW136595   8.329   8.570   1.729
45523SOL    HW236596   8.451   8.484   1.663
45524SOL     OW36597   8.153   8.498   0.368
45524SOL    HW136598   8.139   8.505   0.467
45524SOL    HW236599   8.237   8.447   0.350
45525SOL     OW36600   7.858   8.261   1.251
45525SOL    HW136601   7.944   8.273   1.301
45525SOL    HW236602   7.816   8.174   1.278
45526SOL     OW36603   8.722   7.834   1.262
45526SOL    HW136604   8.743   7.908   1.326
45526SOL    HW236605   8.633   7.851   1.219
45527SOL     OW36606   7.512   9.012   1.331
45527SOL    HW136607   7.466   9.094   1.297
45527SOL    HW236608   7.610   9.031   1.340
45528SOL     OW36609   7.815   8.548   0.501
45528SOL    HW136610   7.808   8.631   0.445
45528SOL    HW236611   7.819   8.468   0.441
45529SOL     OW36612   8.014   7.985   0.865
45529SOL    HW136613   8.026   8.051   0.791
45529SOL    HW236614   8.060   8.019   0.948
45530SOL     OW36615   8.700   8.796   0.388
45530SOL    HW136616   8.750   8.873   0.428
45530SOL    HW236617   8.605   8.798   0.420
45531SOL     OW36618   8.720   8.893   1.142
45531SOL    HW136619   8.767   8.906   1.229
45531SOL    HW236620   8.654   8.819   1.151
45532SOL     OW36621   9.030   8.087   0.472
45532SOL    HW136622   8.999   8.148   0.545
45532SOL    HW236623   9.080   8.139   0.403
45533SOL     OW36624   7.802   8.958   1.329
45533SOL    HW136625   7.781   8.914   1.242
45533SOL    HW236626   7.899   8.984   1.332
45534SOL     OW36627   7.850   8.199   1.598
45534SOL    HW136628   7.918   8.254   1.551
45534SOL    HW236629   7.890   8.111   1.625
45535SOL     OW36630   9.035   8.227   1.670
45535SOL    HW136631   8.943   8.265   1.665
45535SOL    HW236632   9.095   8.274   1.605
45536SOL     OW36633   8.461   7.553   1.770
45536SOL    HW136634   8.467   7.638   1.718
45536SOL    HW236635   8.493   7.477   1.713
45537SOL     OW36636   7.952   7.498   1.740
45537SOL    HW136637   7.910   7.441   1.670
45537SOL    HW236638   7.886   7.567   1.772
45538SOL     OW36639   8.021   8.318   1.029
45538SOL    HW136640   8.065   8.407   1.020
45538SOL    HW236641   7.958   8.318   1.106
45539SOL     OW36642   8.808   8.310   1.045
45539SOL    HW136643   8.733   8.310   0.979
45539SOL    HW236644   8.845   8.218   1.054
45540SOL     OW36645   8.657   7.973   0.275
45540SOL    HW136646   8.670   7.889   0.329
45540SOL    HW236647   8.628   8.047   0.335
45541SOL     OW36648   7.755   7.661   1.231
45541SOL    HW136649   7.732   7.698   1.321
45541SOL    HW236650   7.725   7.566   1.225
45542SOL     OW36651   7.485   8.758   1.282
45542SOL    HW136652   7.538   8.709   1.350
45542SOL    HW236653   7.507   8.856   1.287
45543SOL     OW36654   8.180   8.082   1.064
45543SOL    HW136655   8.239   8.056   0.988
45543SOL    HW236656   8.152   8.178   1.053
45544SOL     OW36657   9.176   8.383   1.854
45544SOL    HW136658   9.130   8.376   1.765
45544SOL    HW236659   9.114   8.427   1.920
45545SOL     OW36660   7.755   7.511   0.618
45545SOL    HW136661   7.744   7.605   0.651
45545SOL    HW236662   7.750   7.448   0.695
45546SOL     OW36663   9.070   7.815   0.374
45546SOL    HW136664   9.072   7.739   0.438
45546SOL    HW236665   9.022   7.892   0.414
45547SOL     OW36666   8.471   8.214   0.966
45547SOL    HW136667   8.486   8.235   1.062
45547SOL    HW236668   8.441   8.119   0.957
45548SOL     OW36669   8.428   9.021   1.700
45548SOL    HW136670   8.408   9.065   1.612
45548SOL    HW236671   8.467   8.930   1.684
45549SOL     OW36672   9.307   8.966   1.605
45549SOL    HW136673   9.321   8.993   1.510
45549SOL    HW236674   9.390   8.988   1.658
45550SOL     OW36675   7.798   8.346   1.804
45550SOL    HW136676   7.874   8.390   1.852
45550SOL    HW236677   7.833   8.299   1.722
45551SOL     OW36678   8.988   7.722   0.125
45551SOL    HW136679   8.927   7.647   0.148
45551SOL    HW236680   9.010   7.774   0.208
45552SOL     OW36681   8.751   8.286   0.042
45552SOL    HW136682   8.785   8.193   0.057
45552SOL    HW236683   8.769   8.313  -0.053
45553SOL     OW36684   8.516   8.781   0.849
45553SOL    HW136685   8.523   8.697   0.794
45553SOL    HW236686   8.578   8.850   0.813
45554SOL     OW36687   7.767   8.258   0.949
45554SOL    HW136688   7.860   8.294   0.954
45554SOL    HW236689   7.761   8.173   1.001
45555SOL     OW36690   7.787   7.957   1.006
45555SOL    HW136691   7.735   7.874   0.989
45555SOL    HW236692   7.864   7.962   0.942
45556SOL     OW36693   8.586   7.828   1.678
45556SOL    HW136694   8.541   7.891   1.742
45556SOL    HW236695   8.679   7.859   1.661
45557SOL     OW36696   8.608   7.655   1.477
45557SOL    HW136697   8.608   7.719   1.554
45557SOL    HW236698   8.636   7.703   1.394
45558SOL     OW36699   7.456   8.774   0.200
45558SOL    HW136700   7.363   8.795   0.169
45558SOL    HW236701   7.466   8.675   0.213
45559SOL     OW36702   7.536   9.249   0.927
45559SOL    HW136703   7.494   9.163   0.900
45559SOL    HW236704   7.630   9.252   0.893
45560SOL     OW36705   7.952   9.016   0.910
45560SOL    HW136706   8.018   9.090   0.919
45560SOL    HW236707   7.996   8.937   0.868
45561SOL     OW36708   8.450   8.244   1.238
45561SOL    HW136709   8.491   8.212   1.324
45561SOL    HW236710   8.354   8.217   1.235
45562SOL     OW36711   7.488   7.992   1.114
45562SOL    HW136712   7.573   7.959   1.073
45562SOL    HW236713   7.501   8.007   1.212
45563SOL     OW36714   7.637   7.968   1.722
45563SOL    HW136715   7.696   7.928   1.652
45563SOL    HW236716   7.579   8.039   1.681
45564SOL     OW36717   8.817   8.398   1.660
45564SOL    HW136718   8.856   8.487   1.680
45564SOL    HW236719   8.827   8.378   1.563
45565SOL     OW36720   8.263   8.020   0.325
45565SOL    HW136721   8.270   7.931   0.279
45565SOL    HW236722   8.169   8.054   0.317
45566SOL     OW36723   9.105   8.052   1.206
45566SOL    HW136724   9.067   7.983   1.268
45566SOL    HW236725   9.187   8.016   1.162
45567SOL     OW36726   7.700   9.012   1.744
45567SOL    HW136727   7.670   9.069   1.820
45567SOL    HW236728   7.693   8.915   1.770
45568SOL     OW36729   8.119   7.912   1.269
45568SOL    HW136730   8.085   7.823   1.239
45568SOL    HW236731   8.145   7.966   1.189
45569SOL     OW36732   8.378   9.126   1.465
45569SOL    HW136733   8.354   9.108   1.370
45569SOL    HW236734   8.408   9.220   1.475
45570SOL     OW36735   7.921   7.948   0.191
45570SOL    HW136736   7.982   8.028   0.195
45570SOL    HW236737   7.826   7.979   0.198
45571SOL     OW36738   7.607   8.585   1.466
45571SOL    HW136739   7.629   8.524   1.542
45571SOL    HW236740   7.617   8.536   1.380
45572SOL     OW36741   8.795   8.507   1.234
45572SOL    HW136742   8.819   8.444   1.160
45572SOL    HW236743   8.705   8.547   1.216
45573SOL     OW36744   8.750   8.303   0.309
45573SOL    HW136745   8.664   8.272   0.351
45573SOL    HW236746   8.746   8.289   0.210
45574SOL     OW36747   9.207   9.195   1.154
45574SOL    HW136748   9.268   9.225   1.081
45574SOL    HW236749   9.169   9.106   1.132
45575SOL     OW36750   8.700   9.179   1.128
45575SOL    HW136751   8.784   9.184   1.074
45575SOL    HW236752   8.677   9.083   1.146
45576SOL     OW36753   7.531   8.706   1.022
45576SOL    HW136754   7.526   8.705   1.122
45576SOL    HW236755   7.448   8.665   0.984
45577SOL     OW36756   8.136   9.110   1.716
45577SOL    HW136757   8.080   9.191   1.725
45577SOL    HW236758   8.188   9.114   1.630
45578SOL     OW36759   8.351   7.534   0.133
45578SOL    HW136760   8.402   7.535   0.047
45578SOL    HW236761   8.407   7.492   0.204
45579SOL     OW36762   9.174   7.583   0.523
45579SOL    HW136763   9.247   7.566   0.456
45579SOL    HW236764   9.143   7.496   0.561
45580SOL     OW36765   8.836   9.021   0.477
45580SOL    HW136766   8.903   9.033   0.403
45580SOL    HW236767   8.796   9.110   0.500
45581SOL     OW36768   7.578   9.242   1.851
45581SOL    HW136769   7.537   9.168   1.904
45581SOL    HW236770   7.642   9.293   1.909
45582SOL     OW36771   8.728   8.375   0.672
45582SOL    HW136772   8.788   8.294   0.674
45582SOL    HW236773   8.768   8.444   0.612
45583SOL     OW36774   8.278   8.721   1.422
45583SOL    HW136775   8.273   8.754   1.517
45583SOL    HW236776   8.192   8.740   1.376
45584SOL     OW36777   8.120   9.064   0.154
45584SOL    HW136778   8.129   9.074   0.055
45584SOL    HW236779   8.080   8.975   0.175
45585SOL     OW36780   9.098   9.168   1.394
45585SOL    HW136781   9.151   9.178   1.310
45585SOL    HW236782   9.071   9.258   1.428
45586SOL     OW36783   9.289   7.623   0.963
45586SOL    HW136784   9.328   7.538   0.927
45586SOL    HW236785   9.191   7.625   0.944
45587SOL     OW36786   7.711   7.774   0.720
45587SOL    HW136787   7.632   7.825   0.686
45587SOL    HW236788   7.702   7.759   0.818
45588SOL     OW36789   8.642   9.060   0.031
45588SOL    HW136790   8.648   8.967   0.068
45588SOL    HW236791   8.583   9.060  -0.049
45589SOL     OW36792   8.270   8.450   1.372
45589SOL    HW136793   8.310   8.449   1.280
45589SOL    HW236794   8.280   8.542   1.412
45590SOL     OW36795   8.364   8.358   0.291
45590SOL    HW136796   8.427   8.396   0.223
45590SOL    HW236797   8.404   8.275   0.330
45591SOL     OW36798   8.952   9.055   0.044
45591SOL    HW136799   8.860   9.092   0.051
45591SOL    HW236800   8.990   9.075  -0.046
45592SOL     OW36801   7.820   8.736   1.490
45592SOL    HW136802   7.807   8.829   1.456
45592SOL    HW236803   7.736   8.684   1.477
45593SOL     OW36804   9.062   8.740   1.289
45593SOL    HW136805   9.122   8.743   1.369
45593SOL    HW236806   8.987   8.804   1.302
45594SOL     OW36807   8.487   8.546   0.696
45594SOL    HW136808   8.417   8.499   0.750
45594SOL    HW236809   8.546   8.478   0.653
45595SOL     OW36810   8.462   7.684   0.971
45595SOL    HW136811   8.454   7.648   0.878
45595SOL    HW236812   8.460   7.608   1.036
45596SOL     OW36813   8.038   8.935   0.491
45596SOL    HW136814   8.080   8.877   0.421
45596SOL    HW236815   7.994   9.014   0.447
45597SOL     OW36816   9.157   7.833   1.381
45597SOL    HW136817   9.230   7.902   1.385
45597SOL    HW236818   9.185   7.758   1.322
45598SOL     OW36819   7.703   8.796   0.290
45598SOL    HW136820   7.607   8.797   0.263
45598SOL    HW236821   7.715   8.849   0.374
45599SOL     OW36822   7.553   8.461   1.726
45599SOL    HW136823   7.476   8.428   1.780
45599SOL    HW236824   7.638   8.431   1.768
45600SOL     OW36825   8.120   7.651   1.489
45600SOL    HW136826   8.210   7.635   1.449
45600SOL    HW236827   8.128   7.656   1.588
45601SOL     OW36828   8.888   8.304   1.398
45601SOL    HW136829   8.831   8.356   1.335
45601SOL    HW236830   8.984   8.316   1.374
45602SOL     OW36831   7.520   7.614   0.318
45602SOL    HW136832   7.503   7.697   0.264
45602SOL    HW236833   7.610   7.577   0.296
45603SOL     OW36834   8.631   8.783   0.119
45603SOL    HW136835   8.532   8.772   0.121
45603SOL    HW236836   8.665   8.798   0.212
45604SOL     OW36837   8.061   8.290   1.431
45604SOL    HW136838   8.117   8.371   1.414
45604SOL    HW236839   8.120   8.210   1.434
45605SOL     OW36840   8.941   9.215   0.959
45605SOL    HW136841   8.974   9.279   0.890
45605SOL    HW236842   9.007   9.209   1.034
45606SOL     OW36843   8.164   8.013   1.708
45606SOL    HW136844   8.183   8.078   1.782
45606SOL    HW236845   8.224   7.933   1.717
45607SOL     OW36846   8.898   8.668   1.633
45607SOL    HW136847   8.889   8.658   1.732
45607SOL    HW236848   8.994   8.661   1.607
45608SOL     OW36849   7.838   9.189   1.560
45608SOL    HW136850   7.747   9.230   1.558
45608SOL    HW236851   7.831   9.095   1.592
45609SOL     OW36852   9.122   8.331   1.254
45609SOL    HW136853   9.095   8.242   1.217
45609SOL    HW236854   9.123   8.399   1.181
45610SOL     OW36855   8.673   7.773   0.449
45610SOL    HW136856   8.738   7.699   0.438
45610SOL    HW236857   8.693   7.823   0.533
45611SOL     OW36858   8.042   8.193   0.652
45611SOL    HW136859   8.092   8.278   0.633
45611SOL    HW236860   7.954   8.195   0.604
45612SOL     OW36861   9.225   7.790   1.642
45612SOL    HW136862   9.208   7.821   1.548
45612SOL    HW236863   9.141   7.753   1.680
45613SOL     OW36864   9.178   8.382   1.517
45613SOL    HW136865   9.216   8.473   1.532
45613SOL    HW236866   9.170   8.365   1.418
45614SOL     OW36867   8.307   8.822   0.016
45614SOL    HW136868   8.261   8.837   0.104
45614SOL    HW236869   8.351   8.907  -0.014
45615SOL     OW36870   8.109   9.238   0.953
45615SOL    HW136871   8.063   9.326   0.940
45615SOL    HW236872   8.208   9.250   0.946
45616SOL     OW36873   8.307   8.404   0.861
45616SOL    HW136874   8.361   8.335   0.909
45616SOL    HW236875   8.275   8.473   0.927
45617SOL     OW36876   8.531   8.432   0.087
45617SOL    HW136877   8.508   8.485   0.005
45617SOL    HW236878   8.612   8.376   0.068
45618SOL     OW36879   9.309   9.017   0.851
45618SOL    HW136880   9.238   9.005   0.781
45618SOL    HW236881   9.310   8.938   0.911
45619SOL     OW36882   7.669   8.762   1.844
45619SOL    HW136883   7.604   8.689   1.823
45619SOL    HW236884   7.673   8.776   1.942
45620SOL     OW36885   7.527   8.688   0.653
45620SOL    HW136886   7.526   8.641   0.741
45620SOL    HW236887   7.609   8.660   0.602
45621SOL     OW36888   8.120   8.839   1.624
45621SOL    HW136889   8.042   8.789   1.662
45621SOL    HW236890   8.117   8.934   1.655
45622SOL     OW36891   9.272   7.640   1.227
45622SOL    HW136892   9.268   7.550   1.271
45622SOL    HW236893   9.275   7.629   1.128
45623SOL     OW36894   7.876   7.872   0.520
45623SOL    HW136895   7.906   7.800   0.458
45623SOL    HW236896   7.837   7.832   0.603
45624SOL     OW36897   9.153   8.935   1.104
45624SOL    HW136898   9.060   8.910   1.077
45624SOL    HW236899   9.179   8.885   1.186
45625SOL     OW36900   7.765   7.995   1.280
45625SOL    HW136901   7.803   7.936   1.352
45625SOL    HW236902   7.805   7.969   1.192
45626SOL     OW36903   8.260   9.034   0.687
45626SOL    HW136904   8.292   9.044   0.593
45626SOL    HW236905   8.181   8.972   0.689
45627SOL     OW36906   8.872   7.662   1.112
45627SOL    HW136907   8.924   7.597   1.167
45627SOL    HW236908   8.823   7.725   1.173
45628SOL     OW36909   8.449   7.482   1.154
45628SOL    HW136910   8.386   7.410   1.123
45628SOL    HW236911   8.542   7.446   1.154
45629SOL     OW36912   8.218   8.778   0.301
45629SOL    HW136913   8.172   8.691   0.318
45629SOL    HW236914   8.309   8.775   0.342
45630SOL     OW36915   8.066   9.015   1.284
45630SOL    HW136916   8.061   9.097   1.341
45630SOL    HW236917   8.155   9.012   1.239
45631SOL     OW36918   8.800   7.500   0.168
45631SOL    HW136919   8.835   7.459   0.084
45631SOL    HW236920   8.710   7.462   0.188
45632SOL     OW36921   8.748   7.901   0.691
45632SOL    HW136922   8.689   7.981   0.695
45632SOL    HW236923   8.763   7.866   0.784
45633SOL     OW36924   9.041   7.669   0.882
45633SOL    HW136925   8.957   7.668   0.936
45633SOL    HW236926   9.043   7.752   0.826
45634SOL     OW36927   7.487   8.525   0.300
45634SOL    HW136928   7.586   8.514   0.291
45634SOL    HW236929   7.447   8.439   0.332
45635SOL     OW36930   8.323   9.094   0.337
45635SOL    HW136931   8.246   9.059   0.283
45635SOL    HW236932   8.291   9.165   0.399
45636SOL     OW36933   7.678   8.076   1.975
45636SOL    HW136934   7.585   8.074   2.012
45636SOL    HW236935   7.679   8.037   1.883
45637SOL     OW36936   7.673   7.723   2.858
45637SOL    HW136937   7.708   7.706   2.950
45637SOL    HW236938   7.585   7.678   2.846
45638SOL     OW36939   7.467   7.816   2.509
45638SOL    HW136940   7.385   7.859   2.548
45638SOL    HW236941   7.439   7.743   2.446
45639SOL     OW36942   8.017   8.723   3.027
45639SOL    HW136943   7.924   8.716   2.990
45639SOL    HW236944   8.028   8.812   3.071
45640SOL     OW36945   9.003   8.959   2.565
45640SOL    HW136946   8.946   8.943   2.646
45640SOL    HW236947   8.944   8.969   2.485
45641SOL     OW36948   8.583   8.151   2.579
45641SOL    HW136949   8.640   8.229   2.554
45641SOL    HW236950   8.523   8.177   2.655
45642SOL     OW36951   9.203   8.055   2.093
45642SOL    HW136952   9.191   8.042   1.994
45642SOL    HW236953   9.173   7.974   2.142
45643SOL     OW36954   8.216   8.592   2.885
45643SOL    HW136955   8.138   8.609   2.945
45643SOL    HW236956   8.250   8.679   2.849
45644SOL     OW36957   8.298   8.246   3.685
45644SOL    HW136958   8.294   8.322   3.750
45644SOL    HW236959   8.320   8.282   3.594
45645SOL     OW36960   8.133   8.460   2.527
45645SOL    HW136961   8.202   8.444   2.597
45645SOL    HW236962   8.060   8.517   2.565
45646SOL     OW36963   8.134   8.609   3.665
45646SOL    HW136964   8.194   8.688   3.679
45646SOL    HW236965   8.048   8.640   3.624
45647SOL     OW36966   7.783   8.883   2.923
45647SOL    HW136967   7.705   8.852   2.870
45647SOL    HW236968   7.841   8.941   2.866
45648SOL     OW36969   8.908   8.953   3.201
45648SOL    HW136970   8.932   9.047   3.227
45648SOL    HW236971   8.892   8.899   3.283
45649SOL     OW36972   7.886   7.840   3.361
45649SOL    HW136973   7.968   7.784   3.370
45649SOL    HW236974   7.805   7.782   3.365
45650SOL     OW36975   9.051   7.895   2.599
45650SOL    HW136976   8.977   7.941   2.549
45650SOL    HW236977   9.102   7.963   2.652
45651SOL     OW36978   7.679   9.161   2.345
45651SOL    HW136979   7.713   9.238   2.399
45651SOL    HW236980   7.723   9.161   2.255
45652SOL     OW36981   8.575   8.789   3.552
45652SOL    HW136982   8.622   8.789   3.640
45652SOL    HW236983   8.527   8.702   3.541
45653SOL     OW36984   7.678   8.882   2.400
45653SOL    HW136985   7.652   8.978   2.400
45653SOL    HW236986   7.607   8.828   2.445
45654SOL     OW36987   7.688   8.539   2.748
45654SOL    HW136988   7.702   8.455   2.800
45654SOL    HW236989   7.633   8.603   2.803
45655SOL     OW36990   8.068   9.234   3.301
45655SOL    HW136991   7.976   9.217   3.336
45655SOL    HW236992   8.096   9.326   3.327
45656SOL     OW36993   8.054   8.412   1.985
45656SOL    HW136994   8.061   8.496   1.931
45656SOL    HW236995   8.100   8.425   2.073
45657SOL     OW36996   9.042   7.562   3.342
45657SOL    HW136997   9.024   7.629   3.270
45657SOL    HW236998   9.039   7.608   3.431
45658SOL     OW36999   7.570   8.091   2.425
45658SOL    HW137000   7.525   8.003   2.442
45658SOL    HW237001   7.569   8.145   2.509
45659SOL     OW37002   9.290   9.215   2.221
45659SOL    HW137003   9.344   9.186   2.301
45659SOL    HW237004   9.320   9.305   2.192
45660SOL     OW37005   7.475   9.044   1.979
45660SOL    HW137006   7.456   8.948   2.000
45660SOL    HW237007   7.442   9.102   2.054
45661SOL     OW37008   9.137   8.370   2.474
45661SOL    HW137009   9.232   8.341   2.482
45661SOL    HW237010   9.129   8.435   2.399
45662SOL     OW37011   9.089   8.556   2.294
45662SOL    HW137012   9.175   8.558   2.242
45662SOL    HW237013   9.103   8.603   2.382
45663SOL     OW37014   7.561   8.185   3.459
45663SOL    HW137015   7.649   8.172   3.504
45663SOL    HW237016   7.548   8.282   3.437
45664SOL     OW37017   8.061   8.813   2.588
45664SOL    HW137018   8.012   8.726   2.597
45664SOL    HW237019   8.038   8.856   2.501
45665SOL     OW37020   8.741   8.676   3.285
45665SOL    HW137021   8.778   8.603   3.227
45665SOL    HW237022   8.793   8.681   3.370
45666SOL     OW37023   8.257   7.452   2.364
45666SOL    HW137024   8.297   7.543   2.355
45666SOL    HW237025   8.157   7.460   2.370
45667SOL     OW37026   7.645   8.424   3.126
45667SOL    HW137027   7.734   8.379   3.112
45667SOL    HW237028   7.572   8.359   3.107
45668SOL     OW37029   8.973   8.447   2.052
45668SOL    HW137030   8.910   8.371   2.065
45668SOL    HW237031   9.021   8.465   2.138
45669SOL     OW37032   8.635   9.240   3.478
45669SOL    HW137033   8.659   9.300   3.402
45669SOL    HW237034   8.642   9.145   3.448
45670SOL     OW37035   7.765   7.699   3.663
45670SOL    HW137036   7.836   7.770   3.669
45670SOL    HW237037   7.677   7.738   3.691
45671SOL     OW37038   8.914   8.865   2.815
45671SOL    HW137039   8.855   8.871   2.895
45671SOL    HW237040   8.899   8.777   2.769
45672SOL     OW37041   9.115   9.162   2.434
45672SOL    HW137042   9.074   9.139   2.346
45672SOL    HW237043   9.097   9.088   2.499
45673SOL     OW37044   8.046   8.177   2.132
45673SOL    HW137045   8.070   8.246   2.064
45673SOL    HW237046   7.968   8.210   2.186
45674SOL     OW37047   8.729   7.793   2.806
45674SOL    HW137048   8.643   7.743   2.793
45674SOL    HW237049   8.791   7.739   2.862
45675SOL     OW37050   9.024   9.110   2.169
45675SOL    HW137051   9.113   9.156   2.172
45675SOL    HW237052   9.003   9.086   2.074
45676SOL     OW37053   8.255   8.053   3.327
45676SOL    HW137054   8.208   8.050   3.416
45676SOL    HW237055   8.204   7.998   3.261
45677SOL     OW37056   8.842   7.917   3.536
45677SOL    HW137057   8.822   7.960   3.624
45677SOL    HW237058   8.920   7.855   3.545
45678SOL     OW37059   8.421   8.338   3.434
45678SOL    HW137060   8.467   8.254   3.405
45678SOL    HW237061   8.365   8.372   3.359
45679SOL     OW37062   8.439   7.858   3.104
45679SOL    HW137063   8.362   7.892   3.158
45679SOL    HW237064   8.405   7.807   3.025
45680SOL     OW37065   8.489   8.149   2.291
45680SOL    HW137066   8.515   8.145   2.387
45680SOL    HW237067   8.404   8.098   2.277
45681SOL     OW37068   7.524   8.259   2.651
45681SOL    HW137069   7.623   8.247   2.660
45681SOL    HW237070   7.500   8.354   2.672
45682SOL     OW37071   7.578   9.269   3.433
45682SOL    HW137072   7.568   9.254   3.532
45682SOL    HW237073   7.492   9.305   3.397
45683SOL     OW37074   8.313   7.796   2.057
45683SOL    HW137075   8.372   7.859   2.008
45683SOL    HW237076   8.332   7.702   2.028
45684SOL     OW37077   9.167   8.033   3.693
45684SOL    HW137078   9.141   8.122   3.657
45684SOL    HW237079   9.165   7.965   3.620
45685SOL     OW37080   8.810   8.592   2.407
45685SOL    HW137081   8.893   8.563   2.359
45685SOL    HW237082   8.761   8.659   2.351
45686SOL     OW37083   7.998   7.644   2.747
45686SOL    HW137084   7.993   7.639   2.847
45686SOL    HW237085   8.000   7.740   2.718
45687SOL     OW37086   8.456   8.904   2.339
45687SOL    HW137087   8.410   8.976   2.287
45687SOL    HW237088   8.452   8.924   2.437
45688SOL     OW37089   7.799   9.249   2.715
45688SOL    HW137090   7.849   9.163   2.721
45688SOL    HW237091   7.864   9.326   2.712
45689SOL     OW37092   9.243   8.514   2.735
45689SOL    HW137093   9.181   8.499   2.659
45689SOL    HW237094   9.191   8.525   2.820
45690SOL     OW37095   8.675   8.998   3.368
45690SOL    HW137096   8.681   8.921   3.432
45690SOL    HW237097   8.623   8.972   3.288
45691SOL     OW37098   7.769   8.391   2.104
45691SOL    HW137099   7.851   8.430   2.062
45691SOL    HW237100   7.742   8.309   2.055
45692SOL     OW37101   8.906   8.183   2.590
45692SOL    HW137102   8.901   8.118   2.665
45692SOL    HW237103   8.986   8.242   2.603
45693SOL     OW37104   7.909   8.714   3.589
45693SOL    HW137105   7.859   8.715   3.503
45693SOL    HW237106   7.846   8.696   3.665
45694SOL     OW37107   8.559   9.224   2.099
45694SOL    HW137108   8.499   9.162   2.149
45694SOL    HW237109   8.590   9.180   2.014
45695SOL     OW37110   7.650   7.733   3.360
45695SOL    HW137111   7.570   7.793   3.347
45695SOL    HW237112   7.640   7.684   3.446
45696SOL     OW37113   9.080   8.825   1.943
45696SOL    HW137114   9.048   8.919   1.933
45696SOL    HW237115   9.004   8.762   1.931
45697SOL     OW37116   7.912   9.191   2.185
45697SOL    HW137117   7.945   9.230   2.271
45697SOL    HW237118   7.988   9.184   2.120
45698SOL     OW37119   8.848   7.555   2.288
45698SOL    HW137120   8.824   7.518   2.198
45698SOL    HW237121   8.947   7.571   2.292
45699SOL     OW37122   7.697   9.233   3.103
45699SOL    HW137123   7.754   9.168   3.153
45699SOL    HW237124   7.681   9.200   3.010
45700SOL     OW37125   8.388   9.146   2.766
45700SOL    HW137126   8.468   9.089   2.787
45700SOL    HW237127   8.339   9.106   2.689
45701SOL     OW37128   7.830   8.148   2.342
45701SOL    HW137129   7.875   8.058   2.339
45701SOL    HW237130   7.736   8.137   2.375
45702SOL     OW37131   8.995   7.670   3.591
45702SOL    HW137132   8.990   7.707   3.683
45702SOL    HW237133   8.923   7.601   3.579
45703SOL     OW37134   8.062   7.570   1.979
45703SOL    HW137135   8.160   7.548   1.986
45703SOL    HW237136   8.031   7.553   1.886
45704SOL     OW37137   8.229   7.712   3.611
45704SOL    HW137138   8.296   7.651   3.654
45704SOL    HW237139   8.156   7.731   3.676
45705SOL     OW37140   8.336   8.962   3.057
45705SOL    HW137141   8.313   8.937   2.963
45705SOL    HW237142   8.397   8.893   3.096
45706SOL     OW37143   8.799   8.038   3.295
45706SOL    HW137144   8.827   7.995   3.380
45706SOL    HW237145   8.824   8.134   3.296
45707SOL     OW37146   8.251   8.850   2.786
45707SOL    HW137147   8.341   8.864   2.744
45707SOL    HW237148   8.180   8.852   2.715
45708SOL     OW37149   8.370   7.951   2.761
45708SOL    HW137150   8.345   7.942   2.665
45708SOL    HW237151   8.418   7.869   2.792
45709SOL     OW37152   7.987   7.512   2.374
45709SOL    HW137153   7.906   7.513   2.432
45709SOL    HW237154   7.990   7.595   2.319
45710SOL     OW37155   8.882   8.636   1.903
45710SOL    HW137156   8.914   8.560   1.960
45710SOL    HW237157   8.790   8.663   1.933
45711SOL     OW37158   7.745   7.483   2.033
45711SOL    HW137159   7.794   7.567   2.012
45711SOL    HW237160   7.807   7.418   2.078
45712SOL     OW37161   8.383   7.684   2.342
45712SOL    HW137162   8.335   7.725   2.264
45712SOL    HW237163   8.482   7.682   2.323
45713SOL     OW37164   8.524   8.131   3.326
45713SOL    HW137165   8.444   8.070   3.329
45713SOL    HW237166   8.605   8.078   3.302
45714SOL     OW37167   8.675   9.018   2.655
45714SOL    HW137168   8.696   9.092   2.590
45714SOL    HW237169   8.743   9.018   2.728
45715SOL     OW37170   7.907   8.600   2.603
45715SOL    HW137171   7.836   8.573   2.668
45715SOL    HW237172   7.881   8.572   2.510
45716SOL     OW37173   8.719   9.245   2.453
45716SOL    HW137174   8.763   9.309   2.389
45716SOL    HW237175   8.669   9.297   2.523
45717SOL     OW37176   8.480   7.997   1.878
45717SOL    HW137177   8.439   8.079   1.839
45717SOL    HW237178   8.544   8.023   1.951
45718SOL     OW37179   7.526   8.004   3.248
45718SOL    HW137180   7.618   8.003   3.207
45718SOL    HW237181   7.520   8.078   3.315
45719SOL     OW37182   8.009   7.670   3.009
45719SOL    HW137183   8.047   7.586   3.046
45719SOL    HW237184   7.921   7.689   3.053
45720SOL     OW37185   8.314   7.902   2.504
45720SOL    HW137186   8.282   7.974   2.442
45720SOL    HW237187   8.338   7.821   2.451
45721SOL     OW37188   8.465   7.487   2.615
45721SOL    HW137189   8.393   7.492   2.546
45721SOL    HW237190   8.441   7.418   2.684
45722SOL     OW37191   8.877   8.621   2.729
45722SOL    HW137192   8.822   8.537   2.722
45722SOL    HW237193   8.903   8.650   2.637
45723SOL     OW37194   8.914   8.038   2.854
45723SOL    HW137195   8.884   7.943   2.861
45723SOL    HW237196   8.987   8.054   2.920
45724SOL     OW37197   9.305   8.281   2.239
45724SOL    HW137198   9.347   8.217   2.303
45724SOL    HW237199   9.267   8.230   2.161
45725SOL     OW37200   7.936   8.833   2.036
45725SOL    HW137201   7.849   8.818   2.083
45725SOL    HW237202   7.919   8.859   1.941
45726SOL     OW37203   9.112   8.728   2.519
45726SOL    HW137204   9.211   8.736   2.533
45726SOL    HW237205   9.067   8.812   2.550
45727SOL     OW37206   8.838   8.023   1.940
45727SOL    HW137207   8.784   8.002   2.021
45727SOL    HW237208   8.929   7.982   1.949
45728SOL     OW37209   7.975   7.704   2.190
45728SOL    HW137210   8.002   7.645   2.115
45728SOL    HW237211   7.975   7.799   2.159
45729SOL     OW37212   9.202   8.671   3.450
45729SOL    HW137213   9.293   8.632   3.437
45729SOL    HW237214   9.210   8.767   3.474
45730SOL     OW37215   8.512   8.795   3.202
45730SOL    HW137216   8.432   8.772   3.257
45730SOL    HW237217   8.595   8.769   3.251
45731SOL     OW37218   9.040   9.077   3.487
45731SOL    HW137219   9.067   9.111   3.397
45731SOL    HW237220   9.119   9.039   3.533
45732SOL     OW37221   8.559   8.643   2.962
45732SOL    HW137222   8.519   8.687   3.043
45732SOL    HW237223   8.518   8.680   2.879
45733SOL     OW37224   9.086   8.547   2.941
45733SOL    HW137225   9.091   8.628   3.000
45733SOL    HW237226   9.000   8.549   2.890
45734SOL     OW37227   8.363   7.537   3.264
45734SOL    HW137228   8.388   7.517   3.169
45734SOL    HW237229   8.435   7.593   3.306
45735SOL     OW37230   8.428   8.564   3.581
45735SOL    HW137231   8.329   8.570   3.591
45735SOL    HW237232   8.451   8.484   3.525
45736SOL     OW37233   8.153   8.498   2.230
45736SOL    HW137234   8.139   8.505   2.329
45736SOL    HW237235   8.237   8.447   2.212
45737SOL     OW37236   7.858   8.261   3.113
45737SOL    HW137237   7.944   8.273   3.163
45737SOL    HW237238   7.816   8.174   3.140
45738SOL     OW37239   8.722   7.834   3.124
45738SOL    HW137240   8.743   7.908   3.188
45738SOL    HW237241   8.633   7.851   3.081
45739SOL     OW37242   7.512   9.012   3.193
45739SOL    HW137243   7.466   9.094   3.159
45739SOL    HW237244   7.610   9.031   3.202
45740SOL     OW37245   7.815   8.548   2.363
45740SOL    HW137246   7.808   8.631   2.307
45740SOL    HW237247   7.819   8.468   2.303
45741SOL     OW37248   8.014   7.985   2.727
45741SOL    HW137249   8.026   8.051   2.653
45741SOL    HW237250   8.060   8.019   2.810
45742SOL     OW37251   8.700   8.796   2.250
45742SOL    HW137252   8.750   8.873   2.290
45742SOL    HW237253   8.605   8.798   2.282
45743SOL     OW37254   8.720   8.893   3.004
45743SOL    HW137255   8.767   8.906   3.091
45743SOL    HW237256   8.654   8.819   3.013
45744SOL     OW37257   9.030   8.087   2.334
45744SOL    HW137258   8.999   8.148   2.407
45744SOL    HW237259   9.080   8.139   2.265
45745SOL     OW37260   7.802   8.958   3.191
45745SOL    HW137261   7.781   8.914   3.104
45745SOL    HW237262   7.899   8.984   3.194
45746SOL     OW37263   7.850   8.199   3.460
45746SOL    HW137264   7.918   8.254   3.413
45746SOL    HW237265   7.890   8.111   3.487
45747SOL     OW37266   9.035   8.227   3.532
45747SOL    HW137267   8.943   8.265   3.527
45747SOL    HW237268   9.095   8.274   3.467
45748SOL     OW37269   8.461   7.553   3.632
45748SOL    HW137270   8.467   7.638   3.580
45748SOL    HW237271   8.493   7.477   3.575
45749SOL     OW37272   7.952   7.498   3.602
45749SOL    HW137273   7.910   7.441   3.532
45749SOL    HW237274   7.886   7.567   3.634
45750SOL     OW37275   8.021   8.318   2.891
45750SOL    HW137276   8.065   8.407   2.882
45750SOL    HW237277   7.958   8.318   2.968
45751SOL     OW37278   8.808   8.310   2.907
45751SOL    HW137279   8.733   8.310   2.841
45751SOL    HW237280   8.845   8.218   2.916
45752SOL     OW37281   8.657   7.973   2.137
45752SOL    HW137282   8.670   7.889   2.191
45752SOL    HW237283   8.628   8.047   2.197
45753SOL     OW37284   7.755   7.661   3.093
45753SOL    HW137285   7.732   7.698   3.183
45753SOL    HW237286   7.725   7.566   3.087
45754SOL     OW37287   7.485   8.758   3.144
45754SOL    HW137288   7.538   8.709   3.212
45754SOL    HW237289   7.507   8.856   3.149
45755SOL     OW37290   8.180   8.082   2.926
45755SOL    HW137291   8.239   8.056   2.850
45755SOL    HW237292   8.152   8.178   2.915
45756SOL     OW37293   9.176   8.383   3.716
45756SOL    HW137294   9.130   8.376   3.627
45756SOL    HW237295   9.114   8.427   3.782
45757SOL     OW37296   7.755   7.511   2.480
45757SOL    HW137297   7.744   7.605   2.513
45757SOL    HW237298   7.750   7.448   2.557
45758SOL     OW37299   9.070   7.815   2.236
45758SOL    HW137300   9.072   7.739   2.300
45758SOL    HW237301   9.022   7.892   2.276
45759SOL     OW37302   8.471   8.214   2.828
45759SOL    HW137303   8.486   8.235   2.924
45759SOL    HW237304   8.441   8.119   2.819
45760SOL     OW37305   8.428   9.021   3.562
45760SOL    HW137306   8.408   9.065   3.474
45760SOL    HW237307   8.467   8.930   3.546
45761SOL     OW37308   9.307   8.966   3.467
45761SOL    HW137309   9.321   8.993   3.372
45761SOL    HW237310   9.390   8.988   3.520
45762SOL     OW37311   7.798   8.346   3.666
45762SOL    HW137312   7.874   8.390   3.714
45762SOL    HW237313   7.833   8.299   3.584
45763SOL     OW37314   8.988   7.722   1.987
45763SOL    HW137315   8.927   7.647   2.010
45763SOL    HW237316   9.010   7.774   2.070
45764SOL     OW37317   8.751   8.286   1.904
45764SOL    HW137318   8.785   8.193   1.919
45764SOL    HW237319   8.769   8.313   1.809
45765SOL     OW37320   8.516   8.781   2.711
45765SOL    HW137321   8.523   8.697   2.656
45765SOL    HW237322   8.578   8.850   2.675
45766SOL     OW37323   7.767   8.258   2.811
45766SOL    HW137324   7.860   8.294   2.816
45766SOL    HW237325   7.761   8.173   2.863
45767SOL     OW37326   7.787   7.957   2.868
45767SOL    HW137327   7.735   7.874   2.851
45767SOL    HW237328   7.864   7.962   2.804
45768SOL     OW37329   8.586   7.828   3.540
45768SOL    HW137330   8.541   7.891   3.604
45768SOL    HW237331   8.679   7.859   3.523
45769SOL     OW37332   8.608   7.655   3.339
45769SOL    HW137333   8.608   7.719   3.416
45769SOL    HW237334   8.636   7.703   3.256
45770SOL     OW37335   7.456   8.774   2.062
45770SOL    HW137336   7.363   8.795   2.031
45770SOL    HW237337   7.466   8.675   2.075
45771SOL     OW37338   7.536   9.249   2.789
45771SOL    HW137339   7.494   9.163   2.762
45771SOL    HW237340   7.630   9.252   2.755
45772SOL     OW37341   7.952   9.016   2.772
45772SOL    HW137342   8.018   9.090   2.781
45772SOL    HW237343   7.996   8.937   2.730
45773SOL     OW37344   8.450   8.244   3.100
45773SOL    HW137345   8.491   8.212   3.186
45773SOL    HW237346   8.354   8.217   3.097
45774SOL     OW37347   7.488   7.992   2.976
45774SOL    HW137348   7.573   7.959   2.935
45774SOL    HW237349   7.501   8.007   3.074
45775SOL     OW37350   7.637   7.968   3.584
45775SOL    HW137351   7.696   7.928   3.514
45775SOL    HW237352   7.579   8.039   3.543
45776SOL     OW37353   8.817   8.398   3.522
45776SOL    HW137354   8.856   8.487   3.542
45776SOL    HW237355   8.827   8.378   3.425
45777SOL     OW37356   8.263   8.020   2.187
45777SOL    HW137357   8.270   7.931   2.141
45777SOL    HW237358   8.169   8.054   2.179
45778SOL     OW37359   9.105   8.052   3.068
45778SOL    HW137360   9.067   7.983   3.130
45778SOL    HW237361   9.187   8.016   3.024
45779SOL     OW37362   7.700   9.012   3.606
45779SOL    HW137363   7.670   9.069   3.682
45779SOL    HW237364   7.693   8.915   3.632
45780SOL     OW37365   8.119   7.912   3.131
45780SOL    HW137366   8.085   7.823   3.101
45780SOL    HW237367   8.145   7.966   3.051
45781SOL     OW37368   8.378   9.126   3.327
45781SOL    HW137369   8.354   9.108   3.232
45781SOL    HW237370   8.408   9.220   3.337
45782SOL     OW37371   7.921   7.948   2.053
45782SOL    HW137372   7.982   8.028   2.057
45782SOL    HW237373   7.826   7.979   2.060
45783SOL     OW37374   7.607   8.585   3.328
45783SOL    HW137375   7.629   8.524   3.404
45783SOL    HW237376   7.617   8.536   3.242
45784SOL     OW37377   8.795   8.507   3.096
45784SOL    HW137378   8.819   8.444   3.022
45784SOL    HW237379   8.705   8.547   3.078
45785SOL     OW37380   8.750   8.303   2.171
45785SOL    HW137381   8.664   8.272   2.213
45785SOL    HW237382   8.746   8.289   2.072
45786SOL     OW37383   9.207   9.195   3.016
45786SOL    HW137384   9.268   9.225   2.943
45786SOL    HW237385   9.169   9.106   2.994
45787SOL     OW37386   8.700   9.179   2.990
45787SOL    HW137387   8.784   9.184   2.936
45787SOL    HW237388   8.677   9.083   3.008
45788SOL     OW37389   7.531   8.706   2.884
45788SOL    HW137390   7.526   8.705   2.984
45788SOL    HW237391   7.448   8.665   2.846
45789SOL     OW37392   8.136   9.110   3.578
45789SOL    HW137393   8.080   9.191   3.587
45789SOL    HW237394   8.188   9.114   3.492
45790SOL     OW37395   9.174   7.583   2.385
45790SOL    HW137396   9.247   7.566   2.318
45790SOL    HW237397   9.143   7.496   2.423
45791SOL     OW37398   8.836   9.021   2.339
45791SOL    HW137399   8.903   9.033   2.265
45791SOL    HW237400   8.796   9.110   2.362
45792SOL     OW37401   7.578   9.242   3.713
45792SOL    HW137402   7.537   9.168   3.766
45792SOL    HW237403   7.642   9.293   3.771
45793SOL     OW37404   8.728   8.375   2.534
45793SOL    HW137405   8.788   8.294   2.536
45793SOL    HW237406   8.768   8.444   2.474
45794SOL     OW37407   8.278   8.721   3.284
45794SOL    HW137408   8.273   8.754   3.379
45794SOL    HW237409   8.192   8.740   3.238
45795SOL     OW37410   8.120   9.064   2.016
45795SOL    HW137411   8.129   9.074   1.917
45795SOL    HW237412   8.080   8.975   2.037
45796SOL     OW37413   9.098   9.168   3.256
45796SOL    HW137414   9.151   9.178   3.172
45796SOL    HW237415   9.071   9.258   3.290
45797SOL     OW37416   9.289   7.623   2.825
45797SOL    HW137417   9.328   7.538   2.789
45797SOL    HW237418   9.191   7.625   2.806
45798SOL     OW37419   7.711   7.774   2.582
45798SOL    HW137420   7.632   7.825   2.548
45798SOL    HW237421   7.702   7.759   2.680
45799SOL     OW37422   8.642   9.060   1.893
45799SOL    HW137423   8.648   8.967   1.930
45799SOL    HW237424   8.583   9.060   1.813
45800SOL     OW37425   8.270   8.450   3.234
45800SOL    HW137426   8.310   8.449   3.142
45800SOL    HW237427   8.280   8.542   3.274
45801SOL     OW37428   8.364   8.358   2.153
45801SOL    HW137429   8.427   8.396   2.085
45801SOL    HW237430   8.404   8.275   2.192
45802SOL     OW37431   8.952   9.055   1.906
45802SOL    HW137432   8.860   9.092   1.913
45802SOL    HW237433   8.990   9.075   1.816
45803SOL     OW37434   7.820   8.736   3.352
45803SOL    HW137435   7.807   8.829   3.318
45803SOL    HW237436   7.736   8.684   3.339
45804SOL     OW37437   9.062   8.740   3.151
45804SOL    HW137438   9.122   8.743   3.231
45804SOL    HW237439   8.987   8.804   3.164
45805SOL     OW37440   8.487   8.546   2.558
45805SOL    HW137441   8.417   8.499   2.612
45805SOL    HW237442   8.546   8.478   2.515
45806SOL     OW37443   8.462   7.684   2.833
45806SOL    HW137444   8.454   7.648   2.740
45806SOL    HW237445   8.460   7.608   2.898
45807SOL     OW37446   8.038   8.935   2.353
45807SOL    HW137447   8.080   8.877   2.283
45807SOL    HW237448   7.994   9.014   2.309
45808SOL     OW37449   9.157   7.833   3.243
45808SOL    HW137450   9.230   7.902   3.247
45808SOL    HW237451   9.185   7.758   3.184
45809SOL     OW37452   7.703   8.796   2.152
45809SOL    HW137453   7.607   8.797   2.125
45809SOL    HW237454   7.715   8.849   2.236
45810SOL     OW37455   7.553   8.461   3.588
45810SOL    HW137456   7.476   8.428   3.642
45810SOL    HW237457   7.638   8.431   3.630
45811SOL     OW37458   8.120   7.651   3.351
45811SOL    HW137459   8.210   7.635   3.311
45811SOL    HW237460   8.128   7.656   3.450
45812SOL     OW37461   7.523   7.793   1.895
45812SOL    HW137462   7.431   7.765   1.866
45812SOL    HW237463   7.554   7.870   1.839
45813SOL     OW37464   8.888   8.304   3.260
45813SOL    HW137465   8.831   8.356   3.197
45813SOL    HW237466   8.984   8.316   3.236
45814SOL     OW37467   7.520   7.614   2.180
45814SOL    HW137468   7.503   7.697   2.126
45814SOL    HW237469   7.610   7.577   2.158
45815SOL     OW37470   8.631   8.783   1.981
45815SOL    HW137471   8.532   8.772   1.983
45815SOL    HW237472   8.665   8.798   2.074
45816SOL     OW37473   8.061   8.290   3.293
45816SOL    HW137474   8.117   8.371   3.276
45816SOL    HW237475   8.120   8.210   3.296
45817SOL     OW37476   8.941   9.215   2.821
45817SOL    HW137477   8.974   9.279   2.752
45817SOL    HW237478   9.007   9.209   2.896
45818SOL     OW37479   8.164   8.013   3.570
45818SOL    HW137480   8.183   8.078   3.644
45818SOL    HW237481   8.224   7.933   3.579
45819SOL     OW37482   8.898   8.668   3.495
45819SOL    HW137483   8.889   8.658   3.594
45819SOL    HW237484   8.994   8.661   3.469
45820SOL     OW37485   7.838   9.189   3.422
45820SOL    HW137486   7.747   9.230   3.420
45820SOL    HW237487   7.831   9.095   3.454
45821SOL     OW37488   9.122   8.331   3.116
45821SOL    HW137489   9.095   8.242   3.079
45821SOL    HW237490   9.123   8.399   3.043
45822SOL     OW37491   8.673   7.773   2.311
45822SOL    HW137492   8.738   7.699   2.300
45822SOL    HW237493   8.693   7.823   2.395
45823SOL     OW37494   8.042   8.193   2.514
45823SOL    HW137495   8.092   8.278   2.495
45823SOL    HW237496   7.954   8.195   2.466
45824SOL     OW37497   9.225   7.790   3.504
45824SOL    HW137498   9.208   7.821   3.410
45824SOL    HW237499   9.141   7.753   3.542
45825SOL     OW37500   9.178   8.382   3.379
45825SOL    HW137501   9.216   8.473   3.394
45825SOL    HW237502   9.170   8.365   3.280
45826SOL     OW37503   8.307   8.822   1.878
45826SOL    HW137504   8.261   8.837   1.966
45826SOL    HW237505   8.351   8.907   1.848
45827SOL     OW37506   8.109   9.238   2.815
45827SOL    HW137507   8.063   9.326   2.802
45827SOL    HW237508   8.208   9.250   2.808
45828SOL     OW37509   8.307   8.404   2.723
45828SOL    HW137510   8.361   8.335   2.771
45828SOL    HW237511   8.275   8.473   2.789
45829SOL     OW37512   8.531   8.432   1.949
45829SOL    HW137513   8.508   8.485   1.867
45829SOL    HW237514   8.612   8.376   1.930
45830SOL     OW37515   9.309   9.017   2.713
45830SOL    HW137516   9.238   9.005   2.643
45830SOL    HW237517   9.310   8.938   2.773
45831SOL     OW37518   7.669   8.762   3.706
45831SOL    HW137519   7.604   8.689   3.685
45831SOL    HW237520   7.673   8.776   3.804
45832SOL     OW37521   7.527   8.688   2.515
45832SOL    HW137522   7.526   8.641   2.603
45832SOL    HW237523   7.609   8.660   2.464
45833SOL     OW37524   8.120   8.839   3.486
45833SOL    HW137525   8.042   8.789   3.524
45833SOL    HW237526   8.117   8.934   3.517
45834SOL     OW37527   9.272   7.640   3.089
45834SOL    HW137528   9.268   7.550   3.133
45834SOL    HW237529   9.275   7.629   2.990
45835SOL     OW37530   7.876   7.872   2.382
45835SOL    HW137531   7.906   7.800   2.320
45835SOL    HW237532   7.837   7.832   2.465
45836SOL     OW37533   9.153   8.935   2.966
45836SOL    HW137534   9.060   8.910   2.939
45836SOL    HW237535   9.179   8.885   3.048
45837SOL     OW37536   7.765   7.995   3.142
45837SOL    HW137537   7.803   7.936   3.214
45837SOL    HW237538   7.805   7.969   3.054
45838SOL     OW37539   8.260   9.034   2.549
45838SOL    HW137540   8.292   9.044   2.455
45838SOL    HW237541   8.181   8.972   2.551
45839SOL     OW37542   8.872   7.662   2.974
45839SOL    HW137543   8.924   7.597   3.029
45839SOL    HW237544   8.823   7.725   3.035
45840SOL     OW37545   8.449   7.482   3.016
45840SOL    HW137546   8.386   7.410   2.985
45840SOL    HW237547   8.542   7.446   3.016
45841SOL     OW37548   8.218   8.778   2.163
45841SOL    HW137549   8.172   8.691   2.180
45841SOL    HW237550   8.309   8.775   2.204
45842SOL     OW37551   8.066   9.015   3.146
45842SOL    HW137552   8.061   9.097   3.203
45842SOL    HW237553   8.155   9.012   3.101
45843SOL     OW37554   8.800   7.500   2.030
45843SOL    HW137555   8.835   7.459   1.946
45843SOL    HW237556   8.710   7.462   2.050
45844SOL     OW37557   8.748   7.901   2.553
45844SOL    HW137558   8.689   7.981   2.557
45844SOL    HW237559   8.763   7.866   2.646
45845SOL     OW37560   9.041   7.669   2.744
45845SOL    HW137561   8.957   7.668   2.798
45845SOL    HW237562   9.043   7.752   2.688
45846SOL     OW37563   7.487   8.525   2.162
45846SOL    HW137564   7.586   8.514   2.153
45846SOL    HW237565   7.447   8.439   2.194
45847SOL     OW37566   8.323   9.094   2.199
45847SOL    HW137567   8.246   9.059   2.145
45847SOL    HW237568   8.291   9.165   2.261
45848SOL     OW37569   7.678   8.076   3.837
45848SOL    HW137570   7.585   8.074   3.874
45848SOL    HW237571   7.679   8.037   3.745
45849SOL     OW37572   7.673   7.723   4.720
45849SOL    HW137573   7.708   7.706   4.812
45849SOL    HW237574   7.585   7.678   4.708
45850SOL     OW37575   7.467   7.816   4.371
45850SOL    HW137576   7.385   7.859   4.410
45850SOL    HW237577   7.439   7.743   4.308
45851SOL     OW37578   8.017   8.723   4.889
45851SOL    HW137579   7.924   8.716   4.852
45851SOL    HW237580   8.028   8.812   4.933
45852SOL     OW37581   9.003   8.959   4.427
45852SOL    HW137582   8.946   8.943   4.508
45852SOL    HW237583   8.944   8.969   4.347
45853SOL     OW37584   8.583   8.151   4.441
45853SOL    HW137585   8.640   8.229   4.416
45853SOL    HW237586   8.523   8.177   4.517
45854SOL     OW37587   9.203   8.055   3.955
45854SOL    HW137588   9.191   8.042   3.856
45854SOL    HW237589   9.173   7.974   4.004
45855SOL     OW37590   8.216   8.592   4.747
45855SOL    HW137591   8.138   8.609   4.807
45855SOL    HW237592   8.250   8.679   4.711
45856SOL     OW37593   8.298   8.246   5.547
45856SOL    HW137594   8.294   8.322   5.612
45856SOL    HW237595   8.320   8.282   5.456
45857SOL     OW37596   8.133   8.460   4.389
45857SOL    HW137597   8.202   8.444   4.459
45857SOL    HW237598   8.060   8.517   4.427
45858SOL     OW37599   8.134   8.609   5.527
45858SOL    HW137600   8.194   8.688   5.541
45858SOL    HW237601   8.048   8.640   5.486
45859SOL     OW37602   7.783   8.883   4.785
45859SOL    HW137603   7.705   8.852   4.732
45859SOL    HW237604   7.841   8.941   4.728
45860SOL     OW37605   8.908   8.953   5.063
45860SOL    HW137606   8.932   9.047   5.089
45860SOL    HW237607   8.892   8.899   5.145
45861SOL     OW37608   7.886   7.840   5.223
45861SOL    HW137609   7.968   7.784   5.232
45861SOL    HW237610   7.805   7.782   5.227
45862SOL     OW37611   9.051   7.895   4.461
45862SOL    HW137612   8.977   7.941   4.411
45862SOL    HW237613   9.102   7.963   4.514
45863SOL     OW37614   7.679   9.161   4.207
45863SOL    HW137615   7.713   9.238   4.261
45863SOL    HW237616   7.723   9.161   4.117
45864SOL     OW37617   8.575   8.789   5.414
45864SOL    HW137618   8.622   8.789   5.502
45864SOL    HW237619   8.527   8.702   5.403
45865SOL     OW37620   7.678   8.882   4.262
45865SOL    HW137621   7.652   8.978   4.262
45865SOL    HW237622   7.607   8.828   4.307
45866SOL     OW37623   7.688   8.539   4.610
45866SOL    HW137624   7.702   8.455   4.662
45866SOL    HW237625   7.633   8.603   4.665
45867SOL     OW37626   8.068   9.234   5.163
45867SOL    HW137627   7.976   9.217   5.198
45867SOL    HW237628   8.096   9.326   5.189
45868SOL     OW37629   8.054   8.412   3.847
45868SOL    HW137630   8.061   8.496   3.793
45868SOL    HW237631   8.100   8.425   3.935
45869SOL     OW37632   9.042   7.562   5.204
45869SOL    HW137633   9.024   7.629   5.132
45869SOL    HW237634   9.039   7.608   5.293
45870SOL     OW37635   7.570   8.091   4.287
45870SOL    HW137636   7.525   8.003   4.304
45870SOL    HW237637   7.569   8.145   4.371
45871SOL     OW37638   9.290   9.215   4.083
45871SOL    HW137639   9.344   9.186   4.163
45871SOL    HW237640   9.320   9.305   4.054
45872SOL     OW37641   7.475   9.044   3.841
45872SOL    HW137642   7.456   8.948   3.862
45872SOL    HW237643   7.442   9.102   3.916
45873SOL     OW37644   9.137   8.370   4.336
45873SOL    HW137645   9.232   8.341   4.344
45873SOL    HW237646   9.129   8.435   4.261
45874SOL     OW37647   9.089   8.556   4.156
45874SOL    HW137648   9.175   8.558   4.104
45874SOL    HW237649   9.103   8.603   4.244
45875SOL     OW37650   7.561   8.185   5.321
45875SOL    HW137651   7.649   8.172   5.366
45875SOL    HW237652   7.548   8.282   5.299
45876SOL     OW37653   8.061   8.813   4.450
45876SOL    HW137654   8.012   8.726   4.459
45876SOL    HW237655   8.038   8.856   4.363
45877SOL     OW37656   8.741   8.676   5.147
45877SOL    HW137657   8.778   8.603   5.089
45877SOL    HW237658   8.793   8.681   5.232
45878SOL     OW37659   8.257   7.452   4.226
45878SOL    HW137660   8.297   7.543   4.217
45878SOL    HW237661   8.157   7.460   4.232
45879SOL     OW37662   7.645   8.424   4.988
45879SOL    HW137663   7.734   8.379   4.974
45879SOL    HW237664   7.572   8.359   4.969
45880SOL     OW37665   8.973   8.447   3.914
45880SOL    HW137666   8.910   8.371   3.927
45880SOL    HW237667   9.021   8.465   4.000
45881SOL     OW37668   8.635   9.240   5.340
45881SOL    HW137669   8.659   9.300   5.264
45881SOL    HW237670   8.642   9.145   5.310
45882SOL     OW37671   7.765   7.699   5.525
45882SOL    HW137672   7.836   7.770   5.531
45882SOL    HW237673   7.677   7.738   5.553
45883SOL     OW37674   8.914   8.865   4.677
45883SOL    HW137675   8.855   8.871   4.757
45883SOL    HW237676   8.899   8.777   4.631
45884SOL     OW37677   9.115   9.162   4.296
45884SOL    HW137678   9.074   9.139   4.208
45884SOL    HW237679   9.097   9.088   4.361
45885SOL     OW37680   8.046   8.177   3.994
45885SOL    HW137681   8.070   8.246   3.926
45885SOL    HW237682   7.968   8.210   4.048
45886SOL     OW37683   8.729   7.793   4.668
45886SOL    HW137684   8.643   7.743   4.655
45886SOL    HW237685   8.791   7.739   4.724
45887SOL     OW37686   9.024   9.110   4.031
45887SOL    HW137687   9.113   9.156   4.034
45887SOL    HW237688   9.003   9.086   3.936
45888SOL     OW37689   8.255   8.053   5.189
45888SOL    HW137690   8.208   8.050   5.278
45888SOL    HW237691   8.204   7.998   5.123
45889SOL     OW37692   8.842   7.917   5.398
45889SOL    HW137693   8.822   7.960   5.486
45889SOL    HW237694   8.920   7.855   5.407
45890SOL     OW37695   8.421   8.338   5.296
45890SOL    HW137696   8.467   8.254   5.267
45890SOL    HW237697   8.365   8.372   5.221
45891SOL     OW37698   8.439   7.858   4.966
45891SOL    HW137699   8.362   7.892   5.020
45891SOL    HW237700   8.405   7.807   4.887
45892SOL     OW37701   8.489   8.149   4.153
45892SOL    HW137702   8.515   8.145   4.249
45892SOL    HW237703   8.404   8.098   4.139
45893SOL     OW37704   7.524   8.259   4.513
45893SOL    HW137705   7.623   8.247   4.522
45893SOL    HW237706   7.500   8.354   4.534
45894SOL     OW37707   7.578   9.269   5.295
45894SOL    HW137708   7.568   9.254   5.394
45894SOL    HW237709   7.492   9.305   5.259
45895SOL     OW37710   8.313   7.796   3.919
45895SOL    HW137711   8.372   7.859   3.870
45895SOL    HW237712   8.332   7.702   3.890
45896SOL     OW37713   9.167   8.033   5.555
45896SOL    HW137714   9.141   8.122   5.519
45896SOL    HW237715   9.165   7.965   5.482
45897SOL     OW37716   8.810   8.592   4.269
45897SOL    HW137717   8.893   8.563   4.221
45897SOL    HW237718   8.761   8.659   4.213
45898SOL     OW37719   7.998   7.644   4.609
45898SOL    HW137720   7.993   7.639   4.709
45898SOL    HW237721   8.000   7.740   4.580
45899SOL     OW37722   8.456   8.904   4.201
45899SOL    HW137723   8.410   8.976   4.149
45899SOL    HW237724   8.452   8.924   4.299
45900SOL     OW37725   7.799   9.249   4.577
45900SOL    HW137726   7.849   9.163   4.583
45900SOL    HW237727   7.864   9.326   4.574
45901SOL     OW37728   9.243   8.514   4.597
45901SOL    HW137729   9.181   8.499   4.521
45901SOL    HW237730   9.191   8.525   4.682
45902SOL     OW37731   8.675   8.998   5.230
45902SOL    HW137732   8.681   8.921   5.294
45902SOL    HW237733   8.623   8.972   5.150
45903SOL     OW37734   7.769   8.391   3.966
45903SOL    HW137735   7.851   8.430   3.924
45903SOL    HW237736   7.742   8.309   3.917
45904SOL     OW37737   8.906   8.183   4.452
45904SOL    HW137738   8.901   8.118   4.527
45904SOL    HW237739   8.986   8.242   4.465
45905SOL     OW37740   7.909   8.714   5.451
45905SOL    HW137741   7.859   8.715   5.365
45905SOL    HW237742   7.846   8.696   5.527
45906SOL     OW37743   8.559   9.224   3.961
45906SOL    HW137744   8.499   9.162   4.011
45906SOL    HW237745   8.590   9.180   3.876
45907SOL     OW37746   7.650   7.733   5.222
45907SOL    HW137747   7.570   7.793   5.209
45907SOL    HW237748   7.640   7.684   5.308
45908SOL     OW37749   9.080   8.825   3.805
45908SOL    HW137750   9.048   8.919   3.795
45908SOL    HW237751   9.004   8.762   3.793
45909SOL     OW37752   7.912   9.191   4.047
45909SOL    HW137753   7.945   9.230   4.133
45909SOL    HW237754   7.988   9.184   3.982
45910SOL     OW37755   8.848   7.555   4.150
45910SOL    HW137756   8.824   7.518   4.060
45910SOL    HW237757   8.947   7.571   4.154
45911SOL     OW37758   7.697   9.233   4.965
45911SOL    HW137759   7.754   9.168   5.015
45911SOL    HW237760   7.681   9.200   4.872
45912SOL     OW37761   8.388   9.146   4.628
45912SOL    HW137762   8.468   9.089   4.649
45912SOL    HW237763   8.339   9.106   4.551
45913SOL     OW37764   7.830   8.148   4.204
45913SOL    HW137765   7.875   8.058   4.201
45913SOL    HW237766   7.736   8.137   4.237
45914SOL     OW37767   8.995   7.670   5.453
45914SOL    HW137768   8.990   7.707   5.545
45914SOL    HW237769   8.923   7.601   5.441
45915SOL     OW37770   8.062   7.570   3.841
45915SOL    HW137771   8.160   7.548   3.848
45915SOL    HW237772   8.031   7.553   3.748
45916SOL     OW37773   8.229   7.712   5.473
45916SOL    HW137774   8.296   7.651   5.516
45916SOL    HW237775   8.156   7.731   5.538
45917SOL     OW37776   8.336   8.962   4.919
45917SOL    HW137777   8.313   8.937   4.825
45917SOL    HW237778   8.397   8.893   4.958
45918SOL     OW37779   8.799   8.038   5.157
45918SOL    HW137780   8.827   7.995   5.242
45918SOL    HW237781   8.824   8.134   5.158
45919SOL     OW37782   8.251   8.850   4.648
45919SOL    HW137783   8.341   8.864   4.606
45919SOL    HW237784   8.180   8.852   4.577
45920SOL     OW37785   8.370   7.951   4.623
45920SOL    HW137786   8.345   7.942   4.527
45920SOL    HW237787   8.418   7.869   4.654
45921SOL     OW37788   7.987   7.512   4.236
45921SOL    HW137789   7.906   7.513   4.294
45921SOL    HW237790   7.990   7.595   4.181
45922SOL     OW37791   8.882   8.636   3.765
45922SOL    HW137792   8.914   8.560   3.822
45922SOL    HW237793   8.790   8.663   3.795
45923SOL     OW37794   7.745   7.483   3.895
45923SOL    HW137795   7.794   7.567   3.874
45923SOL    HW237796   7.807   7.418   3.940
45924SOL     OW37797   8.383   7.684   4.204
45924SOL    HW137798   8.335   7.725   4.126
45924SOL    HW237799   8.482   7.682   4.185
45925SOL     OW37800   8.524   8.131   5.188
45925SOL    HW137801   8.444   8.070   5.191
45925SOL    HW237802   8.605   8.078   5.164
45926SOL     OW37803   8.675   9.018   4.517
45926SOL    HW137804   8.696   9.092   4.452
45926SOL    HW237805   8.743   9.018   4.590
45927SOL     OW37806   7.907   8.600   4.465
45927SOL    HW137807   7.836   8.573   4.530
45927SOL    HW237808   7.881   8.572   4.372
45928SOL     OW37809   8.719   9.245   4.315
45928SOL    HW137810   8.763   9.309   4.251
45928SOL    HW237811   8.669   9.297   4.385
45929SOL     OW37812   8.480   7.997   3.740
45929SOL    HW137813   8.439   8.079   3.701
45929SOL    HW237814   8.544   8.023   3.813
45930SOL     OW37815   7.526   8.004   5.110
45930SOL    HW137816   7.618   8.003   5.069
45930SOL    HW237817   7.520   8.078   5.177
45931SOL     OW37818   8.009   7.670   4.871
45931SOL    HW137819   8.047   7.586   4.908
45931SOL    HW237820   7.921   7.689   4.915
45932SOL     OW37821   8.314   7.902   4.366
45932SOL    HW137822   8.282   7.974   4.304
45932SOL    HW237823   8.338   7.821   4.313
45933SOL     OW37824   8.465   7.487   4.477
45933SOL    HW137825   8.393   7.492   4.408
45933SOL    HW237826   8.441   7.418   4.546
45934SOL     OW37827   8.877   8.621   4.591
45934SOL    HW137828   8.822   8.537   4.584
45934SOL    HW237829   8.903   8.650   4.499
45935SOL     OW37830   8.914   8.038   4.716
45935SOL    HW137831   8.884   7.943   4.723
45935SOL    HW237832   8.987   8.054   4.782
45936SOL     OW37833   9.305   8.281   4.101
45936SOL    HW137834   9.347   8.217   4.165
45936SOL    HW237835   9.267   8.230   4.023
45937SOL     OW37836   7.936   8.833   3.898
45937SOL    HW137837   7.849   8.818   3.945
45937SOL    HW237838   7.919   8.859   3.803
45938SOL     OW37839   9.112   8.728   4.381
45938SOL    HW137840   9.211   8.736   4.395
45938SOL    HW237841   9.067   8.812   4.412
45939SOL     OW37842   8.838   8.023   3.802
45939SOL    HW137843   8.784   8.002   3.883
45939SOL    HW237844   8.929   7.982   3.811
45940SOL     OW37845   7.975   7.704   4.052
45940SOL    HW137846   8.002   7.645   3.977
45940SOL    HW237847   7.975   7.799   4.021
45941SOL     OW37848   9.202   8.671   5.312
45941SOL    HW137849   9.293   8.632   5.299
45941SOL    HW237850   9.210   8.767   5.336
45942SOL     OW37851   8.512   8.795   5.064
45942SOL    HW137852   8.432   8.772   5.119
45942SOL    HW237853   8.595   8.769   5.113
45943SOL     OW37854   9.040   9.077   5.349
45943SOL    HW137855   9.067   9.111   5.259
45943SOL    HW237856   9.119   9.039   5.395
45944SOL     OW37857   8.559   8.643   4.824
45944SOL    HW137858   8.519   8.687   4.905
45944SOL    HW237859   8.518   8.680   4.741
45945SOL     OW37860   9.086   8.547   4.803
45945SOL    HW137861   9.091   8.628   4.862
45945SOL    HW237862   9.000   8.549   4.752
45946SOL     OW37863   8.363   7.537   5.126
45946SOL    HW137864   8.388   7.517   5.031
45946SOL    HW237865   8.435   7.593   5.168
45947SOL     OW37866   8.428   8.564   5.443
45947SOL    HW137867   8.329   8.570   5.453
45947SOL    HW237868   8.451   8.484   5.387
45948SOL     OW37869   8.153   8.498   4.092
45948SOL    HW137870   8.139   8.505   4.191
45948SOL    HW237871   8.237   8.447   4.074
45949SOL     OW37872   7.858   8.261   4.975
45949SOL    HW137873   7.944   8.273   5.025
45949SOL    HW237874   7.816   8.174   5.002
45950SOL     OW37875   8.722   7.834   4.986
45950SOL    HW137876   8.743   7.908   5.050
45950SOL    HW237877   8.633   7.851   4.943
45951SOL     OW37878   7.512   9.012   5.055
45951SOL    HW137879   7.466   9.094   5.021
45951SOL    HW237880   7.610   9.031   5.064
45952SOL     OW37881   7.815   8.548   4.225
45952SOL    HW137882   7.808   8.631   4.169
45952SOL    HW237883   7.819   8.468   4.165
45953SOL     OW37884   8.014   7.985   4.589
45953SOL    HW137885   8.026   8.051   4.515
45953SOL    HW237886   8.060   8.019   4.672
45954SOL     OW37887   8.700   8.796   4.112
45954SOL    HW137888   8.750   8.873   4.152
45954SOL    HW237889   8.605   8.798   4.144
45955SOL     OW37890   8.720   8.893   4.866
45955SOL    HW137891   8.767   8.906   4.953
45955SOL    HW237892   8.654   8.819   4.875
45956SOL     OW37893   9.030   8.087   4.196
45956SOL    HW137894   8.999   8.148   4.269
45956SOL    HW237895   9.080   8.139   4.127
45957SOL     OW37896   7.802   8.958   5.053
45957SOL    HW137897   7.781   8.914   4.966
45957SOL    HW237898   7.899   8.984   5.056
45958SOL     OW37899   7.850   8.199   5.322
45958SOL    HW137900   7.918   8.254   5.275
45958SOL    HW237901   7.890   8.111   5.349
45959SOL     OW37902   9.035   8.227   5.394
45959SOL    HW137903   8.943   8.265   5.389
45959SOL    HW237904   9.095   8.274   5.329
45960SOL     OW37905   8.461   7.553   5.494
45960SOL    HW137906   8.467   7.638   5.442
45960SOL    HW237907   8.493   7.477   5.437
45961SOL     OW37908   7.952   7.498   5.464
45961SOL    HW137909   7.910   7.441   5.394
45961SOL    HW237910   7.886   7.567   5.496
45962SOL     OW37911   8.021   8.318   4.753
45962SOL    HW137912   8.065   8.407   4.744
45962SOL    HW237913   7.958   8.318   4.830
45963SOL     OW37914   8.808   8.310   4.769
45963SOL    HW137915   8.733   8.310   4.703
45963SOL    HW237916   8.845   8.218   4.778
45964SOL     OW37917   8.657   7.973   3.999
45964SOL    HW137918   8.670   7.889   4.053
45964SOL    HW237919   8.628   8.047   4.059
45965SOL     OW37920   7.755   7.661   4.955
45965SOL    HW137921   7.732   7.698   5.045
45965SOL    HW237922   7.725   7.566   4.949
45966SOL     OW37923   7.485   8.758   5.006
45966SOL    HW137924   7.538   8.709   5.074
45966SOL    HW237925   7.507   8.856   5.011
45967SOL     OW37926   8.180   8.082   4.788
45967SOL    HW137927   8.239   8.056   4.712
45967SOL    HW237928   8.152   8.178   4.777
45968SOL     OW37929   9.176   8.383   5.578
45968SOL    HW137930   9.130   8.376   5.489
45968SOL    HW237931   9.114   8.427   5.644
45969SOL     OW37932   7.755   7.511   4.342
45969SOL    HW137933   7.744   7.605   4.375
45969SOL    HW237934   7.750   7.448   4.419
45970SOL     OW37935   9.070   7.815   4.098
45970SOL    HW137936   9.072   7.739   4.162
45970SOL    HW237937   9.022   7.892   4.138
45971SOL     OW37938   8.471   8.214   4.690
45971SOL    HW137939   8.486   8.235   4.786
45971SOL    HW237940   8.441   8.119   4.681
45972SOL     OW37941   8.428   9.021   5.424
45972SOL    HW137942   8.408   9.065   5.336
45972SOL    HW237943   8.467   8.930   5.408
45973SOL     OW37944   9.307   8.966   5.329
45973SOL    HW137945   9.321   8.993   5.234
45973SOL    HW237946   9.390   8.988   5.382
45974SOL     OW37947   7.798   8.346   5.528
45974SOL    HW137948   7.874   8.390   5.576
45974SOL    HW237949   7.833   8.299   5.446
45975SOL     OW37950   8.988   7.722   3.849
45975SOL    HW137951   8.927   7.647   3.872
45975SOL    HW237952   9.010   7.774   3.932
45976SOL     OW37953   8.751   8.286   3.766
45976SOL    HW137954   8.785   8.193   3.781
45976SOL    HW237955   8.769   8.313   3.671
45977SOL     OW37956   8.516   8.781   4.573
45977SOL    HW137957   8.523   8.697   4.518
45977SOL    HW237958   8.578   8.850   4.537
45978SOL     OW37959   7.767   8.258   4.673
45978SOL    HW137960   7.860   8.294   4.678
45978SOL    HW237961   7.761   8.173   4.725
45979SOL     OW37962   7.787   7.957   4.730
45979SOL    HW137963   7.735   7.874   4.713
45979SOL    HW237964   7.864   7.962   4.666
45980SOL     OW37965   8.586   7.828   5.402
45980SOL    HW137966   8.541   7.891   5.466
45980SOL    HW237967   8.679   7.859   5.385
45981SOL     OW37968   8.608   7.655   5.201
45981SOL    HW137969   8.608   7.719   5.278
45981SOL    HW237970   8.636   7.703   5.118
45982SOL     OW37971   7.456   8.774   3.924
45982SOL    HW137972   7.363   8.795   3.893
45982SOL    HW237973   7.466   8.675   3.937
45983SOL     OW37974   7.536   9.249   4.651
45983SOL    HW137975   7.494   9.163   4.624
45983SOL    HW237976   7.630   9.252   4.617
45984SOL     OW37977   7.952   9.016   4.634
45984SOL    HW137978   8.018   9.090   4.643
45984SOL    HW237979   7.996   8.937   4.592
45985SOL     OW37980   8.450   8.244   4.962
45985SOL    HW137981   8.491   8.212   5.048
45985SOL    HW237982   8.354   8.217   4.959
45986SOL     OW37983   7.488   7.992   4.838
45986SOL    HW137984   7.573   7.959   4.797
45986SOL    HW237985   7.501   8.007   4.936
45987SOL     OW37986   7.637   7.968   5.446
45987SOL    HW137987   7.696   7.928   5.376
45987SOL    HW237988   7.579   8.039   5.405
45988SOL     OW37989   8.817   8.398   5.384
45988SOL    HW137990   8.856   8.487   5.404
45988SOL    HW237991   8.827   8.378   5.287
45989SOL     OW37992   8.263   8.020   4.049
45989SOL    HW137993   8.270   7.931   4.003
45989SOL    HW237994   8.169   8.054   4.041
45990SOL     OW37995   9.105   8.052   4.930
45990SOL    HW137996   9.067   7.983   4.992
45990SOL    HW237997   9.187   8.016   4.886
45991SOL     OW37998   7.700   9.012   5.468
45991SOL    HW137999   7.670   9.069   5.544
45991SOL    HW238000   7.693   8.915   5.494
45992SOL     OW38001   8.119   7.912   4.993
45992SOL    HW138002   8.085   7.823   4.963
45992SOL    HW238003   8.145   7.966   4.913
45993SOL     OW38004   8.378   9.126   5.189
45993SOL    HW138005   8.354   9.108   5.094
45993SOL    HW238006   8.408   9.220   5.199
45994SOL     OW38007   7.921   7.948   3.915
45994SOL    HW138008   7.982   8.028   3.919
45994SOL    HW238009   7.826   7.979   3.922
45995SOL     OW38010   7.607   8.585   5.190
45995SOL    HW138011   7.629   8.524   5.266
45995SOL    HW238012   7.617   8.536   5.104
45996SOL     OW38013   8.795   8.507   4.958
45996SOL    HW138014   8.819   8.444   4.884
45996SOL    HW238015   8.705   8.547   4.940
45997SOL     OW38016   8.750   8.303   4.033
45997SOL    HW138017   8.664   8.272   4.075
45997SOL    HW238018   8.746   8.289   3.934
45998SOL     OW38019   9.207   9.195   4.878
45998SOL    HW138020   9.268   9.225   4.805
45998SOL    HW238021   9.169   9.106   4.856
45999SOL     OW38022   8.700   9.179   4.852
45999SOL    HW138023   8.784   9.184   4.798
45999SOL    HW238024   8.677   9.083   4.870
46000SOL     OW38025   7.531   8.706   4.746
46000SOL    HW138026   7.526   8.705   4.846
46000SOL    HW238027   7.448   8.665   4.708
46001SOL     OW38028   8.136   9.110   5.440
46001SOL    HW138029   8.080   9.191   5.449
46001SOL    HW238030   8.188   9.114   5.354
46002SOL     OW38031   9.174   7.583   4.247
46002SOL    HW138032   9.247   7.566   4.180
46002SOL    HW238033   9.143   7.496   4.285
46003SOL     OW38034   8.836   9.021   4.201
46003SOL    HW138035   8.903   9.033   4.127
46003SOL    HW238036   8.796   9.110   4.224
46004SOL     OW38037   7.578   9.242   5.575
46004SOL    HW138038   7.537   9.168   5.628
46004SOL    HW238039   7.642   9.293   5.633
46005SOL     OW38040   8.728   8.375   4.396
46005SOL    HW138041   8.788   8.294   4.398
46005SOL    HW238042   8.768   8.444   4.336
46006SOL     OW38043   8.278   8.721   5.146
46006SOL    HW138044   8.273   8.754   5.241
46006SOL    HW238045   8.192   8.740   5.100
46007SOL     OW38046   8.120   9.064   3.878
46007SOL    HW138047   8.129   9.074   3.779
46007SOL    HW238048   8.080   8.975   3.899
46008SOL     OW38049   9.098   9.168   5.118
46008SOL    HW138050   9.151   9.178   5.034
46008SOL    HW238051   9.071   9.258   5.152
46009SOL     OW38052   9.289   7.623   4.687
46009SOL    HW138053   9.328   7.538   4.651
46009SOL    HW238054   9.191   7.625   4.668
46010SOL     OW38055   7.711   7.774   4.444
46010SOL    HW138056   7.632   7.825   4.410
46010SOL    HW238057   7.702   7.759   4.542
46011SOL     OW38058   8.642   9.060   3.755
46011SOL    HW138059   8.648   8.967   3.792
46011SOL    HW238060   8.583   9.060   3.675
46012SOL     OW38061   8.270   8.450   5.096
46012SOL    HW138062   8.310   8.449   5.004
46012SOL    HW238063   8.280   8.542   5.136
46013SOL     OW38064   8.364   8.358   4.015
46013SOL    HW138065   8.427   8.396   3.947
46013SOL    HW238066   8.404   8.275   4.054
46014SOL     OW38067   8.952   9.055   3.768
46014SOL    HW138068   8.860   9.092   3.775
46014SOL    HW238069   8.990   9.075   3.678
46015SOL     OW38070   7.820   8.736   5.214
46015SOL    HW138071   7.807   8.829   5.180
46015SOL    HW238072   7.736   8.684   5.201
46016SOL     OW38073   9.062   8.740   5.013
46016SOL    HW138074   9.122   8.743   5.093
46016SOL    HW238075   8.987   8.804   5.026
46017SOL     OW38076   8.487   8.546   4.420
46017SOL    HW138077   8.417   8.499   4.474
46017SOL    HW238078   8.546   8.478   4.377
46018SOL     OW38079   8.462   7.684   4.695
46018SOL    HW138080   8.454   7.648   4.602
46018SOL    HW238081   8.460   7.608   4.760
46019SOL     OW38082   8.038   8.935   4.215
46019SOL    HW138083   8.080   8.877   4.145
46019SOL    HW238084   7.994   9.014   4.171
46020SOL     OW38085   9.157   7.833   5.105
46020SOL    HW138086   9.230   7.902   5.109
46020SOL    HW238087   9.185   7.758   5.046
46021SOL     OW38088   7.703   8.796   4.014
46021SOL    HW138089   7.607   8.797   3.987
46021SOL    HW238090   7.715   8.849   4.098
46022SOL     OW38091   7.553   8.461   5.450
46022SOL    HW138092   7.476   8.428   5.504
46022SOL    HW238093   7.638   8.431   5.492
46023SOL     OW38094   8.120   7.651   5.213
46023SOL    HW138095   8.210   7.635   5.173
46023SOL    HW238096   8.128   7.656   5.312
46024SOL     OW38097   7.523   7.793   3.757
46024SOL    HW138098   7.431   7.765   3.728
46024SOL    HW238099   7.554   7.870   3.701
46025SOL     OW38100   8.888   8.304   5.122
46025SOL    HW138101   8.831   8.356   5.059
46025SOL    HW238102   8.984   8.316   5.098
46026SOL     OW38103   7.520   7.614   4.042
46026SOL    HW138104   7.503   7.697   3.988
46026SOL    HW238105   7.610   7.577   4.020
46027SOL     OW38106   8.631   8.783   3.843
46027SOL    HW138107   8.532   8.772   3.845
46027SOL    HW238108   8.665   8.798   3.936
46028SOL     OW38109   8.061   8.290   5.155
46028SOL    HW138110   8.117   8.371   5.138
46028SOL    HW238111   8.120   8.210   5.158
46029SOL     OW38112   8.941   9.215   4.683
46029SOL    HW138113   8.974   9.279   4.614
46029SOL    HW238114   9.007   9.209   4.758
46030SOL     OW38115   8.164   8.013   5.432
46030SOL    HW138116   8.183   8.078   5.506
46030SOL    HW238117   8.224   7.933   5.441
46031SOL     OW38118   8.898   8.668   5.357
46031SOL    HW138119   8.889   8.658   5.456
46031SOL    HW238120   8.994   8.661   5.331
46032SOL     OW38121   7.838   9.189   5.284
46032SOL    HW138122   7.747   9.230   5.282
46032SOL    HW238123   7.831   9.095   5.316
46033SOL     OW38124   9.122   8.331   4.978
46033SOL    HW138125   9.095   8.242   4.941
46033SOL    HW238126   9.123   8.399   4.905
46034SOL     OW38127   8.673   7.773   4.173
46034SOL    HW138128   8.738   7.699   4.162
46034SOL    HW238129   8.693   7.823   4.257
46035SOL     OW38130   8.042   8.193   4.376
46035SOL    HW138131   8.092   8.278   4.357
46035SOL    HW238132   7.954   8.195   4.328
46036SOL     OW38133   9.225   7.790   5.366
46036SOL    HW138134   9.208   7.821   5.272
46036SOL    HW238135   9.141   7.753   5.404
46037SOL     OW38136   9.178   8.382   5.241
46037SOL    HW138137   9.216   8.473   5.256
46037SOL    HW238138   9.170   8.365   5.142
46038SOL     OW38139   8.307   8.822   3.740
46038SOL    HW138140   8.261   8.837   3.828
46038SOL    HW238141   8.351   8.907   3.710
46039SOL     OW38142   8.109   9.238   4.677
46039SOL    HW138143   8.063   9.326   4.664
46039SOL    HW238144   8.208   9.250   4.670
46040SOL     OW38145   8.307   8.404   4.585
46040SOL    HW138146   8.361   8.335   4.633
46040SOL    HW238147   8.275   8.473   4.651
46041SOL     OW38148   8.531   8.432   3.811
46041SOL    HW138149   8.508   8.485   3.729
46041SOL    HW238150   8.612   8.376   3.792
46042SOL     OW38151   9.309   9.017   4.575
46042SOL    HW138152   9.238   9.005   4.505
46042SOL    HW238153   9.310   8.938   4.635
46043SOL     OW38154   7.669   8.762   5.568
46043SOL    HW138155   7.604   8.689   5.547
46043SOL    HW238156   7.673   8.776   5.666
46044SOL     OW38157   7.527   8.688   4.377
46044SOL    HW138158   7.526   8.641   4.465
46044SOL    HW238159   7.609   8.660   4.326
46045SOL     OW38160   8.120   8.839   5.348
46045SOL    HW138161   8.042   8.789   5.386
46045SOL    HW238162   8.117   8.934   5.379
46046SOL     OW38163   9.272   7.640   4.951
46046SOL    HW138164   9.268   7.550   4.995
46046SOL    HW238165   9.275   7.629   4.852
46047SOL     OW38166   7.876   7.872   4.244
46047SOL    HW138167   7.906   7.800   4.182
46047SOL    HW238168   7.837   7.832   4.327
46048SOL     OW38169   9.153   8.935   4.828
46048SOL    HW138170   9.060   8.910   4.801
46048SOL    HW238171   9.179   8.885   4.910
46049SOL     OW38172   7.765   7.995   5.004
46049SOL    HW138173   7.803   7.936   5.076
46049SOL    HW238174   7.805   7.969   4.916
46050SOL     OW38175   8.260   9.034   4.411
46050SOL    HW138176   8.292   9.044   4.317
46050SOL    HW238177   8.181   8.972   4.413
46051SOL     OW38178   8.872   7.662   4.836
46051SOL    HW138179   8.924   7.597   4.891
46051SOL    HW238180   8.823   7.725   4.897
46052SOL     OW38181   8.449   7.482   4.878
46052SOL    HW138182   8.386   7.410   4.847
46052SOL    HW238183   8.542   7.446   4.878
46053SOL     OW38184   8.218   8.778   4.025
46053SOL    HW138185   8.172   8.691   4.042
46053SOL    HW238186   8.309   8.775   4.066
46054SOL     OW38187   8.066   9.015   5.008
46054SOL    HW138188   8.061   9.097   5.065
46054SOL    HW238189   8.155   9.012   4.963
46055SOL     OW38190   8.800   7.500   3.892
46055SOL    HW138191   8.835   7.459   3.808
46055SOL    HW238192   8.710   7.462   3.912
46056SOL     OW38193   8.748   7.901   4.415
46056SOL    HW138194   8.689   7.981   4.419
46056SOL    HW238195   8.763   7.866   4.508
46057SOL     OW38196   9.041   7.669   4.606
46057SOL    HW138197   8.957   7.668   4.660
46057SOL    HW238198   9.043   7.752   4.550
46058SOL     OW38199   7.487   8.525   4.024
46058SOL    HW138200   7.586   8.514   4.015
46058SOL    HW238201   7.447   8.439   4.056
46059SOL     OW38202   8.323   9.094   4.061
46059SOL    HW138203   8.246   9.059   4.007
46059SOL    HW238204   8.291   9.165   4.123
46060SOL     OW38205   7.678   8.076   5.699
46060SOL    HW138206   7.585   8.074   5.736
46060SOL    HW238207   7.679   8.037   5.607
46061SOL     OW38208   7.673   7.723   6.582
46061SOL    HW138209   7.708   7.706   6.674
46061SOL    HW238210   7.585   7.678   6.570
46062SOL     OW38211   7.467   7.816   6.233
46062SOL    HW138212   7.385   7.859   6.272
46062SOL    HW238213   7.439   7.743   6.170
46063SOL     OW38214   8.017   8.723   6.751
46063SOL    HW138215   7.924   8.716   6.714
46063SOL    HW238216   8.028   8.812   6.795
46064SOL     OW38217   9.003   8.959   6.289
46064SOL    HW138218   8.946   8.943   6.370
46064SOL    HW238219   8.944   8.969   6.209
46065SOL     OW38220   8.583   8.151   6.303
46065SOL    HW138221   8.640   8.229   6.278
46065SOL    HW238222   8.523   8.177   6.379
46066SOL     OW38223   9.203   8.055   5.817
46066SOL    HW138224   9.191   8.042   5.718
46066SOL    HW238225   9.173   7.974   5.866
46067SOL     OW38226   8.216   8.592   6.609
46067SOL    HW138227   8.138   8.609   6.669
46067SOL    HW238228   8.250   8.679   6.573
46068SOL     OW38229   8.298   8.246   7.409
46068SOL    HW138230   8.294   8.322   7.474
46068SOL    HW238231   8.320   8.282   7.318
46069SOL     OW38232   8.133   8.460   6.251
46069SOL    HW138233   8.202   8.444   6.321
46069SOL    HW238234   8.060   8.517   6.289
46070SOL     OW38235   8.134   8.609   7.389
46070SOL    HW138236   8.194   8.688   7.403
46070SOL    HW238237   8.048   8.640   7.348
46071SOL     OW38238   7.783   8.883   6.647
46071SOL    HW138239   7.705   8.852   6.594
46071SOL    HW238240   7.841   8.941   6.590
46072SOL     OW38241   8.908   8.953   6.925
46072SOL    HW138242   8.932   9.047   6.951
46072SOL    HW238243   8.892   8.899   7.007
46073SOL     OW38244   7.886   7.840   7.085
46073SOL    HW138245   7.968   7.784   7.094
46073SOL    HW238246   7.805   7.782   7.089
46074SOL     OW38247   9.051   7.895   6.323
46074SOL    HW138248   8.977   7.941   6.273
46074SOL    HW238249   9.102   7.963   6.376
46075SOL     OW38250   7.679   9.161   6.069
46075SOL    HW138251   7.713   9.238   6.123
46075SOL    HW238252   7.723   9.161   5.979
46076SOL     OW38253   8.575   8.789   7.276
46076SOL    HW138254   8.622   8.789   7.364
46076SOL    HW238255   8.527   8.702   7.265
46077SOL     OW38256   7.678   8.882   6.124
46077SOL    HW138257   7.652   8.978   6.124
46077SOL    HW238258   7.607   8.828   6.169
46078SOL     OW38259   7.688   8.539   6.472
46078SOL    HW138260   7.702   8.455   6.524
46078SOL    HW238261   7.633   8.603   6.527
46079SOL     OW38262   8.068   9.234   7.025
46079SOL    HW138263   7.976   9.217   7.060
46079SOL    HW238264   8.096   9.326   7.051
46080SOL     OW38265   8.054   8.412   5.709
46080SOL    HW138266   8.061   8.496   5.655
46080SOL    HW238267   8.100   8.425   5.797
46081SOL     OW38268   9.042   7.562   7.066
46081SOL    HW138269   9.024   7.629   6.994
46081SOL    HW238270   9.039   7.608   7.155
46082SOL     OW38271   7.570   8.091   6.149
46082SOL    HW138272   7.525   8.003   6.166
46082SOL    HW238273   7.569   8.145   6.233
46083SOL     OW38274   9.290   9.215   5.945
46083SOL    HW138275   9.344   9.186   6.025
46083SOL    HW238276   9.320   9.305   5.916
46084SOL     OW38277   7.475   9.044   5.703
46084SOL    HW138278   7.456   8.948   5.724
46084SOL    HW238279   7.442   9.102   5.778
46085SOL     OW38280   9.137   8.370   6.198
46085SOL    HW138281   9.232   8.341   6.206
46085SOL    HW238282   9.129   8.435   6.123
46086SOL     OW38283   9.089   8.556   6.018
46086SOL    HW138284   9.175   8.558   5.966
46086SOL    HW238285   9.103   8.603   6.106
46087SOL     OW38286   7.561   8.185   7.183
46087SOL    HW138287   7.649   8.172   7.228
46087SOL    HW238288   7.548   8.282   7.161
46088SOL     OW38289   8.061   8.813   6.312
46088SOL    HW138290   8.012   8.726   6.321
46088SOL    HW238291   8.038   8.856   6.225
46089SOL     OW38292   8.741   8.676   7.009
46089SOL    HW138293   8.778   8.603   6.951
46089SOL    HW238294   8.793   8.681   7.094
46090SOL     OW38295   8.257   7.452   6.088
46090SOL    HW138296   8.297   7.543   6.079
46090SOL    HW238297   8.157   7.460   6.094
46091SOL     OW38298   7.645   8.424   6.850
46091SOL    HW138299   7.734   8.379   6.836
46091SOL    HW238300   7.572   8.359   6.831
46092SOL     OW38301   8.973   8.447   5.776
46092SOL    HW138302   8.910   8.371   5.789
46092SOL    HW238303   9.021   8.465   5.862
46093SOL     OW38304   8.635   9.240   7.202
46093SOL    HW138305   8.659   9.300   7.126
46093SOL    HW238306   8.642   9.145   7.172
46094SOL     OW38307   7.765   7.699   7.387
46094SOL    HW138308   7.836   7.770   7.393
46094SOL    HW238309   7.677   7.738   7.415
46095SOL     OW38310   8.914   8.865   6.539
46095SOL    HW138311   8.855   8.871   6.619
46095SOL    HW238312   8.899   8.777   6.493
46096SOL     OW38313   9.115   9.162   6.158
46096SOL    HW138314   9.074   9.139   6.070
46096SOL    HW238315   9.097   9.088   6.223
46097SOL     OW38316   8.046   8.177   5.856
46097SOL    HW138317   8.070   8.246   5.788
46097SOL    HW238318   7.968   8.210   5.910
46098SOL     OW38319   8.729   7.793   6.530
46098SOL    HW138320   8.643   7.743   6.517
46098SOL    HW238321   8.791   7.739   6.586
46099SOL     OW38322   9.024   9.110   5.893
46099SOL    HW138323   9.113   9.156   5.896
46099SOL    HW238324   9.003   9.086   5.798
46100SOL     OW38325   8.255   8.053   7.051
46100SOL    HW138326   8.208   8.050   7.140
46100SOL    HW238327   8.204   7.998   6.985
46101SOL     OW38328   8.842   7.917   7.260
46101SOL    HW138329   8.822   7.960   7.348
46101SOL    HW238330   8.920   7.855   7.269
46102SOL     OW38331   8.421   8.338   7.158
46102SOL    HW138332   8.467   8.254   7.129
46102SOL    HW238333   8.365   8.372   7.083
46103SOL     OW38334   8.439   7.858   6.828
46103SOL    HW138335   8.362   7.892   6.882
46103SOL    HW238336   8.405   7.807   6.749
46104SOL     OW38337   8.489   8.149   6.015
46104SOL    HW138338   8.515   8.145   6.111
46104SOL    HW238339   8.404   8.098   6.001
46105SOL     OW38340   7.524   8.259   6.375
46105SOL    HW138341   7.623   8.247   6.384
46105SOL    HW238342   7.500   8.354   6.396
46106SOL     OW38343   7.578   9.269   7.157
46106SOL    HW138344   7.568   9.254   7.256
46106SOL    HW238345   7.492   9.305   7.121
46107SOL     OW38346   8.313   7.796   5.781
46107SOL    HW138347   8.372   7.859   5.732
46107SOL    HW238348   8.332   7.702   5.752
46108SOL     OW38349   9.167   8.033   7.417
46108SOL    HW138350   9.141   8.122   7.381
46108SOL    HW238351   9.165   7.965   7.344
46109SOL     OW38352   8.810   8.592   6.131
46109SOL    HW138353   8.893   8.563   6.083
46109SOL    HW238354   8.761   8.659   6.075
46110SOL     OW38355   7.998   7.644   6.471
46110SOL    HW138356   7.993   7.639   6.571
46110SOL    HW238357   8.000   7.740   6.442
46111SOL     OW38358   8.456   8.904   6.063
46111SOL    HW138359   8.410   8.976   6.011
46111SOL    HW238360   8.452   8.924   6.161
46112SOL     OW38361   7.799   9.249   6.439
46112SOL    HW138362   7.849   9.163   6.445
46112SOL    HW238363   7.864   9.326   6.436
46113SOL     OW38364   9.243   8.514   6.459
46113SOL    HW138365   9.181   8.499   6.383
46113SOL    HW238366   9.191   8.525   6.544
46114SOL     OW38367   8.675   8.998   7.092
46114SOL    HW138368   8.681   8.921   7.156
46114SOL    HW238369   8.623   8.972   7.012
46115SOL     OW38370   7.769   8.391   5.828
46115SOL    HW138371   7.851   8.430   5.786
46115SOL    HW238372   7.742   8.309   5.779
46116SOL     OW38373   8.906   8.183   6.314
46116SOL    HW138374   8.901   8.118   6.389
46116SOL    HW238375   8.986   8.242   6.327
46117SOL     OW38376   7.909   8.714   7.313
46117SOL    HW138377   7.859   8.715   7.227
46117SOL    HW238378   7.846   8.696   7.389
46118SOL     OW38379   8.559   9.224   5.823
46118SOL    HW138380   8.499   9.162   5.873
46118SOL    HW238381   8.590   9.180   5.738
46119SOL     OW38382   7.650   7.733   7.084
46119SOL    HW138383   7.570   7.793   7.071
46119SOL    HW238384   7.640   7.684   7.170
46120SOL     OW38385   9.080   8.825   5.667
46120SOL    HW138386   9.048   8.919   5.657
46120SOL    HW238387   9.004   8.762   5.655
46121SOL     OW38388   7.912   9.191   5.909
46121SOL    HW138389   7.945   9.230   5.995
46121SOL    HW238390   7.988   9.184   5.844
46122SOL     OW38391   8.848   7.555   6.012
46122SOL    HW138392   8.824   7.518   5.922
46122SOL    HW238393   8.947   7.571   6.016
46123SOL     OW38394   7.697   9.233   6.827
46123SOL    HW138395   7.754   9.168   6.877
46123SOL    HW238396   7.681   9.200   6.734
46124SOL     OW38397   8.388   9.146   6.490
46124SOL    HW138398   8.468   9.089   6.511
46124SOL    HW238399   8.339   9.106   6.413
46125SOL     OW38400   7.830   8.148   6.066
46125SOL    HW138401   7.875   8.058   6.063
46125SOL    HW238402   7.736   8.137   6.099
46126SOL     OW38403   8.995   7.670   7.315
46126SOL    HW138404   8.990   7.707   7.407
46126SOL    HW238405   8.923   7.601   7.303
46127SOL     OW38406   8.062   7.570   5.703
46127SOL    HW138407   8.160   7.548   5.710
46127SOL    HW238408   8.031   7.553   5.610
46128SOL     OW38409   8.229   7.712   7.335
46128SOL    HW138410   8.296   7.651   7.378
46128SOL    HW238411   8.156   7.731   7.400
46129SOL     OW38412   8.336   8.962   6.781
46129SOL    HW138413   8.313   8.937   6.687
46129SOL    HW238414   8.397   8.893   6.820
46130SOL     OW38415   8.799   8.038   7.019
46130SOL    HW138416   8.827   7.995   7.104
46130SOL    HW238417   8.824   8.134   7.020
46131SOL     OW38418   8.251   8.850   6.510
46131SOL    HW138419   8.341   8.864   6.468
46131SOL    HW238420   8.180   8.852   6.439
46132SOL     OW38421   8.370   7.951   6.485
46132SOL    HW138422   8.345   7.942   6.389
46132SOL    HW238423   8.418   7.869   6.516
46133SOL     OW38424   7.987   7.512   6.098
46133SOL    HW138425   7.906   7.513   6.156
46133SOL    HW238426   7.990   7.595   6.043
46134SOL     OW38427   8.882   8.636   5.627
46134SOL    HW138428   8.914   8.560   5.684
46134SOL    HW238429   8.790   8.663   5.657
46135SOL     OW38430   7.745   7.483   5.757
46135SOL    HW138431   7.794   7.567   5.736
46135SOL    HW238432   7.807   7.418   5.802
46136SOL     OW38433   8.383   7.684   6.066
46136SOL    HW138434   8.335   7.725   5.988
46136SOL    HW238435   8.482   7.682   6.047
46137SOL     OW38436   8.524   8.131   7.050
46137SOL    HW138437   8.444   8.070   7.053
46137SOL    HW238438   8.605   8.078   7.026
46138SOL     OW38439   8.675   9.018   6.379
46138SOL    HW138440   8.696   9.092   6.314
46138SOL    HW238441   8.743   9.018   6.452
46139SOL     OW38442   7.907   8.600   6.327
46139SOL    HW138443   7.836   8.573   6.392
46139SOL    HW238444   7.881   8.572   6.234
46140SOL     OW38445   8.719   9.245   6.177
46140SOL    HW138446   8.763   9.309   6.113
46140SOL    HW238447   8.669   9.297   6.247
46141SOL     OW38448   8.480   7.997   5.602
46141SOL    HW138449   8.439   8.079   5.563
46141SOL    HW238450   8.544   8.023   5.675
46142SOL     OW38451   7.526   8.004   6.972
46142SOL    HW138452   7.618   8.003   6.931
46142SOL    HW238453   7.520   8.078   7.039
46143SOL     OW38454   8.009   7.670   6.733
46143SOL    HW138455   8.047   7.586   6.770
46143SOL    HW238456   7.921   7.689   6.777
46144SOL     OW38457   8.314   7.902   6.228
46144SOL    HW138458   8.282   7.974   6.166
46144SOL    HW238459   8.338   7.821   6.175
46145SOL     OW38460   8.465   7.487   6.339
46145SOL    HW138461   8.393   7.492   6.270
46145SOL    HW238462   8.441   7.418   6.408
46146SOL     OW38463   8.877   8.621   6.453
46146SOL    HW138464   8.822   8.537   6.446
46146SOL    HW238465   8.903   8.650   6.361
46147SOL     OW38466   8.914   8.038   6.578
46147SOL    HW138467   8.884   7.943   6.585
46147SOL    HW238468   8.987   8.054   6.644
46148SOL     OW38469   9.305   8.281   5.963
46148SOL    HW138470   9.347   8.217   6.027
46148SOL    HW238471   9.267   8.230   5.885
46149SOL     OW38472   7.936   8.833   5.760
46149SOL    HW138473   7.849   8.818   5.807
46149SOL    HW238474   7.919   8.859   5.665
46150SOL     OW38475   9.112   8.728   6.243
46150SOL    HW138476   9.211   8.736   6.257
46150SOL    HW238477   9.067   8.812   6.274
46151SOL     OW38478   8.838   8.023   5.664
46151SOL    HW138479   8.784   8.002   5.745
46151SOL    HW238480   8.929   7.982   5.673
46152SOL     OW38481   7.975   7.704   5.914
46152SOL    HW138482   8.002   7.645   5.839
46152SOL    HW238483   7.975   7.799   5.883
46153SOL     OW38484   9.202   8.671   7.174
46153SOL    HW138485   9.293   8.632   7.161
46153SOL    HW238486   9.210   8.767   7.198
46154SOL     OW38487   8.512   8.795   6.926
46154SOL    HW138488   8.432   8.772   6.981
46154SOL    HW238489   8.595   8.769   6.975
46155SOL     OW38490   9.040   9.077   7.211
46155SOL    HW138491   9.067   9.111   7.121
46155SOL    HW238492   9.119   9.039   7.257
46156SOL     OW38493   8.559   8.643   6.686
46156SOL    HW138494   8.519   8.687   6.767
46156SOL    HW238495   8.518   8.680   6.603
46157SOL     OW38496   9.086   8.547   6.665
46157SOL    HW138497   9.091   8.628   6.724
46157SOL    HW238498   9.000   8.549   6.614
46158SOL     OW38499   8.363   7.537   6.988
46158SOL    HW138500   8.388   7.517   6.893
46158SOL    HW238501   8.435   7.593   7.030
46159SOL     OW38502   8.428   8.564   7.305
46159SOL    HW138503   8.329   8.570   7.315
46159SOL    HW238504   8.451   8.484   7.249
46160SOL     OW38505   8.153   8.498   5.954
46160SOL    HW138506   8.139   8.505   6.053
46160SOL    HW238507   8.237   8.447   5.936
46161SOL     OW38508   7.858   8.261   6.837
46161SOL    HW138509   7.944   8.273   6.887
46161SOL    HW238510   7.816   8.174   6.864
46162SOL     OW38511   8.722   7.834   6.848
46162SOL    HW138512   8.743   7.908   6.912
46162SOL    HW238513   8.633   7.851   6.805
46163SOL     OW38514   7.512   9.012   6.917
46163SOL    HW138515   7.466   9.094   6.883
46163SOL    HW238516   7.610   9.031   6.926
46164SOL     OW38517   7.815   8.548   6.087
46164SOL    HW138518   7.808   8.631   6.031
46164SOL    HW238519   7.819   8.468   6.027
46165SOL     OW38520   8.014   7.985   6.451
46165SOL    HW138521   8.026   8.051   6.377
46165SOL    HW238522   8.060   8.019   6.534
46166SOL     OW38523   8.700   8.796   5.974
46166SOL    HW138524   8.750   8.873   6.014
46166SOL    HW238525   8.605   8.798   6.006
46167SOL     OW38526   8.720   8.893   6.728
46167SOL    HW138527   8.767   8.906   6.815
46167SOL    HW238528   8.654   8.819   6.737
46168SOL     OW38529   9.030   8.087   6.058
46168SOL    HW138530   8.999   8.148   6.131
46168SOL    HW238531   9.080   8.139   5.989
46169SOL     OW38532   7.802   8.958   6.915
46169SOL    HW138533   7.781   8.914   6.828
46169SOL    HW238534   7.899   8.984   6.918
46170SOL     OW38535   7.850   8.199   7.184
46170SOL    HW138536   7.918   8.254   7.137
46170SOL    HW238537   7.890   8.111   7.211
46171SOL     OW38538   9.035   8.227   7.256
46171SOL    HW138539   8.943   8.265   7.251
46171SOL    HW238540   9.095   8.274   7.191
46172SOL     OW38541   8.461   7.553   7.356
46172SOL    HW138542   8.467   7.638   7.304
46172SOL    HW238543   8.493   7.477   7.299
46173SOL     OW38544   7.952   7.498   7.326
46173SOL    HW138545   7.910   7.441   7.256
46173SOL    HW238546   7.886   7.567   7.358
46174SOL     OW38547   8.021   8.318   6.615
46174SOL    HW138548   8.065   8.407   6.606
46174SOL    HW238549   7.958   8.318   6.692
46175SOL     OW38550   8.808   8.310   6.631
46175SOL    HW138551   8.733   8.310   6.565
46175SOL    HW238552   8.845   8.218   6.640
46176SOL     OW38553   8.657   7.973   5.861
46176SOL    HW138554   8.670   7.889   5.915
46176SOL    HW238555   8.628   8.047   5.921
46177SOL     OW38556   7.755   7.661   6.817
46177SOL    HW138557   7.732   7.698   6.907
46177SOL    HW238558   7.725   7.566   6.811
46178SOL     OW38559   7.485   8.758   6.868
46178SOL    HW138560   7.538   8.709   6.936
46178SOL    HW238561   7.507   8.856   6.873
46179SOL     OW38562   8.180   8.082   6.650
46179SOL    HW138563   8.239   8.056   6.574
46179SOL    HW238564   8.152   8.178   6.639
46180SOL     OW38565   9.176   8.383   7.440
46180SOL    HW138566   9.130   8.376   7.351
46180SOL    HW238567   9.114   8.427   7.506
46181SOL     OW38568   7.755   7.511   6.204
46181SOL    HW138569   7.744   7.605   6.237
46181SOL    HW238570   7.750   7.448   6.281
46182SOL     OW38571   9.070   7.815   5.960
46182SOL    HW138572   9.072   7.739   6.024
46182SOL    HW238573   9.022   7.892   6.000
46183SOL     OW38574   8.471   8.214   6.552
46183SOL    HW138575   8.486   8.235   6.648
46183SOL    HW238576   8.441   8.119   6.543
46184SOL     OW38577   8.428   9.021   7.286
46184SOL    HW138578   8.408   9.065   7.198
46184SOL    HW238579   8.467   8.930   7.270
46185SOL     OW38580   9.307   8.966   7.191
46185SOL    HW138581   9.321   8.993   7.096
46185SOL    HW238582   9.390   8.988   7.244
46186SOL     OW38583   7.798   8.346   7.390
46186SOL    HW138584   7.874   8.390   7.438
46186SOL    HW238585   7.833   8.299   7.308
46187SOL     OW38586   8.988   7.722   5.711
46187SOL    HW138587   8.927   7.647   5.734
46187SOL    HW238588   9.010   7.774   5.794
46188SOL     OW38589   8.751   8.286   5.628
46188SOL    HW138590   8.785   8.193   5.643
46188SOL    HW238591   8.769   8.313   5.533
46189SOL     OW38592   8.516   8.781   6.435
46189SOL    HW138593   8.523   8.697   6.380
46189SOL    HW238594   8.578   8.850   6.399
46190SOL     OW38595   7.767   8.258   6.535
46190SOL    HW138596   7.860   8.294   6.540
46190SOL    HW238597   7.761   8.173   6.587
46191SOL     OW38598   7.787   7.957   6.592
46191SOL    HW138599   7.735   7.874   6.575
46191SOL    HW238600   7.864   7.962   6.528
46192SOL     OW38601   8.586   7.828   7.264
46192SOL    HW138602   8.541   7.891   7.328
46192SOL    HW238603   8.679   7.859   7.247
46193SOL     OW38604   8.608   7.655   7.063
46193SOL    HW138605   8.608   7.719   7.140
46193SOL    HW238606   8.636   7.703   6.980
46194SOL     OW38607   7.456   8.774   5.786
46194SOL    HW138608   7.363   8.795   5.755
46194SOL    HW238609   7.466   8.675   5.799
46195SOL     OW38610   7.536   9.249   6.513
46195SOL    HW138611   7.494   9.163   6.486
46195SOL    HW238612   7.630   9.252   6.479
46196SOL     OW38613   7.952   9.016   6.496
46196SOL    HW138614   8.018   9.090   6.505
46196SOL    HW238615   7.996   8.937   6.454
46197SOL     OW38616   8.450   8.244   6.824
46197SOL    HW138617   8.491   8.212   6.910
46197SOL    HW238618   8.354   8.217   6.821
46198SOL     OW38619   7.488   7.992   6.700
46198SOL    HW138620   7.573   7.959   6.659
46198SOL    HW238621   7.501   8.007   6.798
46199SOL     OW38622   7.637   7.968   7.308
46199SOL    HW138623   7.696   7.928   7.238
46199SOL    HW238624   7.579   8.039   7.267
46200SOL     OW38625   8.817   8.398   7.246
46200SOL    HW138626   8.856   8.487   7.266
46200SOL    HW238627   8.827   8.378   7.149
46201SOL     OW38628   8.263   8.020   5.911
46201SOL    HW138629   8.270   7.931   5.865
46201SOL    HW238630   8.169   8.054   5.903
46202SOL     OW38631   9.105   8.052   6.792
46202SOL    HW138632   9.067   7.983   6.854
46202SOL    HW238633   9.187   8.016   6.748
46203SOL     OW38634   7.700   9.012   7.330
46203SOL    HW138635   7.670   9.069   7.406
46203SOL    HW238636   7.693   8.915   7.356
46204SOL     OW38637   8.119   7.912   6.855
46204SOL    HW138638   8.085   7.823   6.825
46204SOL    HW238639   8.145   7.966   6.775
46205SOL     OW38640   8.378   9.126   7.051
46205SOL    HW138641   8.354   9.108   6.956
46205SOL    HW238642   8.408   9.220   7.061
46206SOL     OW38643   7.921   7.948   5.777
46206SOL    HW138644   7.982   8.028   5.781
46206SOL    HW238645   7.826   7.979   5.784
46207SOL     OW38646   7.607   8.585   7.052
46207SOL    HW138647   7.629   8.524   7.128
46207SOL    HW238648   7.617   8.536   6.966
46208SOL     OW38649   8.795   8.507   6.820
46208SOL    HW138650   8.819   8.444   6.746
46208SOL    HW238651   8.705   8.547   6.802
46209SOL     OW38652   8.750   8.303   5.895
46209SOL    HW138653   8.664   8.272   5.937
46209SOL    HW238654   8.746   8.289   5.796
46210SOL     OW38655   9.207   9.195   6.740
46210SOL    HW138656   9.268   9.225   6.667
46210SOL    HW238657   9.169   9.106   6.718
46211SOL     OW38658   8.700   9.179   6.714
46211SOL    HW138659   8.784   9.184   6.660
46211SOL    HW238660   8.677   9.083   6.732
46212SOL     OW38661   7.531   8.706   6.608
46212SOL    HW138662   7.526   8.705   6.708
46212SOL    HW238663   7.448   8.665   6.570
46213SOL     OW38664   8.136   9.110   7.302
46213SOL    HW138665   8.080   9.191   7.311
46213SOL    HW238666   8.188   9.114   7.216
46214SOL     OW38667   9.174   7.583   6.109
46214SOL    HW138668   9.247   7.566   6.042
46214SOL    HW238669   9.143   7.496   6.147
46215SOL     OW38670   8.836   9.021   6.063
46215SOL    HW138671   8.903   9.033   5.989
46215SOL    HW238672   8.796   9.110   6.086
46216SOL     OW38673   7.578   9.242   7.437
46216SOL    HW138674   7.537   9.168   7.490
46216SOL    HW238675   7.642   9.293   7.495
46217SOL     OW38676   8.728   8.375   6.258
46217SOL    HW138677   8.788   8.294   6.260
46217SOL    HW238678   8.768   8.444   6.198
46218SOL     OW38679   8.278   8.721   7.008
46218SOL    HW138680   8.273   8.754   7.103
46218SOL    HW238681   8.192   8.740   6.962
46219SOL     OW38682   8.120   9.064   5.740
46219SOL    HW138683   8.129   9.074   5.641
46219SOL    HW238684   8.080   8.975   5.761
46220SOL     OW38685   9.098   9.168   6.980
46220SOL    HW138686   9.151   9.178   6.896
46220SOL    HW238687   9.071   9.258   7.014
46221SOL     OW38688   9.289   7.623   6.549
46221SOL    HW138689   9.328   7.538   6.513
46221SOL    HW238690   9.191   7.625   6.530
46222SOL     OW38691   7.711   7.774   6.306
46222SOL    HW138692   7.632   7.825   6.272
46222SOL    HW238693   7.702   7.759   6.404
46223SOL     OW38694   8.642   9.060   5.617
46223SOL    HW138695   8.648   8.967   5.654
46223SOL    HW238696   8.583   9.060   5.537
46224SOL     OW38697   8.270   8.450   6.958
46224SOL    HW138698   8.310   8.449   6.866
46224SOL    HW238699   8.280   8.542   6.998
46225SOL     OW38700   8.364   8.358   5.877
46225SOL    HW138701   8.427   8.396   5.809
46225SOL    HW238702   8.404   8.275   5.916
46226SOL     OW38703   8.952   9.055   5.630
46226SOL    HW138704   8.860   9.092   5.637
46226SOL    HW238705   8.990   9.075   5.540
46227SOL     OW38706   7.820   8.736   7.076
46227SOL    HW138707   7.807   8.829   7.042
46227SOL    HW238708   7.736   8.684   7.063
46228SOL     OW38709   9.062   8.740   6.875
46228SOL    HW138710   9.122   8.743   6.955
46228SOL    HW238711   8.987   8.804   6.888
46229SOL     OW38712   8.487   8.546   6.282
46229SOL    HW138713   8.417   8.499   6.336
46229SOL    HW238714   8.546   8.478   6.239
46230SOL     OW38715   8.462   7.684   6.557
46230SOL    HW138716   8.454   7.648   6.464
46230SOL    HW238717   8.460   7.608   6.622
46231SOL     OW38718   8.038   8.935   6.077
46231SOL    HW138719   8.080   8.877   6.007
46231SOL    HW238720   7.994   9.014   6.033
46232SOL     OW38721   9.157   7.833   6.967
46232SOL    HW138722   9.230   7.902   6.971
46232SOL    HW238723   9.185   7.758   6.908
46233SOL     OW38724   7.703   8.796   5.876
46233SOL    HW138725   7.607   8.797   5.849
46233SOL    HW238726   7.715   8.849   5.960
46234SOL     OW38727   7.553   8.461   7.312
46234SOL    HW138728   7.476   8.428   7.366
46234SOL    HW238729   7.638   8.431   7.354
46235SOL     OW38730   8.120   7.651   7.075
46235SOL    HW138731   8.210   7.635   7.035
46235SOL    HW238732   8.128   7.656   7.174
46236SOL     OW38733   7.523   7.793   5.619
46236SOL    HW138734   7.431   7.765   5.590
46236SOL    HW238735   7.554   7.870   5.563
46237SOL     OW38736   8.888   8.304   6.984
46237SOL    HW138737   8.831   8.356   6.921
46237SOL    HW238738   8.984   8.316   6.960
46238SOL     OW38739   7.520   7.614   5.904
46238SOL    HW138740   7.503   7.697   5.850
46238SOL    HW238741   7.610   7.577   5.882
46239SOL     OW38742   8.631   8.783   5.705
46239SOL    HW138743   8.532   8.772   5.707
46239SOL    HW238744   8.665   8.798   5.798
46240SOL     OW38745   8.061   8.290   7.017
46240SOL    HW138746   8.117   8.371   7.000
46240SOL    HW238747   8.120   8.210   7.020
46241SOL     OW38748   8.941   9.215   6.545
46241SOL    HW138749   8.974   9.279   6.476
46241SOL    HW238750   9.007   9.209   6.620
46242SOL     OW38751   8.164   8.013   7.294
46242SOL    HW138752   8.183   8.078   7.368
46242SOL    HW238753   8.224   7.933   7.303
46243SOL     OW38754   8.898   8.668   7.219
46243SOL    HW138755   8.889   8.658   7.318
46243SOL    HW238756   8.994   8.661   7.193
46244SOL     OW38757   7.838   9.189   7.146
46244SOL    HW138758   7.747   9.230   7.144
46244SOL    HW238759   7.831   9.095   7.178
46245SOL     OW38760   9.122   8.331   6.840
46245SOL    HW138761   9.095   8.242   6.803
46245SOL    HW238762   9.123   8.399   6.767
46246SOL     OW38763   8.673   7.773   6.035
46246SOL    HW138764   8.738   7.699   6.024
46246SOL    HW238765   8.693   7.823   6.119
46247SOL     OW38766   8.042   8.193   6.238
46247SOL    HW138767   8.092   8.278   6.219
46247SOL    HW238768   7.954   8.195   6.190
46248SOL     OW38769   9.225   7.790   7.228
46248SOL    HW138770   9.208   7.821   7.134
46248SOL    HW238771   9.141   7.753   7.266
46249SOL     OW38772   9.178   8.382   7.103
46249SOL    HW138773   9.216   8.473   7.118
46249SOL    HW238774   9.170   8.365   7.004
46250SOL     OW38775   8.307   8.822   5.602
46250SOL    HW138776   8.261   8.837   5.690
46250SOL    HW238777   8.351   8.907   5.572
46251SOL     OW38778   8.109   9.238   6.539
46251SOL    HW138779   8.063   9.326   6.526
46251SOL    HW238780   8.208   9.250   6.532
46252SOL     OW38781   8.307   8.404   6.447
46252SOL    HW138782   8.361   8.335   6.495
46252SOL    HW238783   8.275   8.473   6.513
46253SOL     OW38784   8.531   8.432   5.673
46253SOL    HW138785   8.508   8.485   5.591
46253SOL    HW238786   8.612   8.376   5.654
46254SOL     OW38787   9.309   9.017   6.437
46254SOL    HW138788   9.238   9.005   6.367
46254SOL    HW238789   9.310   8.938   6.497
46255SOL     OW38790   7.669   8.762   7.430
46255SOL    HW138791   7.604   8.689   7.409
46255SOL    HW238792   7.673   8.776   7.528
46256SOL     OW38793   7.527   8.688   6.239
46256SOL    HW138794   7.526   8.641   6.327
46256SOL    HW238795   7.609   8.660   6.188
46257SOL     OW38796   8.120   8.839   7.210
46257SOL    HW138797   8.042   8.789   7.248
46257SOL    HW238798   8.117   8.934   7.241
46258SOL     OW38799   9.272   7.640   6.813
46258SOL    HW138800   9.268   7.550   6.857
46258SOL    HW238801   9.275   7.629   6.714
46259SOL     OW38802   7.876   7.872   6.106
46259SOL    HW138803   7.906   7.800   6.044
46259SOL    HW238804   7.837   7.832   6.189
46260SOL     OW38805   9.153   8.935   6.690
46260SOL    HW138806   9.060   8.910   6.663
46260SOL    HW238807   9.179   8.885   6.772
46261SOL     OW38808   7.765   7.995   6.866
46261SOL    HW138809   7.803   7.936   6.938
46261SOL    HW238810   7.805   7.969   6.778
46262SOL     OW38811   8.260   9.034   6.273
46262SOL    HW138812   8.292   9.044   6.179
46262SOL    HW238813   8.181   8.972   6.275
46263SOL     OW38814   8.872   7.662   6.698
46263SOL    HW138815   8.924   7.597   6.753
46263SOL    HW238816   8.823   7.725   6.759
46264SOL     OW38817   8.449   7.482   6.740
46264SOL    HW138818   8.386   7.410   6.709
46264SOL    HW238819   8.542   7.446   6.740
46265SOL     OW38820   8.218   8.778   5.887
46265SOL    HW138821   8.172   8.691   5.904
46265SOL    HW238822   8.309   8.775   5.928
46266SOL     OW38823   8.066   9.015   6.870
46266SOL    HW138824   8.061   9.097   6.927
46266SOL    HW238825   8.155   9.012   6.825
46267SOL     OW38826   8.800   7.500   5.754
46267SOL    HW138827   8.835   7.459   5.670
46267SOL    HW238828   8.710   7.462   5.774
46268SOL     OW38829   8.748   7.901   6.277
46268SOL    HW138830   8.689   7.981   6.281
46268SOL    HW238831   8.763   7.866   6.370
46269SOL     OW38832   9.041   7.669   6.468
46269SOL    HW138833   8.957   7.668   6.522
46269SOL    HW238834   9.043   7.752   6.412
46270SOL     OW38835   7.487   8.525   5.886
46270SOL    HW138836   7.586   8.514   5.877
46270SOL    HW238837   7.447   8.439   5.918
46271SOL     OW38838   8.323   9.094   5.923
46271SOL    HW138839   8.246   9.059   5.869
46271SOL    HW238840   8.291   9.165   5.985
46272SOL     OW38841   7.678   8.076   7.561
46272SOL    HW138842   7.585   8.074   7.598
46272SOL    HW238843   7.679   8.037   7.469
46273SOL     OW38844   7.673   7.723   8.444
46273SOL    HW138845   7.708   7.706   8.536
46273SOL    HW238846   7.585   7.678   8.432
46274SOL     OW38847   7.467   7.816   8.095
46274SOL    HW138848   7.385   7.859   8.134
46274SOL    HW238849   7.439   7.743   8.032
46275SOL     OW38850   8.017   8.723   8.613
46275SOL    HW138851   7.924   8.716   8.576
46275SOL    HW238852   8.028   8.812   8.657
46276SOL     OW38853   9.003   8.959   8.151
46276SOL    HW138854   8.946   8.943   8.232
46276SOL    HW238855   8.944   8.969   8.071
46277SOL     OW38856   8.583   8.151   8.165
46277SOL    HW138857   8.640   8.229   8.140
46277SOL    HW238858   8.523   8.177   8.241
46278SOL     OW38859   9.203   8.055   7.679
46278SOL    HW138860   9.191   8.042   7.580
46278SOL    HW238861   9.173   7.974   7.728
46279SOL     OW38862   8.216   8.592   8.471
46279SOL    HW138863   8.138   8.609   8.531
46279SOL    HW238864   8.250   8.679   8.435
46280SOL     OW38865   8.298   8.246   9.271
46280SOL    HW138866   8.294   8.322   9.336
46280SOL    HW238867   8.320   8.282   9.180
46281SOL     OW38868   8.133   8.460   8.113
46281SOL    HW138869   8.202   8.444   8.183
46281SOL    HW238870   8.060   8.517   8.151
46282SOL     OW38871   8.134   8.609   9.251
46282SOL    HW138872   8.194   8.688   9.265
46282SOL    HW238873   8.048   8.640   9.210
46283SOL     OW38874   7.783   8.883   8.509
46283SOL    HW138875   7.705   8.852   8.456
46283SOL    HW238876   7.841   8.941   8.452
46284SOL     OW38877   8.908   8.953   8.787
46284SOL    HW138878   8.932   9.047   8.813
46284SOL    HW238879   8.892   8.899   8.869
46285SOL     OW38880   7.886   7.840   8.947
46285SOL    HW138881   7.968   7.784   8.956
46285SOL    HW238882   7.805   7.782   8.951
46286SOL     OW38883   9.051   7.895   8.185
46286SOL    HW138884   8.977   7.941   8.135
46286SOL    HW238885   9.102   7.963   8.238
46287SOL     OW38886   7.679   9.161   7.931
46287SOL    HW138887   7.713   9.238   7.985
46287SOL    HW238888   7.723   9.161   7.841
46288SOL     OW38889   8.575   8.789   9.138
46288SOL    HW138890   8.622   8.789   9.226
46288SOL    HW238891   8.527   8.702   9.127
46289SOL     OW38892   7.678   8.882   7.986
46289SOL    HW138893   7.652   8.978   7.986
46289SOL    HW238894   7.607   8.828   8.031
46290SOL     OW38895   7.688   8.539   8.334
46290SOL    HW138896   7.702   8.455   8.386
46290SOL    HW238897   7.633   8.603   8.389
46291SOL     OW38898   8.068   9.234   8.887
46291SOL    HW138899   7.976   9.217   8.922
46291SOL    HW238900   8.096   9.326   8.913
46292SOL     OW38901   8.054   8.412   7.571
46292SOL    HW138902   8.061   8.496   7.517
46292SOL    HW238903   8.100   8.425   7.659
46293SOL     OW38904   9.042   7.562   8.928
46293SOL    HW138905   9.024   7.629   8.856
46293SOL    HW238906   9.039   7.608   9.017
46294SOL     OW38907   7.570   8.091   8.011
46294SOL    HW138908   7.525   8.003   8.028
46294SOL    HW238909   7.569   8.145   8.095
46295SOL     OW38910   9.290   9.215   7.807
46295SOL    HW138911   9.344   9.186   7.887
46295SOL    HW238912   9.320   9.305   7.778
46296SOL     OW38913   7.475   9.044   7.565
46296SOL    HW138914   7.456   8.948   7.586
46296SOL    HW238915   7.442   9.102   7.640
46297SOL     OW38916   9.137   8.370   8.060
46297SOL    HW138917   9.232   8.341   8.068
46297SOL    HW238918   9.129   8.435   7.985
46298SOL     OW38919   9.089   8.556   7.880
46298SOL    HW138920   9.175   8.558   7.828
46298SOL    HW238921   9.103   8.603   7.968
46299SOL     OW38922   7.561   8.185   9.045
46299SOL    HW138923   7.649   8.172   9.090
46299SOL    HW238924   7.548   8.282   9.023
46300SOL     OW38925   8.061   8.813   8.174
46300SOL    HW138926   8.012   8.726   8.183
46300SOL    HW238927   8.038   8.856   8.087
46301SOL     OW38928   8.741   8.676   8.871
46301SOL    HW138929   8.778   8.603   8.813
46301SOL    HW238930   8.793   8.681   8.956
46302SOL     OW38931   8.257   7.452   7.950
46302SOL    HW138932   8.297   7.543   7.941
46302SOL    HW238933   8.157   7.460   7.956
46303SOL     OW38934   7.645   8.424   8.712
46303SOL    HW138935   7.734   8.379   8.698
46303SOL    HW238936   7.572   8.359   8.693
46304SOL     OW38937   8.973   8.447   7.638
46304SOL    HW138938   8.910   8.371   7.651
46304SOL    HW238939   9.021   8.465   7.724
46305SOL     OW38940   8.635   9.240   9.064
46305SOL    HW138941   8.659   9.300   8.988
46305SOL    HW238942   8.642   9.145   9.034
46306SOL     OW38943   7.765   7.699   9.249
46306SOL    HW138944   7.836   7.770   9.255
46306SOL    HW238945   7.677   7.738   9.277
46307SOL     OW38946   8.914   8.865   8.401
46307SOL    HW138947   8.855   8.871   8.481
46307SOL    HW238948   8.899   8.777   8.355
46308SOL     OW38949   9.115   9.162   8.020
46308SOL    HW138950   9.074   9.139   7.932
46308SOL    HW238951   9.097   9.088   8.085
46309SOL     OW38952   8.046   8.177   7.718
46309SOL    HW138953   8.070   8.246   7.650
46309SOL    HW238954   7.968   8.210   7.772
46310SOL     OW38955   8.729   7.793   8.392
46310SOL    HW138956   8.643   7.743   8.379
46310SOL    HW238957   8.791   7.739   8.448
46311SOL     OW38958   9.024   9.110   7.755
46311SOL    HW138959   9.113   9.156   7.758
46311SOL    HW238960   9.003   9.086   7.660
46312SOL     OW38961   8.255   8.053   8.913
46312SOL    HW138962   8.208   8.050   9.002
46312SOL    HW238963   8.204   7.998   8.847
46313SOL     OW38964   8.842   7.917   9.122
46313SOL    HW138965   8.822   7.960   9.210
46313SOL    HW238966   8.920   7.855   9.131
46314SOL     OW38967   8.421   8.338   9.020
46314SOL    HW138968   8.467   8.254   8.991
46314SOL    HW238969   8.365   8.372   8.945
46315SOL     OW38970   8.439   7.858   8.690
46315SOL    HW138971   8.362   7.892   8.744
46315SOL    HW238972   8.405   7.807   8.611
46316SOL     OW38973   8.489   8.149   7.877
46316SOL    HW138974   8.515   8.145   7.973
46316SOL    HW238975   8.404   8.098   7.863
46317SOL     OW38976   7.524   8.259   8.237
46317SOL    HW138977   7.623   8.247   8.246
46317SOL    HW238978   7.500   8.354   8.258
46318SOL     OW38979   7.578   9.269   9.019
46318SOL    HW138980   7.568   9.254   9.118
46318SOL    HW238981   7.492   9.305   8.983
46319SOL     OW38982   8.313   7.796   7.643
46319SOL    HW138983   8.372   7.859   7.594
46319SOL    HW238984   8.332   7.702   7.614
46320SOL     OW38985   9.167   8.033   9.279
46320SOL    HW138986   9.141   8.122   9.243
46320SOL    HW238987   9.165   7.965   9.206
46321SOL     OW38988   8.810   8.592   7.993
46321SOL    HW138989   8.893   8.563   7.945
46321SOL    HW238990   8.761   8.659   7.937
46322SOL     OW38991   7.998   7.644   8.333
46322SOL    HW138992   7.993   7.639   8.433
46322SOL    HW238993   8.000   7.740   8.304
46323SOL     OW38994   8.456   8.904   7.925
46323SOL    HW138995   8.410   8.976   7.873
46323SOL    HW238996   8.452   8.924   8.023
46324SOL     OW38997   7.799   9.249   8.301
46324SOL    HW138998   7.849   9.163   8.307
46324SOL    HW238999   7.864   9.326   8.298
46325SOL     OW39000   9.243   8.514   8.321
46325SOL    HW139001   9.181   8.499   8.245
46325SOL    HW239002   9.191   8.525   8.406
46326SOL     OW39003   8.675   8.998   8.954
46326SOL    HW139004   8.681   8.921   9.018
46326SOL    HW239005   8.623   8.972   8.874
46327SOL     OW39006   7.769   8.391   7.690
46327SOL    HW139007   7.851   8.430   7.648
46327SOL    HW239008   7.742   8.309   7.641
46328SOL     OW39009   8.906   8.183   8.176
46328SOL    HW139010   8.901   8.118   8.251
46328SOL    HW239011   8.986   8.242   8.189
46329SOL     OW39012   7.909   8.714   9.175
46329SOL    HW139013   7.859   8.715   9.089
46329SOL    HW239014   7.846   8.696   9.251
46330SOL     OW39015   8.559   9.224   7.685
46330SOL    HW139016   8.499   9.162   7.735
46330SOL    HW239017   8.590   9.180   7.600
46331SOL     OW39018   7.650   7.733   8.946
46331SOL    HW139019   7.570   7.793   8.933
46331SOL    HW239020   7.640   7.684   9.032
46332SOL     OW39021   9.080   8.825   7.529
46332SOL    HW139022   9.048   8.919   7.519
46332SOL    HW239023   9.004   8.762   7.517
46333SOL     OW39024   7.912   9.191   7.771
46333SOL    HW139025   7.945   9.230   7.857
46333SOL    HW239026   7.988   9.184   7.706
46334SOL     OW39027   8.848   7.555   7.874
46334SOL    HW139028   8.824   7.518   7.784
46334SOL    HW239029   8.947   7.571   7.878
46335SOL     OW39030   7.697   9.233   8.689
46335SOL    HW139031   7.754   9.168   8.739
46335SOL    HW239032   7.681   9.200   8.596
46336SOL     OW39033   8.388   9.146   8.352
46336SOL    HW139034   8.468   9.089   8.373
46336SOL    HW239035   8.339   9.106   8.275
46337SOL     OW39036   7.830   8.148   7.928
46337SOL    HW139037   7.875   8.058   7.925
46337SOL    HW239038   7.736   8.137   7.961
46338SOL     OW39039   8.995   7.670   9.177
46338SOL    HW139040   8.990   7.707   9.269
46338SOL    HW239041   8.923   7.601   9.165
46339SOL     OW39042   8.062   7.570   7.565
46339SOL    HW139043   8.160   7.548   7.572
46339SOL    HW239044   8.031   7.553   7.472
46340SOL     OW39045   8.229   7.712   9.197
46340SOL    HW139046   8.296   7.651   9.240
46340SOL    HW239047   8.156   7.731   9.262
46341SOL     OW39048   8.336   8.962   8.643
46341SOL    HW139049   8.313   8.937   8.549
46341SOL    HW239050   8.397   8.893   8.682
46342SOL     OW39051   8.799   8.038   8.881
46342SOL    HW139052   8.827   7.995   8.966
46342SOL    HW239053   8.824   8.134   8.882
46343SOL     OW39054   8.251   8.850   8.372
46343SOL    HW139055   8.341   8.864   8.330
46343SOL    HW239056   8.180   8.852   8.301
46344SOL     OW39057   8.370   7.951   8.347
46344SOL    HW139058   8.345   7.942   8.251
46344SOL    HW239059   8.418   7.869   8.378
46345SOL     OW39060   7.987   7.512   7.960
46345SOL    HW139061   7.906   7.513   8.018
46345SOL    HW239062   7.990   7.595   7.905
46346SOL     OW39063   8.882   8.636   7.489
46346SOL    HW139064   8.914   8.560   7.546
46346SOL    HW239065   8.790   8.663   7.519
46347SOL     OW39066   7.745   7.483   7.619
46347SOL    HW139067   7.794   7.567   7.598
46347SOL    HW239068   7.807   7.418   7.664
46348SOL     OW39069   8.383   7.684   7.928
46348SOL    HW139070   8.335   7.725   7.850
46348SOL    HW239071   8.482   7.682   7.909
46349SOL     OW39072   8.524   8.131   8.912
46349SOL    HW139073   8.444   8.070   8.915
46349SOL    HW239074   8.605   8.078   8.888
46350SOL     OW39075   8.675   9.018   8.241
46350SOL    HW139076   8.696   9.092   8.176
46350SOL    HW239077   8.743   9.018   8.314
46351SOL     OW39078   7.907   8.600   8.189
46351SOL    HW139079   7.836   8.573   8.254
46351SOL    HW239080   7.881   8.572   8.096
46352SOL     OW39081   8.719   9.245   8.039
46352SOL    HW139082   8.763   9.309   7.975
46352SOL    HW239083   8.669   9.297   8.109
46353SOL     OW39084   8.480   7.997   7.464
46353SOL    HW139085   8.439   8.079   7.425
46353SOL    HW239086   8.544   8.023   7.537
46354SOL     OW39087   7.526   8.004   8.834
46354SOL    HW139088   7.618   8.003   8.793
46354SOL    HW239089   7.520   8.078   8.901
46355SOL     OW39090   8.009   7.670   8.595
46355SOL    HW139091   8.047   7.586   8.632
46355SOL    HW239092   7.921   7.689   8.639
46356SOL     OW39093   8.314   7.902   8.090
46356SOL    HW139094   8.282   7.974   8.028
46356SOL    HW239095   8.338   7.821   8.037
46357SOL     OW39096   8.465   7.487   8.201
46357SOL    HW139097   8.393   7.492   8.132
46357SOL    HW239098   8.441   7.418   8.270
46358SOL     OW39099   8.877   8.621   8.315
46358SOL    HW139100   8.822   8.537   8.308
46358SOL    HW239101   8.903   8.650   8.223
46359SOL     OW39102   8.914   8.038   8.440
46359SOL    HW139103   8.884   7.943   8.447
46359SOL    HW239104   8.987   8.054   8.506
46360SOL     OW39105   9.305   8.281   7.825
46360SOL    HW139106   9.347   8.217   7.889
46360SOL    HW239107   9.267   8.230   7.747
46361SOL     OW39108   7.936   8.833   7.622
46361SOL    HW139109   7.849   8.818   7.669
46361SOL    HW239110   7.919   8.859   7.527
46362SOL     OW39111   9.112   8.728   8.105
46362SOL    HW139112   9.211   8.736   8.119
46362SOL    HW239113   9.067   8.812   8.136
46363SOL     OW39114   8.838   8.023   7.526
46363SOL    HW139115   8.784   8.002   7.607
46363SOL    HW239116   8.929   7.982   7.535
46364SOL     OW39117   7.975   7.704   7.776
46364SOL    HW139118   8.002   7.645   7.701
46364SOL    HW239119   7.975   7.799   7.745
46365SOL     OW39120   9.202   8.671   9.036
46365SOL    HW139121   9.293   8.632   9.023
46365SOL    HW239122   9.210   8.767   9.060
46366SOL     OW39123   8.512   8.795   8.788
46366SOL    HW139124   8.432   8.772   8.843
46366SOL    HW239125   8.595   8.769   8.837
46367SOL     OW39126   9.040   9.077   9.073
46367SOL    HW139127   9.067   9.111   8.983
46367SOL    HW239128   9.119   9.039   9.119
46368SOL     OW39129   8.559   8.643   8.548
46368SOL    HW139130   8.519   8.687   8.629
46368SOL    HW239131   8.518   8.680   8.465
46369SOL     OW39132   9.086   8.547   8.527
46369SOL    HW139133   9.091   8.628   8.586
46369SOL    HW239134   9.000   8.549   8.476
46370SOL     OW39135   8.363   7.537   8.850
46370SOL    HW139136   8.388   7.517   8.755
46370SOL    HW239137   8.435   7.593   8.892
46371SOL     OW39138   8.428   8.564   9.167
46371SOL    HW139139   8.329   8.570   9.177
46371SOL    HW239140   8.451   8.484   9.111
46372SOL     OW39141   8.153   8.498   7.816
46372SOL    HW139142   8.139   8.505   7.915
46372SOL    HW239143   8.237   8.447   7.798
46373SOL     OW39144   7.858   8.261   8.699
46373SOL    HW139145   7.944   8.273   8.749
46373SOL    HW239146   7.816   8.174   8.726
46374SOL     OW39147   8.722   7.834   8.710
46374SOL    HW139148   8.743   7.908   8.774
46374SOL    HW239149   8.633   7.851   8.667
46375SOL     OW39150   7.512   9.012   8.779
46375SOL    HW139151   7.466   9.094   8.745
46375SOL    HW239152   7.610   9.031   8.788
46376SOL     OW39153   7.815   8.548   7.949
46376SOL    HW139154   7.808   8.631   7.893
46376SOL    HW239155   7.819   8.468   7.889
46377SOL     OW39156   8.014   7.985   8.313
46377SOL    HW139157   8.026   8.051   8.239
46377SOL    HW239158   8.060   8.019   8.396
46378SOL     OW39159   8.700   8.796   7.836
46378SOL    HW139160   8.750   8.873   7.876
46378SOL    HW239161   8.605   8.798   7.868
46379SOL     OW39162   8.720   8.893   8.590
46379SOL    HW139163   8.767   8.906   8.677
46379SOL    HW239164   8.654   8.819   8.599
46380SOL     OW39165   9.030   8.087   7.920
46380SOL    HW139166   8.999   8.148   7.993
46380SOL    HW239167   9.080   8.139   7.851
46381SOL     OW39168   7.802   8.958   8.777
46381SOL    HW139169   7.781   8.914   8.690
46381SOL    HW239170   7.899   8.984   8.780
46382SOL     OW39171   7.850   8.199   9.046
46382SOL    HW139172   7.918   8.254   8.999
46382SOL    HW239173   7.890   8.111   9.073
46383SOL     OW39174   9.035   8.227   9.118
46383SOL    HW139175   8.943   8.265   9.113
46383SOL    HW239176   9.095   8.274   9.053
46384SOL     OW39177   8.461   7.553   9.218
46384SOL    HW139178   8.467   7.638   9.166
46384SOL    HW239179   8.493   7.477   9.161
46385SOL     OW39180   7.952   7.498   9.188
46385SOL    HW139181   7.910   7.441   9.118
46385SOL    HW239182   7.886   7.567   9.220
46386SOL     OW39183   8.021   8.318   8.477
46386SOL    HW139184   8.065   8.407   8.468
46386SOL    HW239185   7.958   8.318   8.554
46387SOL     OW39186   8.808   8.310   8.493
46387SOL    HW139187   8.733   8.310   8.427
46387SOL    HW239188   8.845   8.218   8.502
46388SOL     OW39189   8.657   7.973   7.723
46388SOL    HW139190   8.670   7.889   7.777
46388SOL    HW239191   8.628   8.047   7.783
46389SOL     OW39192   7.755   7.661   8.679
46389SOL    HW139193   7.732   7.698   8.769
46389SOL    HW239194   7.725   7.566   8.673
46390SOL     OW39195   7.485   8.758   8.730
46390SOL    HW139196   7.538   8.709   8.798
46390SOL    HW239197   7.507   8.856   8.735
46391SOL     OW39198   8.180   8.082   8.512
46391SOL    HW139199   8.239   8.056   8.436
46391SOL    HW239200   8.152   8.178   8.501
46392SOL     OW39201   9.176   8.383   9.302
46392SOL    HW139202   9.130   8.376   9.213
46392SOL    HW239203   9.114   8.427   9.368
46393SOL     OW39204   7.755   7.511   8.066
46393SOL    HW139205   7.744   7.605   8.099
46393SOL    HW239206   7.750   7.448   8.143
46394SOL     OW39207   9.070   7.815   7.822
46394SOL    HW139208   9.072   7.739   7.886
46394SOL    HW239209   9.022   7.892   7.862
46395SOL     OW39210   8.471   8.214   8.414
46395SOL    HW139211   8.486   8.235   8.510
46395SOL    HW239212   8.441   8.119   8.405
46396SOL     OW39213   8.428   9.021   9.148
46396SOL    HW139214   8.408   9.065   9.060
46396SOL    HW239215   8.467   8.930   9.132
46397SOL     OW39216   9.307   8.966   9.053
46397SOL    HW139217   9.321   8.993   8.958
46397SOL    HW239218   9.390   8.988   9.106
46398SOL     OW39219   7.798   8.346   9.252
46398SOL    HW139220   7.874   8.390   9.300
46398SOL    HW239221   7.833   8.299   9.170
46399SOL     OW39222   8.988   7.722   7.573
46399SOL    HW139223   8.927   7.647   7.596
46399SOL    HW239224   9.010   7.774   7.656
46400SOL     OW39225   8.751   8.286   7.490
46400SOL    HW139226   8.785   8.193   7.505
46400SOL    HW239227   8.769   8.313   7.395
46401SOL     OW39228   8.516   8.781   8.297
46401SOL    HW139229   8.523   8.697   8.242
46401SOL    HW239230   8.578   8.850   8.261
46402SOL     OW39231   7.767   8.258   8.397
46402SOL    HW139232   7.860   8.294   8.402
46402SOL    HW239233   7.761   8.173   8.449
46403SOL     OW39234   7.787   7.957   8.454
46403SOL    HW139235   7.735   7.874   8.437
46403SOL    HW239236   7.864   7.962   8.390
46404SOL     OW39237   8.586   7.828   9.126
46404SOL    HW139238   8.541   7.891   9.190
46404SOL    HW239239   8.679   7.859   9.109
46405SOL     OW39240   8.608   7.655   8.925
46405SOL    HW139241   8.608   7.719   9.002
46405SOL    HW239242   8.636   7.703   8.842
46406SOL     OW39243   7.456   8.774   7.648
46406SOL    HW139244   7.363   8.795   7.617
46406SOL    HW239245   7.466   8.675   7.661
46407SOL     OW39246   7.536   9.249   8.375
46407SOL    HW139247   7.494   9.163   8.348
46407SOL    HW239248   7.630   9.252   8.341
46408SOL     OW39249   7.952   9.016   8.358
46408SOL    HW139250   8.018   9.090   8.367
46408SOL    HW239251   7.996   8.937   8.316
46409SOL     OW39252   8.450   8.244   8.686
46409SOL    HW139253   8.491   8.212   8.772
46409SOL    HW239254   8.354   8.217   8.683
46410SOL     OW39255   7.488   7.992   8.562
46410SOL    HW139256   7.573   7.959   8.521
46410SOL    HW239257   7.501   8.007   8.660
46411SOL     OW39258   7.637   7.968   9.170
46411SOL    HW139259   7.696   7.928   9.100
46411SOL    HW239260   7.579   8.039   9.129
46412SOL     OW39261   8.817   8.398   9.108
46412SOL    HW139262   8.856   8.487   9.128
46412SOL    HW239263   8.827   8.378   9.011
46413SOL     OW39264   8.263   8.020   7.773
46413SOL    HW139265   8.270   7.931   7.727
46413SOL    HW239266   8.169   8.054   7.765
46414SOL     OW39267   9.105   8.052   8.654
46414SOL    HW139268   9.067   7.983   8.716
46414SOL    HW239269   9.187   8.016   8.610
46415SOL     OW39270   7.700   9.012   9.192
46415SOL    HW139271   7.670   9.069   9.268
46415SOL    HW239272   7.693   8.915   9.218
46416SOL     OW39273   8.119   7.912   8.717
46416SOL    HW139274   8.085   7.823   8.687
46416SOL    HW239275   8.145   7.966   8.637
46417SOL     OW39276   8.378   9.126   8.913
46417SOL    HW139277   8.354   9.108   8.818
46417SOL    HW239278   8.408   9.220   8.923
46418SOL     OW39279   7.921   7.948   7.639
46418SOL    HW139280   7.982   8.028   7.643
46418SOL    HW239281   7.826   7.979   7.646
46419SOL     OW39282   7.607   8.585   8.914
46419SOL    HW139283   7.629   8.524   8.990
46419SOL    HW239284   7.617   8.536   8.828
46420SOL     OW39285   8.795   8.507   8.682
46420SOL    HW139286   8.819   8.444   8.608
46420SOL    HW239287   8.705   8.547   8.664
46421SOL     OW39288   8.750   8.303   7.757
46421SOL    HW139289   8.664   8.272   7.799
46421SOL    HW239290   8.746   8.289   7.658
46422SOL     OW39291   9.207   9.195   8.602
46422SOL    HW139292   9.268   9.225   8.529
46422SOL    HW239293   9.169   9.106   8.580
46423SOL     OW39294   8.700   9.179   8.576
46423SOL    HW139295   8.784   9.184   8.522
46423SOL    HW239296   8.677   9.083   8.594
46424SOL     OW39297   7.531   8.706   8.470
46424SOL    HW139298   7.526   8.705   8.570
46424SOL    HW239299   7.448   8.665   8.432
46425SOL     OW39300   8.136   9.110   9.164
46425SOL    HW139301   8.080   9.191   9.173
46425SOL    HW239302   8.188   9.114   9.078
46426SOL     OW39303   9.174   7.583   7.971
46426SOL    HW139304   9.247   7.566   7.904
46426SOL    HW239305   9.143   7.496   8.009
46427SOL     OW39306   8.836   9.021   7.925
46427SOL    HW139307   8.903   9.033   7.851
46427SOL    HW239308   8.796   9.110   7.948
46428SOL     OW39309   7.578   9.242   9.299
46428SOL    HW139310   7.537   9.168   9.352
46428SOL    HW239311   7.642   9.293   9.357
46429SOL     OW39312   8.728   8.375   8.120
46429SOL    HW139313   8.788   8.294   8.122
46429SOL    HW239314   8.768   8.444   8.060
46430SOL     OW39315   8.278   8.721   8.870
46430SOL    HW139316   8.273   8.754   8.965
46430SOL    HW239317   8.192   8.740   8.824
46431SOL     OW39318   8.120   9.064   7.602
46431SOL    HW139319   8.129   9.074   7.503
46431SOL    HW239320   8.080   8.975   7.623
46432SOL     OW39321   9.098   9.168   8.842
46432SOL    HW139322   9.151   9.178   8.758
46432SOL    HW239323   9.071   9.258   8.876
46433SOL     OW39324   9.289   7.623   8.411
46433SOL    HW139325   9.328   7.538   8.375
46433SOL    HW239326   9.191   7.625   8.392
46434SOL     OW39327   7.711   7.774   8.168
46434SOL    HW139328   7.632   7.825   8.134
46434SOL    HW239329   7.702   7.759   8.266
46435SOL     OW39330   8.642   9.060   7.479
46435SOL    HW139331   8.648   8.967   7.516
46435SOL    HW239332   8.583   9.060   7.399
46436SOL     OW39333   8.270   8.450   8.820
46436SOL    HW139334   8.310   8.449   8.728
46436SOL    HW239335   8.280   8.542   8.860
46437SOL     OW39336   8.364   8.358   7.739
46437SOL    HW139337   8.427   8.396   7.671
46437SOL    HW239338   8.404   8.275   7.778
46438SOL     OW39339   8.952   9.055   7.492
46438SOL    HW139340   8.860   9.092   7.499
46438SOL    HW239341   8.990   9.075   7.402
46439SOL     OW39342   7.820   8.736   8.938
46439SOL    HW139343   7.807   8.829   8.904
46439SOL    HW239344   7.736   8.684   8.925
46440SOL     OW39345   9.062   8.740   8.737
46440SOL    HW139346   9.122   8.743   8.817
46440SOL    HW239347   8.987   8.804   8.750
46441SOL     OW39348   8.487   8.546   8.144
46441SOL    HW139349   8.417   8.499   8.198
46441SOL    HW239350   8.546   8.478   8.101
46442SOL     OW39351   8.462   7.684   8.419
46442SOL    HW139352   8.454   7.648   8.326
46442SOL    HW239353   8.460   7.608   8.484
46443SOL     OW39354   8.038   8.935   7.939
46443SOL    HW139355   8.080   8.877   7.869
46443SOL    HW239356   7.994   9.014   7.895
46444SOL     OW39357   9.157   7.833   8.829
46444SOL    HW139358   9.230   7.902   8.833
46444SOL    HW239359   9.185   7.758   8.770
46445SOL     OW39360   7.703   8.796   7.738
46445SOL    HW139361   7.607   8.797   7.711
46445SOL    HW239362   7.715   8.849   7.822
46446SOL     OW39363   7.553   8.461   9.174
46446SOL    HW139364   7.476   8.428   9.228
46446SOL    HW239365   7.638   8.431   9.216
46447SOL     OW39366   8.120   7.651   8.937
46447SOL    HW139367   8.210   7.635   8.897
46447SOL    HW239368   8.128   7.656   9.036
46448SOL     OW39369   7.523   7.793   7.481
46448SOL    HW139370   7.431   7.765   7.452
46448SOL    HW239371   7.554   7.870   7.425
46449SOL     OW39372   8.888   8.304   8.846
46449SOL    HW139373   8.831   8.356   8.783
46449SOL    HW239374   8.984   8.316   8.822
46450SOL     OW39375   7.520   7.614   7.766
46450SOL    HW139376   7.503   7.697   7.712
46450SOL    HW239377   7.610   7.577   7.744
46451SOL     OW39378   8.631   8.783   7.567
46451SOL    HW139379   8.532   8.772   7.569
46451SOL    HW239380   8.665   8.798   7.660
46452SOL     OW39381   8.061   8.290   8.879
46452SOL    HW139382   8.117   8.371   8.862
46452SOL    HW239383   8.120   8.210   8.882
46453SOL     OW39384   8.941   9.215   8.407
46453SOL    HW139385   8.974   9.279   8.338
46453SOL    HW239386   9.007   9.209   8.482
46454SOL     OW39387   8.164   8.013   9.156
46454SOL    HW139388   8.183   8.078   9.230
46454SOL    HW239389   8.224   7.933   9.165
46455SOL     OW39390   8.898   8.668   9.081
46455SOL    HW139391   8.889   8.658   9.180
46455SOL    HW239392   8.994   8.661   9.055
46456SOL     OW39393   7.838   9.189   9.008
46456SOL    HW139394   7.747   9.230   9.006
46456SOL    HW239395   7.831   9.095   9.040
46457SOL     OW39396   9.122   8.331   8.702
46457SOL    HW139397   9.095   8.242   8.665
46457SOL    HW239398   9.123   8.399   8.629
46458SOL     OW39399   8.673   7.773   7.897
46458SOL    HW139400   8.738   7.699   7.886
46458SOL    HW239401   8.693   7.823   7.981
46459SOL     OW39402   8.042   8.193   8.100
46459SOL    HW139403   8.092   8.278   8.081
46459SOL    HW239404   7.954   8.195   8.052
46460SOL     OW39405   9.225   7.790   9.090
46460SOL    HW139406   9.208   7.821   8.996
46460SOL    HW239407   9.141   7.753   9.128
46461SOL     OW39408   9.178   8.382   8.965
46461SOL    HW139409   9.216   8.473   8.980
46461SOL    HW239410   9.170   8.365   8.866
46462SOL     OW39411   8.307   8.822   7.464
46462SOL    HW139412   8.261   8.837   7.552
46462SOL    HW239413   8.351   8.907   7.434
46463SOL     OW39414   8.109   9.238   8.401
46463SOL    HW139415   8.063   9.326   8.388
46463SOL    HW239416   8.208   9.250   8.394
46464SOL     OW39417   8.307   8.404   8.309
46464SOL    HW139418   8.361   8.335   8.357
46464SOL    HW239419   8.275   8.473   8.375
46465SOL     OW39420   8.531   8.432   7.535
46465SOL    HW139421   8.508   8.485   7.453
46465SOL    HW239422   8.612   8.376   7.516
46466SOL     OW39423   9.309   9.017   8.299
46466SOL    HW139424   9.238   9.005   8.229
46466SOL    HW239425   9.310   8.938   8.359
46467SOL     OW39426   7.669   8.762   9.292
46467SOL    HW139427   7.604   8.689   9.271
46467SOL    HW239428   7.673   8.776   9.390
46468SOL     OW39429   7.527   8.688   8.101
46468SOL    HW139430   7.526   8.641   8.189
46468SOL    HW239431   7.609   8.660   8.050
46469SOL     OW39432   8.120   8.839   9.072
46469SOL    HW139433   8.042   8.789   9.110
46469SOL    HW239434   8.117   8.934   9.103
46470SOL     OW39435   9.272   7.640   8.675
46470SOL    HW139436   9.268   7.550   8.719
46470SOL    HW239437   9.275   7.629   8.576
46471SOL     OW39438   7.876   7.872   7.968
46471SOL    HW139439   7.906   7.800   7.906
46471SOL    HW239440   7.837   7.832   8.051
46472SOL     OW39441   9.153   8.935   8.552
46472SOL    HW139442   9.060   8.910   8.525
46472SOL    HW239443   9.179   8.885   8.634
46473SOL     OW39444   7.765   7.995   8.728
46473SOL    HW139445   7.803   7.936   8.800
46473SOL    HW239446   7.805   7.969   8.640
46474SOL     OW39447   8.260   9.034   8.135
46474SOL    HW139448   8.292   9.044   8.041
46474SOL    HW239449   8.181   8.972   8.137
46475SOL     OW39450   8.872   7.662   8.560
46475SOL    HW139451   8.924   7.597   8.615
46475SOL    HW239452   8.823   7.725   8.621
46476SOL     OW39453   8.449   7.482   8.602
46476SOL    HW139454   8.386   7.410   8.571
46476SOL    HW239455   8.542   7.446   8.602
46477SOL     OW39456   8.218   8.778   7.749
46477SOL    HW139457   8.172   8.691   7.766
46477SOL    HW239458   8.309   8.775   7.790
46478SOL     OW39459   8.066   9.015   8.732
46478SOL    HW139460   8.061   9.097   8.789
46478SOL    HW239461   8.155   9.012   8.687
46479SOL     OW39462   8.800   7.500   7.616
46479SOL    HW139463   8.835   7.459   7.532
46479SOL    HW239464   8.710   7.462   7.636
46480SOL     OW39465   8.748   7.901   8.139
46480SOL    HW139466   8.689   7.981   8.143
46480SOL    HW239467   8.763   7.866   8.232
46481SOL     OW39468   9.041   7.669   8.330
46481SOL    HW139469   8.957   7.668   8.384
46481SOL    HW239470   9.043   7.752   8.274
46482SOL     OW39471   7.487   8.525   7.748
46482SOL    HW139472   7.586   8.514   7.739
46482SOL    HW239473   7.447   8.439   7.780
46483SOL     OW39474   8.323   9.094   7.785
46483SOL    HW139475   8.246   9.059   7.731
46483SOL    HW239476   8.291   9.165   7.847
46484SOL     OW39477   7.678   8.076   9.423
46484SOL    HW139478   7.585   8.074   9.460
46484SOL    HW239479   7.679   8.037   9.331
46485SOL     OW39480   7.673   7.723  10.306
46485SOL    HW139481   7.708   7.706  10.398
46485SOL    HW239482   7.585   7.678  10.294
46486SOL     OW39483   7.467   7.816   9.957
46486SOL    HW139484   7.385   7.859   9.996
46486SOL    HW239485   7.439   7.743   9.894
46487SOL     OW39486   8.017   8.723  10.475
46487SOL    HW139487   7.924   8.716  10.438
46487SOL    HW239488   8.028   8.812  10.519
46488SOL     OW39489   9.003   8.959  10.013
46488SOL    HW139490   8.946   8.943  10.094
46488SOL    HW239491   8.944   8.969   9.933
46489SOL     OW39492   8.583   8.151  10.027
46489SOL    HW139493   8.640   8.229  10.002
46489SOL    HW239494   8.523   8.177  10.103
46490SOL     OW39495   9.203   8.055   9.541
46490SOL    HW139496   9.191   8.042   9.442
46490SOL    HW239497   9.173   7.974   9.590
46491SOL     OW39498   8.216   8.592  10.333
46491SOL    HW139499   8.138   8.609  10.393
46491SOL    HW239500   8.250   8.679  10.297
46492SOL     OW39501   8.298   8.246  11.133
46492SOL    HW139502   8.294   8.322  11.198
46492SOL    HW239503   8.320   8.282  11.042
46493SOL     OW39504   8.133   8.460   9.975
46493SOL    HW139505   8.202   8.444  10.045
46493SOL    HW239506   8.060   8.517  10.013
46494SOL     OW39507   8.134   8.609  11.113
46494SOL    HW139508   8.194   8.688  11.127
46494SOL    HW239509   8.048   8.640  11.072
46495SOL     OW39510   7.783   8.883  10.371
46495SOL    HW139511   7.705   8.852  10.318
46495SOL    HW239512   7.841   8.941  10.314
46496SOL     OW39513   8.908   8.953  10.649
46496SOL    HW139514   8.932   9.047  10.675
46496SOL    HW239515   8.892   8.899  10.731
46497SOL     OW39516   7.886   7.840  10.809
46497SOL    HW139517   7.968   7.784  10.818
46497SOL    HW239518   7.805   7.782  10.813
46498SOL     OW39519   9.051   7.895  10.047
46498SOL    HW139520   8.977   7.941   9.997
46498SOL    HW239521   9.102   7.963  10.100
46499SOL     OW39522   7.679   9.161   9.793
46499SOL    HW139523   7.713   9.238   9.847
46499SOL    HW239524   7.723   9.161   9.703
46500SOL     OW39525   8.575   8.789  11.000
46500SOL    HW139526   8.622   8.789  11.088
46500SOL    HW239527   8.527   8.702  10.989
46501SOL     OW39528   7.678   8.882   9.848
46501SOL    HW139529   7.652   8.978   9.848
46501SOL    HW239530   7.607   8.828   9.893
46502SOL     OW39531   7.688   8.539  10.196
46502SOL    HW139532   7.702   8.455  10.248
46502SOL    HW239533   7.633   8.603  10.251
46503SOL     OW39534   8.068   9.234  10.749
46503SOL    HW139535   7.976   9.217  10.784
46503SOL    HW239536   8.096   9.326  10.775
46504SOL     OW39537   8.054   8.412   9.433
46504SOL    HW139538   8.061   8.496   9.379
46504SOL    HW239539   8.100   8.425   9.521
46505SOL     OW39540   9.042   7.562  10.790
46505SOL    HW139541   9.024   7.629  10.718
46505SOL    HW239542   9.039   7.608  10.879
46506SOL     OW39543   7.570   8.091   9.873
46506SOL    HW139544   7.525   8.003   9.890
46506SOL    HW239545   7.569   8.145   9.957
46507SOL     OW39546   9.290   9.215   9.669
46507SOL    HW139547   9.344   9.186   9.749
46507SOL    HW239548   9.320   9.305   9.640
46508SOL     OW39549   7.475   9.044   9.427
46508SOL    HW139550   7.456   8.948   9.448
46508SOL    HW239551   7.442   9.102   9.502
46509SOL     OW39552   9.137   8.370   9.922
46509SOL    HW139553   9.232   8.341   9.930
46509SOL    HW239554   9.129   8.435   9.847
46510SOL     OW39555   9.089   8.556   9.742
46510SOL    HW139556   9.175   8.558   9.690
46510SOL    HW239557   9.103   8.603   9.830
46511SOL     OW39558   7.561   8.185  10.907
46511SOL    HW139559   7.649   8.172  10.952
46511SOL    HW239560   7.548   8.282  10.885
46512SOL     OW39561   8.061   8.813  10.036
46512SOL    HW139562   8.012   8.726  10.045
46512SOL    HW239563   8.038   8.856   9.949
46513SOL     OW39564   8.741   8.676  10.733
46513SOL    HW139565   8.778   8.603  10.675
46513SOL    HW239566   8.793   8.681  10.818
46514SOL     OW39567   8.257   7.452   9.812
46514SOL    HW139568   8.297   7.543   9.803
46514SOL    HW239569   8.157   7.460   9.818
46515SOL     OW39570   7.645   8.424  10.574
46515SOL    HW139571   7.734   8.379  10.560
46515SOL    HW239572   7.572   8.359  10.555
46516SOL     OW39573   8.973   8.447   9.500
46516SOL    HW139574   8.910   8.371   9.513
46516SOL    HW239575   9.021   8.465   9.586
46517SOL     OW39576   8.635   9.240  10.926
46517SOL    HW139577   8.659   9.300  10.850
46517SOL    HW239578   8.642   9.145  10.896
46518SOL     OW39579   7.765   7.699  11.111
46518SOL    HW139580   7.836   7.770  11.117
46518SOL    HW239581   7.677   7.738  11.139
46519SOL     OW39582   8.914   8.865  10.263
46519SOL    HW139583   8.855   8.871  10.343
46519SOL    HW239584   8.899   8.777  10.217
46520SOL     OW39585   9.115   9.162   9.882
46520SOL    HW139586   9.074   9.139   9.794
46520SOL    HW239587   9.097   9.088   9.947
46521SOL     OW39588   8.046   8.177   9.580
46521SOL    HW139589   8.070   8.246   9.512
46521SOL    HW239590   7.968   8.210   9.634
46522SOL     OW39591   8.729   7.793  10.254
46522SOL    HW139592   8.643   7.743  10.241
46522SOL    HW239593   8.791   7.739  10.310
46523SOL     OW39594   9.024   9.110   9.617
46523SOL    HW139595   9.113   9.156   9.620
46523SOL    HW239596   9.003   9.086   9.522
46524SOL     OW39597   8.255   8.053  10.775
46524SOL    HW139598   8.208   8.050  10.864
46524SOL    HW239599   8.204   7.998  10.709
46525SOL     OW39600   8.842   7.917  10.984
46525SOL    HW139601   8.822   7.960  11.072
46525SOL    HW239602   8.920   7.855  10.993
46526SOL     OW39603   8.421   8.338  10.882
46526SOL    HW139604   8.467   8.254  10.853
46526SOL    HW239605   8.365   8.372  10.807
46527SOL     OW39606   8.439   7.858  10.552
46527SOL    HW139607   8.362   7.892  10.606
46527SOL    HW239608   8.405   7.807  10.473
46528SOL     OW39609   8.489   8.149   9.739
46528SOL    HW139610   8.515   8.145   9.835
46528SOL    HW239611   8.404   8.098   9.725
46529SOL     OW39612   7.524   8.259  10.099
46529SOL    HW139613   7.623   8.247  10.108
46529SOL    HW239614   7.500   8.354  10.120
46530SOL     OW39615   7.578   9.269  10.881
46530SOL    HW139616   7.568   9.254  10.980
46530SOL    HW239617   7.492   9.305  10.845
46531SOL     OW39618   8.313   7.796   9.505
46531SOL    HW139619   8.372   7.859   9.456
46531SOL    HW239620   8.332   7.702   9.476
46532SOL     OW39621   9.167   8.033  11.141
46532SOL    HW139622   9.141   8.122  11.105
46532SOL    HW239623   9.165   7.965  11.068
46533SOL     OW39624   8.810   8.592   9.855
46533SOL    HW139625   8.893   8.563   9.807
46533SOL    HW239626   8.761   8.659   9.799
46534SOL     OW39627   7.998   7.644  10.195
46534SOL    HW139628   7.993   7.639  10.295
46534SOL    HW239629   8.000   7.740  10.166
46535SOL     OW39630   8.456   8.904   9.787
46535SOL    HW139631   8.410   8.976   9.735
46535SOL    HW239632   8.452   8.924   9.885
46536SOL     OW39633   7.799   9.249  10.163
46536SOL    HW139634   7.849   9.163  10.169
46536SOL    HW239635   7.864   9.326  10.160
46537SOL     OW39636   9.243   8.514  10.183
46537SOL    HW139637   9.181   8.499  10.107
46537SOL    HW239638   9.191   8.525  10.268
46538SOL     OW39639   8.675   8.998  10.816
46538SOL    HW139640   8.681   8.921  10.880
46538SOL    HW239641   8.623   8.972  10.736
46539SOL     OW39642   7.769   8.391   9.552
46539SOL    HW139643   7.851   8.430   9.510
46539SOL    HW239644   7.742   8.309   9.503
46540SOL     OW39645   8.906   8.183  10.038
46540SOL    HW139646   8.901   8.118  10.113
46540SOL    HW239647   8.986   8.242  10.051
46541SOL     OW39648   7.909   8.714  11.037
46541SOL    HW139649   7.859   8.715  10.951
46541SOL    HW239650   7.846   8.696  11.113
46542SOL     OW39651   8.559   9.224   9.547
46542SOL    HW139652   8.499   9.162   9.597
46542SOL    HW239653   8.590   9.180   9.462
46543SOL     OW39654   7.650   7.733  10.808
46543SOL    HW139655   7.570   7.793  10.795
46543SOL    HW239656   7.640   7.684  10.894
46544SOL     OW39657   9.080   8.825   9.391
46544SOL    HW139658   9.048   8.919   9.381
46544SOL    HW239659   9.004   8.762   9.379
46545SOL     OW39660   7.912   9.191   9.633
46545SOL    HW139661   7.945   9.230   9.719
46545SOL    HW239662   7.988   9.184   9.568
46546SOL     OW39663   8.848   7.555   9.736
46546SOL    HW139664   8.824   7.518   9.646
46546SOL    HW239665   8.947   7.571   9.740
46547SOL     OW39666   7.697   9.233  10.551
46547SOL    HW139667   7.754   9.168  10.601
46547SOL    HW239668   7.681   9.200  10.458
46548SOL     OW39669   8.388   9.146  10.214
46548SOL    HW139670   8.468   9.089  10.235
46548SOL    HW239671   8.339   9.106  10.137
46549SOL     OW39672   7.830   8.148   9.790
46549SOL    HW139673   7.875   8.058   9.787
46549SOL    HW239674   7.736   8.137   9.823
46550SOL     OW39675   8.995   7.670  11.039
46550SOL    HW139676   8.990   7.707  11.131
46550SOL    HW239677   8.923   7.601  11.027
46551SOL     OW39678   8.062   7.570   9.427
46551SOL    HW139679   8.160   7.548   9.434
46551SOL    HW239680   8.031   7.553   9.334
46552SOL     OW39681   8.229   7.712  11.059
46552SOL    HW139682   8.296   7.651  11.102
46552SOL    HW239683   8.156   7.731  11.124
46553SOL     OW39684   8.336   8.962  10.505
46553SOL    HW139685   8.313   8.937  10.411
46553SOL    HW239686   8.397   8.893  10.544
46554SOL     OW39687   8.799   8.038  10.743
46554SOL    HW139688   8.827   7.995  10.828
46554SOL    HW239689   8.824   8.134  10.744
46555SOL     OW39690   8.251   8.850  10.234
46555SOL    HW139691   8.341   8.864  10.192
46555SOL    HW239692   8.180   8.852  10.163
46556SOL     OW39693   8.370   7.951  10.209
46556SOL    HW139694   8.345   7.942  10.113
46556SOL    HW239695   8.418   7.869  10.240
46557SOL     OW39696   7.987   7.512   9.822
46557SOL    HW139697   7.906   7.513   9.880
46557SOL    HW239698   7.990   7.595   9.767
46558SOL     OW39699   8.882   8.636   9.351
46558SOL    HW139700   8.914   8.560   9.408
46558SOL    HW239701   8.790   8.663   9.381
46559SOL     OW39702   7.745   7.483   9.481
46559SOL    HW139703   7.794   7.567   9.460
46559SOL    HW239704   7.807   7.418   9.526
46560SOL     OW39705   8.383   7.684   9.790
46560SOL    HW139706   8.335   7.725   9.712
46560SOL    HW239707   8.482   7.682   9.771
46561SOL     OW39708   8.524   8.131  10.774
46561SOL    HW139709   8.444   8.070  10.777
46561SOL    HW239710   8.605   8.078  10.750
46562SOL     OW39711   8.675   9.018  10.103
46562SOL    HW139712   8.696   9.092  10.038
46562SOL    HW239713   8.743   9.018  10.176
46563SOL     OW39714   7.907   8.600  10.051
46563SOL    HW139715   7.836   8.573  10.116
46563SOL    HW239716   7.881   8.572   9.958
46564SOL     OW39717   8.719   9.245   9.901
46564SOL    HW139718   8.763   9.309   9.837
46564SOL    HW239719   8.669   9.297   9.971
46565SOL     OW39720   8.480   7.997   9.326
46565SOL    HW139721   8.439   8.079   9.287
46565SOL    HW239722   8.544   8.023   9.399
46566SOL     OW39723   7.526   8.004  10.696
46566SOL    HW139724   7.618   8.003  10.655
46566SOL    HW239725   7.520   8.078  10.763
46567SOL     OW39726   8.009   7.670  10.457
46567SOL    HW139727   8.047   7.586  10.494
46567SOL    HW239728   7.921   7.689  10.501
46568SOL     OW39729   8.314   7.902   9.952
46568SOL    HW139730   8.282   7.974   9.890
46568SOL    HW239731   8.338   7.821   9.899
46569SOL     OW39732   8.465   7.487  10.063
46569SOL    HW139733   8.393   7.492   9.994
46569SOL    HW239734   8.441   7.418  10.132
46570SOL     OW39735   8.877   8.621  10.177
46570SOL    HW139736   8.822   8.537  10.170
46570SOL    HW239737   8.903   8.650  10.085
46571SOL     OW39738   8.914   8.038  10.302
46571SOL    HW139739   8.884   7.943  10.309
46571SOL    HW239740   8.987   8.054  10.368
46572SOL     OW39741   9.305   8.281   9.687
46572SOL    HW139742   9.347   8.217   9.751
46572SOL    HW239743   9.267   8.230   9.609
46573SOL     OW39744   7.936   8.833   9.484
46573SOL    HW139745   7.849   8.818   9.531
46573SOL    HW239746   7.919   8.859   9.389
46574SOL     OW39747   9.112   8.728   9.967
46574SOL    HW139748   9.211   8.736   9.981
46574SOL    HW239749   9.067   8.812   9.998
46575SOL     OW39750   8.838   8.023   9.388
46575SOL    HW139751   8.784   8.002   9.469
46575SOL    HW239752   8.929   7.982   9.397
46576SOL     OW39753   7.975   7.704   9.638
46576SOL    HW139754   8.002   7.645   9.563
46576SOL    HW239755   7.975   7.799   9.607
46577SOL     OW39756   9.202   8.671  10.898
46577SOL    HW139757   9.293   8.632  10.885
46577SOL    HW239758   9.210   8.767  10.922
46578SOL     OW39759   8.512   8.795  10.650
46578SOL    HW139760   8.432   8.772  10.705
46578SOL    HW239761   8.595   8.769  10.699
46579SOL     OW39762   9.040   9.077  10.935
46579SOL    HW139763   9.067   9.111  10.845
46579SOL    HW239764   9.119   9.039  10.981
46580SOL     OW39765   8.559   8.643  10.410
46580SOL    HW139766   8.519   8.687  10.491
46580SOL    HW239767   8.518   8.680  10.327
46581SOL     OW39768   9.086   8.547  10.389
46581SOL    HW139769   9.091   8.628  10.448
46581SOL    HW239770   9.000   8.549  10.338
46582SOL     OW39771   8.363   7.537  10.712
46582SOL    HW139772   8.388   7.517  10.617
46582SOL    HW239773   8.435   7.593  10.754
46583SOL     OW39774   8.428   8.564  11.029
46583SOL    HW139775   8.329   8.570  11.039
46583SOL    HW239776   8.451   8.484  10.973
46584SOL     OW39777   8.153   8.498   9.678
46584SOL    HW139778   8.139   8.505   9.777
46584SOL    HW239779   8.237   8.447   9.660
46585SOL     OW39780   7.858   8.261  10.561
46585SOL    HW139781   7.944   8.273  10.611
46585SOL    HW239782   7.816   8.174  10.588
46586SOL     OW39783   8.722   7.834  10.572
46586SOL    HW139784   8.743   7.908  10.636
46586SOL    HW239785   8.633   7.851  10.529
46587SOL     OW39786   7.512   9.012  10.641
46587SOL    HW139787   7.466   9.094  10.607
46587SOL    HW239788   7.610   9.031  10.650
46588SOL     OW39789   7.815   8.548   9.811
46588SOL    HW139790   7.808   8.631   9.755
46588SOL    HW239791   7.819   8.468   9.751
46589SOL     OW39792   8.014   7.985  10.175
46589SOL    HW139793   8.026   8.051  10.101
46589SOL    HW239794   8.060   8.019  10.258
46590SOL     OW39795   8.700   8.796   9.698
46590SOL    HW139796   8.750   8.873   9.738
46590SOL    HW239797   8.605   8.798   9.730
46591SOL     OW39798   8.720   8.893  10.452
46591SOL    HW139799   8.767   8.906  10.539
46591SOL    HW239800   8.654   8.819  10.461
46592SOL     OW39801   9.030   8.087   9.782
46592SOL    HW139802   8.999   8.148   9.855
46592SOL    HW239803   9.080   8.139   9.713
46593SOL     OW39804   7.802   8.958  10.639
46593SOL    HW139805   7.781   8.914  10.552
46593SOL    HW239806   7.899   8.984  10.642
46594SOL     OW39807   7.850   8.199  10.908
46594SOL    HW139808   7.918   8.254  10.861
46594SOL    HW239809   7.890   8.111  10.935
46595SOL     OW39810   9.035   8.227  10.980
46595SOL    HW139811   8.943   8.265  10.975
46595SOL    HW239812   9.095   8.274  10.915
46596SOL     OW39813   8.461   7.553  11.080
46596SOL    HW139814   8.467   7.638  11.028
46596SOL    HW239815   8.493   7.477  11.023
46597SOL     OW39816   7.952   7.498  11.050
46597SOL    HW139817   7.910   7.441  10.980
46597SOL    HW239818   7.886   7.567  11.082
46598SOL     OW39819   8.021   8.318  10.339
46598SOL    HW139820   8.065   8.407  10.330
46598SOL    HW239821   7.958   8.318  10.416
46599SOL     OW39822   8.808   8.310  10.355
46599SOL    HW139823   8.733   8.310  10.289
46599SOL    HW239824   8.845   8.218  10.364
46600SOL     OW39825   8.657   7.973   9.585
46600SOL    HW139826   8.670   7.889   9.639
46600SOL    HW239827   8.628   8.047   9.645
46601SOL     OW39828   7.755   7.661  10.541
46601SOL    HW139829   7.732   7.698  10.631
46601SOL    HW239830   7.725   7.566  10.535
46602SOL     OW39831   7.485   8.758  10.592
46602SOL    HW139832   7.538   8.709  10.660
46602SOL    HW239833   7.507   8.856  10.597
46603SOL     OW39834   8.180   8.082  10.374
46603SOL    HW139835   8.239   8.056  10.298
46603SOL    HW239836   8.152   8.178  10.363
46604SOL     OW39837   9.176   8.383  11.164
46604SOL    HW139838   9.130   8.376  11.075
46604SOL    HW239839   9.114   8.427  11.230
46605SOL     OW39840   7.755   7.511   9.928
46605SOL    HW139841   7.744   7.605   9.961
46605SOL    HW239842   7.750   7.448  10.005
46606SOL     OW39843   9.070   7.815   9.684
46606SOL    HW139844   9.072   7.739   9.748
46606SOL    HW239845   9.022   7.892   9.724
46607SOL     OW39846   8.471   8.214  10.276
46607SOL    HW139847   8.486   8.235  10.372
46607SOL    HW239848   8.441   8.119  10.267
46608SOL     OW39849   8.428   9.021  11.010
46608SOL    HW139850   8.408   9.065  10.922
46608SOL    HW239851   8.467   8.930  10.994
46609SOL     OW39852   9.307   8.966  10.915
46609SOL    HW139853   9.321   8.993  10.820
46609SOL    HW239854   9.390   8.988  10.968
46610SOL     OW39855   7.798   8.346  11.114
46610SOL    HW139856   7.874   8.390  11.162
46610SOL    HW239857   7.833   8.299  11.032
46611SOL     OW39858   8.988   7.722   9.435
46611SOL    HW139859   8.927   7.647   9.458
46611SOL    HW239860   9.010   7.774   9.518
46612SOL     OW39861   8.751   8.286   9.352
46612SOL    HW139862   8.785   8.193   9.367
46612SOL    HW239863   8.769   8.313   9.257
46613SOL     OW39864   8.516   8.781  10.159
46613SOL    HW139865   8.523   8.697  10.104
46613SOL    HW239866   8.578   8.850  10.123
46614SOL     OW39867   7.767   8.258  10.259
46614SOL    HW139868   7.860   8.294  10.264
46614SOL    HW239869   7.761   8.173  10.311
46615SOL     OW39870   7.787   7.957  10.316
46615SOL    HW139871   7.735   7.874  10.299
46615SOL    HW239872   7.864   7.962  10.252
46616SOL     OW39873   8.586   7.828  10.988
46616SOL    HW139874   8.541   7.891  11.052
46616SOL    HW239875   8.679   7.859  10.971
46617SOL     OW39876   8.608   7.655  10.787
46617SOL    HW139877   8.608   7.719  10.864
46617SOL    HW239878   8.636   7.703  10.704
46618SOL     OW39879   7.456   8.774   9.510
46618SOL    HW139880   7.363   8.795   9.479
46618SOL    HW239881   7.466   8.675   9.523
46619SOL     OW39882   7.536   9.249  10.237
46619SOL    HW139883   7.494   9.163  10.210
46619SOL    HW239884   7.630   9.252  10.203
46620SOL     OW39885   7.952   9.016  10.220
46620SOL    HW139886   8.018   9.090  10.229
46620SOL    HW239887   7.996   8.937  10.178
46621SOL     OW39888   8.450   8.244  10.548
46621SOL    HW139889   8.491   8.212  10.634
46621SOL    HW239890   8.354   8.217  10.545
46622SOL     OW39891   7.488   7.992  10.424
46622SOL    HW139892   7.573   7.959  10.383
46622SOL    HW239893   7.501   8.007  10.522
46623SOL     OW39894   7.637   7.968  11.032
46623SOL    HW139895   7.696   7.928  10.962
46623SOL    HW239896   7.579   8.039  10.991
46624SOL     OW39897   8.817   8.398  10.970
46624SOL    HW139898   8.856   8.487  10.990
46624SOL    HW239899   8.827   8.378  10.873
46625SOL     OW39900   8.263   8.020   9.635
46625SOL    HW139901   8.270   7.931   9.589
46625SOL    HW239902   8.169   8.054   9.627
46626SOL     OW39903   9.105   8.052  10.516
46626SOL    HW139904   9.067   7.983  10.578
46626SOL    HW239905   9.187   8.016  10.472
46627SOL     OW39906   7.700   9.012  11.054
46627SOL    HW139907   7.670   9.069  11.130
46627SOL    HW239908   7.693   8.915  11.080
46628SOL     OW39909   8.119   7.912  10.579
46628SOL    HW139910   8.085   7.823  10.549
46628SOL    HW239911   8.145   7.966  10.499
46629SOL     OW39912   8.378   9.126  10.775
46629SOL    HW139913   8.354   9.108  10.680
46629SOL    HW239914   8.408   9.220  10.785
46630SOL     OW39915   7.921   7.948   9.501
46630SOL    HW139916   7.982   8.028   9.505
46630SOL    HW239917   7.826   7.979   9.508
46631SOL     OW39918   7.607   8.585  10.776
46631SOL    HW139919   7.629   8.524  10.852
46631SOL    HW239920   7.617   8.536  10.690
46632SOL     OW39921   8.795   8.507  10.544
46632SOL    HW139922   8.819   8.444  10.470
46632SOL    HW239923   8.705   8.547  10.526
46633SOL     OW39924   8.750   8.303   9.619
46633SOL    HW139925   8.664   8.272   9.661
46633SOL    HW239926   8.746   8.289   9.520
46634SOL     OW39927   9.207   9.195  10.464
46634SOL    HW139928   9.268   9.225  10.391
46634SOL    HW239929   9.169   9.106  10.442
46635SOL     OW39930   8.700   9.179  10.438
46635SOL    HW139931   8.784   9.184  10.384
46635SOL    HW239932   8.677   9.083  10.456
46636SOL     OW39933   7.531   8.706  10.332
46636SOL    HW139934   7.526   8.705  10.432
46636SOL    HW239935   7.448   8.665  10.294
46637SOL     OW39936   8.136   9.110  11.026
46637SOL    HW139937   8.080   9.191  11.035
46637SOL    HW239938   8.188   9.114  10.940
46638SOL     OW39939   9.174   7.583   9.833
46638SOL    HW139940   9.247   7.566   9.766
46638SOL    HW239941   9.143   7.496   9.871
46639SOL     OW39942   8.836   9.021   9.787
46639SOL    HW139943   8.903   9.033   9.713
46639SOL    HW239944   8.796   9.110   9.810
46640SOL     OW39945   7.578   9.242  11.161
46640SOL    HW139946   7.537   9.168  11.214
46640SOL    HW239947   7.642   9.293  11.219
46641SOL     OW39948   8.728   8.375   9.982
46641SOL    HW139949   8.788   8.294   9.984
46641SOL    HW239950   8.768   8.444   9.922
46642SOL     OW39951   8.278   8.721  10.732
46642SOL    HW139952   8.273   8.754  10.827
46642SOL    HW239953   8.192   8.740  10.686
46643SOL     OW39954   8.120   9.064   9.464
46643SOL    HW139955   8.129   9.074   9.365
46643SOL    HW239956   8.080   8.975   9.485
46644SOL     OW39957   9.098   9.168  10.704
46644SOL    HW139958   9.151   9.178  10.620
46644SOL    HW239959   9.071   9.258  10.738
46645SOL     OW39960   9.289   7.623  10.273
46645SOL    HW139961   9.328   7.538  10.237
46645SOL    HW239962   9.191   7.625  10.254
46646SOL     OW39963   7.711   7.774  10.030
46646SOL    HW139964   7.632   7.825   9.996
46646SOL    HW239965   7.702   7.759  10.128
46647SOL     OW39966   8.642   9.060   9.341
46647SOL    HW139967   8.648   8.967   9.378
46647SOL    HW239968   8.583   9.060   9.261
46648SOL     OW39969   8.270   8.450  10.682
46648SOL    HW139970   8.310   8.449  10.590
46648SOL    HW239971   8.280   8.542  10.722
46649SOL     OW39972   8.364   8.358   9.601
46649SOL    HW139973   8.427   8.396   9.533
46649SOL    HW239974   8.404   8.275   9.640
46650SOL     OW39975   8.952   9.055   9.354
46650SOL    HW139976   8.860   9.092   9.361
46650SOL    HW239977   8.990   9.075   9.264
46651SOL     OW39978   7.820   8.736  10.800
46651SOL    HW139979   7.807   8.829  10.766
46651SOL    HW239980   7.736   8.684  10.787
46652SOL     OW39981   9.062   8.740  10.599
46652SOL    HW139982   9.122   8.743  10.679
46652SOL    HW239983   8.987   8.804  10.612
46653SOL     OW39984   8.487   8.546  10.006
46653SOL    HW139985   8.417   8.499  10.060
46653SOL    HW239986   8.546   8.478   9.963
46654SOL     OW39987   8.462   7.684  10.281
46654SOL    HW139988   8.454   7.648  10.188
46654SOL    HW239989   8.460   7.608  10.346
46655SOL     OW39990   8.038   8.935   9.801
46655SOL    HW139991   8.080   8.877   9.731
46655SOL    HW239992   7.994   9.014   9.757
46656SOL     OW39993   9.157   7.833  10.691
46656SOL    HW139994   9.230   7.902  10.695
46656SOL    HW239995   9.185   7.758  10.632
46657SOL     OW39996   7.703   8.796   9.600
46657SOL    HW139997   7.607   8.797   9.573
46657SOL    HW239998   7.715   8.849   9.684
46658SOL     OW39999   7.553   8.461  11.036
46658SOL    HW140000   7.476   8.428  11.090
46658SOL    HW240001   7.638   8.431  11.078
46659SOL     OW40002   8.120   7.651  10.799
46659SOL    HW140003   8.210   7.635  10.759
46659SOL    HW240004   8.128   7.656  10.898
46660SOL     OW40005   7.523   7.793   9.343
46660SOL    HW140006   7.431   7.765   9.314
46660SOL    HW240007   7.554   7.870   9.287
46661SOL     OW40008   8.888   8.304  10.708
46661SOL    HW140009   8.831   8.356  10.645
46661SOL    HW240010   8.984   8.316  10.684
46662SOL     OW40011   7.520   7.614   9.628
46662SOL    HW140012   7.503   7.697   9.574
46662SOL    HW240013   7.610   7.577   9.606
46663SOL     OW40014   8.631   8.783   9.429
46663SOL    HW140015   8.532   8.772   9.431
46663SOL    HW240016   8.665   8.798   9.522
46664SOL     OW40017   8.061   8.290  10.741
46664SOL    HW140018   8.117   8.371  10.724
46664SOL    HW240019   8.120   8.210  10.744
46665SOL     OW40020   8.941   9.215  10.269
46665SOL    HW140021   8.974   9.279  10.200
46665SOL    HW240022   9.007   9.209  10.344
46666SOL     OW40023   8.164   8.013  11.018
46666SOL    HW140024   8.183   8.078  11.092
46666SOL    HW240025   8.224   7.933  11.027
46667SOL     OW40026   8.898   8.668  10.943
46667SOL    HW140027   8.889   8.658  11.042
46667SOL    HW240028   8.994   8.661  10.917
46668SOL     OW40029   7.838   9.189  10.870
46668SOL    HW140030   7.747   9.230  10.868
46668SOL    HW240031   7.831   9.095  10.902
46669SOL     OW40032   9.122   8.331  10.564
46669SOL    HW140033   9.095   8.242  10.527
46669SOL    HW240034   9.123   8.399  10.491
46670SOL     OW40035   8.673   7.773   9.759
46670SOL    HW140036   8.738   7.699   9.748
46670SOL    HW240037   8.693   7.823   9.843
46671SOL     OW40038   8.042   8.193   9.962
46671SOL    HW140039   8.092   8.278   9.943
46671SOL    HW240040   7.954   8.195   9.914
46672SOL     OW40041   9.225   7.790  10.952
46672SOL    HW140042   9.208   7.821  10.858
46672SOL    HW240043   9.141   7.753  10.990
46673SOL     OW40044   9.178   8.382  10.827
46673SOL    HW140045   9.216   8.473  10.842
46673SOL    HW240046   9.170   8.365  10.728
46674SOL     OW40047   8.307   8.822   9.326
46674SOL    HW140048   8.261   8.837   9.414
46674SOL    HW240049   8.351   8.907   9.296
46675SOL     OW40050   8.109   9.238  10.263
46675SOL    HW140051   8.063   9.326  10.250
46675SOL    HW240052   8.208   9.250  10.256
46676SOL     OW40053   8.307   8.404  10.171
46676SOL    HW140054   8.361   8.335  10.219
46676SOL    HW240055   8.275   8.473  10.237
46677SOL     OW40056   8.531   8.432   9.397
46677SOL    HW140057   8.508   8.485   9.315
46677SOL    HW240058   8.612   8.376   9.378
46678SOL     OW40059   9.309   9.017  10.161
46678SOL    HW140060   9.238   9.005  10.091
46678SOL    HW240061   9.310   8.938  10.221
46679SOL     OW40062   7.669   8.762  11.154
46679SOL    HW140063   7.604   8.689  11.133
46679SOL    HW240064   7.673   8.776  11.252
46680SOL     OW40065   7.527   8.688   9.963
46680SOL    HW140066   7.526   8.641  10.051
46680SOL    HW240067   7.609   8.660   9.912
46681SOL     OW40068   8.120   8.839  10.934
46681SOL    HW140069   8.042   8.789  10.972
46681SOL    HW240070   8.117   8.934  10.965
46682SOL     OW40071   9.272   7.640  10.537
46682SOL    HW140072   9.268   7.550  10.581
46682SOL    HW240073   9.275   7.629  10.438
46683SOL     OW40074   7.876   7.872   9.830
46683SOL    HW140075   7.906   7.800   9.768
46683SOL    HW240076   7.837   7.832   9.913
46684SOL     OW40077   9.153   8.935  10.414
46684SOL    HW140078   9.060   8.910  10.387
46684SOL    HW240079   9.179   8.885  10.496
46685SOL     OW40080   7.765   7.995  10.590
46685SOL    HW140081   7.803   7.936  10.662
46685SOL    HW240082   7.805   7.969  10.502
46686SOL     OW40083   8.260   9.034   9.997
46686SOL    HW140084   8.292   9.044   9.903
46686SOL    HW240085   8.181   8.972   9.999
46687SOL     OW40086   8.872   7.662  10.422
46687SOL    HW140087   8.924   7.597  10.477
46687SOL    HW240088   8.823   7.725  10.483
46688SOL     OW40089   8.449   7.482  10.464
46688SOL    HW140090   8.386   7.410  10.433
46688SOL    HW240091   8.542   7.446  10.464
46689SOL     OW40092   8.218   8.778   9.611
46689SOL    HW140093   8.172   8.691   9.628
46689SOL    HW240094   8.309   8.775   9.652
46690SOL     OW40095   8.066   9.015  10.594
46690SOL    HW140096   8.061   9.097  10.651
46690SOL    HW240097   8.155   9.012  10.549
46691SOL     OW40098   8.800   7.500   9.478
46691SOL    HW140099   8.835   7.459   9.394
46691SOL    HW240100   8.710   7.462   9.498
46692SOL     OW40101   8.748   7.901  10.001
46692SOL    HW140102   8.689   7.981  10.005
46692SOL    HW240103   8.763   7.866  10.094
46693SOL     OW40104   9.041   7.669  10.192
46693SOL    HW140105   8.957   7.668  10.246
46693SOL    HW240106   9.043   7.752  10.136
46694SOL     OW40107   7.487   8.525   9.610
46694SOL    HW140108   7.586   8.514   9.601
46694SOL    HW240109   7.447   8.439   9.642
46695SOL     OW40110   8.323   9.094   9.647
46695SOL    HW140111   8.246   9.059   9.593
46695SOL    HW240112   8.291   9.165   9.709
46696SOL     OW40113   7.678   8.076  11.285
46696SOL    HW140114   7.585   8.074  11.322
46696SOL    HW240115   7.679   8.037  11.193
46697SOL     OW40116   7.673   7.723  12.168
46697SOL    HW140117   7.708   7.706  12.260
46697SOL    HW240118   7.585   7.678  12.156
46698SOL     OW40119   7.467   7.816  11.819
46698SOL    HW140120   7.385   7.859  11.858
46698SOL    HW240121   7.439   7.743  11.756
46699SOL     OW40122   8.017   8.723  12.337
46699SOL    HW140123   7.924   8.716  12.300
46699SOL    HW240124   8.028   8.812  12.381
46700SOL     OW40125   9.003   8.959  11.875
46700SOL    HW140126   8.946   8.943  11.956
46700SOL    HW240127   8.944   8.969  11.795
46701SOL     OW40128   8.583   8.151  11.889
46701SOL    HW140129   8.640   8.229  11.864
46701SOL    HW240130   8.523   8.177  11.965
46702SOL     OW40131   9.203   8.055  11.403
46702SOL    HW140132   9.191   8.042  11.304
46702SOL    HW240133   9.173   7.974  11.452
46703SOL     OW40134   8.216   8.592  12.195
46703SOL    HW140135   8.138   8.609  12.255
46703SOL    HW240136   8.250   8.679  12.159
46704SOL     OW40137   8.133   8.460  11.837
46704SOL    HW140138   8.202   8.444  11.907
46704SOL    HW240139   8.060   8.517  11.875
46705SOL     OW40140   7.783   8.883  12.233
46705SOL    HW140141   7.705   8.852  12.180
46705SOL    HW240142   7.841   8.941  12.176
46706SOL     OW40143   8.908   8.953  12.511
46706SOL    HW140144   8.932   9.047  12.537
46706SOL    HW240145   8.892   8.899  12.593
46707SOL     OW40146   7.886   7.840  12.671
46707SOL    HW140147   7.968   7.784  12.680
46707SOL    HW240148   7.805   7.782  12.675
46708SOL     OW40149   9.051   7.895  11.909
46708SOL    HW140150   8.977   7.941  11.859
46708SOL    HW240151   9.102   7.963  11.962
46709SOL     OW40152   7.679   9.161  11.655
46709SOL    HW140153   7.713   9.238  11.709
46709SOL    HW240154   7.723   9.161  11.565
46710SOL     OW40155   7.678   8.882  11.710
46710SOL    HW140156   7.652   8.978  11.710
46710SOL    HW240157   7.607   8.828  11.755
46711SOL     OW40158   7.688   8.539  12.058
46711SOL    HW140159   7.702   8.455  12.110
46711SOL    HW240160   7.633   8.603  12.113
46712SOL     OW40161   8.068   9.234  12.611
46712SOL    HW140162   7.976   9.217  12.646
46712SOL    HW240163   8.096   9.326  12.637
46713SOL     OW40164   8.054   8.412  11.295
46713SOL    HW140165   8.061   8.496  11.241
46713SOL    HW240166   8.100   8.425  11.383
46714SOL     OW40167   9.042   7.562  12.652
46714SOL    HW140168   9.024   7.629  12.580
46714SOL    HW240169   9.039   7.608  12.741
46715SOL     OW40170   7.570   8.091  11.735
46715SOL    HW140171   7.525   8.003  11.752
46715SOL    HW240172   7.569   8.145  11.819
46716SOL     OW40173   9.290   9.215  11.531
46716SOL    HW140174   9.344   9.186  11.611
46716SOL    HW240175   9.320   9.305  11.502
46717SOL     OW40176   7.475   9.044  11.289
46717SOL    HW140177   7.456   8.948  11.310
46717SOL    HW240178   7.442   9.102  11.364
46718SOL     OW40179   9.137   8.370  11.784
46718SOL    HW140180   9.232   8.341  11.792
46718SOL    HW240181   9.129   8.435  11.709
46719SOL     OW40182   9.089   8.556  11.604
46719SOL    HW140183   9.175   8.558  11.552
46719SOL    HW240184   9.103   8.603  11.692
46720SOL     OW40185   8.061   8.813  11.898
46720SOL    HW140186   8.012   8.726  11.907
46720SOL    HW240187   8.038   8.856  11.811
46721SOL     OW40188   8.257   7.452  11.674
46721SOL    HW140189   8.297   7.543  11.665
46721SOL    HW240190   8.157   7.460  11.680
46722SOL     OW40191   7.645   8.424  12.436
46722SOL    HW140192   7.734   8.379  12.422
46722SOL    HW240193   7.572   8.359  12.417
46723SOL     OW40194   8.973   8.447  11.362
46723SOL    HW140195   8.910   8.371  11.375
46723SOL    HW240196   9.021   8.465  11.448
46724SOL     OW40197   7.765   7.699  12.973
46724SOL    HW140198   7.836   7.770  12.979
46724SOL    HW240199   7.677   7.738  13.001
46725SOL     OW40200   8.914   8.865  12.125
46725SOL    HW140201   8.855   8.871  12.205
46725SOL    HW240202   8.899   8.777  12.079
46726SOL     OW40203   9.115   9.162  11.744
46726SOL    HW140204   9.074   9.139  11.656
46726SOL    HW240205   9.097   9.088  11.809
46727SOL     OW40206   8.046   8.177  11.442
46727SOL    HW140207   8.070   8.246  11.374
46727SOL    HW240208   7.968   8.210  11.496
46728SOL     OW40209   8.729   7.793  12.116
46728SOL    HW140210   8.643   7.743  12.103
46728SOL    HW240211   8.791   7.739  12.172
46729SOL     OW40212   9.024   9.110  11.479
46729SOL    HW140213   9.113   9.156  11.482
46729SOL    HW240214   9.003   9.086  11.384
46730SOL     OW40215   8.255   8.053  12.637
46730SOL    HW140216   8.208   8.050  12.726
46730SOL    HW240217   8.204   7.998  12.571
46731SOL     OW40218   8.439   7.858  12.414
46731SOL    HW140219   8.362   7.892  12.468
46731SOL    HW240220   8.405   7.807  12.335
46732SOL     OW40221   8.489   8.149  11.601
46732SOL    HW140222   8.515   8.145  11.697
46732SOL    HW240223   8.404   8.098  11.587
46733SOL     OW40224   7.524   8.259  11.961
46733SOL    HW140225   7.623   8.247  11.970
46733SOL    HW240226   7.500   8.354  11.982
46734SOL     OW40227   7.578   9.269  12.743
46734SOL    HW140228   7.568   9.254  12.842
46734SOL    HW240229   7.492   9.305  12.707
46735SOL     OW40230   8.313   7.796  11.367
46735SOL    HW140231   8.372   7.859  11.318
46735SOL    HW240232   8.332   7.702  11.338
46736SOL     OW40233   8.810   8.592  11.717
46736SOL    HW140234   8.893   8.563  11.669
46736SOL    HW240235   8.761   8.659  11.661
46737SOL     OW40236   7.998   7.644  12.057
46737SOL    HW140237   7.993   7.639  12.157
46737SOL    HW240238   8.000   7.740  12.028
46738SOL     OW40239   8.456   8.904  11.649
46738SOL    HW140240   8.410   8.976  11.597
46738SOL    HW240241   8.452   8.924  11.747
46739SOL     OW40242   7.799   9.249  12.025
46739SOL    HW140243   7.849   9.163  12.031
46739SOL    HW240244   7.864   9.326  12.022
46740SOL     OW40245   9.243   8.514  12.045
46740SOL    HW140246   9.181   8.499  11.969
46740SOL    HW240247   9.191   8.525  12.130
46741SOL     OW40248   7.769   8.391  11.414
46741SOL    HW140249   7.851   8.430  11.372
46741SOL    HW240250   7.742   8.309  11.365
46742SOL     OW40251   8.906   8.183  11.900
46742SOL    HW140252   8.901   8.118  11.975
46742SOL    HW240253   8.986   8.242  11.913
46743SOL     OW40254   8.559   9.224  11.409
46743SOL    HW140255   8.499   9.162  11.459
46743SOL    HW240256   8.590   9.180  11.324
46744SOL     OW40257   7.650   7.733  12.670
46744SOL    HW140258   7.570   7.793  12.657
46744SOL    HW240259   7.640   7.684  12.756
46745SOL     OW40260   9.080   8.825  11.253
46745SOL    HW140261   9.048   8.919  11.243
46745SOL    HW240262   9.004   8.762  11.241
46746SOL     OW40263   7.912   9.191  11.495
46746SOL    HW140264   7.945   9.230  11.581
46746SOL    HW240265   7.988   9.184  11.430
46747SOL     OW40266   8.848   7.555  11.598
46747SOL    HW140267   8.824   7.518  11.508
46747SOL    HW240268   8.947   7.571  11.602
46748SOL     OW40269   7.697   9.233  12.413
46748SOL    HW140270   7.754   9.168  12.463
46748SOL    HW240271   7.681   9.200  12.320
46749SOL     OW40272   8.388   9.146  12.076
46749SOL    HW140273   8.468   9.089  12.097
46749SOL    HW240274   8.339   9.106  11.999
46750SOL     OW40275   7.830   8.148  11.652
46750SOL    HW140276   7.875   8.058  11.649
46750SOL    HW240277   7.736   8.137  11.685
46751SOL     OW40278   8.062   7.570  11.289
46751SOL    HW140279   8.160   7.548  11.296
46751SOL    HW240280   8.031   7.553  11.196
46752SOL     OW40281   8.336   8.962  12.367
46752SOL    HW140282   8.313   8.937  12.273
46752SOL    HW240283   8.397   8.893  12.406
46753SOL     OW40284   8.251   8.850  12.096
46753SOL    HW140285   8.341   8.864  12.054
46753SOL    HW240286   8.180   8.852  12.025
46754SOL     OW40287   8.370   7.951  12.071
46754SOL    HW140288   8.345   7.942  11.975
46754SOL    HW240289   8.418   7.869  12.102
46755SOL     OW40290   7.987   7.512  11.684
46755SOL    HW140291   7.906   7.513  11.742
46755SOL    HW240292   7.990   7.595  11.629
46756SOL     OW40293   8.882   8.636  11.213
46756SOL    HW140294   8.914   8.560  11.270
46756SOL    HW240295   8.790   8.663  11.243
46757SOL     OW40296   7.745   7.483  11.343
46757SOL    HW140297   7.794   7.567  11.322
46757SOL    HW240298   7.807   7.418  11.388
46758SOL     OW40299   8.383   7.684  11.652
46758SOL    HW140300   8.335   7.725  11.574
46758SOL    HW240301   8.482   7.682  11.633
46759SOL     OW40302   8.675   9.018  11.965
46759SOL    HW140303   8.696   9.092  11.900
46759SOL    HW240304   8.743   9.018  12.038
46760SOL     OW40305   7.907   8.600  11.913
46760SOL    HW140306   7.836   8.573  11.978
46760SOL    HW240307   7.881   8.572  11.820
46761SOL     OW40308   8.719   9.245  11.763
46761SOL    HW140309   8.763   9.309  11.699
46761SOL    HW240310   8.669   9.297  11.833
46762SOL     OW40311   8.480   7.997  11.188
46762SOL    HW140312   8.439   8.079  11.149
46762SOL    HW240313   8.544   8.023  11.261
46763SOL     OW40314   7.526   8.004  12.558
46763SOL    HW140315   7.618   8.003  12.517
46763SOL    HW240316   7.520   8.078  12.625
46764SOL     OW40317   8.009   7.670  12.319
46764SOL    HW140318   8.047   7.586  12.356
46764SOL    HW240319   7.921   7.689  12.363
46765SOL     OW40320   8.314   7.902  11.814
46765SOL    HW140321   8.282   7.974  11.752
46765SOL    HW240322   8.338   7.821  11.761
46766SOL     OW40323   8.465   7.487  11.925
46766SOL    HW140324   8.393   7.492  11.856
46766SOL    HW240325   8.441   7.418  11.994
46767SOL     OW40326   8.877   8.621  12.039
46767SOL    HW140327   8.822   8.537  12.032
46767SOL    HW240328   8.903   8.650  11.947
46768SOL     OW40329   8.914   8.038  12.164
46768SOL    HW140330   8.884   7.943  12.171
46768SOL    HW240331   8.987   8.054  12.230
46769SOL     OW40332   9.305   8.281  11.549
46769SOL    HW140333   9.347   8.217  11.613
46769SOL    HW240334   9.267   8.230  11.471
46770SOL     OW40335   7.936   8.833  11.346
46770SOL    HW140336   7.849   8.818  11.393
46770SOL    HW240337   7.919   8.859  11.251
46771SOL     OW40338   9.112   8.728  11.829
46771SOL    HW140339   9.211   8.736  11.843
46771SOL    HW240340   9.067   8.812  11.860
46772SOL     OW40341   8.838   8.023  11.250
46772SOL    HW140342   8.784   8.002  11.331
46772SOL    HW240343   8.929   7.982  11.259
46773SOL     OW40344   7.975   7.704  11.500
46773SOL    HW140345   8.002   7.645  11.425
46773SOL    HW240346   7.975   7.799  11.469
46774SOL     OW40347   8.512   8.795  12.512
46774SOL    HW140348   8.432   8.772  12.567
46774SOL    HW240349   8.595   8.769  12.561
46775SOL     OW40350   8.559   8.643  12.272
46775SOL    HW140351   8.519   8.687  12.353
46775SOL    HW240352   8.518   8.680  12.189
46776SOL     OW40353   9.086   8.547  12.251
46776SOL    HW140354   9.091   8.628  12.310
46776SOL    HW240355   9.000   8.549  12.200
46777SOL     OW40356   8.363   7.537  12.574
46777SOL    HW140357   8.388   7.517  12.479
46777SOL    HW240358   8.435   7.593  12.616
46778SOL     OW40359   8.153   8.498  11.540
46778SOL    HW140360   8.139   8.505  11.639
46778SOL    HW240361   8.237   8.447  11.522
46779SOL     OW40362   7.858   8.261  12.423
46779SOL    HW140363   7.944   8.273  12.473
46779SOL    HW240364   7.816   8.174  12.450
46780SOL     OW40365   8.722   7.834  12.434
46780SOL    HW140366   8.743   7.908  12.498
46780SOL    HW240367   8.633   7.851  12.391
46781SOL     OW40368   7.512   9.012  12.503
46781SOL    HW140369   7.466   9.094  12.469
46781SOL    HW240370   7.610   9.031  12.512
46782SOL     OW40371   7.815   8.548  11.673
46782SOL    HW140372   7.808   8.631  11.617
46782SOL    HW240373   7.819   8.468  11.613
46783SOL     OW40374   8.014   7.985  12.037
46783SOL    HW140375   8.026   8.051  11.963
46783SOL    HW240376   8.060   8.019  12.120
46784SOL     OW40377   8.700   8.796  11.560
46784SOL    HW140378   8.750   8.873  11.600
46784SOL    HW240379   8.605   8.798  11.592
46785SOL     OW40380   8.720   8.893  12.314
46785SOL    HW140381   8.767   8.906  12.401
46785SOL    HW240382   8.654   8.819  12.323
46786SOL     OW40383   9.030   8.087  11.644
46786SOL    HW140384   8.999   8.148  11.717
46786SOL    HW240385   9.080   8.139  11.575
46787SOL     OW40386   7.802   8.958  12.501
46787SOL    HW140387   7.781   8.914  12.414
46787SOL    HW240388   7.899   8.984  12.504
46788SOL     OW40389   7.850   8.199  12.770
46788SOL    HW140390   7.918   8.254  12.723
46788SOL    HW240391   7.890   8.111  12.797
46789SOL     OW40392   9.035   8.227  12.842
46789SOL    HW140393   8.943   8.265  12.837
46789SOL    HW240394   9.095   8.274  12.777
46790SOL     OW40395   8.021   8.318  12.201
46790SOL    HW140396   8.065   8.407  12.192
46790SOL    HW240397   7.958   8.318  12.278
46791SOL     OW40398   8.808   8.310  12.217
46791SOL    HW140399   8.733   8.310  12.151
46791SOL    HW240400   8.845   8.218  12.226
46792SOL     OW40401   8.657   7.973  11.447
46792SOL    HW140402   8.670   7.889  11.501
46792SOL    HW240403   8.628   8.047  11.507
46793SOL     OW40404   7.755   7.661  12.403
46793SOL    HW140405   7.732   7.698  12.493
46793SOL    HW240406   7.725   7.566  12.397
46794SOL     OW40407   7.485   8.758  12.454
46794SOL    HW140408   7.538   8.709  12.522
46794SOL    HW240409   7.507   8.856  12.459
46795SOL     OW40410   8.180   8.082  12.236
46795SOL    HW140411   8.239   8.056  12.160
46795SOL    HW240412   8.152   8.178  12.225
46796SOL     OW40413   7.755   7.511  11.790
46796SOL    HW140414   7.744   7.605  11.823
46796SOL    HW240415   7.750   7.448  11.867
46797SOL     OW40416   9.070   7.815  11.546
46797SOL    HW140417   9.072   7.739  11.610
46797SOL    HW240418   9.022   7.892  11.586
46798SOL     OW40419   8.471   8.214  12.138
46798SOL    HW140420   8.486   8.235  12.234
46798SOL    HW240421   8.441   8.119  12.129
46799SOL     OW40422   8.428   9.021  12.872
46799SOL    HW140423   8.408   9.065  12.784
46799SOL    HW240424   8.467   8.930  12.856
46800SOL     OW40425   8.988   7.722  11.297
46800SOL    HW140426   8.927   7.647  11.320
46800SOL    HW240427   9.010   7.774  11.380
46801SOL     OW40428   8.751   8.286  11.214
46801SOL    HW140429   8.785   8.193  11.229
46801SOL    HW240430   8.769   8.313  11.119
46802SOL     OW40431   8.516   8.781  12.021
46802SOL    HW140432   8.523   8.697  11.966
46802SOL    HW240433   8.578   8.850  11.985
46803SOL     OW40434   7.767   8.258  12.121
46803SOL    HW140435   7.860   8.294  12.126
46803SOL    HW240436   7.761   8.173  12.173
46804SOL     OW40437   7.787   7.957  12.178
46804SOL    HW140438   7.735   7.874  12.161
46804SOL    HW240439   7.864   7.962  12.114
46805SOL     OW40440   8.586   7.828  12.850
46805SOL    HW140441   8.541   7.891  12.914
46805SOL    HW240442   8.679   7.859  12.833
46806SOL     OW40443   8.608   7.655  12.649
46806SOL    HW140444   8.608   7.719  12.726
46806SOL    HW240445   8.636   7.703  12.566
46807SOL     OW40446   7.456   8.774  11.372
46807SOL    HW140447   7.363   8.795  11.341
46807SOL    HW240448   7.466   8.675  11.385
46808SOL     OW40449   7.536   9.249  12.099
46808SOL    HW140450   7.494   9.163  12.072
46808SOL    HW240451   7.630   9.252  12.065
46809SOL     OW40452   7.952   9.016  12.082
46809SOL    HW140453   8.018   9.090  12.091
46809SOL    HW240454   7.996   8.937  12.040
46810SOL     OW40455   8.450   8.244  12.410
46810SOL    HW140456   8.491   8.212  12.496
46810SOL    HW240457   8.354   8.217  12.407
46811SOL     OW40458   7.488   7.992  12.286
46811SOL    HW140459   7.573   7.959  12.245
46811SOL    HW240460   7.501   8.007  12.384
46812SOL     OW40461   8.263   8.020  11.497
46812SOL    HW140462   8.270   7.931  11.451
46812SOL    HW240463   8.169   8.054  11.489
46813SOL     OW40464   9.105   8.052  12.378
46813SOL    HW140465   9.067   7.983  12.440
46813SOL    HW240466   9.187   8.016  12.334
46814SOL     OW40467   8.119   7.912  12.441
46814SOL    HW140468   8.085   7.823  12.411
46814SOL    HW240469   8.145   7.966  12.361
46815SOL     OW40470   8.378   9.126  12.637
46815SOL    HW140471   8.354   9.108  12.542
46815SOL    HW240472   8.408   9.220  12.647
46816SOL     OW40473   7.921   7.948  11.363
46816SOL    HW140474   7.982   8.028  11.367
46816SOL    HW240475   7.826   7.979  11.370
46817SOL     OW40476   7.607   8.585  12.638
46817SOL    HW140477   7.629   8.524  12.714
46817SOL    HW240478   7.617   8.536  12.552
46818SOL     OW40479   8.795   8.507  12.406
46818SOL    HW140480   8.819   8.444  12.332
46818SOL    HW240481   8.705   8.547  12.388
46819SOL     OW40482   8.750   8.303  11.481
46819SOL    HW140483   8.664   8.272  11.523
46819SOL    HW240484   8.746   8.289  11.382
46820SOL     OW40485   9.207   9.195  12.326
46820SOL    HW140486   9.268   9.225  12.253
46820SOL    HW240487   9.169   9.106  12.304
46821SOL     OW40488   8.700   9.179  12.300
46821SOL    HW140489   8.784   9.184  12.246
46821SOL    HW240490   8.677   9.083  12.318
46822SOL     OW40491   7.531   8.706  12.194
46822SOL    HW140492   7.526   8.705  12.294
46822SOL    HW240493   7.448   8.665  12.156
46823SOL     OW40494   9.174   7.583  11.695
46823SOL    HW140495   9.247   7.566  11.628
46823SOL    HW240496   9.143   7.496  11.733
46824SOL     OW40497   8.836   9.021  11.649
46824SOL    HW140498   8.903   9.033  11.575
46824SOL    HW240499   8.796   9.110  11.672
46825SOL     OW40500   8.728   8.375  11.844
46825SOL    HW140501   8.788   8.294  11.846
46825SOL    HW240502   8.768   8.444  11.784
46826SOL     OW40503   8.120   9.064  11.326
46826SOL    HW140504   8.129   9.074  11.227
46826SOL    HW240505   8.080   8.975  11.347
46827SOL     OW40506   9.098   9.168  12.566
46827SOL    HW140507   9.151   9.178  12.482
46827SOL    HW240508   9.071   9.258  12.600
46828SOL     OW40509   9.289   7.623  12.135
46828SOL    HW140510   9.328   7.538  12.099
46828SOL    HW240511   9.191   7.625  12.116
46829SOL     OW40512   7.711   7.774  11.892
46829SOL    HW140513   7.632   7.825  11.858
46829SOL    HW240514   7.702   7.759  11.990
46830SOL     OW40515   8.642   9.060  11.203
46830SOL    HW140516   8.648   8.967  11.240
46830SOL    HW240517   8.583   9.060  11.123
46831SOL     OW40518   8.270   8.450  12.544
46831SOL    HW140519   8.310   8.449  12.452
46831SOL    HW240520   8.280   8.542  12.584
46832SOL     OW40521   8.364   8.358  11.463
46832SOL    HW140522   8.427   8.396  11.395
46832SOL    HW240523   8.404   8.275  11.502
46833SOL     OW40524   8.952   9.055  11.216
46833SOL    HW140525   8.860   9.092  11.223
46833SOL    HW240526   8.990   9.075  11.126
46834SOL     OW40527   7.820   8.736  12.662
46834SOL    HW140528   7.807   8.829  12.628
46834SOL    HW240529   7.736   8.684  12.649
46835SOL     OW40530   9.062   8.740  12.461
46835SOL    HW140531   9.122   8.743  12.541
46835SOL    HW240532   8.987   8.804  12.474
46836SOL     OW40533   8.487   8.546  11.868
46836SOL    HW140534   8.417   8.499  11.922
46836SOL    HW240535   8.546   8.478  11.825
46837SOL     OW40536   8.462   7.684  12.143
46837SOL    HW140537   8.454   7.648  12.050
46837SOL    HW240538   8.460   7.608  12.208
46838SOL     OW40539   8.038   8.935  11.663
46838SOL    HW140540   8.080   8.877  11.593
46838SOL    HW240541   7.994   9.014  11.619
46839SOL     OW40542   9.157   7.833  12.553
46839SOL    HW140543   9.230   7.902  12.557
46839SOL    HW240544   9.185   7.758  12.494
46840SOL     OW40545   7.703   8.796  11.462
46840SOL    HW140546   7.607   8.797  11.435
46840SOL    HW240547   7.715   8.849  11.546
46841SOL     OW40548   7.523   7.793  11.205
46841SOL    HW140549   7.431   7.765  11.176
46841SOL    HW240550   7.554   7.870  11.149
46842SOL     OW40551   8.888   8.304  12.570
46842SOL    HW140552   8.831   8.356  12.507
46842SOL    HW240553   8.984   8.316  12.546
46843SOL     OW40554   7.520   7.614  11.490
46843SOL    HW140555   7.503   7.697  11.436
46843SOL    HW240556   7.610   7.577  11.468
46844SOL     OW40557   8.631   8.783  11.291
46844SOL    HW140558   8.532   8.772  11.293
46844SOL    HW240559   8.665   8.798  11.384
46845SOL     OW40560   8.061   8.290  12.603
46845SOL    HW140561   8.117   8.371  12.586
46845SOL    HW240562   8.120   8.210  12.606
46846SOL     OW40563   8.941   9.215  12.131
46846SOL    HW140564   8.974   9.279  12.062
46846SOL    HW240565   9.007   9.209  12.206
46847SOL     OW40566   7.838   9.189  12.732
46847SOL    HW140567   7.747   9.230  12.730
46847SOL    HW240568   7.831   9.095  12.764
46848SOL     OW40569   9.122   8.331  12.426
46848SOL    HW140570   9.095   8.242  12.389
46848SOL    HW240571   9.123   8.399  12.353
46849SOL     OW40572   8.673   7.773  11.621
46849SOL    HW140573   8.738   7.699  11.610
46849SOL    HW240574   8.693   7.823  11.705
46850SOL     OW40575   8.042   8.193  11.824
46850SOL    HW140576   8.092   8.278  11.805
46850SOL    HW240577   7.954   8.195  11.776
46851SOL     OW40578   9.225   7.790  12.814
46851SOL    HW140579   9.208   7.821  12.720
46851SOL    HW240580   9.141   7.753  12.852
46852SOL     OW40581   9.178   8.382  12.689
46852SOL    HW140582   9.216   8.473  12.704
46852SOL    HW240583   9.170   8.365  12.590
46853SOL     OW40584   8.307   8.822  11.188
46853SOL    HW140585   8.261   8.837  11.276
46853SOL    HW240586   8.351   8.907  11.158
46854SOL     OW40587   8.109   9.238  12.125
46854SOL    HW140588   8.063   9.326  12.112
46854SOL    HW240589   8.208   9.250  12.118
46855SOL     OW40590   8.307   8.404  12.033
46855SOL    HW140591   8.361   8.335  12.081
46855SOL    HW240592   8.275   8.473  12.099
46856SOL     OW40593   8.531   8.432  11.259
46856SOL    HW140594   8.508   8.485  11.177
46856SOL    HW240595   8.612   8.376  11.240
46857SOL     OW40596   9.309   9.017  12.023
46857SOL    HW140597   9.238   9.005  11.953
46857SOL    HW240598   9.310   8.938  12.083
46858SOL     OW40599   7.527   8.688  11.825
46858SOL    HW140600   7.526   8.641  11.913
46858SOL    HW240601   7.609   8.660  11.774
46859SOL     OW40602   9.272   7.640  12.399
46859SOL    HW140603   9.268   7.550  12.443
46859SOL    HW240604   9.275   7.629  12.300
46860SOL     OW40605   7.876   7.872  11.692
46860SOL    HW140606   7.906   7.800  11.630
46860SOL    HW240607   7.837   7.832  11.775
46861SOL     OW40608   9.153   8.935  12.276
46861SOL    HW140609   9.060   8.910  12.249
46861SOL    HW240610   9.179   8.885  12.358
46862SOL     OW40611   7.765   7.995  12.452
46862SOL    HW140612   7.803   7.936  12.524
46862SOL    HW240613   7.805   7.969  12.364
46863SOL     OW40614   8.260   9.034  11.859
46863SOL    HW140615   8.292   9.044  11.765
46863SOL    HW240616   8.181   8.972  11.861
46864SOL     OW40617   8.872   7.662  12.284
46864SOL    HW140618   8.924   7.597  12.339
46864SOL    HW240619   8.823   7.725  12.345
46865SOL     OW40620   8.449   7.482  12.326
46865SOL    HW140621   8.386   7.410  12.295
46865SOL    HW240622   8.542   7.446  12.326
46866SOL     OW40623   8.218   8.778  11.473
46866SOL    HW140624   8.172   8.691  11.490
46866SOL    HW240625   8.309   8.775  11.514
46867SOL     OW40626   8.066   9.015  12.456
46867SOL    HW140627   8.061   9.097  12.513
46867SOL    HW240628   8.155   9.012  12.411
46868SOL     OW40629   8.800   7.500  11.340
46868SOL    HW140630   8.835   7.459  11.256
46868SOL    HW240631   8.710   7.462  11.360
46869SOL     OW40632   8.748   7.901  11.863
46869SOL    HW140633   8.689   7.981  11.867
46869SOL    HW240634   8.763   7.866  11.956
46870SOL     OW40635   9.041   7.669  12.054
46870SOL    HW140636   8.957   7.668  12.108
46870SOL    HW240637   9.043   7.752  11.998
46871SOL     OW40638   7.487   8.525  11.472
46871SOL    HW140639   7.586   8.514  11.463
46871SOL    HW240640   7.447   8.439  11.504
46872SOL     OW40641   8.323   9.094  11.509
46872SOL    HW140642   8.246   9.059  11.455
46872SOL    HW240643   8.291   9.165  11.571
46873SOL     OW40644   7.678   9.938   0.113
46873SOL    HW140645   7.585   9.936   0.150
46873SOL    HW240646   7.679   9.899   0.021
46874SOL     OW40647   7.673   9.585   0.996
46874SOL    HW140648   7.708   9.568   1.088
46874SOL    HW240649   7.585   9.540   0.984
46875SOL     OW40650   7.467   9.678   0.647
46875SOL    HW140651   7.385   9.721   0.686
46875SOL    HW240652   7.439   9.605   0.584
46876SOL     OW40653   8.017  10.585   1.165
46876SOL    HW140654   7.924  10.578   1.128
46876SOL    HW240655   8.028  10.674   1.209
46877SOL     OW40656   9.003  10.821   0.703
46877SOL    HW140657   8.946  10.805   0.784
46877SOL    HW240658   8.944  10.831   0.623
46878SOL     OW40659   8.583  10.013   0.717
46878SOL    HW140660   8.640  10.091   0.692
46878SOL    HW240661   8.523  10.039   0.793
46879SOL     OW40662   9.203   9.917   0.231
46879SOL    HW140663   9.191   9.904   0.132
46879SOL    HW240664   9.173   9.836   0.280
46880SOL     OW40665   8.216  10.454   1.023
46880SOL    HW140666   8.138  10.471   1.083
46880SOL    HW240667   8.250  10.541   0.987
46881SOL     OW40668   8.298  10.108   1.823
46881SOL    HW140669   8.294  10.184   1.888
46881SOL    HW240670   8.320  10.144   1.732
46882SOL     OW40671   8.133  10.322   0.665
46882SOL    HW140672   8.202  10.306   0.735
46882SOL    HW240673   8.060  10.379   0.703
46883SOL     OW40674   8.134  10.471   1.803
46883SOL    HW140675   8.194  10.550   1.817
46883SOL    HW240676   8.048  10.502   1.762
46884SOL     OW40677   7.783  10.745   1.061
46884SOL    HW140678   7.705  10.714   1.008
46884SOL    HW240679   7.841  10.803   1.004
46885SOL     OW40680   8.908  10.815   1.339
46885SOL    HW140681   8.932  10.909   1.365
46885SOL    HW240682   8.892  10.761   1.421
46886SOL     OW40683   7.886   9.702   1.499
46886SOL    HW140684   7.968   9.646   1.508
46886SOL    HW240685   7.805   9.644   1.503
46887SOL     OW40686   9.051   9.757   0.737
46887SOL    HW140687   8.977   9.803   0.687
46887SOL    HW240688   9.102   9.825   0.790
46888SOL     OW40689   7.679  11.023   0.483
46888SOL    HW140690   7.713  11.100   0.537
46888SOL    HW240691   7.723  11.023   0.393
46889SOL     OW40692   8.575  10.651   1.690
46889SOL    HW140693   8.622  10.651   1.778
46889SOL    HW240694   8.527  10.564   1.679
46890SOL     OW40695   7.678  10.744   0.538
46890SOL    HW140696   7.652  10.840   0.538
46890SOL    HW240697   7.607  10.690   0.583
46891SOL     OW40698   7.688  10.401   0.886
46891SOL    HW140699   7.702  10.317   0.938
46891SOL    HW240700   7.633  10.465   0.941
46892SOL     OW40701   8.068  11.096   1.439
46892SOL    HW140702   7.976  11.079   1.474
46892SOL    HW240703   8.096  11.188   1.465
46893SOL     OW40704   8.054  10.274   0.123
46893SOL    HW140705   8.061  10.358   0.069
46893SOL    HW240706   8.100  10.287   0.211
46894SOL     OW40707   9.042   9.424   1.480
46894SOL    HW140708   9.024   9.491   1.408
46894SOL    HW240709   9.039   9.470   1.569
46895SOL     OW40710   7.570   9.953   0.563
46895SOL    HW140711   7.525   9.865   0.580
46895SOL    HW240712   7.569  10.007   0.647
46896SOL     OW40713   9.290  11.077   0.359
46896SOL    HW140714   9.344  11.048   0.439
46896SOL    HW240715   9.320  11.167   0.330
46897SOL     OW40716   7.475  10.906   0.117
46897SOL    HW140717   7.456  10.810   0.138
46897SOL    HW240718   7.442  10.964   0.192
46898SOL     OW40719   9.137  10.232   0.612
46898SOL    HW140720   9.232  10.203   0.620
46898SOL    HW240721   9.129  10.297   0.537
46899SOL     OW40722   9.089  10.418   0.432
46899SOL    HW140723   9.175  10.420   0.380
46899SOL    HW240724   9.103  10.465   0.520
46900SOL     OW40725   7.561  10.047   1.597
46900SOL    HW140726   7.649  10.034   1.642
46900SOL    HW240727   7.548  10.144   1.575
46901SOL     OW40728   8.061  10.675   0.726
46901SOL    HW140729   8.012  10.588   0.735
46901SOL    HW240730   8.038  10.718   0.639
46902SOL     OW40731   8.741  10.538   1.423
46902SOL    HW140732   8.778  10.465   1.365
46902SOL    HW240733   8.793  10.543   1.508
46903SOL     OW40734   8.257   9.314   0.502
46903SOL    HW140735   8.297   9.405   0.493
46903SOL    HW240736   8.157   9.322   0.508
46904SOL     OW40737   7.645  10.286   1.264
46904SOL    HW140738   7.734  10.241   1.250
46904SOL    HW240739   7.572  10.221   1.245
46905SOL     OW40740   8.973  10.309   0.190
46905SOL    HW140741   8.910  10.233   0.203
46905SOL    HW240742   9.021  10.327   0.276
46906SOL     OW40743   8.635  11.102   1.616
46906SOL    HW140744   8.659  11.162   1.540
46906SOL    HW240745   8.642  11.007   1.586
46907SOL     OW40746   7.765   9.561   1.801
46907SOL    HW140747   7.836   9.632   1.807
46907SOL    HW240748   7.677   9.600   1.829
46908SOL     OW40749   8.914  10.727   0.953
46908SOL    HW140750   8.855  10.733   1.033
46908SOL    HW240751   8.899  10.639   0.907
46909SOL     OW40752   9.115  11.024   0.572
46909SOL    HW140753   9.074  11.001   0.484
46909SOL    HW240754   9.097  10.950   0.637
46910SOL     OW40755   8.046  10.039   0.270
46910SOL    HW140756   8.070  10.108   0.202
46910SOL    HW240757   7.968  10.072   0.324
46911SOL     OW40758   8.729   9.655   0.944
46911SOL    HW140759   8.643   9.605   0.931
46911SOL    HW240760   8.791   9.601   1.000
46912SOL     OW40761   9.024  10.972   0.307
46912SOL    HW140762   9.113  11.018   0.310
46912SOL    HW240763   9.003  10.948   0.212
46913SOL     OW40764   8.255   9.915   1.465
46913SOL    HW140765   8.208   9.912   1.554
46913SOL    HW240766   8.204   9.860   1.399
46914SOL     OW40767   8.842   9.779   1.674
46914SOL    HW140768   8.822   9.822   1.762
46914SOL    HW240769   8.920   9.717   1.683
46915SOL     OW40770   8.421  10.200   1.572
46915SOL    HW140771   8.467  10.116   1.543
46915SOL    HW240772   8.365  10.234   1.497
46916SOL     OW40773   8.439   9.720   1.242
46916SOL    HW140774   8.362   9.754   1.296
46916SOL    HW240775   8.405   9.669   1.163
46917SOL     OW40776   8.489  10.011   0.429
46917SOL    HW140777   8.515  10.007   0.525
46917SOL    HW240778   8.404   9.960   0.415
46918SOL     OW40779   7.524  10.121   0.789
46918SOL    HW140780   7.623  10.109   0.798
46918SOL    HW240781   7.500  10.216   0.810
46919SOL     OW40782   7.578  11.131   1.571
46919SOL    HW140783   7.568  11.116   1.670
46919SOL    HW240784   7.492  11.167   1.535
46920SOL     OW40785   8.313   9.658   0.195
46920SOL    HW140786   8.372   9.721   0.146
46920SOL    HW240787   8.332   9.564   0.166
46921SOL     OW40788   9.167   9.895   1.831
46921SOL    HW140789   9.141   9.984   1.795
46921SOL    HW240790   9.165   9.827   1.758
46922SOL     OW40791   8.810  10.454   0.545
46922SOL    HW140792   8.893  10.425   0.497
46922SOL    HW240793   8.761  10.521   0.489
46923SOL     OW40794   7.998   9.506   0.885
46923SOL    HW140795   7.993   9.501   0.985
46923SOL    HW240796   8.000   9.602   0.856
46924SOL     OW40797   8.456  10.766   0.477
46924SOL    HW140798   8.410  10.838   0.425
46924SOL    HW240799   8.452  10.786   0.575
46925SOL     OW40800   7.799  11.111   0.853
46925SOL    HW140801   7.849  11.025   0.859
46925SOL    HW240802   7.864  11.188   0.850
46926SOL     OW40803   9.243  10.376   0.873
46926SOL    HW140804   9.181  10.361   0.797
46926SOL    HW240805   9.191  10.387   0.958
46927SOL     OW40806   8.675  10.860   1.506
46927SOL    HW140807   8.681  10.783   1.570
46927SOL    HW240808   8.623  10.834   1.426
46928SOL     OW40809   7.769  10.253   0.242
46928SOL    HW140810   7.851  10.292   0.200
46928SOL    HW240811   7.742  10.171   0.193
46929SOL     OW40812   8.906  10.045   0.728
46929SOL    HW140813   8.901   9.980   0.803
46929SOL    HW240814   8.986  10.104   0.741
46930SOL     OW40815   7.909  10.576   1.727
46930SOL    HW140816   7.859  10.577   1.641
46930SOL    HW240817   7.846  10.558   1.803
46931SOL     OW40818   8.559  11.086   0.237
46931SOL    HW140819   8.499  11.024   0.287
46931SOL    HW240820   8.590  11.042   0.152
46932SOL     OW40821   7.650   9.595   1.498
46932SOL    HW140822   7.570   9.655   1.485
46932SOL    HW240823   7.640   9.546   1.584
46933SOL     OW40824   9.080  10.687   0.081
46933SOL    HW140825   9.048  10.781   0.071
46933SOL    HW240826   9.004  10.624   0.069
46934SOL     OW40827   7.912  11.053   0.323
46934SOL    HW140828   7.945  11.092   0.409
46934SOL    HW240829   7.988  11.046   0.258
46935SOL     OW40830   8.848   9.417   0.426
46935SOL    HW140831   8.824   9.380   0.336
46935SOL    HW240832   8.947   9.433   0.430
46936SOL     OW40833   7.697  11.095   1.241
46936SOL    HW140834   7.754  11.030   1.291
46936SOL    HW240835   7.681  11.062   1.148
46937SOL     OW40836   8.388  11.008   0.904
46937SOL    HW140837   8.468  10.951   0.925
46937SOL    HW240838   8.339  10.968   0.827
46938SOL     OW40839   7.830  10.010   0.480
46938SOL    HW140840   7.875   9.920   0.477
46938SOL    HW240841   7.736   9.999   0.513
46939SOL     OW40842   8.995   9.532   1.729
46939SOL    HW140843   8.990   9.569   1.821
46939SOL    HW240844   8.923   9.463   1.717
46940SOL     OW40845   8.062   9.432   0.117
46940SOL    HW140846   8.160   9.410   0.124
46940SOL    HW240847   8.031   9.415   0.024
46941SOL     OW40848   8.229   9.574   1.749
46941SOL    HW140849   8.296   9.513   1.792
46941SOL    HW240850   8.156   9.593   1.814
46942SOL     OW40851   8.336  10.824   1.195
46942SOL    HW140852   8.313  10.799   1.101
46942SOL    HW240853   8.397  10.755   1.234
46943SOL     OW40854   8.799   9.900   1.433
46943SOL    HW140855   8.827   9.857   1.518
46943SOL    HW240856   8.824   9.996   1.434
46944SOL     OW40857   8.251  10.712   0.924
46944SOL    HW140858   8.341  10.726   0.882
46944SOL    HW240859   8.180  10.714   0.853
46945SOL     OW40860   8.370   9.813   0.899
46945SOL    HW140861   8.345   9.804   0.803
46945SOL    HW240862   8.418   9.731   0.930
46946SOL     OW40863   7.987   9.374   0.512
46946SOL    HW140864   7.906   9.375   0.570
46946SOL    HW240865   7.990   9.457   0.457
46947SOL     OW40866   8.882  10.498   0.041
46947SOL    HW140867   8.914  10.422   0.098
46947SOL    HW240868   8.790  10.525   0.071
46948SOL     OW40869   7.745   9.345   0.171
46948SOL    HW140870   7.794   9.429   0.150
46948SOL    HW240871   7.807   9.280   0.216
46949SOL     OW40872   8.383   9.546   0.480
46949SOL    HW140873   8.335   9.587   0.402
46949SOL    HW240874   8.482   9.544   0.461
46950SOL     OW40875   8.524   9.993   1.464
46950SOL    HW140876   8.444   9.932   1.467
46950SOL    HW240877   8.605   9.940   1.440
46951SOL     OW40878   8.675  10.880   0.793
46951SOL    HW140879   8.696  10.954   0.728
46951SOL    HW240880   8.743  10.880   0.866
46952SOL     OW40881   7.907  10.462   0.741
46952SOL    HW140882   7.836  10.435   0.806
46952SOL    HW240883   7.881  10.434   0.648
46953SOL     OW40884   8.719  11.107   0.591
46953SOL    HW140885   8.763  11.171   0.527
46953SOL    HW240886   8.669  11.159   0.661
46954SOL     OW40887   8.480   9.859   0.016
46954SOL    HW140888   8.439   9.941  -0.023
46954SOL    HW240889   8.544   9.885   0.089
46955SOL     OW40890   7.526   9.866   1.386
46955SOL    HW140891   7.618   9.865   1.345
46955SOL    HW240892   7.520   9.940   1.453
46956SOL     OW40893   8.009   9.532   1.147
46956SOL    HW140894   8.047   9.448   1.184
46956SOL    HW240895   7.921   9.551   1.191
46957SOL     OW40896   8.314   9.764   0.642
46957SOL    HW140897   8.282   9.836   0.580
46957SOL    HW240898   8.338   9.683   0.589
46958SOL     OW40899   8.465   9.349   0.753
46958SOL    HW140900   8.393   9.354   0.684
46958SOL    HW240901   8.441   9.280   0.822
46959SOL     OW40902   8.877  10.483   0.867
46959SOL    HW140903   8.822  10.399   0.860
46959SOL    HW240904   8.903  10.512   0.775
46960SOL     OW40905   8.914   9.900   0.992
46960SOL    HW140906   8.884   9.805   0.999
46960SOL    HW240907   8.987   9.916   1.058
46961SOL     OW40908   9.305  10.143   0.377
46961SOL    HW140909   9.347  10.079   0.441
46961SOL    HW240910   9.267  10.092   0.299
46962SOL     OW40911   7.936  10.695   0.174
46962SOL    HW140912   7.849  10.680   0.221
46962SOL    HW240913   7.919  10.721   0.079
46963SOL     OW40914   9.112  10.590   0.657
46963SOL    HW140915   9.211  10.598   0.671
46963SOL    HW240916   9.067  10.674   0.688
46964SOL     OW40917   8.838   9.885   0.078
46964SOL    HW140918   8.784   9.864   0.159
46964SOL    HW240919   8.929   9.844   0.087
46965SOL     OW40920   7.975   9.566   0.328
46965SOL    HW140921   8.002   9.507   0.253
46965SOL    HW240922   7.975   9.661   0.297
46966SOL     OW40923   9.202  10.533   1.588
46966SOL    HW140924   9.293  10.494   1.575
46966SOL    HW240925   9.210  10.629   1.612
46967SOL     OW40926   8.512  10.657   1.340
46967SOL    HW140927   8.432  10.634   1.395
46967SOL    HW240928   8.595  10.631   1.389
46968SOL     OW40929   9.040  10.939   1.625
46968SOL    HW140930   9.067  10.973   1.535
46968SOL    HW240931   9.119  10.901   1.671
46969SOL     OW40932   8.559  10.505   1.100
46969SOL    HW140933   8.519  10.549   1.181
46969SOL    HW240934   8.518  10.542   1.017
46970SOL     OW40935   9.086  10.409   1.079
46970SOL    HW140936   9.091  10.490   1.138
46970SOL    HW240937   9.000  10.411   1.028
46971SOL     OW40938   8.363   9.399   1.402
46971SOL    HW140939   8.388   9.379   1.307
46971SOL    HW240940   8.435   9.455   1.444
46972SOL     OW40941   8.428  10.426   1.719
46972SOL    HW140942   8.329  10.432   1.729
46972SOL    HW240943   8.451  10.346   1.663
46973SOL     OW40944   8.153  10.360   0.368
46973SOL    HW140945   8.139  10.367   0.467
46973SOL    HW240946   8.237  10.309   0.350
46974SOL     OW40947   7.858  10.123   1.251
46974SOL    HW140948   7.944  10.135   1.301
46974SOL    HW240949   7.816  10.036   1.278
46975SOL     OW40950   8.722   9.696   1.262
46975SOL    HW140951   8.743   9.770   1.326
46975SOL    HW240952   8.633   9.713   1.219
46976SOL     OW40953   7.512  10.874   1.331
46976SOL    HW140954   7.466  10.956   1.297
46976SOL    HW240955   7.610  10.893   1.340
46977SOL     OW40956   7.815  10.410   0.501
46977SOL    HW140957   7.808  10.493   0.445
46977SOL    HW240958   7.819  10.330   0.441
46978SOL     OW40959   8.014   9.847   0.865
46978SOL    HW140960   8.026   9.913   0.791
46978SOL    HW240961   8.060   9.881   0.948
46979SOL     OW40962   8.700  10.658   0.388
46979SOL    HW140963   8.750  10.735   0.428
46979SOL    HW240964   8.605  10.660   0.420
46980SOL     OW40965   8.720  10.755   1.142
46980SOL    HW140966   8.767  10.768   1.229
46980SOL    HW240967   8.654  10.681   1.151
46981SOL     OW40968   9.030   9.949   0.472
46981SOL    HW140969   8.999  10.010   0.545
46981SOL    HW240970   9.080  10.001   0.403
46982SOL     OW40971   7.802  10.820   1.329
46982SOL    HW140972   7.781  10.776   1.242
46982SOL    HW240973   7.899  10.846   1.332
46983SOL     OW40974   7.850  10.061   1.598
46983SOL    HW140975   7.918  10.116   1.551
46983SOL    HW240976   7.890   9.973   1.625
46984SOL     OW40977   9.035  10.089   1.670
46984SOL    HW140978   8.943  10.127   1.665
46984SOL    HW240979   9.095  10.136   1.605
46985SOL     OW40980   8.461   9.415   1.770
46985SOL    HW140981   8.467   9.500   1.718
46985SOL    HW240982   8.493   9.339   1.713
46986SOL     OW40983   7.952   9.360   1.740
46986SOL    HW140984   7.910   9.303   1.670
46986SOL    HW240985   7.886   9.429   1.772
46987SOL     OW40986   8.021  10.180   1.029
46987SOL    HW140987   8.065  10.269   1.020
46987SOL    HW240988   7.958  10.180   1.106
46988SOL     OW40989   8.808  10.172   1.045
46988SOL    HW140990   8.733  10.172   0.979
46988SOL    HW240991   8.845  10.080   1.054
46989SOL     OW40992   8.657   9.835   0.275
46989SOL    HW140993   8.670   9.751   0.329
46989SOL    HW240994   8.628   9.909   0.335
46990SOL     OW40995   7.755   9.523   1.231
46990SOL    HW140996   7.732   9.560   1.321
46990SOL    HW240997   7.725   9.428   1.225
46991SOL     OW40998   7.485  10.620   1.282
46991SOL    HW140999   7.538  10.571   1.350
46991SOL    HW241000   7.507  10.718   1.287
46992SOL     OW41001   8.180   9.944   1.064
46992SOL    HW141002   8.239   9.918   0.988
46992SOL    HW241003   8.152  10.040   1.053
46993SOL     OW41004   9.176  10.245   1.854
46993SOL    HW141005   9.130  10.238   1.765
46993SOL    HW241006   9.114  10.289   1.920
46994SOL     OW41007   7.755   9.373   0.618
46994SOL    HW141008   7.744   9.467   0.651
46994SOL    HW241009   7.750   9.310   0.695
46995SOL     OW41010   9.070   9.677   0.374
46995SOL    HW141011   9.072   9.601   0.438
46995SOL    HW241012   9.022   9.754   0.414
46996SOL     OW41013   8.471  10.076   0.966
46996SOL    HW141014   8.486  10.097   1.062
46996SOL    HW241015   8.441   9.981   0.957
46997SOL     OW41016   8.428  10.883   1.700
46997SOL    HW141017   8.408  10.927   1.612
46997SOL    HW241018   8.467  10.792   1.684
46998SOL     OW41019   9.307  10.828   1.605
46998SOL    HW141020   9.321  10.855   1.510
46998SOL    HW241021   9.390  10.850   1.658
46999SOL     OW41022   7.798  10.208   1.804
46999SOL    HW141023   7.874  10.252   1.852
46999SOL    HW241024   7.833  10.161   1.722
47000SOL     OW41025   8.988   9.584   0.125
47000SOL    HW141026   8.927   9.509   0.148
47000SOL    HW241027   9.010   9.636   0.208
47001SOL     OW41028   8.751  10.148   0.042
47001SOL    HW141029   8.785  10.055   0.057
47001SOL    HW241030   8.769  10.175  -0.053
47002SOL     OW41031   8.516  10.643   0.849
47002SOL    HW141032   8.523  10.559   0.794
47002SOL    HW241033   8.578  10.712   0.813
47003SOL     OW41034   7.767  10.120   0.949
47003SOL    HW141035   7.860  10.156   0.954
47003SOL    HW241036   7.761  10.035   1.001
47004SOL     OW41037   7.787   9.819   1.006
47004SOL    HW141038   7.735   9.736   0.989
47004SOL    HW241039   7.864   9.824   0.942
47005SOL     OW41040   8.586   9.690   1.678
47005SOL    HW141041   8.541   9.753   1.742
47005SOL    HW241042   8.679   9.721   1.661
47006SOL     OW41043   8.608   9.517   1.477
47006SOL    HW141044   8.608   9.581   1.554
47006SOL    HW241045   8.636   9.565   1.394
47007SOL     OW41046   7.456  10.636   0.200
47007SOL    HW141047   7.363  10.657   0.169
47007SOL    HW241048   7.466  10.537   0.213
47008SOL     OW41049   7.536  11.111   0.927
47008SOL    HW141050   7.494  11.025   0.900
47008SOL    HW241051   7.630  11.114   0.893
47009SOL     OW41052   7.952  10.878   0.910
47009SOL    HW141053   8.018  10.952   0.919
47009SOL    HW241054   7.996  10.799   0.868
47010SOL     OW41055   8.450  10.106   1.238
47010SOL    HW141056   8.491  10.074   1.324
47010SOL    HW241057   8.354  10.079   1.235
47011SOL     OW41058   7.488   9.854   1.114
47011SOL    HW141059   7.573   9.821   1.073
47011SOL    HW241060   7.501   9.869   1.212
47012SOL     OW41061   7.637   9.830   1.722
47012SOL    HW141062   7.696   9.790   1.652
47012SOL    HW241063   7.579   9.901   1.681
47013SOL     OW41064   8.817  10.260   1.660
47013SOL    HW141065   8.856  10.349   1.680
47013SOL    HW241066   8.827  10.240   1.563
47014SOL     OW41067   8.263   9.882   0.325
47014SOL    HW141068   8.270   9.793   0.279
47014SOL    HW241069   8.169   9.916   0.317
47015SOL     OW41070   9.105   9.914   1.206
47015SOL    HW141071   9.067   9.845   1.268
47015SOL    HW241072   9.187   9.878   1.162
47016SOL     OW41073   7.700  10.874   1.744
47016SOL    HW141074   7.670  10.931   1.820
47016SOL    HW241075   7.693  10.777   1.770
47017SOL     OW41076   8.119   9.774   1.269
47017SOL    HW141077   8.085   9.685   1.239
47017SOL    HW241078   8.145   9.828   1.189
47018SOL     OW41079   8.378  10.988   1.465
47018SOL    HW141080   8.354  10.970   1.370
47018SOL    HW241081   8.408  11.082   1.475
47019SOL     OW41082   7.921   9.810   0.191
47019SOL    HW141083   7.982   9.890   0.195
47019SOL    HW241084   7.826   9.841   0.198
47020SOL     OW41085   7.607  10.447   1.466
47020SOL    HW141086   7.629  10.386   1.542
47020SOL    HW241087   7.617  10.398   1.380
47021SOL     OW41088   8.795  10.369   1.234
47021SOL    HW141089   8.819  10.306   1.160
47021SOL    HW241090   8.705  10.409   1.216
47022SOL     OW41091   8.750  10.165   0.309
47022SOL    HW141092   8.664  10.134   0.351
47022SOL    HW241093   8.746  10.151   0.210
47023SOL     OW41094   9.207  11.057   1.154
47023SOL    HW141095   9.268  11.087   1.081
47023SOL    HW241096   9.169  10.968   1.132
47024SOL     OW41097   8.700  11.041   1.128
47024SOL    HW141098   8.784  11.046   1.074
47024SOL    HW241099   8.677  10.945   1.146
47025SOL     OW41100   7.531  10.568   1.022
47025SOL    HW141101   7.526  10.567   1.122
47025SOL    HW241102   7.448  10.527   0.984
47026SOL     OW41103   8.136  10.972   1.716
47026SOL    HW141104   8.080  11.053   1.725
47026SOL    HW241105   8.188  10.976   1.630
47027SOL     OW41106   8.351   9.396   0.133
47027SOL    HW141107   8.402   9.397   0.047
47027SOL    HW241108   8.407   9.354   0.204
47028SOL     OW41109   9.174   9.445   0.523
47028SOL    HW141110   9.247   9.428   0.456
47028SOL    HW241111   9.143   9.358   0.561
47029SOL     OW41112   8.836  10.883   0.477
47029SOL    HW141113   8.903  10.895   0.403
47029SOL    HW241114   8.796  10.972   0.500
47030SOL     OW41115   7.578  11.104   1.851
47030SOL    HW141116   7.537  11.030   1.904
47030SOL    HW241117   7.642  11.155   1.909
47031SOL     OW41118   8.728  10.237   0.672
47031SOL    HW141119   8.788  10.156   0.674
47031SOL    HW241120   8.768  10.306   0.612
47032SOL     OW41121   8.278  10.583   1.422
47032SOL    HW141122   8.273  10.616   1.517
47032SOL    HW241123   8.192  10.602   1.376
47033SOL     OW41124   8.120  10.926   0.154
47033SOL    HW141125   8.129  10.936   0.055
47033SOL    HW241126   8.080  10.837   0.175
47034SOL     OW41127   9.098  11.030   1.394
47034SOL    HW141128   9.151  11.040   1.310
47034SOL    HW241129   9.071  11.120   1.428
47035SOL     OW41130   9.289   9.485   0.963
47035SOL    HW141131   9.328   9.400   0.927
47035SOL    HW241132   9.191   9.487   0.944
47036SOL     OW41133   7.711   9.636   0.720
47036SOL    HW141134   7.632   9.687   0.686
47036SOL    HW241135   7.702   9.621   0.818
47037SOL     OW41136   8.642  10.922   0.031
47037SOL    HW141137   8.648  10.829   0.068
47037SOL    HW241138   8.583  10.922  -0.049
47038SOL     OW41139   8.270  10.312   1.372
47038SOL    HW141140   8.310  10.311   1.280
47038SOL    HW241141   8.280  10.404   1.412
47039SOL     OW41142   8.364  10.220   0.291
47039SOL    HW141143   8.427  10.258   0.223
47039SOL    HW241144   8.404  10.137   0.330
47040SOL     OW41145   8.952  10.917   0.044
47040SOL    HW141146   8.860  10.954   0.051
47040SOL    HW241147   8.990  10.937  -0.046
47041SOL     OW41148   7.820  10.598   1.490
47041SOL    HW141149   7.807  10.691   1.456
47041SOL    HW241150   7.736  10.546   1.477
47042SOL     OW41151   9.062  10.602   1.289
47042SOL    HW141152   9.122  10.605   1.369
47042SOL    HW241153   8.987  10.666   1.302
47043SOL     OW41154   8.487  10.408   0.696
47043SOL    HW141155   8.417  10.361   0.750
47043SOL    HW241156   8.546  10.340   0.653
47044SOL     OW41157   8.462   9.546   0.971
47044SOL    HW141158   8.454   9.510   0.878
47044SOL    HW241159   8.460   9.470   1.036
47045SOL     OW41160   8.038  10.797   0.491
47045SOL    HW141161   8.080  10.739   0.421
47045SOL    HW241162   7.994  10.876   0.447
47046SOL     OW41163   9.157   9.695   1.381
47046SOL    HW141164   9.230   9.764   1.385
47046SOL    HW241165   9.185   9.620   1.322
47047SOL     OW41166   7.703  10.658   0.290
47047SOL    HW141167   7.607  10.659   0.263
47047SOL    HW241168   7.715  10.711   0.374
47048SOL     OW41169   7.553  10.323   1.726
47048SOL    HW141170   7.476  10.290   1.780
47048SOL    HW241171   7.638  10.293   1.768
47049SOL     OW41172   8.120   9.513   1.489
47049SOL    HW141173   8.210   9.497   1.449
47049SOL    HW241174   8.128   9.518   1.588
47050SOL     OW41175   8.888  10.166   1.398
47050SOL    HW141176   8.831  10.218   1.335
47050SOL    HW241177   8.984  10.178   1.374
47051SOL     OW41178   7.520   9.476   0.318
47051SOL    HW141179   7.503   9.559   0.264
47051SOL    HW241180   7.610   9.439   0.296
47052SOL     OW41181   8.631  10.645   0.119
47052SOL    HW141182   8.532  10.634   0.121
47052SOL    HW241183   8.665  10.660   0.212
47053SOL     OW41184   8.061  10.152   1.431
47053SOL    HW141185   8.117  10.233   1.414
47053SOL    HW241186   8.120  10.072   1.434
47054SOL     OW41187   8.941  11.077   0.959
47054SOL    HW141188   8.974  11.141   0.890
47054SOL    HW241189   9.007  11.071   1.034
47055SOL     OW41190   8.164   9.875   1.708
47055SOL    HW141191   8.183   9.940   1.782
47055SOL    HW241192   8.224   9.795   1.717
47056SOL     OW41193   8.898  10.530   1.633
47056SOL    HW141194   8.889  10.520   1.732
47056SOL    HW241195   8.994  10.523   1.607
47057SOL     OW41196   7.838  11.051   1.560
47057SOL    HW141197   7.747  11.092   1.558
47057SOL    HW241198   7.831  10.957   1.592
47058SOL     OW41199   9.122  10.193   1.254
47058SOL    HW141200   9.095  10.104   1.217
47058SOL    HW241201   9.123  10.261   1.181
47059SOL     OW41202   8.673   9.635   0.449
47059SOL    HW141203   8.738   9.561   0.438
47059SOL    HW241204   8.693   9.685   0.533
47060SOL     OW41205   8.042  10.055   0.652
47060SOL    HW141206   8.092  10.140   0.633
47060SOL    HW241207   7.954  10.057   0.604
47061SOL     OW41208   9.225   9.652   1.642
47061SOL    HW141209   9.208   9.683   1.548
47061SOL    HW241210   9.141   9.615   1.680
47062SOL     OW41211   9.178  10.244   1.517
47062SOL    HW141212   9.216  10.335   1.532
47062SOL    HW241213   9.170  10.227   1.418
47063SOL     OW41214   8.307  10.684   0.016
47063SOL    HW141215   8.261  10.699   0.104
47063SOL    HW241216   8.351  10.769  -0.014
47064SOL     OW41217   8.109  11.100   0.953
47064SOL    HW141218   8.063  11.188   0.940
47064SOL    HW241219   8.208  11.112   0.946
47065SOL     OW41220   8.307  10.266   0.861
47065SOL    HW141221   8.361  10.197   0.909
47065SOL    HW241222   8.275  10.335   0.927
47066SOL     OW41223   8.531  10.294   0.087
47066SOL    HW141224   8.508  10.347   0.005
47066SOL    HW241225   8.612  10.238   0.068
47067SOL     OW41226   9.309  10.879   0.851
47067SOL    HW141227   9.238  10.867   0.781
47067SOL    HW241228   9.310  10.800   0.911
47068SOL     OW41229   7.669  10.624   1.844
47068SOL    HW141230   7.604  10.551   1.823
47068SOL    HW241231   7.673  10.638   1.942
47069SOL     OW41232   7.527  10.550   0.653
47069SOL    HW141233   7.526  10.503   0.741
47069SOL    HW241234   7.609  10.522   0.602
47070SOL     OW41235   8.120  10.701   1.624
47070SOL    HW141236   8.042  10.651   1.662
47070SOL    HW241237   8.117  10.796   1.655
47071SOL     OW41238   9.272   9.502   1.227
47071SOL    HW141239   9.268   9.412   1.271
47071SOL    HW241240   9.275   9.491   1.128
47072SOL     OW41241   7.876   9.734   0.520
47072SOL    HW141242   7.906   9.662   0.458
47072SOL    HW241243   7.837   9.694   0.603
47073SOL     OW41244   9.153  10.797   1.104
47073SOL    HW141245   9.060  10.772   1.077
47073SOL    HW241246   9.179  10.747   1.186
47074SOL     OW41247   7.765   9.857   1.280
47074SOL    HW141248   7.803   9.798   1.352
47074SOL    HW241249   7.805   9.831   1.192
47075SOL     OW41250   8.260  10.896   0.687
47075SOL    HW141251   8.292  10.906   0.593
47075SOL    HW241252   8.181  10.834   0.689
47076SOL     OW41253   8.872   9.524   1.112
47076SOL    HW141254   8.924   9.459   1.167
47076SOL    HW241255   8.823   9.587   1.173
47077SOL     OW41256   8.449   9.344   1.154
47077SOL    HW141257   8.386   9.272   1.123
47077SOL    HW241258   8.542   9.308   1.154
47078SOL     OW41259   8.218  10.640   0.301
47078SOL    HW141260   8.172  10.553   0.318
47078SOL    HW241261   8.309  10.637   0.342
47079SOL     OW41262   8.066  10.877   1.284
47079SOL    HW141263   8.061  10.959   1.341
47079SOL    HW241264   8.155  10.874   1.239
47080SOL     OW41265   8.800   9.362   0.168
47080SOL    HW141266   8.835   9.321   0.084
47080SOL    HW241267   8.710   9.324   0.188
47081SOL     OW41268   8.748   9.763   0.691
47081SOL    HW141269   8.689   9.843   0.695
47081SOL    HW241270   8.763   9.728   0.784
47082SOL     OW41271   9.041   9.531   0.882
47082SOL    HW141272   8.957   9.530   0.936
47082SOL    HW241273   9.043   9.614   0.826
47083SOL     OW41274   7.487  10.387   0.300
47083SOL    HW141275   7.586  10.376   0.291
47083SOL    HW241276   7.447  10.301   0.332
47084SOL     OW41277   8.323  10.956   0.337
47084SOL    HW141278   8.246  10.921   0.283
47084SOL    HW241279   8.291  11.027   0.399
47085SOL     OW41280   7.678   9.938   1.975
47085SOL    HW141281   7.585   9.936   2.012
47085SOL    HW241282   7.679   9.899   1.883
47086SOL     OW41283   7.673   9.585   2.858
47086SOL    HW141284   7.708   9.568   2.950
47086SOL    HW241285   7.585   9.540   2.846
47087SOL     OW41286   7.467   9.678   2.509
47087SOL    HW141287   7.385   9.721   2.548
47087SOL    HW241288   7.439   9.605   2.446
47088SOL     OW41289   8.017  10.585   3.027
47088SOL    HW141290   7.924  10.578   2.990
47088SOL    HW241291   8.028  10.674   3.071
47089SOL     OW41292   9.003  10.821   2.565
47089SOL    HW141293   8.946  10.805   2.646
47089SOL    HW241294   8.944  10.831   2.485
47090SOL     OW41295   8.583  10.013   2.579
47090SOL    HW141296   8.640  10.091   2.554
47090SOL    HW241297   8.523  10.039   2.655
47091SOL     OW41298   9.203   9.917   2.093
47091SOL    HW141299   9.191   9.904   1.994
47091SOL    HW241300   9.173   9.836   2.142
47092SOL     OW41301   8.216  10.454   2.885
47092SOL    HW141302   8.138  10.471   2.945
47092SOL    HW241303   8.250  10.541   2.849
47093SOL     OW41304   8.298  10.108   3.685
47093SOL    HW141305   8.294  10.184   3.750
47093SOL    HW241306   8.320  10.144   3.594
47094SOL     OW41307   8.133  10.322   2.527
47094SOL    HW141308   8.202  10.306   2.597
47094SOL    HW241309   8.060  10.379   2.565
47095SOL     OW41310   8.134  10.471   3.665
47095SOL    HW141311   8.194  10.550   3.679
47095SOL    HW241312   8.048  10.502   3.624
47096SOL     OW41313   7.783  10.745   2.923
47096SOL    HW141314   7.705  10.714   2.870
47096SOL    HW241315   7.841  10.803   2.866
47097SOL     OW41316   8.908  10.815   3.201
47097SOL    HW141317   8.932  10.909   3.227
47097SOL    HW241318   8.892  10.761   3.283
47098SOL     OW41319   7.886   9.702   3.361
47098SOL    HW141320   7.968   9.646   3.370
47098SOL    HW241321   7.805   9.644   3.365
47099SOL     OW41322   9.051   9.757   2.599
47099SOL    HW141323   8.977   9.803   2.549
47099SOL    HW241324   9.102   9.825   2.652
47100SOL     OW41325   7.679  11.023   2.345
47100SOL    HW141326   7.713  11.100   2.399
47100SOL    HW241327   7.723  11.023   2.255
47101SOL     OW41328   8.575  10.651   3.552
47101SOL    HW141329   8.622  10.651   3.640
47101SOL    HW241330   8.527  10.564   3.541
47102SOL     OW41331   7.678  10.744   2.400
47102SOL    HW141332   7.652  10.840   2.400
47102SOL    HW241333   7.607  10.690   2.445
47103SOL     OW41334   7.688  10.401   2.748
47103SOL    HW141335   7.702  10.317   2.800
47103SOL    HW241336   7.633  10.465   2.803
47104SOL     OW41337   8.068  11.096   3.301
47104SOL    HW141338   7.976  11.079   3.336
47104SOL    HW241339   8.096  11.188   3.327
47105SOL     OW41340   8.054  10.274   1.985
47105SOL    HW141341   8.061  10.358   1.931
47105SOL    HW241342   8.100  10.287   2.073
47106SOL     OW41343   9.042   9.424   3.342
47106SOL    HW141344   9.024   9.491   3.270
47106SOL    HW241345   9.039   9.470   3.431
47107SOL     OW41346   7.570   9.953   2.425
47107SOL    HW141347   7.525   9.865   2.442
47107SOL    HW241348   7.569  10.007   2.509
47108SOL     OW41349   9.290  11.077   2.221
47108SOL    HW141350   9.344  11.048   2.301
47108SOL    HW241351   9.320  11.167   2.192
47109SOL     OW41352   7.475  10.906   1.979
47109SOL    HW141353   7.456  10.810   2.000
47109SOL    HW241354   7.442  10.964   2.054
47110SOL     OW41355   9.137  10.232   2.474
47110SOL    HW141356   9.232  10.203   2.482
47110SOL    HW241357   9.129  10.297   2.399
47111SOL     OW41358   9.089  10.418   2.294
47111SOL    HW141359   9.175  10.420   2.242
47111SOL    HW241360   9.103  10.465   2.382
47112SOL     OW41361   7.561  10.047   3.459
47112SOL    HW141362   7.649  10.034   3.504
47112SOL    HW241363   7.548  10.144   3.437
47113SOL     OW41364   8.061  10.675   2.588
47113SOL    HW141365   8.012  10.588   2.597
47113SOL    HW241366   8.038  10.718   2.501
47114SOL     OW41367   8.741  10.538   3.285
47114SOL    HW141368   8.778  10.465   3.227
47114SOL    HW241369   8.793  10.543   3.370
47115SOL     OW41370   8.257   9.314   2.364
47115SOL    HW141371   8.297   9.405   2.355
47115SOL    HW241372   8.157   9.322   2.370
47116SOL     OW41373   7.645  10.286   3.126
47116SOL    HW141374   7.734  10.241   3.112
47116SOL    HW241375   7.572  10.221   3.107
47117SOL     OW41376   8.973  10.309   2.052
47117SOL    HW141377   8.910  10.233   2.065
47117SOL    HW241378   9.021  10.327   2.138
47118SOL     OW41379   8.635  11.102   3.478
47118SOL    HW141380   8.659  11.162   3.402
47118SOL    HW241381   8.642  11.007   3.448
47119SOL     OW41382   7.765   9.561   3.663
47119SOL    HW141383   7.836   9.632   3.669
47119SOL    HW241384   7.677   9.600   3.691
47120SOL     OW41385   8.914  10.727   2.815
47120SOL    HW141386   8.855  10.733   2.895
47120SOL    HW241387   8.899  10.639   2.769
47121SOL     OW41388   9.115  11.024   2.434
47121SOL    HW141389   9.074  11.001   2.346
47121SOL    HW241390   9.097  10.950   2.499
47122SOL     OW41391   8.046  10.039   2.132
47122SOL    HW141392   8.070  10.108   2.064
47122SOL    HW241393   7.968  10.072   2.186
47123SOL     OW41394   8.729   9.655   2.806
47123SOL    HW141395   8.643   9.605   2.793
47123SOL    HW241396   8.791   9.601   2.862
47124SOL     OW41397   9.024  10.972   2.169
47124SOL    HW141398   9.113  11.018   2.172
47124SOL    HW241399   9.003  10.948   2.074
47125SOL     OW41400   8.255   9.915   3.327
47125SOL    HW141401   8.208   9.912   3.416
47125SOL    HW241402   8.204   9.860   3.261
47126SOL     OW41403   8.842   9.779   3.536
47126SOL    HW141404   8.822   9.822   3.624
47126SOL    HW241405   8.920   9.717   3.545
47127SOL     OW41406   8.421  10.200   3.434
47127SOL    HW141407   8.467  10.116   3.405
47127SOL    HW241408   8.365  10.234   3.359
47128SOL     OW41409   8.439   9.720   3.104
47128SOL    HW141410   8.362   9.754   3.158
47128SOL    HW241411   8.405   9.669   3.025
47129SOL     OW41412   8.489  10.011   2.291
47129SOL    HW141413   8.515  10.007   2.387
47129SOL    HW241414   8.404   9.960   2.277
47130SOL     OW41415   7.524  10.121   2.651
47130SOL    HW141416   7.623  10.109   2.660
47130SOL    HW241417   7.500  10.216   2.672
47131SOL     OW41418   7.578  11.131   3.433
47131SOL    HW141419   7.568  11.116   3.532
47131SOL    HW241420   7.492  11.167   3.397
47132SOL     OW41421   8.313   9.658   2.057
47132SOL    HW141422   8.372   9.721   2.008
47132SOL    HW241423   8.332   9.564   2.028
47133SOL     OW41424   9.167   9.895   3.693
47133SOL    HW141425   9.141   9.984   3.657
47133SOL    HW241426   9.165   9.827   3.620
47134SOL     OW41427   8.810  10.454   2.407
47134SOL    HW141428   8.893  10.425   2.359
47134SOL    HW241429   8.761  10.521   2.351
47135SOL     OW41430   7.998   9.506   2.747
47135SOL    HW141431   7.993   9.501   2.847
47135SOL    HW241432   8.000   9.602   2.718
47136SOL     OW41433   8.456  10.766   2.339
47136SOL    HW141434   8.410  10.838   2.287
47136SOL    HW241435   8.452  10.786   2.437
47137SOL     OW41436   7.799  11.111   2.715
47137SOL    HW141437   7.849  11.025   2.721
47137SOL    HW241438   7.864  11.188   2.712
47138SOL     OW41439   9.243  10.376   2.735
47138SOL    HW141440   9.181  10.361   2.659
47138SOL    HW241441   9.191  10.387   2.820
47139SOL     OW41442   8.675  10.860   3.368
47139SOL    HW141443   8.681  10.783   3.432
47139SOL    HW241444   8.623  10.834   3.288
47140SOL     OW41445   7.769  10.253   2.104
47140SOL    HW141446   7.851  10.292   2.062
47140SOL    HW241447   7.742  10.171   2.055
47141SOL     OW41448   8.906  10.045   2.590
47141SOL    HW141449   8.901   9.980   2.665
47141SOL    HW241450   8.986  10.104   2.603
47142SOL     OW41451   7.909  10.576   3.589
47142SOL    HW141452   7.859  10.577   3.503
47142SOL    HW241453   7.846  10.558   3.665
47143SOL     OW41454   8.559  11.086   2.099
47143SOL    HW141455   8.499  11.024   2.149
47143SOL    HW241456   8.590  11.042   2.014
47144SOL     OW41457   7.650   9.595   3.360
47144SOL    HW141458   7.570   9.655   3.347
47144SOL    HW241459   7.640   9.546   3.446
47145SOL     OW41460   9.080  10.687   1.943
47145SOL    HW141461   9.048  10.781   1.933
47145SOL    HW241462   9.004  10.624   1.931
47146SOL     OW41463   7.912  11.053   2.185
47146SOL    HW141464   7.945  11.092   2.271
47146SOL    HW241465   7.988  11.046   2.120
47147SOL     OW41466   8.848   9.417   2.288
47147SOL    HW141467   8.824   9.380   2.198
47147SOL    HW241468   8.947   9.433   2.292
47148SOL     OW41469   7.697  11.095   3.103
47148SOL    HW141470   7.754  11.030   3.153
47148SOL    HW241471   7.681  11.062   3.010
47149SOL     OW41472   8.388  11.008   2.766
47149SOL    HW141473   8.468  10.951   2.787
47149SOL    HW241474   8.339  10.968   2.689
47150SOL     OW41475   7.830  10.010   2.342
47150SOL    HW141476   7.875   9.920   2.339
47150SOL    HW241477   7.736   9.999   2.375
47151SOL     OW41478   8.995   9.532   3.591
47151SOL    HW141479   8.990   9.569   3.683
47151SOL    HW241480   8.923   9.463   3.579
47152SOL     OW41481   8.062   9.432   1.979
47152SOL    HW141482   8.160   9.410   1.986
47152SOL    HW241483   8.031   9.415   1.886
47153SOL     OW41484   8.229   9.574   3.611
47153SOL    HW141485   8.296   9.513   3.654
47153SOL    HW241486   8.156   9.593   3.676
47154SOL     OW41487   8.336  10.824   3.057
47154SOL    HW141488   8.313  10.799   2.963
47154SOL    HW241489   8.397  10.755   3.096
47155SOL     OW41490   8.799   9.900   3.295
47155SOL    HW141491   8.827   9.857   3.380
47155SOL    HW241492   8.824   9.996   3.296
47156SOL     OW41493   8.251  10.712   2.786
47156SOL    HW141494   8.341  10.726   2.744
47156SOL    HW241495   8.180  10.714   2.715
47157SOL     OW41496   8.370   9.813   2.761
47157SOL    HW141497   8.345   9.804   2.665
47157SOL    HW241498   8.418   9.731   2.792
47158SOL     OW41499   7.987   9.374   2.374
47158SOL    HW141500   7.906   9.375   2.432
47158SOL    HW241501   7.990   9.457   2.319
47159SOL     OW41502   8.882  10.498   1.903
47159SOL    HW141503   8.914  10.422   1.960
47159SOL    HW241504   8.790  10.525   1.933
47160SOL     OW41505   7.745   9.345   2.033
47160SOL    HW141506   7.794   9.429   2.012
47160SOL    HW241507   7.807   9.280   2.078
47161SOL     OW41508   8.383   9.546   2.342
47161SOL    HW141509   8.335   9.587   2.264
47161SOL    HW241510   8.482   9.544   2.323
47162SOL     OW41511   8.524   9.993   3.326
47162SOL    HW141512   8.444   9.932   3.329
47162SOL    HW241513   8.605   9.940   3.302
47163SOL     OW41514   8.675  10.880   2.655
47163SOL    HW141515   8.696  10.954   2.590
47163SOL    HW241516   8.743  10.880   2.728
47164SOL     OW41517   7.907  10.462   2.603
47164SOL    HW141518   7.836  10.435   2.668
47164SOL    HW241519   7.881  10.434   2.510
47165SOL     OW41520   8.719  11.107   2.453
47165SOL    HW141521   8.763  11.171   2.389
47165SOL    HW241522   8.669  11.159   2.523
47166SOL     OW41523   8.480   9.859   1.878
47166SOL    HW141524   8.439   9.941   1.839
47166SOL    HW241525   8.544   9.885   1.951
47167SOL     OW41526   7.526   9.866   3.248
47167SOL    HW141527   7.618   9.865   3.207
47167SOL    HW241528   7.520   9.940   3.315
47168SOL     OW41529   8.009   9.532   3.009
47168SOL    HW141530   8.047   9.448   3.046
47168SOL    HW241531   7.921   9.551   3.053
47169SOL     OW41532   8.314   9.764   2.504
47169SOL    HW141533   8.282   9.836   2.442
47169SOL    HW241534   8.338   9.683   2.451
47170SOL     OW41535   8.465   9.349   2.615
47170SOL    HW141536   8.393   9.354   2.546
47170SOL    HW241537   8.441   9.280   2.684
47171SOL     OW41538   8.877  10.483   2.729
47171SOL    HW141539   8.822  10.399   2.722
47171SOL    HW241540   8.903  10.512   2.637
47172SOL     OW41541   8.914   9.900   2.854
47172SOL    HW141542   8.884   9.805   2.861
47172SOL    HW241543   8.987   9.916   2.920
47173SOL     OW41544   9.305  10.143   2.239
47173SOL    HW141545   9.347  10.079   2.303
47173SOL    HW241546   9.267  10.092   2.161
47174SOL     OW41547   7.936  10.695   2.036
47174SOL    HW141548   7.849  10.680   2.083
47174SOL    HW241549   7.919  10.721   1.941
47175SOL     OW41550   9.112  10.590   2.519
47175SOL    HW141551   9.211  10.598   2.533
47175SOL    HW241552   9.067  10.674   2.550
47176SOL     OW41553   8.838   9.885   1.940
47176SOL    HW141554   8.784   9.864   2.021
47176SOL    HW241555   8.929   9.844   1.949
47177SOL     OW41556   7.975   9.566   2.190
47177SOL    HW141557   8.002   9.507   2.115
47177SOL    HW241558   7.975   9.661   2.159
47178SOL     OW41559   9.202  10.533   3.450
47178SOL    HW141560   9.293  10.494   3.437
47178SOL    HW241561   9.210  10.629   3.474
47179SOL     OW41562   8.512  10.657   3.202
47179SOL    HW141563   8.432  10.634   3.257
47179SOL    HW241564   8.595  10.631   3.251
47180SOL     OW41565   9.040  10.939   3.487
47180SOL    HW141566   9.067  10.973   3.397
47180SOL    HW241567   9.119  10.901   3.533
47181SOL     OW41568   8.559  10.505   2.962
47181SOL    HW141569   8.519  10.549   3.043
47181SOL    HW241570   8.518  10.542   2.879
47182SOL     OW41571   9.086  10.409   2.941
47182SOL    HW141572   9.091  10.490   3.000
47182SOL    HW241573   9.000  10.411   2.890
47183SOL     OW41574   8.363   9.399   3.264
47183SOL    HW141575   8.388   9.379   3.169
47183SOL    HW241576   8.435   9.455   3.306
47184SOL     OW41577   8.428  10.426   3.581
47184SOL    HW141578   8.329  10.432   3.591
47184SOL    HW241579   8.451  10.346   3.525
47185SOL     OW41580   8.153  10.360   2.230
47185SOL    HW141581   8.139  10.367   2.329
47185SOL    HW241582   8.237  10.309   2.212
47186SOL     OW41583   7.858  10.123   3.113
47186SOL    HW141584   7.944  10.135   3.163
47186SOL    HW241585   7.816  10.036   3.140
47187SOL     OW41586   8.722   9.696   3.124
47187SOL    HW141587   8.743   9.770   3.188
47187SOL    HW241588   8.633   9.713   3.081
47188SOL     OW41589   7.512  10.874   3.193
47188SOL    HW141590   7.466  10.956   3.159
47188SOL    HW241591   7.610  10.893   3.202
47189SOL     OW41592   7.815  10.410   2.363
47189SOL    HW141593   7.808  10.493   2.307
47189SOL    HW241594   7.819  10.330   2.303
47190SOL     OW41595   8.014   9.847   2.727
47190SOL    HW141596   8.026   9.913   2.653
47190SOL    HW241597   8.060   9.881   2.810
47191SOL     OW41598   8.700  10.658   2.250
47191SOL    HW141599   8.750  10.735   2.290
47191SOL    HW241600   8.605  10.660   2.282
47192SOL     OW41601   8.720  10.755   3.004
47192SOL    HW141602   8.767  10.768   3.091
47192SOL    HW241603   8.654  10.681   3.013
47193SOL     OW41604   9.030   9.949   2.334
47193SOL    HW141605   8.999  10.010   2.407
47193SOL    HW241606   9.080  10.001   2.265
47194SOL     OW41607   7.802  10.820   3.191
47194SOL    HW141608   7.781  10.776   3.104
47194SOL    HW241609   7.899  10.846   3.194
47195SOL     OW41610   7.850  10.061   3.460
47195SOL    HW141611   7.918  10.116   3.413
47195SOL    HW241612   7.890   9.973   3.487
47196SOL     OW41613   9.035  10.089   3.532
47196SOL    HW141614   8.943  10.127   3.527
47196SOL    HW241615   9.095  10.136   3.467
47197SOL     OW41616   8.461   9.415   3.632
47197SOL    HW141617   8.467   9.500   3.580
47197SOL    HW241618   8.493   9.339   3.575
47198SOL     OW41619   7.952   9.360   3.602
47198SOL    HW141620   7.910   9.303   3.532
47198SOL    HW241621   7.886   9.429   3.634
47199SOL     OW41622   8.021  10.180   2.891
47199SOL    HW141623   8.065  10.269   2.882
47199SOL    HW241624   7.958  10.180   2.968
47200SOL     OW41625   8.808  10.172   2.907
47200SOL    HW141626   8.733  10.172   2.841
47200SOL    HW241627   8.845  10.080   2.916
47201SOL     OW41628   8.657   9.835   2.137
47201SOL    HW141629   8.670   9.751   2.191
47201SOL    HW241630   8.628   9.909   2.197
47202SOL     OW41631   7.755   9.523   3.093
47202SOL    HW141632   7.732   9.560   3.183
47202SOL    HW241633   7.725   9.428   3.087
47203SOL     OW41634   7.485  10.620   3.144
47203SOL    HW141635   7.538  10.571   3.212
47203SOL    HW241636   7.507  10.718   3.149
47204SOL     OW41637   8.180   9.944   2.926
47204SOL    HW141638   8.239   9.918   2.850
47204SOL    HW241639   8.152  10.040   2.915
47205SOL     OW41640   9.176  10.245   3.716
47205SOL    HW141641   9.130  10.238   3.627
47205SOL    HW241642   9.114  10.289   3.782
47206SOL     OW41643   7.755   9.373   2.480
47206SOL    HW141644   7.744   9.467   2.513
47206SOL    HW241645   7.750   9.310   2.557
47207SOL     OW41646   9.070   9.677   2.236
47207SOL    HW141647   9.072   9.601   2.300
47207SOL    HW241648   9.022   9.754   2.276
47208SOL     OW41649   8.471  10.076   2.828
47208SOL    HW141650   8.486  10.097   2.924
47208SOL    HW241651   8.441   9.981   2.819
47209SOL     OW41652   8.428  10.883   3.562
47209SOL    HW141653   8.408  10.927   3.474
47209SOL    HW241654   8.467  10.792   3.546
47210SOL     OW41655   9.307  10.828   3.467
47210SOL    HW141656   9.321  10.855   3.372
47210SOL    HW241657   9.390  10.850   3.520
47211SOL     OW41658   7.798  10.208   3.666
47211SOL    HW141659   7.874  10.252   3.714
47211SOL    HW241660   7.833  10.161   3.584
47212SOL     OW41661   8.988   9.584   1.987
47212SOL    HW141662   8.927   9.509   2.010
47212SOL    HW241663   9.010   9.636   2.070
47213SOL     OW41664   8.751  10.148   1.904
47213SOL    HW141665   8.785  10.055   1.919
47213SOL    HW241666   8.769  10.175   1.809
47214SOL     OW41667   8.516  10.643   2.711
47214SOL    HW141668   8.523  10.559   2.656
47214SOL    HW241669   8.578  10.712   2.675
47215SOL     OW41670   7.767  10.120   2.811
47215SOL    HW141671   7.860  10.156   2.816
47215SOL    HW241672   7.761  10.035   2.863
47216SOL     OW41673   7.787   9.819   2.868
47216SOL    HW141674   7.735   9.736   2.851
47216SOL    HW241675   7.864   9.824   2.804
47217SOL     OW41676   8.586   9.690   3.540
47217SOL    HW141677   8.541   9.753   3.604
47217SOL    HW241678   8.679   9.721   3.523
47218SOL     OW41679   8.608   9.517   3.339
47218SOL    HW141680   8.608   9.581   3.416
47218SOL    HW241681   8.636   9.565   3.256
47219SOL     OW41682   7.456  10.636   2.062
47219SOL    HW141683   7.363  10.657   2.031
47219SOL    HW241684   7.466  10.537   2.075
47220SOL     OW41685   7.536  11.111   2.789
47220SOL    HW141686   7.494  11.025   2.762
47220SOL    HW241687   7.630  11.114   2.755
47221SOL     OW41688   7.952  10.878   2.772
47221SOL    HW141689   8.018  10.952   2.781
47221SOL    HW241690   7.996  10.799   2.730
47222SOL     OW41691   8.450  10.106   3.100
47222SOL    HW141692   8.491  10.074   3.186
47222SOL    HW241693   8.354  10.079   3.097
47223SOL     OW41694   7.488   9.854   2.976
47223SOL    HW141695   7.573   9.821   2.935
47223SOL    HW241696   7.501   9.869   3.074
47224SOL     OW41697   7.637   9.830   3.584
47224SOL    HW141698   7.696   9.790   3.514
47224SOL    HW241699   7.579   9.901   3.543
47225SOL     OW41700   8.817  10.260   3.522
47225SOL    HW141701   8.856  10.349   3.542
47225SOL    HW241702   8.827  10.240   3.425
47226SOL     OW41703   8.263   9.882   2.187
47226SOL    HW141704   8.270   9.793   2.141
47226SOL    HW241705   8.169   9.916   2.179
47227SOL     OW41706   9.105   9.914   3.068
47227SOL    HW141707   9.067   9.845   3.130
47227SOL    HW241708   9.187   9.878   3.024
47228SOL     OW41709   7.700  10.874   3.606
47228SOL    HW141710   7.670  10.931   3.682
47228SOL    HW241711   7.693  10.777   3.632
47229SOL     OW41712   8.119   9.774   3.131
47229SOL    HW141713   8.085   9.685   3.101
47229SOL    HW241714   8.145   9.828   3.051
47230SOL     OW41715   8.378  10.988   3.327
47230SOL    HW141716   8.354  10.970   3.232
47230SOL    HW241717   8.408  11.082   3.337
47231SOL     OW41718   7.921   9.810   2.053
47231SOL    HW141719   7.982   9.890   2.057
47231SOL    HW241720   7.826   9.841   2.060
47232SOL     OW41721   7.607  10.447   3.328
47232SOL    HW141722   7.629  10.386   3.404
47232SOL    HW241723   7.617  10.398   3.242
47233SOL     OW41724   8.795  10.369   3.096
47233SOL    HW141725   8.819  10.306   3.022
47233SOL    HW241726   8.705  10.409   3.078
47234SOL     OW41727   8.750  10.165   2.171
47234SOL    HW141728   8.664  10.134   2.213
47234SOL    HW241729   8.746  10.151   2.072
47235SOL     OW41730   9.207  11.057   3.016
47235SOL    HW141731   9.268  11.087   2.943
47235SOL    HW241732   9.169  10.968   2.994
47236SOL     OW41733   8.700  11.041   2.990
47236SOL    HW141734   8.784  11.046   2.936
47236SOL    HW241735   8.677  10.945   3.008
47237SOL     OW41736   7.531  10.568   2.884
47237SOL    HW141737   7.526  10.567   2.984
47237SOL    HW241738   7.448  10.527   2.846
47238SOL     OW41739   8.136  10.972   3.578
47238SOL    HW141740   8.080  11.053   3.587
47238SOL    HW241741   8.188  10.976   3.492
47239SOL     OW41742   9.174   9.445   2.385
47239SOL    HW141743   9.247   9.428   2.318
47239SOL    HW241744   9.143   9.358   2.423
47240SOL     OW41745   8.836  10.883   2.339
47240SOL    HW141746   8.903  10.895   2.265
47240SOL    HW241747   8.796  10.972   2.362
47241SOL     OW41748   7.578  11.104   3.713
47241SOL    HW141749   7.537  11.030   3.766
47241SOL    HW241750   7.642  11.155   3.771
47242SOL     OW41751   8.728  10.237   2.534
47242SOL    HW141752   8.788  10.156   2.536
47242SOL    HW241753   8.768  10.306   2.474
47243SOL     OW41754   8.278  10.583   3.284
47243SOL    HW141755   8.273  10.616   3.379
47243SOL    HW241756   8.192  10.602   3.238
47244SOL     OW41757   8.120  10.926   2.016
47244SOL    HW141758   8.129  10.936   1.917
47244SOL    HW241759   8.080  10.837   2.037
47245SOL     OW41760   9.098  11.030   3.256
47245SOL    HW141761   9.151  11.040   3.172
47245SOL    HW241762   9.071  11.120   3.290
47246SOL     OW41763   9.289   9.485   2.825
47246SOL    HW141764   9.328   9.400   2.789
47246SOL    HW241765   9.191   9.487   2.806
47247SOL     OW41766   7.711   9.636   2.582
47247SOL    HW141767   7.632   9.687   2.548
47247SOL    HW241768   7.702   9.621   2.680
47248SOL     OW41769   8.642  10.922   1.893
47248SOL    HW141770   8.648  10.829   1.930
47248SOL    HW241771   8.583  10.922   1.813
47249SOL     OW41772   8.270  10.312   3.234
47249SOL    HW141773   8.310  10.311   3.142
47249SOL    HW241774   8.280  10.404   3.274
47250SOL     OW41775   8.364  10.220   2.153
47250SOL    HW141776   8.427  10.258   2.085
47250SOL    HW241777   8.404  10.137   2.192
47251SOL     OW41778   8.952  10.917   1.906
47251SOL    HW141779   8.860  10.954   1.913
47251SOL    HW241780   8.990  10.937   1.816
47252SOL     OW41781   7.820  10.598   3.352
47252SOL    HW141782   7.807  10.691   3.318
47252SOL    HW241783   7.736  10.546   3.339
47253SOL     OW41784   9.062  10.602   3.151
47253SOL    HW141785   9.122  10.605   3.231
47253SOL    HW241786   8.987  10.666   3.164
47254SOL     OW41787   8.487  10.408   2.558
47254SOL    HW141788   8.417  10.361   2.612
47254SOL    HW241789   8.546  10.340   2.515
47255SOL     OW41790   8.462   9.546   2.833
47255SOL    HW141791   8.454   9.510   2.740
47255SOL    HW241792   8.460   9.470   2.898
47256SOL     OW41793   8.038  10.797   2.353
47256SOL    HW141794   8.080  10.739   2.283
47256SOL    HW241795   7.994  10.876   2.309
47257SOL     OW41796   9.157   9.695   3.243
47257SOL    HW141797   9.230   9.764   3.247
47257SOL    HW241798   9.185   9.620   3.184
47258SOL     OW41799   7.703  10.658   2.152
47258SOL    HW141800   7.607  10.659   2.125
47258SOL    HW241801   7.715  10.711   2.236
47259SOL     OW41802   7.553  10.323   3.588
47259SOL    HW141803   7.476  10.290   3.642
47259SOL    HW241804   7.638  10.293   3.630
47260SOL     OW41805   8.120   9.513   3.351
47260SOL    HW141806   8.210   9.497   3.311
47260SOL    HW241807   8.128   9.518   3.450
47261SOL     OW41808   7.523   9.655   1.895
47261SOL    HW141809   7.431   9.627   1.866
47261SOL    HW241810   7.554   9.732   1.839
47262SOL     OW41811   8.888  10.166   3.260
47262SOL    HW141812   8.831  10.218   3.197
47262SOL    HW241813   8.984  10.178   3.236
47263SOL     OW41814   7.520   9.476   2.180
47263SOL    HW141815   7.503   9.559   2.126
47263SOL    HW241816   7.610   9.439   2.158
47264SOL     OW41817   8.631  10.645   1.981
47264SOL    HW141818   8.532  10.634   1.983
47264SOL    HW241819   8.665  10.660   2.074
47265SOL     OW41820   8.061  10.152   3.293
47265SOL    HW141821   8.117  10.233   3.276
47265SOL    HW241822   8.120  10.072   3.296
47266SOL     OW41823   8.941  11.077   2.821
47266SOL    HW141824   8.974  11.141   2.752
47266SOL    HW241825   9.007  11.071   2.896
47267SOL     OW41826   8.164   9.875   3.570
47267SOL    HW141827   8.183   9.940   3.644
47267SOL    HW241828   8.224   9.795   3.579
47268SOL     OW41829   8.898  10.530   3.495
47268SOL    HW141830   8.889  10.520   3.594
47268SOL    HW241831   8.994  10.523   3.469
47269SOL     OW41832   7.838  11.051   3.422
47269SOL    HW141833   7.747  11.092   3.420
47269SOL    HW241834   7.831  10.957   3.454
47270SOL     OW41835   9.122  10.193   3.116
47270SOL    HW141836   9.095  10.104   3.079
47270SOL    HW241837   9.123  10.261   3.043
47271SOL     OW41838   8.673   9.635   2.311
47271SOL    HW141839   8.738   9.561   2.300
47271SOL    HW241840   8.693   9.685   2.395
47272SOL     OW41841   8.042  10.055   2.514
47272SOL    HW141842   8.092  10.140   2.495
47272SOL    HW241843   7.954  10.057   2.466
47273SOL     OW41844   9.225   9.652   3.504
47273SOL    HW141845   9.208   9.683   3.410
47273SOL    HW241846   9.141   9.615   3.542
47274SOL     OW41847   9.178  10.244   3.379
47274SOL    HW141848   9.216  10.335   3.394
47274SOL    HW241849   9.170  10.227   3.280
47275SOL     OW41850   8.307  10.684   1.878
47275SOL    HW141851   8.261  10.699   1.966
47275SOL    HW241852   8.351  10.769   1.848
47276SOL     OW41853   8.109  11.100   2.815
47276SOL    HW141854   8.063  11.188   2.802
47276SOL    HW241855   8.208  11.112   2.808
47277SOL     OW41856   8.307  10.266   2.723
47277SOL    HW141857   8.361  10.197   2.771
47277SOL    HW241858   8.275  10.335   2.789
47278SOL     OW41859   8.531  10.294   1.949
47278SOL    HW141860   8.508  10.347   1.867
47278SOL    HW241861   8.612  10.238   1.930
47279SOL     OW41862   9.309  10.879   2.713
47279SOL    HW141863   9.238  10.867   2.643
47279SOL    HW241864   9.310  10.800   2.773
47280SOL     OW41865   7.669  10.624   3.706
47280SOL    HW141866   7.604  10.551   3.685
47280SOL    HW241867   7.673  10.638   3.804
47281SOL     OW41868   7.527  10.550   2.515
47281SOL    HW141869   7.526  10.503   2.603
47281SOL    HW241870   7.609  10.522   2.464
47282SOL     OW41871   8.120  10.701   3.486
47282SOL    HW141872   8.042  10.651   3.524
47282SOL    HW241873   8.117  10.796   3.517
47283SOL     OW41874   9.272   9.502   3.089
47283SOL    HW141875   9.268   9.412   3.133
47283SOL    HW241876   9.275   9.491   2.990
47284SOL     OW41877   7.876   9.734   2.382
47284SOL    HW141878   7.906   9.662   2.320
47284SOL    HW241879   7.837   9.694   2.465
47285SOL     OW41880   9.153  10.797   2.966
47285SOL    HW141881   9.060  10.772   2.939
47285SOL    HW241882   9.179  10.747   3.048
47286SOL     OW41883   7.765   9.857   3.142
47286SOL    HW141884   7.803   9.798   3.214
47286SOL    HW241885   7.805   9.831   3.054
47287SOL     OW41886   8.260  10.896   2.549
47287SOL    HW141887   8.292  10.906   2.455
47287SOL    HW241888   8.181  10.834   2.551
47288SOL     OW41889   8.872   9.524   2.974
47288SOL    HW141890   8.924   9.459   3.029
47288SOL    HW241891   8.823   9.587   3.035
47289SOL     OW41892   8.449   9.344   3.016
47289SOL    HW141893   8.386   9.272   2.985
47289SOL    HW241894   8.542   9.308   3.016
47290SOL     OW41895   8.218  10.640   2.163
47290SOL    HW141896   8.172  10.553   2.180
47290SOL    HW241897   8.309  10.637   2.204
47291SOL     OW41898   8.066  10.877   3.146
47291SOL    HW141899   8.061  10.959   3.203
47291SOL    HW241900   8.155  10.874   3.101
47292SOL     OW41901   8.800   9.362   2.030
47292SOL    HW141902   8.835   9.321   1.946
47292SOL    HW241903   8.710   9.324   2.050
47293SOL     OW41904   8.748   9.763   2.553
47293SOL    HW141905   8.689   9.843   2.557
47293SOL    HW241906   8.763   9.728   2.646
47294SOL     OW41907   9.041   9.531   2.744
47294SOL    HW141908   8.957   9.530   2.798
47294SOL    HW241909   9.043   9.614   2.688
47295SOL     OW41910   7.487  10.387   2.162
47295SOL    HW141911   7.586  10.376   2.153
47295SOL    HW241912   7.447  10.301   2.194
47296SOL     OW41913   8.323  10.956   2.199
47296SOL    HW141914   8.246  10.921   2.145
47296SOL    HW241915   8.291  11.027   2.261
47297SOL     OW41916   7.678   9.938   3.837
47297SOL    HW141917   7.585   9.936   3.874
47297SOL    HW241918   7.679   9.899   3.745
47298SOL     OW41919   7.673   9.585   4.720
47298SOL    HW141920   7.708   9.568   4.812
47298SOL    HW241921   7.585   9.540   4.708
47299SOL     OW41922   7.467   9.678   4.371
47299SOL    HW141923   7.385   9.721   4.410
47299SOL    HW241924   7.439   9.605   4.308
47300SOL     OW41925   8.017  10.585   4.889
47300SOL    HW141926   7.924  10.578   4.852
47300SOL    HW241927   8.028  10.674   4.933
47301SOL     OW41928   9.003  10.821   4.427
47301SOL    HW141929   8.946  10.805   4.508
47301SOL    HW241930   8.944  10.831   4.347
47302SOL     OW41931   8.583  10.013   4.441
47302SOL    HW141932   8.640  10.091   4.416
47302SOL    HW241933   8.523  10.039   4.517
47303SOL     OW41934   9.203   9.917   3.955
47303SOL    HW141935   9.191   9.904   3.856
47303SOL    HW241936   9.173   9.836   4.004
47304SOL     OW41937   8.216  10.454   4.747
47304SOL    HW141938   8.138  10.471   4.807
47304SOL    HW241939   8.250  10.541   4.711
47305SOL     OW41940   8.298  10.108   5.547
47305SOL    HW141941   8.294  10.184   5.612
47305SOL    HW241942   8.320  10.144   5.456
47306SOL     OW41943   8.133  10.322   4.389
47306SOL    HW141944   8.202  10.306   4.459
47306SOL    HW241945   8.060  10.379   4.427
47307SOL     OW41946   8.134  10.471   5.527
47307SOL    HW141947   8.194  10.550   5.541
47307SOL    HW241948   8.048  10.502   5.486
47308SOL     OW41949   7.783  10.745   4.785
47308SOL    HW141950   7.705  10.714   4.732
47308SOL    HW241951   7.841  10.803   4.728
47309SOL     OW41952   8.908  10.815   5.063
47309SOL    HW141953   8.932  10.909   5.089
47309SOL    HW241954   8.892  10.761   5.145
47310SOL     OW41955   7.886   9.702   5.223
47310SOL    HW141956   7.968   9.646   5.232
47310SOL    HW241957   7.805   9.644   5.227
47311SOL     OW41958   9.051   9.757   4.461
47311SOL    HW141959   8.977   9.803   4.411
47311SOL    HW241960   9.102   9.825   4.514
47312SOL     OW41961   7.679  11.023   4.207
47312SOL    HW141962   7.713  11.100   4.261
47312SOL    HW241963   7.723  11.023   4.117
47313SOL     OW41964   8.575  10.651   5.414
47313SOL    HW141965   8.622  10.651   5.502
47313SOL    HW241966   8.527  10.564   5.403
47314SOL     OW41967   7.678  10.744   4.262
47314SOL    HW141968   7.652  10.840   4.262
47314SOL    HW241969   7.607  10.690   4.307
47315SOL     OW41970   7.688  10.401   4.610
47315SOL    HW141971   7.702  10.317   4.662
47315SOL    HW241972   7.633  10.465   4.665
47316SOL     OW41973   8.068  11.096   5.163
47316SOL    HW141974   7.976  11.079   5.198
47316SOL    HW241975   8.096  11.188   5.189
47317SOL     OW41976   8.054  10.274   3.847
47317SOL    HW141977   8.061  10.358   3.793
47317SOL    HW241978   8.100  10.287   3.935
47318SOL     OW41979   9.042   9.424   5.204
47318SOL    HW141980   9.024   9.491   5.132
47318SOL    HW241981   9.039   9.470   5.293
47319SOL     OW41982   7.570   9.953   4.287
47319SOL    HW141983   7.525   9.865   4.304
47319SOL    HW241984   7.569  10.007   4.371
47320SOL     OW41985   9.290  11.077   4.083
47320SOL    HW141986   9.344  11.048   4.163
47320SOL    HW241987   9.320  11.167   4.054
47321SOL     OW41988   7.475  10.906   3.841
47321SOL    HW141989   7.456  10.810   3.862
47321SOL    HW241990   7.442  10.964   3.916
47322SOL     OW41991   9.137  10.232   4.336
47322SOL    HW141992   9.232  10.203   4.344
47322SOL    HW241993   9.129  10.297   4.261
47323SOL     OW41994   9.089  10.418   4.156
47323SOL    HW141995   9.175  10.420   4.104
47323SOL    HW241996   9.103  10.465   4.244
47324SOL     OW41997   7.561  10.047   5.321
47324SOL    HW141998   7.649  10.034   5.366
47324SOL    HW241999   7.548  10.144   5.299
47325SOL     OW42000   8.061  10.675   4.450
47325SOL    HW142001   8.012  10.588   4.459
47325SOL    HW242002   8.038  10.718   4.363
47326SOL     OW42003   8.741  10.538   5.147
47326SOL    HW142004   8.778  10.465   5.089
47326SOL    HW242005   8.793  10.543   5.232
47327SOL     OW42006   8.257   9.314   4.226
47327SOL    HW142007   8.297   9.405   4.217
47327SOL    HW242008   8.157   9.322   4.232
47328SOL     OW42009   7.645  10.286   4.988
47328SOL    HW142010   7.734  10.241   4.974
47328SOL    HW242011   7.572  10.221   4.969
47329SOL     OW42012   8.973  10.309   3.914
47329SOL    HW142013   8.910  10.233   3.927
47329SOL    HW242014   9.021  10.327   4.000
47330SOL     OW42015   8.635  11.102   5.340
47330SOL    HW142016   8.659  11.162   5.264
47330SOL    HW242017   8.642  11.007   5.310
47331SOL     OW42018   7.765   9.561   5.525
47331SOL    HW142019   7.836   9.632   5.531
47331SOL    HW242020   7.677   9.600   5.553
47332SOL     OW42021   8.914  10.727   4.677
47332SOL    HW142022   8.855  10.733   4.757
47332SOL    HW242023   8.899  10.639   4.631
47333SOL     OW42024   9.115  11.024   4.296
47333SOL    HW142025   9.074  11.001   4.208
47333SOL    HW242026   9.097  10.950   4.361
47334SOL     OW42027   8.046  10.039   3.994
47334SOL    HW142028   8.070  10.108   3.926
47334SOL    HW242029   7.968  10.072   4.048
47335SOL     OW42030   8.729   9.655   4.668
47335SOL    HW142031   8.643   9.605   4.655
47335SOL    HW242032   8.791   9.601   4.724
47336SOL     OW42033   9.024  10.972   4.031
47336SOL    HW142034   9.113  11.018   4.034
47336SOL    HW242035   9.003  10.948   3.936
47337SOL     OW42036   8.255   9.915   5.189
47337SOL    HW142037   8.208   9.912   5.278
47337SOL    HW242038   8.204   9.860   5.123
47338SOL     OW42039   8.842   9.779   5.398
47338SOL    HW142040   8.822   9.822   5.486
47338SOL    HW242041   8.920   9.717   5.407
47339SOL     OW42042   8.421  10.200   5.296
47339SOL    HW142043   8.467  10.116   5.267
47339SOL    HW242044   8.365  10.234   5.221
47340SOL     OW42045   8.439   9.720   4.966
47340SOL    HW142046   8.362   9.754   5.020
47340SOL    HW242047   8.405   9.669   4.887
47341SOL     OW42048   8.489  10.011   4.153
47341SOL    HW142049   8.515  10.007   4.249
47341SOL    HW242050   8.404   9.960   4.139
47342SOL     OW42051   7.524  10.121   4.513
47342SOL    HW142052   7.623  10.109   4.522
47342SOL    HW242053   7.500  10.216   4.534
47343SOL     OW42054   7.578  11.131   5.295
47343SOL    HW142055   7.568  11.116   5.394
47343SOL    HW242056   7.492  11.167   5.259
47344SOL     OW42057   8.313   9.658   3.919
47344SOL    HW142058   8.372   9.721   3.870
47344SOL    HW242059   8.332   9.564   3.890
47345SOL     OW42060   9.167   9.895   5.555
47345SOL    HW142061   9.141   9.984   5.519
47345SOL    HW242062   9.165   9.827   5.482
47346SOL     OW42063   8.810  10.454   4.269
47346SOL    HW142064   8.893  10.425   4.221
47346SOL    HW242065   8.761  10.521   4.213
47347SOL     OW42066   7.998   9.506   4.609
47347SOL    HW142067   7.993   9.501   4.709
47347SOL    HW242068   8.000   9.602   4.580
47348SOL     OW42069   8.456  10.766   4.201
47348SOL    HW142070   8.410  10.838   4.149
47348SOL    HW242071   8.452  10.786   4.299
47349SOL     OW42072   7.799  11.111   4.577
47349SOL    HW142073   7.849  11.025   4.583
47349SOL    HW242074   7.864  11.188   4.574
47350SOL     OW42075   9.243  10.376   4.597
47350SOL    HW142076   9.181  10.361   4.521
47350SOL    HW242077   9.191  10.387   4.682
47351SOL     OW42078   8.675  10.860   5.230
47351SOL    HW142079   8.681  10.783   5.294
47351SOL    HW242080   8.623  10.834   5.150
47352SOL     OW42081   7.769  10.253   3.966
47352SOL    HW142082   7.851  10.292   3.924
47352SOL    HW242083   7.742  10.171   3.917
47353SOL     OW42084   8.906  10.045   4.452
47353SOL    HW142085   8.901   9.980   4.527
47353SOL    HW242086   8.986  10.104   4.465
47354SOL     OW42087   7.909  10.576   5.451
47354SOL    HW142088   7.859  10.577   5.365
47354SOL    HW242089   7.846  10.558   5.527
47355SOL     OW42090   8.559  11.086   3.961
47355SOL    HW142091   8.499  11.024   4.011
47355SOL    HW242092   8.590  11.042   3.876
47356SOL     OW42093   7.650   9.595   5.222
47356SOL    HW142094   7.570   9.655   5.209
47356SOL    HW242095   7.640   9.546   5.308
47357SOL     OW42096   9.080  10.687   3.805
47357SOL    HW142097   9.048  10.781   3.795
47357SOL    HW242098   9.004  10.624   3.793
47358SOL     OW42099   7.912  11.053   4.047
47358SOL    HW142100   7.945  11.092   4.133
47358SOL    HW242101   7.988  11.046   3.982
47359SOL     OW42102   8.848   9.417   4.150
47359SOL    HW142103   8.824   9.380   4.060
47359SOL    HW242104   8.947   9.433   4.154
47360SOL     OW42105   7.697  11.095   4.965
47360SOL    HW142106   7.754  11.030   5.015
47360SOL    HW242107   7.681  11.062   4.872
47361SOL     OW42108   8.388  11.008   4.628
47361SOL    HW142109   8.468  10.951   4.649
47361SOL    HW242110   8.339  10.968   4.551
47362SOL     OW42111   7.830  10.010   4.204
47362SOL    HW142112   7.875   9.920   4.201
47362SOL    HW242113   7.736   9.999   4.237
47363SOL     OW42114   8.995   9.532   5.453
47363SOL    HW142115   8.990   9.569   5.545
47363SOL    HW242116   8.923   9.463   5.441
47364SOL     OW42117   8.062   9.432   3.841
47364SOL    HW142118   8.160   9.410   3.848
47364SOL    HW242119   8.031   9.415   3.748
47365SOL     OW42120   8.229   9.574   5.473
47365SOL    HW142121   8.296   9.513   5.516
47365SOL    HW242122   8.156   9.593   5.538
47366SOL     OW42123   8.336  10.824   4.919
47366SOL    HW142124   8.313  10.799   4.825
47366SOL    HW242125   8.397  10.755   4.958
47367SOL     OW42126   8.799   9.900   5.157
47367SOL    HW142127   8.827   9.857   5.242
47367SOL    HW242128   8.824   9.996   5.158
47368SOL     OW42129   8.251  10.712   4.648
47368SOL    HW142130   8.341  10.726   4.606
47368SOL    HW242131   8.180  10.714   4.577
47369SOL     OW42132   8.370   9.813   4.623
47369SOL    HW142133   8.345   9.804   4.527
47369SOL    HW242134   8.418   9.731   4.654
47370SOL     OW42135   7.987   9.374   4.236
47370SOL    HW142136   7.906   9.375   4.294
47370SOL    HW242137   7.990   9.457   4.181
47371SOL     OW42138   8.882  10.498   3.765
47371SOL    HW142139   8.914  10.422   3.822
47371SOL    HW242140   8.790  10.525   3.795
47372SOL     OW42141   7.745   9.345   3.895
47372SOL    HW142142   7.794   9.429   3.874
47372SOL    HW242143   7.807   9.280   3.940
47373SOL     OW42144   8.383   9.546   4.204
47373SOL    HW142145   8.335   9.587   4.126
47373SOL    HW242146   8.482   9.544   4.185
47374SOL     OW42147   8.524   9.993   5.188
47374SOL    HW142148   8.444   9.932   5.191
47374SOL    HW242149   8.605   9.940   5.164
47375SOL     OW42150   8.675  10.880   4.517
47375SOL    HW142151   8.696  10.954   4.452
47375SOL    HW242152   8.743  10.880   4.590
47376SOL     OW42153   7.907  10.462   4.465
47376SOL    HW142154   7.836  10.435   4.530
47376SOL    HW242155   7.881  10.434   4.372
47377SOL     OW42156   8.719  11.107   4.315
47377SOL    HW142157   8.763  11.171   4.251
47377SOL    HW242158   8.669  11.159   4.385
47378SOL     OW42159   8.480   9.859   3.740
47378SOL    HW142160   8.439   9.941   3.701
47378SOL    HW242161   8.544   9.885   3.813
47379SOL     OW42162   7.526   9.866   5.110
47379SOL    HW142163   7.618   9.865   5.069
47379SOL    HW242164   7.520   9.940   5.177
47380SOL     OW42165   8.009   9.532   4.871
47380SOL    HW142166   8.047   9.448   4.908
47380SOL    HW242167   7.921   9.551   4.915
47381SOL     OW42168   8.314   9.764   4.366
47381SOL    HW142169   8.282   9.836   4.304
47381SOL    HW242170   8.338   9.683   4.313
47382SOL     OW42171   8.465   9.349   4.477
47382SOL    HW142172   8.393   9.354   4.408
47382SOL    HW242173   8.441   9.280   4.546
47383SOL     OW42174   8.877  10.483   4.591
47383SOL    HW142175   8.822  10.399   4.584
47383SOL    HW242176   8.903  10.512   4.499
47384SOL     OW42177   8.914   9.900   4.716
47384SOL    HW142178   8.884   9.805   4.723
47384SOL    HW242179   8.987   9.916   4.782
47385SOL     OW42180   9.305  10.143   4.101
47385SOL    HW142181   9.347  10.079   4.165
47385SOL    HW242182   9.267  10.092   4.023
47386SOL     OW42183   7.936  10.695   3.898
47386SOL    HW142184   7.849  10.680   3.945
47386SOL    HW242185   7.919  10.721   3.803
47387SOL     OW42186   9.112  10.590   4.381
47387SOL    HW142187   9.211  10.598   4.395
47387SOL    HW242188   9.067  10.674   4.412
47388SOL     OW42189   8.838   9.885   3.802
47388SOL    HW142190   8.784   9.864   3.883
47388SOL    HW242191   8.929   9.844   3.811
47389SOL     OW42192   7.975   9.566   4.052
47389SOL    HW142193   8.002   9.507   3.977
47389SOL    HW242194   7.975   9.661   4.021
47390SOL     OW42195   9.202  10.533   5.312
47390SOL    HW142196   9.293  10.494   5.299
47390SOL    HW242197   9.210  10.629   5.336
47391SOL     OW42198   8.512  10.657   5.064
47391SOL    HW142199   8.432  10.634   5.119
47391SOL    HW242200   8.595  10.631   5.113
47392SOL     OW42201   9.040  10.939   5.349
47392SOL    HW142202   9.067  10.973   5.259
47392SOL    HW242203   9.119  10.901   5.395
47393SOL     OW42204   8.559  10.505   4.824
47393SOL    HW142205   8.519  10.549   4.905
47393SOL    HW242206   8.518  10.542   4.741
47394SOL     OW42207   9.086  10.409   4.803
47394SOL    HW142208   9.091  10.490   4.862
47394SOL    HW242209   9.000  10.411   4.752
47395SOL     OW42210   8.363   9.399   5.126
47395SOL    HW142211   8.388   9.379   5.031
47395SOL    HW242212   8.435   9.455   5.168
47396SOL     OW42213   8.428  10.426   5.443
47396SOL    HW142214   8.329  10.432   5.453
47396SOL    HW242215   8.451  10.346   5.387
47397SOL     OW42216   8.153  10.360   4.092
47397SOL    HW142217   8.139  10.367   4.191
47397SOL    HW242218   8.237  10.309   4.074
47398SOL     OW42219   7.858  10.123   4.975
47398SOL    HW142220   7.944  10.135   5.025
47398SOL    HW242221   7.816  10.036   5.002
47399SOL     OW42222   8.722   9.696   4.986
47399SOL    HW142223   8.743   9.770   5.050
47399SOL    HW242224   8.633   9.713   4.943
47400SOL     OW42225   7.512  10.874   5.055
47400SOL    HW142226   7.466  10.956   5.021
47400SOL    HW242227   7.610  10.893   5.064
47401SOL     OW42228   7.815  10.410   4.225
47401SOL    HW142229   7.808  10.493   4.169
47401SOL    HW242230   7.819  10.330   4.165
47402SOL     OW42231   8.014   9.847   4.589
47402SOL    HW142232   8.026   9.913   4.515
47402SOL    HW242233   8.060   9.881   4.672
47403SOL     OW42234   8.700  10.658   4.112
47403SOL    HW142235   8.750  10.735   4.152
47403SOL    HW242236   8.605  10.660   4.144
47404SOL     OW42237   8.720  10.755   4.866
47404SOL    HW142238   8.767  10.768   4.953
47404SOL    HW242239   8.654  10.681   4.875
47405SOL     OW42240   9.030   9.949   4.196
47405SOL    HW142241   8.999  10.010   4.269
47405SOL    HW242242   9.080  10.001   4.127
47406SOL     OW42243   7.802  10.820   5.053
47406SOL    HW142244   7.781  10.776   4.966
47406SOL    HW242245   7.899  10.846   5.056
47407SOL     OW42246   7.850  10.061   5.322
47407SOL    HW142247   7.918  10.116   5.275
47407SOL    HW242248   7.890   9.973   5.349
47408SOL     OW42249   9.035  10.089   5.394
47408SOL    HW142250   8.943  10.127   5.389
47408SOL    HW242251   9.095  10.136   5.329
47409SOL     OW42252   8.461   9.415   5.494
47409SOL    HW142253   8.467   9.500   5.442
47409SOL    HW242254   8.493   9.339   5.437
47410SOL     OW42255   7.952   9.360   5.464
47410SOL    HW142256   7.910   9.303   5.394
47410SOL    HW242257   7.886   9.429   5.496
47411SOL     OW42258   8.021  10.180   4.753
47411SOL    HW142259   8.065  10.269   4.744
47411SOL    HW242260   7.958  10.180   4.830
47412SOL     OW42261   8.808  10.172   4.769
47412SOL    HW142262   8.733  10.172   4.703
47412SOL    HW242263   8.845  10.080   4.778
47413SOL     OW42264   8.657   9.835   3.999
47413SOL    HW142265   8.670   9.751   4.053
47413SOL    HW242266   8.628   9.909   4.059
47414SOL     OW42267   7.755   9.523   4.955
47414SOL    HW142268   7.732   9.560   5.045
47414SOL    HW242269   7.725   9.428   4.949
47415SOL     OW42270   7.485  10.620   5.006
47415SOL    HW142271   7.538  10.571   5.074
47415SOL    HW242272   7.507  10.718   5.011
47416SOL     OW42273   8.180   9.944   4.788
47416SOL    HW142274   8.239   9.918   4.712
47416SOL    HW242275   8.152  10.040   4.777
47417SOL     OW42276   9.176  10.245   5.578
47417SOL    HW142277   9.130  10.238   5.489
47417SOL    HW242278   9.114  10.289   5.644
47418SOL     OW42279   7.755   9.373   4.342
47418SOL    HW142280   7.744   9.467   4.375
47418SOL    HW242281   7.750   9.310   4.419
47419SOL     OW42282   9.070   9.677   4.098
47419SOL    HW142283   9.072   9.601   4.162
47419SOL    HW242284   9.022   9.754   4.138
47420SOL     OW42285   8.471  10.076   4.690
47420SOL    HW142286   8.486  10.097   4.786
47420SOL    HW242287   8.441   9.981   4.681
47421SOL     OW42288   8.428  10.883   5.424
47421SOL    HW142289   8.408  10.927   5.336
47421SOL    HW242290   8.467  10.792   5.408
47422SOL     OW42291   9.307  10.828   5.329
47422SOL    HW142292   9.321  10.855   5.234
47422SOL    HW242293   9.390  10.850   5.382
47423SOL     OW42294   7.798  10.208   5.528
47423SOL    HW142295   7.874  10.252   5.576
47423SOL    HW242296   7.833  10.161   5.446
47424SOL     OW42297   8.988   9.584   3.849
47424SOL    HW142298   8.927   9.509   3.872
47424SOL    HW242299   9.010   9.636   3.932
47425SOL     OW42300   8.751  10.148   3.766
47425SOL    HW142301   8.785  10.055   3.781
47425SOL    HW242302   8.769  10.175   3.671
47426SOL     OW42303   8.516  10.643   4.573
47426SOL    HW142304   8.523  10.559   4.518
47426SOL    HW242305   8.578  10.712   4.537
47427SOL     OW42306   7.767  10.120   4.673
47427SOL    HW142307   7.860  10.156   4.678
47427SOL    HW242308   7.761  10.035   4.725
47428SOL     OW42309   7.787   9.819   4.730
47428SOL    HW142310   7.735   9.736   4.713
47428SOL    HW242311   7.864   9.824   4.666
47429SOL     OW42312   8.586   9.690   5.402
47429SOL    HW142313   8.541   9.753   5.466
47429SOL    HW242314   8.679   9.721   5.385
47430SOL     OW42315   8.608   9.517   5.201
47430SOL    HW142316   8.608   9.581   5.278
47430SOL    HW242317   8.636   9.565   5.118
47431SOL     OW42318   7.456  10.636   3.924
47431SOL    HW142319   7.363  10.657   3.893
47431SOL    HW242320   7.466  10.537   3.937
47432SOL     OW42321   7.536  11.111   4.651
47432SOL    HW142322   7.494  11.025   4.624
47432SOL    HW242323   7.630  11.114   4.617
47433SOL     OW42324   7.952  10.878   4.634
47433SOL    HW142325   8.018  10.952   4.643
47433SOL    HW242326   7.996  10.799   4.592
47434SOL     OW42327   8.450  10.106   4.962
47434SOL    HW142328   8.491  10.074   5.048
47434SOL    HW242329   8.354  10.079   4.959
47435SOL     OW42330   7.488   9.854   4.838
47435SOL    HW142331   7.573   9.821   4.797
47435SOL    HW242332   7.501   9.869   4.936
47436SOL     OW42333   7.637   9.830   5.446
47436SOL    HW142334   7.696   9.790   5.376
47436SOL    HW242335   7.579   9.901   5.405
47437SOL     OW42336   8.817  10.260   5.384
47437SOL    HW142337   8.856  10.349   5.404
47437SOL    HW242338   8.827  10.240   5.287
47438SOL     OW42339   8.263   9.882   4.049
47438SOL    HW142340   8.270   9.793   4.003
47438SOL    HW242341   8.169   9.916   4.041
47439SOL     OW42342   9.105   9.914   4.930
47439SOL    HW142343   9.067   9.845   4.992
47439SOL    HW242344   9.187   9.878   4.886
47440SOL     OW42345   7.700  10.874   5.468
47440SOL    HW142346   7.670  10.931   5.544
47440SOL    HW242347   7.693  10.777   5.494
47441SOL     OW42348   8.119   9.774   4.993
47441SOL    HW142349   8.085   9.685   4.963
47441SOL    HW242350   8.145   9.828   4.913
47442SOL     OW42351   8.378  10.988   5.189
47442SOL    HW142352   8.354  10.970   5.094
47442SOL    HW242353   8.408  11.082   5.199
47443SOL     OW42354   7.921   9.810   3.915
47443SOL    HW142355   7.982   9.890   3.919
47443SOL    HW242356   7.826   9.841   3.922
47444SOL     OW42357   7.607  10.447   5.190
47444SOL    HW142358   7.629  10.386   5.266
47444SOL    HW242359   7.617  10.398   5.104
47445SOL     OW42360   8.795  10.369   4.958
47445SOL    HW142361   8.819  10.306   4.884
47445SOL    HW242362   8.705  10.409   4.940
47446SOL     OW42363   8.750  10.165   4.033
47446SOL    HW142364   8.664  10.134   4.075
47446SOL    HW242365   8.746  10.151   3.934
47447SOL     OW42366   9.207  11.057   4.878
47447SOL    HW142367   9.268  11.087   4.805
47447SOL    HW242368   9.169  10.968   4.856
47448SOL     OW42369   8.700  11.041   4.852
47448SOL    HW142370   8.784  11.046   4.798
47448SOL    HW242371   8.677  10.945   4.870
47449SOL     OW42372   7.531  10.568   4.746
47449SOL    HW142373   7.526  10.567   4.846
47449SOL    HW242374   7.448  10.527   4.708
47450SOL     OW42375   8.136  10.972   5.440
47450SOL    HW142376   8.080  11.053   5.449
47450SOL    HW242377   8.188  10.976   5.354
47451SOL     OW42378   9.174   9.445   4.247
47451SOL    HW142379   9.247   9.428   4.180
47451SOL    HW242380   9.143   9.358   4.285
47452SOL     OW42381   8.836  10.883   4.201
47452SOL    HW142382   8.903  10.895   4.127
47452SOL    HW242383   8.796  10.972   4.224
47453SOL     OW42384   7.578  11.104   5.575
47453SOL    HW142385   7.537  11.030   5.628
47453SOL    HW242386   7.642  11.155   5.633
47454SOL     OW42387   8.728  10.237   4.396
47454SOL    HW142388   8.788  10.156   4.398
47454SOL    HW242389   8.768  10.306   4.336
47455SOL     OW42390   8.278  10.583   5.146
47455SOL    HW142391   8.273  10.616   5.241
47455SOL    HW242392   8.192  10.602   5.100
47456SOL     OW42393   8.120  10.926   3.878
47456SOL    HW142394   8.129  10.936   3.779
47456SOL    HW242395   8.080  10.837   3.899
47457SOL     OW42396   9.098  11.030   5.118
47457SOL    HW142397   9.151  11.040   5.034
47457SOL    HW242398   9.071  11.120   5.152
47458SOL     OW42399   9.289   9.485   4.687
47458SOL    HW142400   9.328   9.400   4.651
47458SOL    HW242401   9.191   9.487   4.668
47459SOL     OW42402   7.711   9.636   4.444
47459SOL    HW142403   7.632   9.687   4.410
47459SOL    HW242404   7.702   9.621   4.542
47460SOL     OW42405   8.642  10.922   3.755
47460SOL    HW142406   8.648  10.829   3.792
47460SOL    HW242407   8.583  10.922   3.675
47461SOL     OW42408   8.270  10.312   5.096
47461SOL    HW142409   8.310  10.311   5.004
47461SOL    HW242410   8.280  10.404   5.136
47462SOL     OW42411   8.364  10.220   4.015
47462SOL    HW142412   8.427  10.258   3.947
47462SOL    HW242413   8.404  10.137   4.054
47463SOL     OW42414   8.952  10.917   3.768
47463SOL    HW142415   8.860  10.954   3.775
47463SOL    HW242416   8.990  10.937   3.678
47464SOL     OW42417   7.820  10.598   5.214
47464SOL    HW142418   7.807  10.691   5.180
47464SOL    HW242419   7.736  10.546   5.201
47465SOL     OW42420   9.062  10.602   5.013
47465SOL    HW142421   9.122  10.605   5.093
47465SOL    HW242422   8.987  10.666   5.026
47466SOL     OW42423   8.487  10.408   4.420
47466SOL    HW142424   8.417  10.361   4.474
47466SOL    HW242425   8.546  10.340   4.377
47467SOL     OW42426   8.462   9.546   4.695
47467SOL    HW142427   8.454   9.510   4.602
47467SOL    HW242428   8.460   9.470   4.760
47468SOL     OW42429   8.038  10.797   4.215
47468SOL    HW142430   8.080  10.739   4.145
47468SOL    HW242431   7.994  10.876   4.171
47469SOL     OW42432   9.157   9.695   5.105
47469SOL    HW142433   9.230   9.764   5.109
47469SOL    HW242434   9.185   9.620   5.046
47470SOL     OW42435   7.703  10.658   4.014
47470SOL    HW142436   7.607  10.659   3.987
47470SOL    HW242437   7.715  10.711   4.098
47471SOL     OW42438   7.553  10.323   5.450
47471SOL    HW142439   7.476  10.290   5.504
47471SOL    HW242440   7.638  10.293   5.492
47472SOL     OW42441   8.120   9.513   5.213
47472SOL    HW142442   8.210   9.497   5.173
47472SOL    HW242443   8.128   9.518   5.312
47473SOL     OW42444   7.523   9.655   3.757
47473SOL    HW142445   7.431   9.627   3.728
47473SOL    HW242446   7.554   9.732   3.701
47474SOL     OW42447   8.888  10.166   5.122
47474SOL    HW142448   8.831  10.218   5.059
47474SOL    HW242449   8.984  10.178   5.098
47475SOL     OW42450   7.520   9.476   4.042
47475SOL    HW142451   7.503   9.559   3.988
47475SOL    HW242452   7.610   9.439   4.020
47476SOL     OW42453   8.631  10.645   3.843
47476SOL    HW142454   8.532  10.634   3.845
47476SOL    HW242455   8.665  10.660   3.936
47477SOL     OW42456   8.061  10.152   5.155
47477SOL    HW142457   8.117  10.233   5.138
47477SOL    HW242458   8.120  10.072   5.158
47478SOL     OW42459   8.941  11.077   4.683
47478SOL    HW142460   8.974  11.141   4.614
47478SOL    HW242461   9.007  11.071   4.758
47479SOL     OW42462   8.164   9.875   5.432
47479SOL    HW142463   8.183   9.940   5.506
47479SOL    HW242464   8.224   9.795   5.441
47480SOL     OW42465   8.898  10.530   5.357
47480SOL    HW142466   8.889  10.520   5.456
47480SOL    HW242467   8.994  10.523   5.331
47481SOL     OW42468   7.838  11.051   5.284
47481SOL    HW142469   7.747  11.092   5.282
47481SOL    HW242470   7.831  10.957   5.316
47482SOL     OW42471   9.122  10.193   4.978
47482SOL    HW142472   9.095  10.104   4.941
47482SOL    HW242473   9.123  10.261   4.905
47483SOL     OW42474   8.673   9.635   4.173
47483SOL    HW142475   8.738   9.561   4.162
47483SOL    HW242476   8.693   9.685   4.257
47484SOL     OW42477   8.042  10.055   4.376
47484SOL    HW142478   8.092  10.140   4.357
47484SOL    HW242479   7.954  10.057   4.328
47485SOL     OW42480   9.225   9.652   5.366
47485SOL    HW142481   9.208   9.683   5.272
47485SOL    HW242482   9.141   9.615   5.404
47486SOL     OW42483   9.178  10.244   5.241
47486SOL    HW142484   9.216  10.335   5.256
47486SOL    HW242485   9.170  10.227   5.142
47487SOL     OW42486   8.307  10.684   3.740
47487SOL    HW142487   8.261  10.699   3.828
47487SOL    HW242488   8.351  10.769   3.710
47488SOL     OW42489   8.109  11.100   4.677
47488SOL    HW142490   8.063  11.188   4.664
47488SOL    HW242491   8.208  11.112   4.670
47489SOL     OW42492   8.307  10.266   4.585
47489SOL    HW142493   8.361  10.197   4.633
47489SOL    HW242494   8.275  10.335   4.651
47490SOL     OW42495   8.531  10.294   3.811
47490SOL    HW142496   8.508  10.347   3.729
47490SOL    HW242497   8.612  10.238   3.792
47491SOL     OW42498   9.309  10.879   4.575
47491SOL    HW142499   9.238  10.867   4.505
47491SOL    HW242500   9.310  10.800   4.635
47492SOL     OW42501   7.669  10.624   5.568
47492SOL    HW142502   7.604  10.551   5.547
47492SOL    HW242503   7.673  10.638   5.666
47493SOL     OW42504   7.527  10.550   4.377
47493SOL    HW142505   7.526  10.503   4.465
47493SOL    HW242506   7.609  10.522   4.326
47494SOL     OW42507   8.120  10.701   5.348
47494SOL    HW142508   8.042  10.651   5.386
47494SOL    HW242509   8.117  10.796   5.379
47495SOL     OW42510   9.272   9.502   4.951
47495SOL    HW142511   9.268   9.412   4.995
47495SOL    HW242512   9.275   9.491   4.852
47496SOL     OW42513   7.876   9.734   4.244
47496SOL    HW142514   7.906   9.662   4.182
47496SOL    HW242515   7.837   9.694   4.327
47497SOL     OW42516   9.153  10.797   4.828
47497SOL    HW142517   9.060  10.772   4.801
47497SOL    HW242518   9.179  10.747   4.910
47498SOL     OW42519   7.765   9.857   5.004
47498SOL    HW142520   7.803   9.798   5.076
47498SOL    HW242521   7.805   9.831   4.916
47499SOL     OW42522   8.260  10.896   4.411
47499SOL    HW142523   8.292  10.906   4.317
47499SOL    HW242524   8.181  10.834   4.413
47500SOL     OW42525   8.872   9.524   4.836
47500SOL    HW142526   8.924   9.459   4.891
47500SOL    HW242527   8.823   9.587   4.897
47501SOL     OW42528   8.449   9.344   4.878
47501SOL    HW142529   8.386   9.272   4.847
47501SOL    HW242530   8.542   9.308   4.878
47502SOL     OW42531   8.218  10.640   4.025
47502SOL    HW142532   8.172  10.553   4.042
47502SOL    HW242533   8.309  10.637   4.066
47503SOL     OW42534   8.066  10.877   5.008
47503SOL    HW142535   8.061  10.959   5.065
47503SOL    HW242536   8.155  10.874   4.963
47504SOL     OW42537   8.800   9.362   3.892
47504SOL    HW142538   8.835   9.321   3.808
47504SOL    HW242539   8.710   9.324   3.912
47505SOL     OW42540   8.748   9.763   4.415
47505SOL    HW142541   8.689   9.843   4.419
47505SOL    HW242542   8.763   9.728   4.508
47506SOL     OW42543   9.041   9.531   4.606
47506SOL    HW142544   8.957   9.530   4.660
47506SOL    HW242545   9.043   9.614   4.550
47507SOL     OW42546   7.487  10.387   4.024
47507SOL    HW142547   7.586  10.376   4.015
47507SOL    HW242548   7.447  10.301   4.056
47508SOL     OW42549   8.323  10.956   4.061
47508SOL    HW142550   8.246  10.921   4.007
47508SOL    HW242551   8.291  11.027   4.123
47509SOL     OW42552   7.678   9.938   5.699
47509SOL    HW142553   7.585   9.936   5.736
47509SOL    HW242554   7.679   9.899   5.607
47510SOL     OW42555   7.673   9.585   6.582
47510SOL    HW142556   7.708   9.568   6.674
47510SOL    HW242557   7.585   9.540   6.570
47511SOL     OW42558   7.467   9.678   6.233
47511SOL    HW142559   7.385   9.721   6.272
47511SOL    HW242560   7.439   9.605   6.170
47512SOL     OW42561   8.017  10.585   6.751
47512SOL    HW142562   7.924  10.578   6.714
47512SOL    HW242563   8.028  10.674   6.795
47513SOL     OW42564   9.003  10.821   6.289
47513SOL    HW142565   8.946  10.805   6.370
47513SOL    HW242566   8.944  10.831   6.209
47514SOL     OW42567   8.583  10.013   6.303
47514SOL    HW142568   8.640  10.091   6.278
47514SOL    HW242569   8.523  10.039   6.379
47515SOL     OW42570   9.203   9.917   5.817
47515SOL    HW142571   9.191   9.904   5.718
47515SOL    HW242572   9.173   9.836   5.866
47516SOL     OW42573   8.216  10.454   6.609
47516SOL    HW142574   8.138  10.471   6.669
47516SOL    HW242575   8.250  10.541   6.573
47517SOL     OW42576   8.298  10.108   7.409
47517SOL    HW142577   8.294  10.184   7.474
47517SOL    HW242578   8.320  10.144   7.318
47518SOL     OW42579   8.133  10.322   6.251
47518SOL    HW142580   8.202  10.306   6.321
47518SOL    HW242581   8.060  10.379   6.289
47519SOL     OW42582   8.134  10.471   7.389
47519SOL    HW142583   8.194  10.550   7.403
47519SOL    HW242584   8.048  10.502   7.348
47520SOL     OW42585   7.783  10.745   6.647
47520SOL    HW142586   7.705  10.714   6.594
47520SOL    HW242587   7.841  10.803   6.590
47521SOL     OW42588   8.908  10.815   6.925
47521SOL    HW142589   8.932  10.909   6.951
47521SOL    HW242590   8.892  10.761   7.007
47522SOL     OW42591   7.886   9.702   7.085
47522SOL    HW142592   7.968   9.646   7.094
47522SOL    HW242593   7.805   9.644   7.089
47523SOL     OW42594   9.051   9.757   6.323
47523SOL    HW142595   8.977   9.803   6.273
47523SOL    HW242596   9.102   9.825   6.376
47524SOL     OW42597   7.679  11.023   6.069
47524SOL    HW142598   7.713  11.100   6.123
47524SOL    HW242599   7.723  11.023   5.979
47525SOL     OW42600   8.575  10.651   7.276
47525SOL    HW142601   8.622  10.651   7.364
47525SOL    HW242602   8.527  10.564   7.265
47526SOL     OW42603   7.678  10.744   6.124
47526SOL    HW142604   7.652  10.840   6.124
47526SOL    HW242605   7.607  10.690   6.169
47527SOL     OW42606   7.688  10.401   6.472
47527SOL    HW142607   7.702  10.317   6.524
47527SOL    HW242608   7.633  10.465   6.527
47528SOL     OW42609   8.068  11.096   7.025
47528SOL    HW142610   7.976  11.079   7.060
47528SOL    HW242611   8.096  11.188   7.051
47529SOL     OW42612   8.054  10.274   5.709
47529SOL    HW142613   8.061  10.358   5.655
47529SOL    HW242614   8.100  10.287   5.797
47530SOL     OW42615   9.042   9.424   7.066
47530SOL    HW142616   9.024   9.491   6.994
47530SOL    HW242617   9.039   9.470   7.155
47531SOL     OW42618   7.570   9.953   6.149
47531SOL    HW142619   7.525   9.865   6.166
47531SOL    HW242620   7.569  10.007   6.233
47532SOL     OW42621   9.290  11.077   5.945
47532SOL    HW142622   9.344  11.048   6.025
47532SOL    HW242623   9.320  11.167   5.916
47533SOL     OW42624   7.475  10.906   5.703
47533SOL    HW142625   7.456  10.810   5.724
47533SOL    HW242626   7.442  10.964   5.778
47534SOL     OW42627   9.137  10.232   6.198
47534SOL    HW142628   9.232  10.203   6.206
47534SOL    HW242629   9.129  10.297   6.123
47535SOL     OW42630   9.089  10.418   6.018
47535SOL    HW142631   9.175  10.420   5.966
47535SOL    HW242632   9.103  10.465   6.106
47536SOL     OW42633   7.561  10.047   7.183
47536SOL    HW142634   7.649  10.034   7.228
47536SOL    HW242635   7.548  10.144   7.161
47537SOL     OW42636   8.061  10.675   6.312
47537SOL    HW142637   8.012  10.588   6.321
47537SOL    HW242638   8.038  10.718   6.225
47538SOL     OW42639   8.741  10.538   7.009
47538SOL    HW142640   8.778  10.465   6.951
47538SOL    HW242641   8.793  10.543   7.094
47539SOL     OW42642   8.257   9.314   6.088
47539SOL    HW142643   8.297   9.405   6.079
47539SOL    HW242644   8.157   9.322   6.094
47540SOL     OW42645   7.645  10.286   6.850
47540SOL    HW142646   7.734  10.241   6.836
47540SOL    HW242647   7.572  10.221   6.831
47541SOL     OW42648   8.973  10.309   5.776
47541SOL    HW142649   8.910  10.233   5.789
47541SOL    HW242650   9.021  10.327   5.862
47542SOL     OW42651   8.635  11.102   7.202
47542SOL    HW142652   8.659  11.162   7.126
47542SOL    HW242653   8.642  11.007   7.172
47543SOL     OW42654   7.765   9.561   7.387
47543SOL    HW142655   7.836   9.632   7.393
47543SOL    HW242656   7.677   9.600   7.415
47544SOL     OW42657   8.914  10.727   6.539
47544SOL    HW142658   8.855  10.733   6.619
47544SOL    HW242659   8.899  10.639   6.493
47545SOL     OW42660   9.115  11.024   6.158
47545SOL    HW142661   9.074  11.001   6.070
47545SOL    HW242662   9.097  10.950   6.223
47546SOL     OW42663   8.046  10.039   5.856
47546SOL    HW142664   8.070  10.108   5.788
47546SOL    HW242665   7.968  10.072   5.910
47547SOL     OW42666   8.729   9.655   6.530
47547SOL    HW142667   8.643   9.605   6.517
47547SOL    HW242668   8.791   9.601   6.586
47548SOL     OW42669   9.024  10.972   5.893
47548SOL    HW142670   9.113  11.018   5.896
47548SOL    HW242671   9.003  10.948   5.798
47549SOL     OW42672   8.255   9.915   7.051
47549SOL    HW142673   8.208   9.912   7.140
47549SOL    HW242674   8.204   9.860   6.985
47550SOL     OW42675   8.842   9.779   7.260
47550SOL    HW142676   8.822   9.822   7.348
47550SOL    HW242677   8.920   9.717   7.269
47551SOL     OW42678   8.421  10.200   7.158
47551SOL    HW142679   8.467  10.116   7.129
47551SOL    HW242680   8.365  10.234   7.083
47552SOL     OW42681   8.439   9.720   6.828
47552SOL    HW142682   8.362   9.754   6.882
47552SOL    HW242683   8.405   9.669   6.749
47553SOL     OW42684   8.489  10.011   6.015
47553SOL    HW142685   8.515  10.007   6.111
47553SOL    HW242686   8.404   9.960   6.001
47554SOL     OW42687   7.524  10.121   6.375
47554SOL    HW142688   7.623  10.109   6.384
47554SOL    HW242689   7.500  10.216   6.396
47555SOL     OW42690   7.578  11.131   7.157
47555SOL    HW142691   7.568  11.116   7.256
47555SOL    HW242692   7.492  11.167   7.121
47556SOL     OW42693   8.313   9.658   5.781
47556SOL    HW142694   8.372   9.721   5.732
47556SOL    HW242695   8.332   9.564   5.752
47557SOL     OW42696   9.167   9.895   7.417
47557SOL    HW142697   9.141   9.984   7.381
47557SOL    HW242698   9.165   9.827   7.344
47558SOL     OW42699   8.810  10.454   6.131
47558SOL    HW142700   8.893  10.425   6.083
47558SOL    HW242701   8.761  10.521   6.075
47559SOL     OW42702   7.998   9.506   6.471
47559SOL    HW142703   7.993   9.501   6.571
47559SOL    HW242704   8.000   9.602   6.442
47560SOL     OW42705   8.456  10.766   6.063
47560SOL    HW142706   8.410  10.838   6.011
47560SOL    HW242707   8.452  10.786   6.161
47561SOL     OW42708   7.799  11.111   6.439
47561SOL    HW142709   7.849  11.025   6.445
47561SOL    HW242710   7.864  11.188   6.436
47562SOL     OW42711   9.243  10.376   6.459
47562SOL    HW142712   9.181  10.361   6.383
47562SOL    HW242713   9.191  10.387   6.544
47563SOL     OW42714   8.675  10.860   7.092
47563SOL    HW142715   8.681  10.783   7.156
47563SOL    HW242716   8.623  10.834   7.012
47564SOL     OW42717   7.769  10.253   5.828
47564SOL    HW142718   7.851  10.292   5.786
47564SOL    HW242719   7.742  10.171   5.779
47565SOL     OW42720   8.906  10.045   6.314
47565SOL    HW142721   8.901   9.980   6.389
47565SOL    HW242722   8.986  10.104   6.327
47566SOL     OW42723   7.909  10.576   7.313
47566SOL    HW142724   7.859  10.577   7.227
47566SOL    HW242725   7.846  10.558   7.389
47567SOL     OW42726   8.559  11.086   5.823
47567SOL    HW142727   8.499  11.024   5.873
47567SOL    HW242728   8.590  11.042   5.738
47568SOL     OW42729   7.650   9.595   7.084
47568SOL    HW142730   7.570   9.655   7.071
47568SOL    HW242731   7.640   9.546   7.170
47569SOL     OW42732   9.080  10.687   5.667
47569SOL    HW142733   9.048  10.781   5.657
47569SOL    HW242734   9.004  10.624   5.655
47570SOL     OW42735   7.912  11.053   5.909
47570SOL    HW142736   7.945  11.092   5.995
47570SOL    HW242737   7.988  11.046   5.844
47571SOL     OW42738   8.848   9.417   6.012
47571SOL    HW142739   8.824   9.380   5.922
47571SOL    HW242740   8.947   9.433   6.016
47572SOL     OW42741   7.697  11.095   6.827
47572SOL    HW142742   7.754  11.030   6.877
47572SOL    HW242743   7.681  11.062   6.734
47573SOL     OW42744   8.388  11.008   6.490
47573SOL    HW142745   8.468  10.951   6.511
47573SOL    HW242746   8.339  10.968   6.413
47574SOL     OW42747   7.830  10.010   6.066
47574SOL    HW142748   7.875   9.920   6.063
47574SOL    HW242749   7.736   9.999   6.099
47575SOL     OW42750   8.995   9.532   7.315
47575SOL    HW142751   8.990   9.569   7.407
47575SOL    HW242752   8.923   9.463   7.303
47576SOL     OW42753   8.062   9.432   5.703
47576SOL    HW142754   8.160   9.410   5.710
47576SOL    HW242755   8.031   9.415   5.610
47577SOL     OW42756   8.229   9.574   7.335
47577SOL    HW142757   8.296   9.513   7.378
47577SOL    HW242758   8.156   9.593   7.400
47578SOL     OW42759   8.336  10.824   6.781
47578SOL    HW142760   8.313  10.799   6.687
47578SOL    HW242761   8.397  10.755   6.820
47579SOL     OW42762   8.799   9.900   7.019
47579SOL    HW142763   8.827   9.857   7.104
47579SOL    HW242764   8.824   9.996   7.020
47580SOL     OW42765   8.251  10.712   6.510
47580SOL    HW142766   8.341  10.726   6.468
47580SOL    HW242767   8.180  10.714   6.439
47581SOL     OW42768   8.370   9.813   6.485
47581SOL    HW142769   8.345   9.804   6.389
47581SOL    HW242770   8.418   9.731   6.516
47582SOL     OW42771   7.987   9.374   6.098
47582SOL    HW142772   7.906   9.375   6.156
47582SOL    HW242773   7.990   9.457   6.043
47583SOL     OW42774   8.882  10.498   5.627
47583SOL    HW142775   8.914  10.422   5.684
47583SOL    HW242776   8.790  10.525   5.657
47584SOL     OW42777   7.745   9.345   5.757
47584SOL    HW142778   7.794   9.429   5.736
47584SOL    HW242779   7.807   9.280   5.802
47585SOL     OW42780   8.383   9.546   6.066
47585SOL    HW142781   8.335   9.587   5.988
47585SOL    HW242782   8.482   9.544   6.047
47586SOL     OW42783   8.524   9.993   7.050
47586SOL    HW142784   8.444   9.932   7.053
47586SOL    HW242785   8.605   9.940   7.026
47587SOL     OW42786   8.675  10.880   6.379
47587SOL    HW142787   8.696  10.954   6.314
47587SOL    HW242788   8.743  10.880   6.452
47588SOL     OW42789   7.907  10.462   6.327
47588SOL    HW142790   7.836  10.435   6.392
47588SOL    HW242791   7.881  10.434   6.234
47589SOL     OW42792   8.719  11.107   6.177
47589SOL    HW142793   8.763  11.171   6.113
47589SOL    HW242794   8.669  11.159   6.247
47590SOL     OW42795   8.480   9.859   5.602
47590SOL    HW142796   8.439   9.941   5.563
47590SOL    HW242797   8.544   9.885   5.675
47591SOL     OW42798   7.526   9.866   6.972
47591SOL    HW142799   7.618   9.865   6.931
47591SOL    HW242800   7.520   9.940   7.039
47592SOL     OW42801   8.009   9.532   6.733
47592SOL    HW142802   8.047   9.448   6.770
47592SOL    HW242803   7.921   9.551   6.777
47593SOL     OW42804   8.314   9.764   6.228
47593SOL    HW142805   8.282   9.836   6.166
47593SOL    HW242806   8.338   9.683   6.175
47594SOL     OW42807   8.465   9.349   6.339
47594SOL    HW142808   8.393   9.354   6.270
47594SOL    HW242809   8.441   9.280   6.408
47595SOL     OW42810   8.877  10.483   6.453
47595SOL    HW142811   8.822  10.399   6.446
47595SOL    HW242812   8.903  10.512   6.361
47596SOL     OW42813   8.914   9.900   6.578
47596SOL    HW142814   8.884   9.805   6.585
47596SOL    HW242815   8.987   9.916   6.644
47597SOL     OW42816   9.305  10.143   5.963
47597SOL    HW142817   9.347  10.079   6.027
47597SOL    HW242818   9.267  10.092   5.885
47598SOL     OW42819   7.936  10.695   5.760
47598SOL    HW142820   7.849  10.680   5.807
47598SOL    HW242821   7.919  10.721   5.665
47599SOL     OW42822   9.112  10.590   6.243
47599SOL    HW142823   9.211  10.598   6.257
47599SOL    HW242824   9.067  10.674   6.274
47600SOL     OW42825   8.838   9.885   5.664
47600SOL    HW142826   8.784   9.864   5.745
47600SOL    HW242827   8.929   9.844   5.673
47601SOL     OW42828   7.975   9.566   5.914
47601SOL    HW142829   8.002   9.507   5.839
47601SOL    HW242830   7.975   9.661   5.883
47602SOL     OW42831   9.202  10.533   7.174
47602SOL    HW142832   9.293  10.494   7.161
47602SOL    HW242833   9.210  10.629   7.198
47603SOL     OW42834   8.512  10.657   6.926
47603SOL    HW142835   8.432  10.634   6.981
47603SOL    HW242836   8.595  10.631   6.975
47604SOL     OW42837   9.040  10.939   7.211
47604SOL    HW142838   9.067  10.973   7.121
47604SOL    HW242839   9.119  10.901   7.257
47605SOL     OW42840   8.559  10.505   6.686
47605SOL    HW142841   8.519  10.549   6.767
47605SOL    HW242842   8.518  10.542   6.603
47606SOL     OW42843   9.086  10.409   6.665
47606SOL    HW142844   9.091  10.490   6.724
47606SOL    HW242845   9.000  10.411   6.614
47607SOL     OW42846   8.363   9.399   6.988
47607SOL    HW142847   8.388   9.379   6.893
47607SOL    HW242848   8.435   9.455   7.030
47608SOL     OW42849   8.428  10.426   7.305
47608SOL    HW142850   8.329  10.432   7.315
47608SOL    HW242851   8.451  10.346   7.249
47609SOL     OW42852   8.153  10.360   5.954
47609SOL    HW142853   8.139  10.367   6.053
47609SOL    HW242854   8.237  10.309   5.936
47610SOL     OW42855   7.858  10.123   6.837
47610SOL    HW142856   7.944  10.135   6.887
47610SOL    HW242857   7.816  10.036   6.864
47611SOL     OW42858   8.722   9.696   6.848
47611SOL    HW142859   8.743   9.770   6.912
47611SOL    HW242860   8.633   9.713   6.805
47612SOL     OW42861   7.512  10.874   6.917
47612SOL    HW142862   7.466  10.956   6.883
47612SOL    HW242863   7.610  10.893   6.926
47613SOL     OW42864   7.815  10.410   6.087
47613SOL    HW142865   7.808  10.493   6.031
47613SOL    HW242866   7.819  10.330   6.027
47614SOL     OW42867   8.014   9.847   6.451
47614SOL    HW142868   8.026   9.913   6.377
47614SOL    HW242869   8.060   9.881   6.534
47615SOL     OW42870   8.700  10.658   5.974
47615SOL    HW142871   8.750  10.735   6.014
47615SOL    HW242872   8.605  10.660   6.006
47616SOL     OW42873   8.720  10.755   6.728
47616SOL    HW142874   8.767  10.768   6.815
47616SOL    HW242875   8.654  10.681   6.737
47617SOL     OW42876   9.030   9.949   6.058
47617SOL    HW142877   8.999  10.010   6.131
47617SOL    HW242878   9.080  10.001   5.989
47618SOL     OW42879   7.802  10.820   6.915
47618SOL    HW142880   7.781  10.776   6.828
47618SOL    HW242881   7.899  10.846   6.918
47619SOL     OW42882   7.850  10.061   7.184
47619SOL    HW142883   7.918  10.116   7.137
47619SOL    HW242884   7.890   9.973   7.211
47620SOL     OW42885   9.035  10.089   7.256
47620SOL    HW142886   8.943  10.127   7.251
47620SOL    HW242887   9.095  10.136   7.191
47621SOL     OW42888   8.461   9.415   7.356
47621SOL    HW142889   8.467   9.500   7.304
47621SOL    HW242890   8.493   9.339   7.299
47622SOL     OW42891   7.952   9.360   7.326
47622SOL    HW142892   7.910   9.303   7.256
47622SOL    HW242893   7.886   9.429   7.358
47623SOL     OW42894   8.021  10.180   6.615
47623SOL    HW142895   8.065  10.269   6.606
47623SOL    HW242896   7.958  10.180   6.692
47624SOL     OW42897   8.808  10.172   6.631
47624SOL    HW142898   8.733  10.172   6.565
47624SOL    HW242899   8.845  10.080   6.640
47625SOL     OW42900   8.657   9.835   5.861
47625SOL    HW142901   8.670   9.751   5.915
47625SOL    HW242902   8.628   9.909   5.921
47626SOL     OW42903   7.755   9.523   6.817
47626SOL    HW142904   7.732   9.560   6.907
47626SOL    HW242905   7.725   9.428   6.811
47627SOL     OW42906   7.485  10.620   6.868
47627SOL    HW142907   7.538  10.571   6.936
47627SOL    HW242908   7.507  10.718   6.873
47628SOL     OW42909   8.180   9.944   6.650
47628SOL    HW142910   8.239   9.918   6.574
47628SOL    HW242911   8.152  10.040   6.639
47629SOL     OW42912   9.176  10.245   7.440
47629SOL    HW142913   9.130  10.238   7.351
47629SOL    HW242914   9.114  10.289   7.506
47630SOL     OW42915   7.755   9.373   6.204
47630SOL    HW142916   7.744   9.467   6.237
47630SOL    HW242917   7.750   9.310   6.281
47631SOL     OW42918   9.070   9.677   5.960
47631SOL    HW142919   9.072   9.601   6.024
47631SOL    HW242920   9.022   9.754   6.000
47632SOL     OW42921   8.471  10.076   6.552
47632SOL    HW142922   8.486  10.097   6.648
47632SOL    HW242923   8.441   9.981   6.543
47633SOL     OW42924   8.428  10.883   7.286
47633SOL    HW142925   8.408  10.927   7.198
47633SOL    HW242926   8.467  10.792   7.270
47634SOL     OW42927   9.307  10.828   7.191
47634SOL    HW142928   9.321  10.855   7.096
47634SOL    HW242929   9.390  10.850   7.244
47635SOL     OW42930   7.798  10.208   7.390
47635SOL    HW142931   7.874  10.252   7.438
47635SOL    HW242932   7.833  10.161   7.308
47636SOL     OW42933   8.988   9.584   5.711
47636SOL    HW142934   8.927   9.509   5.734
47636SOL    HW242935   9.010   9.636   5.794
47637SOL     OW42936   8.751  10.148   5.628
47637SOL    HW142937   8.785  10.055   5.643
47637SOL    HW242938   8.769  10.175   5.533
47638SOL     OW42939   8.516  10.643   6.435
47638SOL    HW142940   8.523  10.559   6.380
47638SOL    HW242941   8.578  10.712   6.399
47639SOL     OW42942   7.767  10.120   6.535
47639SOL    HW142943   7.860  10.156   6.540
47639SOL    HW242944   7.761  10.035   6.587
47640SOL     OW42945   7.787   9.819   6.592
47640SOL    HW142946   7.735   9.736   6.575
47640SOL    HW242947   7.864   9.824   6.528
47641SOL     OW42948   8.586   9.690   7.264
47641SOL    HW142949   8.541   9.753   7.328
47641SOL    HW242950   8.679   9.721   7.247
47642SOL     OW42951   8.608   9.517   7.063
47642SOL    HW142952   8.608   9.581   7.140
47642SOL    HW242953   8.636   9.565   6.980
47643SOL     OW42954   7.456  10.636   5.786
47643SOL    HW142955   7.363  10.657   5.755
47643SOL    HW242956   7.466  10.537   5.799
47644SOL     OW42957   7.536  11.111   6.513
47644SOL    HW142958   7.494  11.025   6.486
47644SOL    HW242959   7.630  11.114   6.479
47645SOL     OW42960   7.952  10.878   6.496
47645SOL    HW142961   8.018  10.952   6.505
47645SOL    HW242962   7.996  10.799   6.454
47646SOL     OW42963   8.450  10.106   6.824
47646SOL    HW142964   8.491  10.074   6.910
47646SOL    HW242965   8.354  10.079   6.821
47647SOL     OW42966   7.488   9.854   6.700
47647SOL    HW142967   7.573   9.821   6.659
47647SOL    HW242968   7.501   9.869   6.798
47648SOL     OW42969   7.637   9.830   7.308
47648SOL    HW142970   7.696   9.790   7.238
47648SOL    HW242971   7.579   9.901   7.267
47649SOL     OW42972   8.817  10.260   7.246
47649SOL    HW142973   8.856  10.349   7.266
47649SOL    HW242974   8.827  10.240   7.149
47650SOL     OW42975   8.263   9.882   5.911
47650SOL    HW142976   8.270   9.793   5.865
47650SOL    HW242977   8.169   9.916   5.903
47651SOL     OW42978   9.105   9.914   6.792
47651SOL    HW142979   9.067   9.845   6.854
47651SOL    HW242980   9.187   9.878   6.748
47652SOL     OW42981   7.700  10.874   7.330
47652SOL    HW142982   7.670  10.931   7.406
47652SOL    HW242983   7.693  10.777   7.356
47653SOL     OW42984   8.119   9.774   6.855
47653SOL    HW142985   8.085   9.685   6.825
47653SOL    HW242986   8.145   9.828   6.775
47654SOL     OW42987   8.378  10.988   7.051
47654SOL    HW142988   8.354  10.970   6.956
47654SOL    HW242989   8.408  11.082   7.061
47655SOL     OW42990   7.921   9.810   5.777
47655SOL    HW142991   7.982   9.890   5.781
47655SOL    HW242992   7.826   9.841   5.784
47656SOL     OW42993   7.607  10.447   7.052
47656SOL    HW142994   7.629  10.386   7.128
47656SOL    HW242995   7.617  10.398   6.966
47657SOL     OW42996   8.795  10.369   6.820
47657SOL    HW142997   8.819  10.306   6.746
47657SOL    HW242998   8.705  10.409   6.802
47658SOL     OW42999   8.750  10.165   5.895
47658SOL    HW143000   8.664  10.134   5.937
47658SOL    HW243001   8.746  10.151   5.796
47659SOL     OW43002   9.207  11.057   6.740
47659SOL    HW143003   9.268  11.087   6.667
47659SOL    HW243004   9.169  10.968   6.718
47660SOL     OW43005   8.700  11.041   6.714
47660SOL    HW143006   8.784  11.046   6.660
47660SOL    HW243007   8.677  10.945   6.732
47661SOL     OW43008   7.531  10.568   6.608
47661SOL    HW143009   7.526  10.567   6.708
47661SOL    HW243010   7.448  10.527   6.570
47662SOL     OW43011   8.136  10.972   7.302
47662SOL    HW143012   8.080  11.053   7.311
47662SOL    HW243013   8.188  10.976   7.216
47663SOL     OW43014   9.174   9.445   6.109
47663SOL    HW143015   9.247   9.428   6.042
47663SOL    HW243016   9.143   9.358   6.147
47664SOL     OW43017   8.836  10.883   6.063
47664SOL    HW143018   8.903  10.895   5.989
47664SOL    HW243019   8.796  10.972   6.086
47665SOL     OW43020   7.578  11.104   7.437
47665SOL    HW143021   7.537  11.030   7.490
47665SOL    HW243022   7.642  11.155   7.495
47666SOL     OW43023   8.728  10.237   6.258
47666SOL    HW143024   8.788  10.156   6.260
47666SOL    HW243025   8.768  10.306   6.198
47667SOL     OW43026   8.278  10.583   7.008
47667SOL    HW143027   8.273  10.616   7.103
47667SOL    HW243028   8.192  10.602   6.962
47668SOL     OW43029   8.120  10.926   5.740
47668SOL    HW143030   8.129  10.936   5.641
47668SOL    HW243031   8.080  10.837   5.761
47669SOL     OW43032   9.098  11.030   6.980
47669SOL    HW143033   9.151  11.040   6.896
47669SOL    HW243034   9.071  11.120   7.014
47670SOL     OW43035   9.289   9.485   6.549
47670SOL    HW143036   9.328   9.400   6.513
47670SOL    HW243037   9.191   9.487   6.530
47671SOL     OW43038   7.711   9.636   6.306
47671SOL    HW143039   7.632   9.687   6.272
47671SOL    HW243040   7.702   9.621   6.404
47672SOL     OW43041   8.642  10.922   5.617
47672SOL    HW143042   8.648  10.829   5.654
47672SOL    HW243043   8.583  10.922   5.537
47673SOL     OW43044   8.270  10.312   6.958
47673SOL    HW143045   8.310  10.311   6.866
47673SOL    HW243046   8.280  10.404   6.998
47674SOL     OW43047   8.364  10.220   5.877
47674SOL    HW143048   8.427  10.258   5.809
47674SOL    HW243049   8.404  10.137   5.916
47675SOL     OW43050   8.952  10.917   5.630
47675SOL    HW143051   8.860  10.954   5.637
47675SOL    HW243052   8.990  10.937   5.540
47676SOL     OW43053   7.820  10.598   7.076
47676SOL    HW143054   7.807  10.691   7.042
47676SOL    HW243055   7.736  10.546   7.063
47677SOL     OW43056   9.062  10.602   6.875
47677SOL    HW143057   9.122  10.605   6.955
47677SOL    HW243058   8.987  10.666   6.888
47678SOL     OW43059   8.487  10.408   6.282
47678SOL    HW143060   8.417  10.361   6.336
47678SOL    HW243061   8.546  10.340   6.239
47679SOL     OW43062   8.462   9.546   6.557
47679SOL    HW143063   8.454   9.510   6.464
47679SOL    HW243064   8.460   9.470   6.622
47680SOL     OW43065   8.038  10.797   6.077
47680SOL    HW143066   8.080  10.739   6.007
47680SOL    HW243067   7.994  10.876   6.033
47681SOL     OW43068   9.157   9.695   6.967
47681SOL    HW143069   9.230   9.764   6.971
47681SOL    HW243070   9.185   9.620   6.908
47682SOL     OW43071   7.703  10.658   5.876
47682SOL    HW143072   7.607  10.659   5.849
47682SOL    HW243073   7.715  10.711   5.960
47683SOL     OW43074   7.553  10.323   7.312
47683SOL    HW143075   7.476  10.290   7.366
47683SOL    HW243076   7.638  10.293   7.354
47684SOL     OW43077   8.120   9.513   7.075
47684SOL    HW143078   8.210   9.497   7.035
47684SOL    HW243079   8.128   9.518   7.174
47685SOL     OW43080   7.523   9.655   5.619
47685SOL    HW143081   7.431   9.627   5.590
47685SOL    HW243082   7.554   9.732   5.563
47686SOL     OW43083   8.888  10.166   6.984
47686SOL    HW143084   8.831  10.218   6.921
47686SOL    HW243085   8.984  10.178   6.960
47687SOL     OW43086   7.520   9.476   5.904
47687SOL    HW143087   7.503   9.559   5.850
47687SOL    HW243088   7.610   9.439   5.882
47688SOL     OW43089   8.631  10.645   5.705
47688SOL    HW143090   8.532  10.634   5.707
47688SOL    HW243091   8.665  10.660   5.798
47689SOL     OW43092   8.061  10.152   7.017
47689SOL    HW143093   8.117  10.233   7.000
47689SOL    HW243094   8.120  10.072   7.020
47690SOL     OW43095   8.941  11.077   6.545
47690SOL    HW143096   8.974  11.141   6.476
47690SOL    HW243097   9.007  11.071   6.620
47691SOL     OW43098   8.164   9.875   7.294
47691SOL    HW143099   8.183   9.940   7.368
47691SOL    HW243100   8.224   9.795   7.303
47692SOL     OW43101   8.898  10.530   7.219
47692SOL    HW143102   8.889  10.520   7.318
47692SOL    HW243103   8.994  10.523   7.193
47693SOL     OW43104   7.838  11.051   7.146
47693SOL    HW143105   7.747  11.092   7.144
47693SOL    HW243106   7.831  10.957   7.178
47694SOL     OW43107   9.122  10.193   6.840
47694SOL    HW143108   9.095  10.104   6.803
47694SOL    HW243109   9.123  10.261   6.767
47695SOL     OW43110   8.673   9.635   6.035
47695SOL    HW143111   8.738   9.561   6.024
47695SOL    HW243112   8.693   9.685   6.119
47696SOL     OW43113   8.042  10.055   6.238
47696SOL    HW143114   8.092  10.140   6.219
47696SOL    HW243115   7.954  10.057   6.190
47697SOL     OW43116   9.225   9.652   7.228
47697SOL    HW143117   9.208   9.683   7.134
47697SOL    HW243118   9.141   9.615   7.266
47698SOL     OW43119   9.178  10.244   7.103
47698SOL    HW143120   9.216  10.335   7.118
47698SOL    HW243121   9.170  10.227   7.004
47699SOL     OW43122   8.307  10.684   5.602
47699SOL    HW143123   8.261  10.699   5.690
47699SOL    HW243124   8.351  10.769   5.572
47700SOL     OW43125   8.109  11.100   6.539
47700SOL    HW143126   8.063  11.188   6.526
47700SOL    HW243127   8.208  11.112   6.532
47701SOL     OW43128   8.307  10.266   6.447
47701SOL    HW143129   8.361  10.197   6.495
47701SOL    HW243130   8.275  10.335   6.513
47702SOL     OW43131   8.531  10.294   5.673
47702SOL    HW143132   8.508  10.347   5.591
47702SOL    HW243133   8.612  10.238   5.654
47703SOL     OW43134   9.309  10.879   6.437
47703SOL    HW143135   9.238  10.867   6.367
47703SOL    HW243136   9.310  10.800   6.497
47704SOL     OW43137   7.669  10.624   7.430
47704SOL    HW143138   7.604  10.551   7.409
47704SOL    HW243139   7.673  10.638   7.528
47705SOL     OW43140   7.527  10.550   6.239
47705SOL    HW143141   7.526  10.503   6.327
47705SOL    HW243142   7.609  10.522   6.188
47706SOL     OW43143   8.120  10.701   7.210
47706SOL    HW143144   8.042  10.651   7.248
47706SOL    HW243145   8.117  10.796   7.241
47707SOL     OW43146   9.272   9.502   6.813
47707SOL    HW143147   9.268   9.412   6.857
47707SOL    HW243148   9.275   9.491   6.714
47708SOL     OW43149   7.876   9.734   6.106
47708SOL    HW143150   7.906   9.662   6.044
47708SOL    HW243151   7.837   9.694   6.189
47709SOL     OW43152   9.153  10.797   6.690
47709SOL    HW143153   9.060  10.772   6.663
47709SOL    HW243154   9.179  10.747   6.772
47710SOL     OW43155   7.765   9.857   6.866
47710SOL    HW143156   7.803   9.798   6.938
47710SOL    HW243157   7.805   9.831   6.778
47711SOL     OW43158   8.260  10.896   6.273
47711SOL    HW143159   8.292  10.906   6.179
47711SOL    HW243160   8.181  10.834   6.275
47712SOL     OW43161   8.872   9.524   6.698
47712SOL    HW143162   8.924   9.459   6.753
47712SOL    HW243163   8.823   9.587   6.759
47713SOL     OW43164   8.449   9.344   6.740
47713SOL    HW143165   8.386   9.272   6.709
47713SOL    HW243166   8.542   9.308   6.740
47714SOL     OW43167   8.218  10.640   5.887
47714SOL    HW143168   8.172  10.553   5.904
47714SOL    HW243169   8.309  10.637   5.928
47715SOL     OW43170   8.066  10.877   6.870
47715SOL    HW143171   8.061  10.959   6.927
47715SOL    HW243172   8.155  10.874   6.825
47716SOL     OW43173   8.800   9.362   5.754
47716SOL    HW143174   8.835   9.321   5.670
47716SOL    HW243175   8.710   9.324   5.774
47717SOL     OW43176   8.748   9.763   6.277
47717SOL    HW143177   8.689   9.843   6.281
47717SOL    HW243178   8.763   9.728   6.370
47718SOL     OW43179   9.041   9.531   6.468
47718SOL    HW143180   8.957   9.530   6.522
47718SOL    HW243181   9.043   9.614   6.412
47719SOL     OW43182   7.487  10.387   5.886
47719SOL    HW143183   7.586  10.376   5.877
47719SOL    HW243184   7.447  10.301   5.918
47720SOL     OW43185   8.323  10.956   5.923
47720SOL    HW143186   8.246  10.921   5.869
47720SOL    HW243187   8.291  11.027   5.985
47721SOL     OW43188   7.678   9.938   7.561
47721SOL    HW143189   7.585   9.936   7.598
47721SOL    HW243190   7.679   9.899   7.469
47722SOL     OW43191   7.673   9.585   8.444
47722SOL    HW143192   7.708   9.568   8.536
47722SOL    HW243193   7.585   9.540   8.432
47723SOL     OW43194   7.467   9.678   8.095
47723SOL    HW143195   7.385   9.721   8.134
47723SOL    HW243196   7.439   9.605   8.032
47724SOL     OW43197   8.017  10.585   8.613
47724SOL    HW143198   7.924  10.578   8.576
47724SOL    HW243199   8.028  10.674   8.657
47725SOL     OW43200   9.003  10.821   8.151
47725SOL    HW143201   8.946  10.805   8.232
47725SOL    HW243202   8.944  10.831   8.071
47726SOL     OW43203   8.583  10.013   8.165
47726SOL    HW143204   8.640  10.091   8.140
47726SOL    HW243205   8.523  10.039   8.241
47727SOL     OW43206   9.203   9.917   7.679
47727SOL    HW143207   9.191   9.904   7.580
47727SOL    HW243208   9.173   9.836   7.728
47728SOL     OW43209   8.216  10.454   8.471
47728SOL    HW143210   8.138  10.471   8.531
47728SOL    HW243211   8.250  10.541   8.435
47729SOL     OW43212   8.298  10.108   9.271
47729SOL    HW143213   8.294  10.184   9.336
47729SOL    HW243214   8.320  10.144   9.180
47730SOL     OW43215   8.133  10.322   8.113
47730SOL    HW143216   8.202  10.306   8.183
47730SOL    HW243217   8.060  10.379   8.151
47731SOL     OW43218   8.134  10.471   9.251
47731SOL    HW143219   8.194  10.550   9.265
47731SOL    HW243220   8.048  10.502   9.210
47732SOL     OW43221   7.783  10.745   8.509
47732SOL    HW143222   7.705  10.714   8.456
47732SOL    HW243223   7.841  10.803   8.452
47733SOL     OW43224   8.908  10.815   8.787
47733SOL    HW143225   8.932  10.909   8.813
47733SOL    HW243226   8.892  10.761   8.869
47734SOL     OW43227   7.886   9.702   8.947
47734SOL    HW143228   7.968   9.646   8.956
47734SOL    HW243229   7.805   9.644   8.951
47735SOL     OW43230   9.051   9.757   8.185
47735SOL    HW143231   8.977   9.803   8.135
47735SOL    HW243232   9.102   9.825   8.238
47736SOL     OW43233   7.679  11.023   7.931
47736SOL    HW143234   7.713  11.100   7.985
47736SOL    HW243235   7.723  11.023   7.841
47737SOL     OW43236   8.575  10.651   9.138
47737SOL    HW143237   8.622  10.651   9.226
47737SOL    HW243238   8.527  10.564   9.127
47738SOL     OW43239   7.678  10.744   7.986
47738SOL    HW143240   7.652  10.840   7.986
47738SOL    HW243241   7.607  10.690   8.031
47739SOL     OW43242   7.688  10.401   8.334
47739SOL    HW143243   7.702  10.317   8.386
47739SOL    HW243244   7.633  10.465   8.389
47740SOL     OW43245   8.068  11.096   8.887
47740SOL    HW143246   7.976  11.079   8.922
47740SOL    HW243247   8.096  11.188   8.913
47741SOL     OW43248   8.054  10.274   7.571
47741SOL    HW143249   8.061  10.358   7.517
47741SOL    HW243250   8.100  10.287   7.659
47742SOL     OW43251   9.042   9.424   8.928
47742SOL    HW143252   9.024   9.491   8.856
47742SOL    HW243253   9.039   9.470   9.017
47743SOL     OW43254   7.570   9.953   8.011
47743SOL    HW143255   7.525   9.865   8.028
47743SOL    HW243256   7.569  10.007   8.095
47744SOL     OW43257   9.290  11.077   7.807
47744SOL    HW143258   9.344  11.048   7.887
47744SOL    HW243259   9.320  11.167   7.778
47745SOL     OW43260   7.475  10.906   7.565
47745SOL    HW143261   7.456  10.810   7.586
47745SOL    HW243262   7.442  10.964   7.640
47746SOL     OW43263   9.137  10.232   8.060
47746SOL    HW143264   9.232  10.203   8.068
47746SOL    HW243265   9.129  10.297   7.985
47747SOL     OW43266   9.089  10.418   7.880
47747SOL    HW143267   9.175  10.420   7.828
47747SOL    HW243268   9.103  10.465   7.968
47748SOL     OW43269   7.561  10.047   9.045
47748SOL    HW143270   7.649  10.034   9.090
47748SOL    HW243271   7.548  10.144   9.023
47749SOL     OW43272   8.061  10.675   8.174
47749SOL    HW143273   8.012  10.588   8.183
47749SOL    HW243274   8.038  10.718   8.087
47750SOL     OW43275   8.741  10.538   8.871
47750SOL    HW143276   8.778  10.465   8.813
47750SOL    HW243277   8.793  10.543   8.956
47751SOL     OW43278   8.257   9.314   7.950
47751SOL    HW143279   8.297   9.405   7.941
47751SOL    HW243280   8.157   9.322   7.956
47752SOL     OW43281   7.645  10.286   8.712
47752SOL    HW143282   7.734  10.241   8.698
47752SOL    HW243283   7.572  10.221   8.693
47753SOL     OW43284   8.973  10.309   7.638
47753SOL    HW143285   8.910  10.233   7.651
47753SOL    HW243286   9.021  10.327   7.724
47754SOL     OW43287   8.635  11.102   9.064
47754SOL    HW143288   8.659  11.162   8.988
47754SOL    HW243289   8.642  11.007   9.034
47755SOL     OW43290   7.765   9.561   9.249
47755SOL    HW143291   7.836   9.632   9.255
47755SOL    HW243292   7.677   9.600   9.277
47756SOL     OW43293   8.914  10.727   8.401
47756SOL    HW143294   8.855  10.733   8.481
47756SOL    HW243295   8.899  10.639   8.355
47757SOL     OW43296   9.115  11.024   8.020
47757SOL    HW143297   9.074  11.001   7.932
47757SOL    HW243298   9.097  10.950   8.085
47758SOL     OW43299   8.046  10.039   7.718
47758SOL    HW143300   8.070  10.108   7.650
47758SOL    HW243301   7.968  10.072   7.772
47759SOL     OW43302   8.729   9.655   8.392
47759SOL    HW143303   8.643   9.605   8.379
47759SOL    HW243304   8.791   9.601   8.448
47760SOL     OW43305   9.024  10.972   7.755
47760SOL    HW143306   9.113  11.018   7.758
47760SOL    HW243307   9.003  10.948   7.660
47761SOL     OW43308   8.255   9.915   8.913
47761SOL    HW143309   8.208   9.912   9.002
47761SOL    HW243310   8.204   9.860   8.847
47762SOL     OW43311   8.842   9.779   9.122
47762SOL    HW143312   8.822   9.822   9.210
47762SOL    HW243313   8.920   9.717   9.131
47763SOL     OW43314   8.421  10.200   9.020
47763SOL    HW143315   8.467  10.116   8.991
47763SOL    HW243316   8.365  10.234   8.945
47764SOL     OW43317   8.439   9.720   8.690
47764SOL    HW143318   8.362   9.754   8.744
47764SOL    HW243319   8.405   9.669   8.611
47765SOL     OW43320   8.489  10.011   7.877
47765SOL    HW143321   8.515  10.007   7.973
47765SOL    HW243322   8.404   9.960   7.863
47766SOL     OW43323   7.524  10.121   8.237
47766SOL    HW143324   7.623  10.109   8.246
47766SOL    HW243325   7.500  10.216   8.258
47767SOL     OW43326   7.578  11.131   9.019
47767SOL    HW143327   7.568  11.116   9.118
47767SOL    HW243328   7.492  11.167   8.983
47768SOL     OW43329   8.313   9.658   7.643
47768SOL    HW143330   8.372   9.721   7.594
47768SOL    HW243331   8.332   9.564   7.614
47769SOL     OW43332   9.167   9.895   9.279
47769SOL    HW143333   9.141   9.984   9.243
47769SOL    HW243334   9.165   9.827   9.206
47770SOL     OW43335   8.810  10.454   7.993
47770SOL    HW143336   8.893  10.425   7.945
47770SOL    HW243337   8.761  10.521   7.937
47771SOL     OW43338   7.998   9.506   8.333
47771SOL    HW143339   7.993   9.501   8.433
47771SOL    HW243340   8.000   9.602   8.304
47772SOL     OW43341   8.456  10.766   7.925
47772SOL    HW143342   8.410  10.838   7.873
47772SOL    HW243343   8.452  10.786   8.023
47773SOL     OW43344   7.799  11.111   8.301
47773SOL    HW143345   7.849  11.025   8.307
47773SOL    HW243346   7.864  11.188   8.298
47774SOL     OW43347   9.243  10.376   8.321
47774SOL    HW143348   9.181  10.361   8.245
47774SOL    HW243349   9.191  10.387   8.406
47775SOL     OW43350   8.675  10.860   8.954
47775SOL    HW143351   8.681  10.783   9.018
47775SOL    HW243352   8.623  10.834   8.874
47776SOL     OW43353   7.769  10.253   7.690
47776SOL    HW143354   7.851  10.292   7.648
47776SOL    HW243355   7.742  10.171   7.641
47777SOL     OW43356   8.906  10.045   8.176
47777SOL    HW143357   8.901   9.980   8.251
47777SOL    HW243358   8.986  10.104   8.189
47778SOL     OW43359   7.909  10.576   9.175
47778SOL    HW143360   7.859  10.577   9.089
47778SOL    HW243361   7.846  10.558   9.251
47779SOL     OW43362   8.559  11.086   7.685
47779SOL    HW143363   8.499  11.024   7.735
47779SOL    HW243364   8.590  11.042   7.600
47780SOL     OW43365   7.650   9.595   8.946
47780SOL    HW143366   7.570   9.655   8.933
47780SOL    HW243367   7.640   9.546   9.032
47781SOL     OW43368   9.080  10.687   7.529
47781SOL    HW143369   9.048  10.781   7.519
47781SOL    HW243370   9.004  10.624   7.517
47782SOL     OW43371   7.912  11.053   7.771
47782SOL    HW143372   7.945  11.092   7.857
47782SOL    HW243373   7.988  11.046   7.706
47783SOL     OW43374   8.848   9.417   7.874
47783SOL    HW143375   8.824   9.380   7.784
47783SOL    HW243376   8.947   9.433   7.878
47784SOL     OW43377   7.697  11.095   8.689
47784SOL    HW143378   7.754  11.030   8.739
47784SOL    HW243379   7.681  11.062   8.596
47785SOL     OW43380   8.388  11.008   8.352
47785SOL    HW143381   8.468  10.951   8.373
47785SOL    HW243382   8.339  10.968   8.275
47786SOL     OW43383   7.830  10.010   7.928
47786SOL    HW143384   7.875   9.920   7.925
47786SOL    HW243385   7.736   9.999   7.961
47787SOL     OW43386   8.995   9.532   9.177
47787SOL    HW143387   8.990   9.569   9.269
47787SOL    HW243388   8.923   9.463   9.165
47788SOL     OW43389   8.062   9.432   7.565
47788SOL    HW143390   8.160   9.410   7.572
47788SOL    HW243391   8.031   9.415   7.472
47789SOL     OW43392   8.229   9.574   9.197
47789SOL    HW143393   8.296   9.513   9.240
47789SOL    HW243394   8.156   9.593   9.262
47790SOL     OW43395   8.336  10.824   8.643
47790SOL    HW143396   8.313  10.799   8.549
47790SOL    HW243397   8.397  10.755   8.682
47791SOL     OW43398   8.799   9.900   8.881
47791SOL    HW143399   8.827   9.857   8.966
47791SOL    HW243400   8.824   9.996   8.882
47792SOL     OW43401   8.251  10.712   8.372
47792SOL    HW143402   8.341  10.726   8.330
47792SOL    HW243403   8.180  10.714   8.301
47793SOL     OW43404   8.370   9.813   8.347
47793SOL    HW143405   8.345   9.804   8.251
47793SOL    HW243406   8.418   9.731   8.378
47794SOL     OW43407   7.987   9.374   7.960
47794SOL    HW143408   7.906   9.375   8.018
47794SOL    HW243409   7.990   9.457   7.905
47795SOL     OW43410   8.882  10.498   7.489
47795SOL    HW143411   8.914  10.422   7.546
47795SOL    HW243412   8.790  10.525   7.519
47796SOL     OW43413   7.745   9.345   7.619
47796SOL    HW143414   7.794   9.429   7.598
47796SOL    HW243415   7.807   9.280   7.664
47797SOL     OW43416   8.383   9.546   7.928
47797SOL    HW143417   8.335   9.587   7.850
47797SOL    HW243418   8.482   9.544   7.909
47798SOL     OW43419   8.524   9.993   8.912
47798SOL    HW143420   8.444   9.932   8.915
47798SOL    HW243421   8.605   9.940   8.888
47799SOL     OW43422   8.675  10.880   8.241
47799SOL    HW143423   8.696  10.954   8.176
47799SOL    HW243424   8.743  10.880   8.314
47800SOL     OW43425   7.907  10.462   8.189
47800SOL    HW143426   7.836  10.435   8.254
47800SOL    HW243427   7.881  10.434   8.096
47801SOL     OW43428   8.719  11.107   8.039
47801SOL    HW143429   8.763  11.171   7.975
47801SOL    HW243430   8.669  11.159   8.109
47802SOL     OW43431   8.480   9.859   7.464
47802SOL    HW143432   8.439   9.941   7.425
47802SOL    HW243433   8.544   9.885   7.537
47803SOL     OW43434   7.526   9.866   8.834
47803SOL    HW143435   7.618   9.865   8.793
47803SOL    HW243436   7.520   9.940   8.901
47804SOL     OW43437   8.009   9.532   8.595
47804SOL    HW143438   8.047   9.448   8.632
47804SOL    HW243439   7.921   9.551   8.639
47805SOL     OW43440   8.314   9.764   8.090
47805SOL    HW143441   8.282   9.836   8.028
47805SOL    HW243442   8.338   9.683   8.037
47806SOL     OW43443   8.465   9.349   8.201
47806SOL    HW143444   8.393   9.354   8.132
47806SOL    HW243445   8.441   9.280   8.270
47807SOL     OW43446   8.877  10.483   8.315
47807SOL    HW143447   8.822  10.399   8.308
47807SOL    HW243448   8.903  10.512   8.223
47808SOL     OW43449   8.914   9.900   8.440
47808SOL    HW143450   8.884   9.805   8.447
47808SOL    HW243451   8.987   9.916   8.506
47809SOL     OW43452   9.305  10.143   7.825
47809SOL    HW143453   9.347  10.079   7.889
47809SOL    HW243454   9.267  10.092   7.747
47810SOL     OW43455   7.936  10.695   7.622
47810SOL    HW143456   7.849  10.680   7.669
47810SOL    HW243457   7.919  10.721   7.527
47811SOL     OW43458   9.112  10.590   8.105
47811SOL    HW143459   9.211  10.598   8.119
47811SOL    HW243460   9.067  10.674   8.136
47812SOL     OW43461   8.838   9.885   7.526
47812SOL    HW143462   8.784   9.864   7.607
47812SOL    HW243463   8.929   9.844   7.535
47813SOL     OW43464   7.975   9.566   7.776
47813SOL    HW143465   8.002   9.507   7.701
47813SOL    HW243466   7.975   9.661   7.745
47814SOL     OW43467   9.202  10.533   9.036
47814SOL    HW143468   9.293  10.494   9.023
47814SOL    HW243469   9.210  10.629   9.060
47815SOL     OW43470   8.512  10.657   8.788
47815SOL    HW143471   8.432  10.634   8.843
47815SOL    HW243472   8.595  10.631   8.837
47816SOL     OW43473   9.040  10.939   9.073
47816SOL    HW143474   9.067  10.973   8.983
47816SOL    HW243475   9.119  10.901   9.119
47817SOL     OW43476   8.559  10.505   8.548
47817SOL    HW143477   8.519  10.549   8.629
47817SOL    HW243478   8.518  10.542   8.465
47818SOL     OW43479   9.086  10.409   8.527
47818SOL    HW143480   9.091  10.490   8.586
47818SOL    HW243481   9.000  10.411   8.476
47819SOL     OW43482   8.363   9.399   8.850
47819SOL    HW143483   8.388   9.379   8.755
47819SOL    HW243484   8.435   9.455   8.892
47820SOL     OW43485   8.428  10.426   9.167
47820SOL    HW143486   8.329  10.432   9.177
47820SOL    HW243487   8.451  10.346   9.111
47821SOL     OW43488   8.153  10.360   7.816
47821SOL    HW143489   8.139  10.367   7.915
47821SOL    HW243490   8.237  10.309   7.798
47822SOL     OW43491   7.858  10.123   8.699
47822SOL    HW143492   7.944  10.135   8.749
47822SOL    HW243493   7.816  10.036   8.726
47823SOL     OW43494   8.722   9.696   8.710
47823SOL    HW143495   8.743   9.770   8.774
47823SOL    HW243496   8.633   9.713   8.667
47824SOL     OW43497   7.512  10.874   8.779
47824SOL    HW143498   7.466  10.956   8.745
47824SOL    HW243499   7.610  10.893   8.788
47825SOL     OW43500   7.815  10.410   7.949
47825SOL    HW143501   7.808  10.493   7.893
47825SOL    HW243502   7.819  10.330   7.889
47826SOL     OW43503   8.014   9.847   8.313
47826SOL    HW143504   8.026   9.913   8.239
47826SOL    HW243505   8.060   9.881   8.396
47827SOL     OW43506   8.700  10.658   7.836
47827SOL    HW143507   8.750  10.735   7.876
47827SOL    HW243508   8.605  10.660   7.868
47828SOL     OW43509   8.720  10.755   8.590
47828SOL    HW143510   8.767  10.768   8.677
47828SOL    HW243511   8.654  10.681   8.599
47829SOL     OW43512   9.030   9.949   7.920
47829SOL    HW143513   8.999  10.010   7.993
47829SOL    HW243514   9.080  10.001   7.851
47830SOL     OW43515   7.802  10.820   8.777
47830SOL    HW143516   7.781  10.776   8.690
47830SOL    HW243517   7.899  10.846   8.780
47831SOL     OW43518   7.850  10.061   9.046
47831SOL    HW143519   7.918  10.116   8.999
47831SOL    HW243520   7.890   9.973   9.073
47832SOL     OW43521   9.035  10.089   9.118
47832SOL    HW143522   8.943  10.127   9.113
47832SOL    HW243523   9.095  10.136   9.053
47833SOL     OW43524   8.461   9.415   9.218
47833SOL    HW143525   8.467   9.500   9.166
47833SOL    HW243526   8.493   9.339   9.161
47834SOL     OW43527   7.952   9.360   9.188
47834SOL    HW143528   7.910   9.303   9.118
47834SOL    HW243529   7.886   9.429   9.220
47835SOL     OW43530   8.021  10.180   8.477
47835SOL    HW143531   8.065  10.269   8.468
47835SOL    HW243532   7.958  10.180   8.554
47836SOL     OW43533   8.808  10.172   8.493
47836SOL    HW143534   8.733  10.172   8.427
47836SOL    HW243535   8.845  10.080   8.502
47837SOL     OW43536   8.657   9.835   7.723
47837SOL    HW143537   8.670   9.751   7.777
47837SOL    HW243538   8.628   9.909   7.783
47838SOL     OW43539   7.755   9.523   8.679
47838SOL    HW143540   7.732   9.560   8.769
47838SOL    HW243541   7.725   9.428   8.673
47839SOL     OW43542   7.485  10.620   8.730
47839SOL    HW143543   7.538  10.571   8.798
47839SOL    HW243544   7.507  10.718   8.735
47840SOL     OW43545   8.180   9.944   8.512
47840SOL    HW143546   8.239   9.918   8.436
47840SOL    HW243547   8.152  10.040   8.501
47841SOL     OW43548   9.176  10.245   9.302
47841SOL    HW143549   9.130  10.238   9.213
47841SOL    HW243550   9.114  10.289   9.368
47842SOL     OW43551   7.755   9.373   8.066
47842SOL    HW143552   7.744   9.467   8.099
47842SOL    HW243553   7.750   9.310   8.143
47843SOL     OW43554   9.070   9.677   7.822
47843SOL    HW143555   9.072   9.601   7.886
47843SOL    HW243556   9.022   9.754   7.862
47844SOL     OW43557   8.471  10.076   8.414
47844SOL    HW143558   8.486  10.097   8.510
47844SOL    HW243559   8.441   9.981   8.405
47845SOL     OW43560   8.428  10.883   9.148
47845SOL    HW143561   8.408  10.927   9.060
47845SOL    HW243562   8.467  10.792   9.132
47846SOL     OW43563   9.307  10.828   9.053
47846SOL    HW143564   9.321  10.855   8.958
47846SOL    HW243565   9.390  10.850   9.106
47847SOL     OW43566   7.798  10.208   9.252
47847SOL    HW143567   7.874  10.252   9.300
47847SOL    HW243568   7.833  10.161   9.170
47848SOL     OW43569   8.988   9.584   7.573
47848SOL    HW143570   8.927   9.509   7.596
47848SOL    HW243571   9.010   9.636   7.656
47849SOL     OW43572   8.751  10.148   7.490
47849SOL    HW143573   8.785  10.055   7.505
47849SOL    HW243574   8.769  10.175   7.395
47850SOL     OW43575   8.516  10.643   8.297
47850SOL    HW143576   8.523  10.559   8.242
47850SOL    HW243577   8.578  10.712   8.261
47851SOL     OW43578   7.767  10.120   8.397
47851SOL    HW143579   7.860  10.156   8.402
47851SOL    HW243580   7.761  10.035   8.449
47852SOL     OW43581   7.787   9.819   8.454
47852SOL    HW143582   7.735   9.736   8.437
47852SOL    HW243583   7.864   9.824   8.390
47853SOL     OW43584   8.586   9.690   9.126
47853SOL    HW143585   8.541   9.753   9.190
47853SOL    HW243586   8.679   9.721   9.109
47854SOL     OW43587   8.608   9.517   8.925
47854SOL    HW143588   8.608   9.581   9.002
47854SOL    HW243589   8.636   9.565   8.842
47855SOL     OW43590   7.456  10.636   7.648
47855SOL    HW143591   7.363  10.657   7.617
47855SOL    HW243592   7.466  10.537   7.661
47856SOL     OW43593   7.536  11.111   8.375
47856SOL    HW143594   7.494  11.025   8.348
47856SOL    HW243595   7.630  11.114   8.341
47857SOL     OW43596   7.952  10.878   8.358
47857SOL    HW143597   8.018  10.952   8.367
47857SOL    HW243598   7.996  10.799   8.316
47858SOL     OW43599   8.450  10.106   8.686
47858SOL    HW143600   8.491  10.074   8.772
47858SOL    HW243601   8.354  10.079   8.683
47859SOL     OW43602   7.488   9.854   8.562
47859SOL    HW143603   7.573   9.821   8.521
47859SOL    HW243604   7.501   9.869   8.660
47860SOL     OW43605   7.637   9.830   9.170
47860SOL    HW143606   7.696   9.790   9.100
47860SOL    HW243607   7.579   9.901   9.129
47861SOL     OW43608   8.817  10.260   9.108
47861SOL    HW143609   8.856  10.349   9.128
47861SOL    HW243610   8.827  10.240   9.011
47862SOL     OW43611   8.263   9.882   7.773
47862SOL    HW143612   8.270   9.793   7.727
47862SOL    HW243613   8.169   9.916   7.765
47863SOL     OW43614   9.105   9.914   8.654
47863SOL    HW143615   9.067   9.845   8.716
47863SOL    HW243616   9.187   9.878   8.610
47864SOL     OW43617   7.700  10.874   9.192
47864SOL    HW143618   7.670  10.931   9.268
47864SOL    HW243619   7.693  10.777   9.218
47865SOL     OW43620   8.119   9.774   8.717
47865SOL    HW143621   8.085   9.685   8.687
47865SOL    HW243622   8.145   9.828   8.637
47866SOL     OW43623   8.378  10.988   8.913
47866SOL    HW143624   8.354  10.970   8.818
47866SOL    HW243625   8.408  11.082   8.923
47867SOL     OW43626   7.921   9.810   7.639
47867SOL    HW143627   7.982   9.890   7.643
47867SOL    HW243628   7.826   9.841   7.646
47868SOL     OW43629   7.607  10.447   8.914
47868SOL    HW143630   7.629  10.386   8.990
47868SOL    HW243631   7.617  10.398   8.828
47869SOL     OW43632   8.795  10.369   8.682
47869SOL    HW143633   8.819  10.306   8.608
47869SOL    HW243634   8.705  10.409   8.664
47870SOL     OW43635   8.750  10.165   7.757
47870SOL    HW143636   8.664  10.134   7.799
47870SOL    HW243637   8.746  10.151   7.658
47871SOL     OW43638   9.207  11.057   8.602
47871SOL    HW143639   9.268  11.087   8.529
47871SOL    HW243640   9.169  10.968   8.580
47872SOL     OW43641   8.700  11.041   8.576
47872SOL    HW143642   8.784  11.046   8.522
47872SOL    HW243643   8.677  10.945   8.594
47873SOL     OW43644   7.531  10.568   8.470
47873SOL    HW143645   7.526  10.567   8.570
47873SOL    HW243646   7.448  10.527   8.432
47874SOL     OW43647   8.136  10.972   9.164
47874SOL    HW143648   8.080  11.053   9.173
47874SOL    HW243649   8.188  10.976   9.078
47875SOL     OW43650   9.174   9.445   7.971
47875SOL    HW143651   9.247   9.428   7.904
47875SOL    HW243652   9.143   9.358   8.009
47876SOL     OW43653   8.836  10.883   7.925
47876SOL    HW143654   8.903  10.895   7.851
47876SOL    HW243655   8.796  10.972   7.948
47877SOL     OW43656   7.578  11.104   9.299
47877SOL    HW143657   7.537  11.030   9.352
47877SOL    HW243658   7.642  11.155   9.357
47878SOL     OW43659   8.728  10.237   8.120
47878SOL    HW143660   8.788  10.156   8.122
47878SOL    HW243661   8.768  10.306   8.060
47879SOL     OW43662   8.278  10.583   8.870
47879SOL    HW143663   8.273  10.616   8.965
47879SOL    HW243664   8.192  10.602   8.824
47880SOL     OW43665   8.120  10.926   7.602
47880SOL    HW143666   8.129  10.936   7.503
47880SOL    HW243667   8.080  10.837   7.623
47881SOL     OW43668   9.098  11.030   8.842
47881SOL    HW143669   9.151  11.040   8.758
47881SOL    HW243670   9.071  11.120   8.876
47882SOL     OW43671   9.289   9.485   8.411
47882SOL    HW143672   9.328   9.400   8.375
47882SOL    HW243673   9.191   9.487   8.392
47883SOL     OW43674   7.711   9.636   8.168
47883SOL    HW143675   7.632   9.687   8.134
47883SOL    HW243676   7.702   9.621   8.266
47884SOL     OW43677   8.642  10.922   7.479
47884SOL    HW143678   8.648  10.829   7.516
47884SOL    HW243679   8.583  10.922   7.399
47885SOL     OW43680   8.270  10.312   8.820
47885SOL    HW143681   8.310  10.311   8.728
47885SOL    HW243682   8.280  10.404   8.860
47886SOL     OW43683   8.364  10.220   7.739
47886SOL    HW143684   8.427  10.258   7.671
47886SOL    HW243685   8.404  10.137   7.778
47887SOL     OW43686   8.952  10.917   7.492
47887SOL    HW143687   8.860  10.954   7.499
47887SOL    HW243688   8.990  10.937   7.402
47888SOL     OW43689   7.820  10.598   8.938
47888SOL    HW143690   7.807  10.691   8.904
47888SOL    HW243691   7.736  10.546   8.925
47889SOL     OW43692   9.062  10.602   8.737
47889SOL    HW143693   9.122  10.605   8.817
47889SOL    HW243694   8.987  10.666   8.750
47890SOL     OW43695   8.487  10.408   8.144
47890SOL    HW143696   8.417  10.361   8.198
47890SOL    HW243697   8.546  10.340   8.101
47891SOL     OW43698   8.462   9.546   8.419
47891SOL    HW143699   8.454   9.510   8.326
47891SOL    HW243700   8.460   9.470   8.484
47892SOL     OW43701   8.038  10.797   7.939
47892SOL    HW143702   8.080  10.739   7.869
47892SOL    HW243703   7.994  10.876   7.895
47893SOL     OW43704   9.157   9.695   8.829
47893SOL    HW143705   9.230   9.764   8.833
47893SOL    HW243706   9.185   9.620   8.770
47894SOL     OW43707   7.703  10.658   7.738
47894SOL    HW143708   7.607  10.659   7.711
47894SOL    HW243709   7.715  10.711   7.822
47895SOL     OW43710   7.553  10.323   9.174
47895SOL    HW143711   7.476  10.290   9.228
47895SOL    HW243712   7.638  10.293   9.216
47896SOL     OW43713   8.120   9.513   8.937
47896SOL    HW143714   8.210   9.497   8.897
47896SOL    HW243715   8.128   9.518   9.036
47897SOL     OW43716   7.523   9.655   7.481
47897SOL    HW143717   7.431   9.627   7.452
47897SOL    HW243718   7.554   9.732   7.425
47898SOL     OW43719   8.888  10.166   8.846
47898SOL    HW143720   8.831  10.218   8.783
47898SOL    HW243721   8.984  10.178   8.822
47899SOL     OW43722   7.520   9.476   7.766
47899SOL    HW143723   7.503   9.559   7.712
47899SOL    HW243724   7.610   9.439   7.744
47900SOL     OW43725   8.631  10.645   7.567
47900SOL    HW143726   8.532  10.634   7.569
47900SOL    HW243727   8.665  10.660   7.660
47901SOL     OW43728   8.061  10.152   8.879
47901SOL    HW143729   8.117  10.233   8.862
47901SOL    HW243730   8.120  10.072   8.882
47902SOL     OW43731   8.941  11.077   8.407
47902SOL    HW143732   8.974  11.141   8.338
47902SOL    HW243733   9.007  11.071   8.482
47903SOL     OW43734   8.164   9.875   9.156
47903SOL    HW143735   8.183   9.940   9.230
47903SOL    HW243736   8.224   9.795   9.165
47904SOL     OW43737   8.898  10.530   9.081
47904SOL    HW143738   8.889  10.520   9.180
47904SOL    HW243739   8.994  10.523   9.055
47905SOL     OW43740   7.838  11.051   9.008
47905SOL    HW143741   7.747  11.092   9.006
47905SOL    HW243742   7.831  10.957   9.040
47906SOL     OW43743   9.122  10.193   8.702
47906SOL    HW143744   9.095  10.104   8.665
47906SOL    HW243745   9.123  10.261   8.629
47907SOL     OW43746   8.673   9.635   7.897
47907SOL    HW143747   8.738   9.561   7.886
47907SOL    HW243748   8.693   9.685   7.981
47908SOL     OW43749   8.042  10.055   8.100
47908SOL    HW143750   8.092  10.140   8.081
47908SOL    HW243751   7.954  10.057   8.052
47909SOL     OW43752   9.225   9.652   9.090
47909SOL    HW143753   9.208   9.683   8.996
47909SOL    HW243754   9.141   9.615   9.128
47910SOL     OW43755   9.178  10.244   8.965
47910SOL    HW143756   9.216  10.335   8.980
47910SOL    HW243757   9.170  10.227   8.866
47911SOL     OW43758   8.307  10.684   7.464
47911SOL    HW143759   8.261  10.699   7.552
47911SOL    HW243760   8.351  10.769   7.434
47912SOL     OW43761   8.109  11.100   8.401
47912SOL    HW143762   8.063  11.188   8.388
47912SOL    HW243763   8.208  11.112   8.394
47913SOL     OW43764   8.307  10.266   8.309
47913SOL    HW143765   8.361  10.197   8.357
47913SOL    HW243766   8.275  10.335   8.375
47914SOL     OW43767   8.531  10.294   7.535
47914SOL    HW143768   8.508  10.347   7.453
47914SOL    HW243769   8.612  10.238   7.516
47915SOL     OW43770   9.309  10.879   8.299
47915SOL    HW143771   9.238  10.867   8.229
47915SOL    HW243772   9.310  10.800   8.359
47916SOL     OW43773   7.669  10.624   9.292
47916SOL    HW143774   7.604  10.551   9.271
47916SOL    HW243775   7.673  10.638   9.390
47917SOL     OW43776   7.527  10.550   8.101
47917SOL    HW143777   7.526  10.503   8.189
47917SOL    HW243778   7.609  10.522   8.050
47918SOL     OW43779   8.120  10.701   9.072
47918SOL    HW143780   8.042  10.651   9.110
47918SOL    HW243781   8.117  10.796   9.103
47919SOL     OW43782   9.272   9.502   8.675
47919SOL    HW143783   9.268   9.412   8.719
47919SOL    HW243784   9.275   9.491   8.576
47920SOL     OW43785   7.876   9.734   7.968
47920SOL    HW143786   7.906   9.662   7.906
47920SOL    HW243787   7.837   9.694   8.051
47921SOL     OW43788   9.153  10.797   8.552
47921SOL    HW143789   9.060  10.772   8.525
47921SOL    HW243790   9.179  10.747   8.634
47922SOL     OW43791   7.765   9.857   8.728
47922SOL    HW143792   7.803   9.798   8.800
47922SOL    HW243793   7.805   9.831   8.640
47923SOL     OW43794   8.260  10.896   8.135
47923SOL    HW143795   8.292  10.906   8.041
47923SOL    HW243796   8.181  10.834   8.137
47924SOL     OW43797   8.872   9.524   8.560
47924SOL    HW143798   8.924   9.459   8.615
47924SOL    HW243799   8.823   9.587   8.621
47925SOL     OW43800   8.449   9.344   8.602
47925SOL    HW143801   8.386   9.272   8.571
47925SOL    HW243802   8.542   9.308   8.602
47926SOL     OW43803   8.218  10.640   7.749
47926SOL    HW143804   8.172  10.553   7.766
47926SOL    HW243805   8.309  10.637   7.790
47927SOL     OW43806   8.066  10.877   8.732
47927SOL    HW143807   8.061  10.959   8.789
47927SOL    HW243808   8.155  10.874   8.687
47928SOL     OW43809   8.800   9.362   7.616
47928SOL    HW143810   8.835   9.321   7.532
47928SOL    HW243811   8.710   9.324   7.636
47929SOL     OW43812   8.748   9.763   8.139
47929SOL    HW143813   8.689   9.843   8.143
47929SOL    HW243814   8.763   9.728   8.232
47930SOL     OW43815   9.041   9.531   8.330
47930SOL    HW143816   8.957   9.530   8.384
47930SOL    HW243817   9.043   9.614   8.274
47931SOL     OW43818   7.487  10.387   7.748
47931SOL    HW143819   7.586  10.376   7.739
47931SOL    HW243820   7.447  10.301   7.780
47932SOL     OW43821   8.323  10.956   7.785
47932SOL    HW143822   8.246  10.921   7.731
47932SOL    HW243823   8.291  11.027   7.847
47933SOL     OW43824   7.678   9.938   9.423
47933SOL    HW143825   7.585   9.936   9.460
47933SOL    HW243826   7.679   9.899   9.331
47934SOL     OW43827   7.673   9.585  10.306
47934SOL    HW143828   7.708   9.568  10.398
47934SOL    HW243829   7.585   9.540  10.294
47935SOL     OW43830   7.467   9.678   9.957
47935SOL    HW143831   7.385   9.721   9.996
47935SOL    HW243832   7.439   9.605   9.894
47936SOL     OW43833   8.017  10.585  10.475
47936SOL    HW143834   7.924  10.578  10.438
47936SOL    HW243835   8.028  10.674  10.519
47937SOL     OW43836   9.003  10.821  10.013
47937SOL    HW143837   8.946  10.805  10.094
47937SOL    HW243838   8.944  10.831   9.933
47938SOL     OW43839   8.583  10.013  10.027
47938SOL    HW143840   8.640  10.091  10.002
47938SOL    HW243841   8.523  10.039  10.103
47939SOL     OW43842   9.203   9.917   9.541
47939SOL    HW143843   9.191   9.904   9.442
47939SOL    HW243844   9.173   9.836   9.590
47940SOL     OW43845   8.216  10.454  10.333
47940SOL    HW143846   8.138  10.471  10.393
47940SOL    HW243847   8.250  10.541  10.297
47941SOL     OW43848   8.298  10.108  11.133
47941SOL    HW143849   8.294  10.184  11.198
47941SOL    HW243850   8.320  10.144  11.042
47942SOL     OW43851   8.133  10.322   9.975
47942SOL    HW143852   8.202  10.306  10.045
47942SOL    HW243853   8.060  10.379  10.013
47943SOL     OW43854   8.134  10.471  11.113
47943SOL    HW143855   8.194  10.550  11.127
47943SOL    HW243856   8.048  10.502  11.072
47944SOL     OW43857   7.783  10.745  10.371
47944SOL    HW143858   7.705  10.714  10.318
47944SOL    HW243859   7.841  10.803  10.314
47945SOL     OW43860   8.908  10.815  10.649
47945SOL    HW143861   8.932  10.909  10.675
47945SOL    HW243862   8.892  10.761  10.731
47946SOL     OW43863   7.886   9.702  10.809
47946SOL    HW143864   7.968   9.646  10.818
47946SOL    HW243865   7.805   9.644  10.813
47947SOL     OW43866   9.051   9.757  10.047
47947SOL    HW143867   8.977   9.803   9.997
47947SOL    HW243868   9.102   9.825  10.100
47948SOL     OW43869   7.679  11.023   9.793
47948SOL    HW143870   7.713  11.100   9.847
47948SOL    HW243871   7.723  11.023   9.703
47949SOL     OW43872   8.575  10.651  11.000
47949SOL    HW143873   8.622  10.651  11.088
47949SOL    HW243874   8.527  10.564  10.989
47950SOL     OW43875   7.678  10.744   9.848
47950SOL    HW143876   7.652  10.840   9.848
47950SOL    HW243877   7.607  10.690   9.893
47951SOL     OW43878   7.688  10.401  10.196
47951SOL    HW143879   7.702  10.317  10.248
47951SOL    HW243880   7.633  10.465  10.251
47952SOL     OW43881   8.068  11.096  10.749
47952SOL    HW143882   7.976  11.079  10.784
47952SOL    HW243883   8.096  11.188  10.775
47953SOL     OW43884   8.054  10.274   9.433
47953SOL    HW143885   8.061  10.358   9.379
47953SOL    HW243886   8.100  10.287   9.521
47954SOL     OW43887   9.042   9.424  10.790
47954SOL    HW143888   9.024   9.491  10.718
47954SOL    HW243889   9.039   9.470  10.879
47955SOL     OW43890   7.570   9.953   9.873
47955SOL    HW143891   7.525   9.865   9.890
47955SOL    HW243892   7.569  10.007   9.957
47956SOL     OW43893   9.290  11.077   9.669
47956SOL    HW143894   9.344  11.048   9.749
47956SOL    HW243895   9.320  11.167   9.640
47957SOL     OW43896   7.475  10.906   9.427
47957SOL    HW143897   7.456  10.810   9.448
47957SOL    HW243898   7.442  10.964   9.502
47958SOL     OW43899   9.137  10.232   9.922
47958SOL    HW143900   9.232  10.203   9.930
47958SOL    HW243901   9.129  10.297   9.847
47959SOL     OW43902   9.089  10.418   9.742
47959SOL    HW143903   9.175  10.420   9.690
47959SOL    HW243904   9.103  10.465   9.830
47960SOL     OW43905   7.561  10.047  10.907
47960SOL    HW143906   7.649  10.034  10.952
47960SOL    HW243907   7.548  10.144  10.885
47961SOL     OW43908   8.061  10.675  10.036
47961SOL    HW143909   8.012  10.588  10.045
47961SOL    HW243910   8.038  10.718   9.949
47962SOL     OW43911   8.741  10.538  10.733
47962SOL    HW143912   8.778  10.465  10.675
47962SOL    HW243913   8.793  10.543  10.818
47963SOL     OW43914   8.257   9.314   9.812
47963SOL    HW143915   8.297   9.405   9.803
47963SOL    HW243916   8.157   9.322   9.818
47964SOL     OW43917   7.645  10.286  10.574
47964SOL    HW143918   7.734  10.241  10.560
47964SOL    HW243919   7.572  10.221  10.555
47965SOL     OW43920   8.973  10.309   9.500
47965SOL    HW143921   8.910  10.233   9.513
47965SOL    HW243922   9.021  10.327   9.586
47966SOL     OW43923   8.635  11.102  10.926
47966SOL    HW143924   8.659  11.162  10.850
47966SOL    HW243925   8.642  11.007  10.896
47967SOL     OW43926   7.765   9.561  11.111
47967SOL    HW143927   7.836   9.632  11.117
47967SOL    HW243928   7.677   9.600  11.139
47968SOL     OW43929   8.914  10.727  10.263
47968SOL    HW143930   8.855  10.733  10.343
47968SOL    HW243931   8.899  10.639  10.217
47969SOL     OW43932   9.115  11.024   9.882
47969SOL    HW143933   9.074  11.001   9.794
47969SOL    HW243934   9.097  10.950   9.947
47970SOL     OW43935   8.046  10.039   9.580
47970SOL    HW143936   8.070  10.108   9.512
47970SOL    HW243937   7.968  10.072   9.634
47971SOL     OW43938   8.729   9.655  10.254
47971SOL    HW143939   8.643   9.605  10.241
47971SOL    HW243940   8.791   9.601  10.310
47972SOL     OW43941   9.024  10.972   9.617
47972SOL    HW143942   9.113  11.018   9.620
47972SOL    HW243943   9.003  10.948   9.522
47973SOL     OW43944   8.255   9.915  10.775
47973SOL    HW143945   8.208   9.912  10.864
47973SOL    HW243946   8.204   9.860  10.709
47974SOL     OW43947   8.842   9.779  10.984
47974SOL    HW143948   8.822   9.822  11.072
47974SOL    HW243949   8.920   9.717  10.993
47975SOL     OW43950   8.421  10.200  10.882
47975SOL    HW143951   8.467  10.116  10.853
47975SOL    HW243952   8.365  10.234  10.807
47976SOL     OW43953   8.439   9.720  10.552
47976SOL    HW143954   8.362   9.754  10.606
47976SOL    HW243955   8.405   9.669  10.473
47977SOL     OW43956   8.489  10.011   9.739
47977SOL    HW143957   8.515  10.007   9.835
47977SOL    HW243958   8.404   9.960   9.725
47978SOL     OW43959   7.524  10.121  10.099
47978SOL    HW143960   7.623  10.109  10.108
47978SOL    HW243961   7.500  10.216  10.120
47979SOL     OW43962   7.578  11.131  10.881
47979SOL    HW143963   7.568  11.116  10.980
47979SOL    HW243964   7.492  11.167  10.845
47980SOL     OW43965   8.313   9.658   9.505
47980SOL    HW143966   8.372   9.721   9.456
47980SOL    HW243967   8.332   9.564   9.476
47981SOL     OW43968   9.167   9.895  11.141
47981SOL    HW143969   9.141   9.984  11.105
47981SOL    HW243970   9.165   9.827  11.068
47982SOL     OW43971   8.810  10.454   9.855
47982SOL    HW143972   8.893  10.425   9.807
47982SOL    HW243973   8.761  10.521   9.799
47983SOL     OW43974   7.998   9.506  10.195
47983SOL    HW143975   7.993   9.501  10.295
47983SOL    HW243976   8.000   9.602  10.166
47984SOL     OW43977   8.456  10.766   9.787
47984SOL    HW143978   8.410  10.838   9.735
47984SOL    HW243979   8.452  10.786   9.885
47985SOL     OW43980   7.799  11.111  10.163
47985SOL    HW143981   7.849  11.025  10.169
47985SOL    HW243982   7.864  11.188  10.160
47986SOL     OW43983   9.243  10.376  10.183
47986SOL    HW143984   9.181  10.361  10.107
47986SOL    HW243985   9.191  10.387  10.268
47987SOL     OW43986   8.675  10.860  10.816
47987SOL    HW143987   8.681  10.783  10.880
47987SOL    HW243988   8.623  10.834  10.736
47988SOL     OW43989   7.769  10.253   9.552
47988SOL    HW143990   7.851  10.292   9.510
47988SOL    HW243991   7.742  10.171   9.503
47989SOL     OW43992   8.906  10.045  10.038
47989SOL    HW143993   8.901   9.980  10.113
47989SOL    HW243994   8.986  10.104  10.051
47990SOL     OW43995   7.909  10.576  11.037
47990SOL    HW143996   7.859  10.577  10.951
47990SOL    HW243997   7.846  10.558  11.113
47991SOL     OW43998   8.559  11.086   9.547
47991SOL    HW143999   8.499  11.024   9.597
47991SOL    HW244000   8.590  11.042   9.462
47992SOL     OW44001   7.650   9.595  10.808
47992SOL    HW144002   7.570   9.655  10.795
47992SOL    HW244003   7.640   9.546  10.894
47993SOL     OW44004   9.080  10.687   9.391
47993SOL    HW144005   9.048  10.781   9.381
47993SOL    HW244006   9.004  10.624   9.379
47994SOL     OW44007   7.912  11.053   9.633
47994SOL    HW144008   7.945  11.092   9.719
47994SOL    HW244009   7.988  11.046   9.568
47995SOL     OW44010   8.848   9.417   9.736
47995SOL    HW144011   8.824   9.380   9.646
47995SOL    HW244012   8.947   9.433   9.740
47996SOL     OW44013   7.697  11.095  10.551
47996SOL    HW144014   7.754  11.030  10.601
47996SOL    HW244015   7.681  11.062  10.458
47997SOL     OW44016   8.388  11.008  10.214
47997SOL    HW144017   8.468  10.951  10.235
47997SOL    HW244018   8.339  10.968  10.137
47998SOL     OW44019   7.830  10.010   9.790
47998SOL    HW144020   7.875   9.920   9.787
47998SOL    HW244021   7.736   9.999   9.823
47999SOL     OW44022   8.995   9.532  11.039
47999SOL    HW144023   8.990   9.569  11.131
47999SOL    HW244024   8.923   9.463  11.027
48000SOL     OW44025   8.062   9.432   9.427
48000SOL    HW144026   8.160   9.410   9.434
48000SOL    HW244027   8.031   9.415   9.334
48001SOL     OW44028   8.229   9.574  11.059
48001SOL    HW144029   8.296   9.513  11.102
48001SOL    HW244030   8.156   9.593  11.124
48002SOL     OW44031   8.336  10.824  10.505
48002SOL    HW144032   8.313  10.799  10.411
48002SOL    HW244033   8.397  10.755  10.544
48003SOL     OW44034   8.799   9.900  10.743
48003SOL    HW144035   8.827   9.857  10.828
48003SOL    HW244036   8.824   9.996  10.744
48004SOL     OW44037   8.251  10.712  10.234
48004SOL    HW144038   8.341  10.726  10.192
48004SOL    HW244039   8.180  10.714  10.163
48005SOL     OW44040   8.370   9.813  10.209
48005SOL    HW144041   8.345   9.804  10.113
48005SOL    HW244042   8.418   9.731  10.240
48006SOL     OW44043   7.987   9.374   9.822
48006SOL    HW144044   7.906   9.375   9.880
48006SOL    HW244045   7.990   9.457   9.767
48007SOL     OW44046   8.882  10.498   9.351
48007SOL    HW144047   8.914  10.422   9.408
48007SOL    HW244048   8.790  10.525   9.381
48008SOL     OW44049   7.745   9.345   9.481
48008SOL    HW144050   7.794   9.429   9.460
48008SOL    HW244051   7.807   9.280   9.526
48009SOL     OW44052   8.383   9.546   9.790
48009SOL    HW144053   8.335   9.587   9.712
48009SOL    HW244054   8.482   9.544   9.771
48010SOL     OW44055   8.524   9.993  10.774
48010SOL    HW144056   8.444   9.932  10.777
48010SOL    HW244057   8.605   9.940  10.750
48011SOL     OW44058   8.675  10.880  10.103
48011SOL    HW144059   8.696  10.954  10.038
48011SOL    HW244060   8.743  10.880  10.176
48012SOL     OW44061   7.907  10.462  10.051
48012SOL    HW144062   7.836  10.435  10.116
48012SOL    HW244063   7.881  10.434   9.958
48013SOL     OW44064   8.719  11.107   9.901
48013SOL    HW144065   8.763  11.171   9.837
48013SOL    HW244066   8.669  11.159   9.971
48014SOL     OW44067   8.480   9.859   9.326
48014SOL    HW144068   8.439   9.941   9.287
48014SOL    HW244069   8.544   9.885   9.399
48015SOL     OW44070   7.526   9.866  10.696
48015SOL    HW144071   7.618   9.865  10.655
48015SOL    HW244072   7.520   9.940  10.763
48016SOL     OW44073   8.009   9.532  10.457
48016SOL    HW144074   8.047   9.448  10.494
48016SOL    HW244075   7.921   9.551  10.501
48017SOL     OW44076   8.314   9.764   9.952
48017SOL    HW144077   8.282   9.836   9.890
48017SOL    HW244078   8.338   9.683   9.899
48018SOL     OW44079   8.465   9.349  10.063
48018SOL    HW144080   8.393   9.354   9.994
48018SOL    HW244081   8.441   9.280  10.132
48019SOL     OW44082   8.877  10.483  10.177
48019SOL    HW144083   8.822  10.399  10.170
48019SOL    HW244084   8.903  10.512  10.085
48020SOL     OW44085   8.914   9.900  10.302
48020SOL    HW144086   8.884   9.805  10.309
48020SOL    HW244087   8.987   9.916  10.368
48021SOL     OW44088   9.305  10.143   9.687
48021SOL    HW144089   9.347  10.079   9.751
48021SOL    HW244090   9.267  10.092   9.609
48022SOL     OW44091   7.936  10.695   9.484
48022SOL    HW144092   7.849  10.680   9.531
48022SOL    HW244093   7.919  10.721   9.389
48023SOL     OW44094   9.112  10.590   9.967
48023SOL    HW144095   9.211  10.598   9.981
48023SOL    HW244096   9.067  10.674   9.998
48024SOL     OW44097   8.838   9.885   9.388
48024SOL    HW144098   8.784   9.864   9.469
48024SOL    HW244099   8.929   9.844   9.397
48025SOL     OW44100   7.975   9.566   9.638
48025SOL    HW144101   8.002   9.507   9.563
48025SOL    HW244102   7.975   9.661   9.607
48026SOL     OW44103   9.202  10.533  10.898
48026SOL    HW144104   9.293  10.494  10.885
48026SOL    HW244105   9.210  10.629  10.922
48027SOL     OW44106   8.512  10.657  10.650
48027SOL    HW144107   8.432  10.634  10.705
48027SOL    HW244108   8.595  10.631  10.699
48028SOL     OW44109   9.040  10.939  10.935
48028SOL    HW144110   9.067  10.973  10.845
48028SOL    HW244111   9.119  10.901  10.981
48029SOL     OW44112   8.559  10.505  10.410
48029SOL    HW144113   8.519  10.549  10.491
48029SOL    HW244114   8.518  10.542  10.327
48030SOL     OW44115   9.086  10.409  10.389
48030SOL    HW144116   9.091  10.490  10.448
48030SOL    HW244117   9.000  10.411  10.338
48031SOL     OW44118   8.363   9.399  10.712
48031SOL    HW144119   8.388   9.379  10.617
48031SOL    HW244120   8.435   9.455  10.754
48032SOL     OW44121   8.428  10.426  11.029
48032SOL    HW144122   8.329  10.432  11.039
48032SOL    HW244123   8.451  10.346  10.973
48033SOL     OW44124   8.153  10.360   9.678
48033SOL    HW144125   8.139  10.367   9.777
48033SOL    HW244126   8.237  10.309   9.660
48034SOL     OW44127   7.858  10.123  10.561
48034SOL    HW144128   7.944  10.135  10.611
48034SOL    HW244129   7.816  10.036  10.588
48035SOL     OW44130   8.722   9.696  10.572
48035SOL    HW144131   8.743   9.770  10.636
48035SOL    HW244132   8.633   9.713  10.529
48036SOL     OW44133   7.512  10.874  10.641
48036SOL    HW144134   7.466  10.956  10.607
48036SOL    HW244135   7.610  10.893  10.650
48037SOL     OW44136   7.815  10.410   9.811
48037SOL    HW144137   7.808  10.493   9.755
48037SOL    HW244138   7.819  10.330   9.751
48038SOL     OW44139   8.014   9.847  10.175
48038SOL    HW144140   8.026   9.913  10.101
48038SOL    HW244141   8.060   9.881  10.258
48039SOL     OW44142   8.700  10.658   9.698
48039SOL    HW144143   8.750  10.735   9.738
48039SOL    HW244144   8.605  10.660   9.730
48040SOL     OW44145   8.720  10.755  10.452
48040SOL    HW144146   8.767  10.768  10.539
48040SOL    HW244147   8.654  10.681  10.461
48041SOL     OW44148   9.030   9.949   9.782
48041SOL    HW144149   8.999  10.010   9.855
48041SOL    HW244150   9.080  10.001   9.713
48042SOL     OW44151   7.802  10.820  10.639
48042SOL    HW144152   7.781  10.776  10.552
48042SOL    HW244153   7.899  10.846  10.642
48043SOL     OW44154   7.850  10.061  10.908
48043SOL    HW144155   7.918  10.116  10.861
48043SOL    HW244156   7.890   9.973  10.935
48044SOL     OW44157   9.035  10.089  10.980
48044SOL    HW144158   8.943  10.127  10.975
48044SOL    HW244159   9.095  10.136  10.915
48045SOL     OW44160   8.461   9.415  11.080
48045SOL    HW144161   8.467   9.500  11.028
48045SOL    HW244162   8.493   9.339  11.023
48046SOL     OW44163   7.952   9.360  11.050
48046SOL    HW144164   7.910   9.303  10.980
48046SOL    HW244165   7.886   9.429  11.082
48047SOL     OW44166   8.021  10.180  10.339
48047SOL    HW144167   8.065  10.269  10.330
48047SOL    HW244168   7.958  10.180  10.416
48048SOL     OW44169   8.808  10.172  10.355
48048SOL    HW144170   8.733  10.172  10.289
48048SOL    HW244171   8.845  10.080  10.364
48049SOL     OW44172   8.657   9.835   9.585
48049SOL    HW144173   8.670   9.751   9.639
48049SOL    HW244174   8.628   9.909   9.645
48050SOL     OW44175   7.755   9.523  10.541
48050SOL    HW144176   7.732   9.560  10.631
48050SOL    HW244177   7.725   9.428  10.535
48051SOL     OW44178   7.485  10.620  10.592
48051SOL    HW144179   7.538  10.571  10.660
48051SOL    HW244180   7.507  10.718  10.597
48052SOL     OW44181   8.180   9.944  10.374
48052SOL    HW144182   8.239   9.918  10.298
48052SOL    HW244183   8.152  10.040  10.363
48053SOL     OW44184   9.176  10.245  11.164
48053SOL    HW144185   9.130  10.238  11.075
48053SOL    HW244186   9.114  10.289  11.230
48054SOL     OW44187   7.755   9.373   9.928
48054SOL    HW144188   7.744   9.467   9.961
48054SOL    HW244189   7.750   9.310  10.005
48055SOL     OW44190   9.070   9.677   9.684
48055SOL    HW144191   9.072   9.601   9.748
48055SOL    HW244192   9.022   9.754   9.724
48056SOL     OW44193   8.471  10.076  10.276
48056SOL    HW144194   8.486  10.097  10.372
48056SOL    HW244195   8.441   9.981  10.267
48057SOL     OW44196   8.428  10.883  11.010
48057SOL    HW144197   8.408  10.927  10.922
48057SOL    HW244198   8.467  10.792  10.994
48058SOL     OW44199   9.307  10.828  10.915
48058SOL    HW144200   9.321  10.855  10.820
48058SOL    HW244201   9.390  10.850  10.968
48059SOL     OW44202   7.798  10.208  11.114
48059SOL    HW144203   7.874  10.252  11.162
48059SOL    HW244204   7.833  10.161  11.032
48060SOL     OW44205   8.988   9.584   9.435
48060SOL    HW144206   8.927   9.509   9.458
48060SOL    HW244207   9.010   9.636   9.518
48061SOL     OW44208   8.751  10.148   9.352
48061SOL    HW144209   8.785  10.055   9.367
48061SOL    HW244210   8.769  10.175   9.257
48062SOL     OW44211   8.516  10.643  10.159
48062SOL    HW144212   8.523  10.559  10.104
48062SOL    HW244213   8.578  10.712  10.123
48063SOL     OW44214   7.767  10.120  10.259
48063SOL    HW144215   7.860  10.156  10.264
48063SOL    HW244216   7.761  10.035  10.311
48064SOL     OW44217   7.787   9.819  10.316
48064SOL    HW144218   7.735   9.736  10.299
48064SOL    HW244219   7.864   9.824  10.252
48065SOL     OW44220   8.586   9.690  10.988
48065SOL    HW144221   8.541   9.753  11.052
48065SOL    HW244222   8.679   9.721  10.971
48066SOL     OW44223   8.608   9.517  10.787
48066SOL    HW144224   8.608   9.581  10.864
48066SOL    HW244225   8.636   9.565  10.704
48067SOL     OW44226   7.456  10.636   9.510
48067SOL    HW144227   7.363  10.657   9.479
48067SOL    HW244228   7.466  10.537   9.523
48068SOL     OW44229   7.536  11.111  10.237
48068SOL    HW144230   7.494  11.025  10.210
48068SOL    HW244231   7.630  11.114  10.203
48069SOL     OW44232   7.952  10.878  10.220
48069SOL    HW144233   8.018  10.952  10.229
48069SOL    HW244234   7.996  10.799  10.178
48070SOL     OW44235   8.450  10.106  10.548
48070SOL    HW144236   8.491  10.074  10.634
48070SOL    HW244237   8.354  10.079  10.545
48071SOL     OW44238   7.488   9.854  10.424
48071SOL    HW144239   7.573   9.821  10.383
48071SOL    HW244240   7.501   9.869  10.522
48072SOL     OW44241   7.637   9.830  11.032
48072SOL    HW144242   7.696   9.790  10.962
48072SOL    HW244243   7.579   9.901  10.991
48073SOL     OW44244   8.817  10.260  10.970
48073SOL    HW144245   8.856  10.349  10.990
48073SOL    HW244246   8.827  10.240  10.873
48074SOL     OW44247   8.263   9.882   9.635
48074SOL    HW144248   8.270   9.793   9.589
48074SOL    HW244249   8.169   9.916   9.627
48075SOL     OW44250   9.105   9.914  10.516
48075SOL    HW144251   9.067   9.845  10.578
48075SOL    HW244252   9.187   9.878  10.472
48076SOL     OW44253   7.700  10.874  11.054
48076SOL    HW144254   7.670  10.931  11.130
48076SOL    HW244255   7.693  10.777  11.080
48077SOL     OW44256   8.119   9.774  10.579
48077SOL    HW144257   8.085   9.685  10.549
48077SOL    HW244258   8.145   9.828  10.499
48078SOL     OW44259   8.378  10.988  10.775
48078SOL    HW144260   8.354  10.970  10.680
48078SOL    HW244261   8.408  11.082  10.785
48079SOL     OW44262   7.921   9.810   9.501
48079SOL    HW144263   7.982   9.890   9.505
48079SOL    HW244264   7.826   9.841   9.508
48080SOL     OW44265   7.607  10.447  10.776
48080SOL    HW144266   7.629  10.386  10.852
48080SOL    HW244267   7.617  10.398  10.690
48081SOL     OW44268   8.795  10.369  10.544
48081SOL    HW144269   8.819  10.306  10.470
48081SOL    HW244270   8.705  10.409  10.526
48082SOL     OW44271   8.750  10.165   9.619
48082SOL    HW144272   8.664  10.134   9.661
48082SOL    HW244273   8.746  10.151   9.520
48083SOL     OW44274   9.207  11.057  10.464
48083SOL    HW144275   9.268  11.087  10.391
48083SOL    HW244276   9.169  10.968  10.442
48084SOL     OW44277   8.700  11.041  10.438
48084SOL    HW144278   8.784  11.046  10.384
48084SOL    HW244279   8.677  10.945  10.456
48085SOL     OW44280   7.531  10.568  10.332
48085SOL    HW144281   7.526  10.567  10.432
48085SOL    HW244282   7.448  10.527  10.294
48086SOL     OW44283   8.136  10.972  11.026
48086SOL    HW144284   8.080  11.053  11.035
48086SOL    HW244285   8.188  10.976  10.940
48087SOL     OW44286   9.174   9.445   9.833
48087SOL    HW144287   9.247   9.428   9.766
48087SOL    HW244288   9.143   9.358   9.871
48088SOL     OW44289   8.836  10.883   9.787
48088SOL    HW144290   8.903  10.895   9.713
48088SOL    HW244291   8.796  10.972   9.810
48089SOL     OW44292   7.578  11.104  11.161
48089SOL    HW144293   7.537  11.030  11.214
48089SOL    HW244294   7.642  11.155  11.219
48090SOL     OW44295   8.728  10.237   9.982
48090SOL    HW144296   8.788  10.156   9.984
48090SOL    HW244297   8.768  10.306   9.922
48091SOL     OW44298   8.278  10.583  10.732
48091SOL    HW144299   8.273  10.616  10.827
48091SOL    HW244300   8.192  10.602  10.686
48092SOL     OW44301   8.120  10.926   9.464
48092SOL    HW144302   8.129  10.936   9.365
48092SOL    HW244303   8.080  10.837   9.485
48093SOL     OW44304   9.098  11.030  10.704
48093SOL    HW144305   9.151  11.040  10.620
48093SOL    HW244306   9.071  11.120  10.738
48094SOL     OW44307   9.289   9.485  10.273
48094SOL    HW144308   9.328   9.400  10.237
48094SOL    HW244309   9.191   9.487  10.254
48095SOL     OW44310   7.711   9.636  10.030
48095SOL    HW144311   7.632   9.687   9.996
48095SOL    HW244312   7.702   9.621  10.128
48096SOL     OW44313   8.642  10.922   9.341
48096SOL    HW144314   8.648  10.829   9.378
48096SOL    HW244315   8.583  10.922   9.261
48097SOL     OW44316   8.270  10.312  10.682
48097SOL    HW144317   8.310  10.311  10.590
48097SOL    HW244318   8.280  10.404  10.722
48098SOL     OW44319   8.364  10.220   9.601
48098SOL    HW144320   8.427  10.258   9.533
48098SOL    HW244321   8.404  10.137   9.640
48099SOL     OW44322   8.952  10.917   9.354
48099SOL    HW144323   8.860  10.954   9.361
48099SOL    HW244324   8.990  10.937   9.264
48100SOL     OW44325   7.820  10.598  10.800
48100SOL    HW144326   7.807  10.691  10.766
48100SOL    HW244327   7.736  10.546  10.787
48101SOL     OW44328   9.062  10.602  10.599
48101SOL    HW144329   9.122  10.605  10.679
48101SOL    HW244330   8.987  10.666  10.612
48102SOL     OW44331   8.487  10.408  10.006
48102SOL    HW144332   8.417  10.361  10.060
48102SOL    HW244333   8.546  10.340   9.963
48103SOL     OW44334   8.462   9.546  10.281
48103SOL    HW144335   8.454   9.510  10.188
48103SOL    HW244336   8.460   9.470  10.346
48104SOL     OW44337   8.038  10.797   9.801
48104SOL    HW144338   8.080  10.739   9.731
48104SOL    HW244339   7.994  10.876   9.757
48105SOL     OW44340   9.157   9.695  10.691
48105SOL    HW144341   9.230   9.764  10.695
48105SOL    HW244342   9.185   9.620  10.632
48106SOL     OW44343   7.703  10.658   9.600
48106SOL    HW144344   7.607  10.659   9.573
48106SOL    HW244345   7.715  10.711   9.684
48107SOL     OW44346   7.553  10.323  11.036
48107SOL    HW144347   7.476  10.290  11.090
48107SOL    HW244348   7.638  10.293  11.078
48108SOL     OW44349   8.120   9.513  10.799
48108SOL    HW144350   8.210   9.497  10.759
48108SOL    HW244351   8.128   9.518  10.898
48109SOL     OW44352   7.523   9.655   9.343
48109SOL    HW144353   7.431   9.627   9.314
48109SOL    HW244354   7.554   9.732   9.287
48110SOL     OW44355   8.888  10.166  10.708
48110SOL    HW144356   8.831  10.218  10.645
48110SOL    HW244357   8.984  10.178  10.684
48111SOL     OW44358   7.520   9.476   9.628
48111SOL    HW144359   7.503   9.559   9.574
48111SOL    HW244360   7.610   9.439   9.606
48112SOL     OW44361   8.631  10.645   9.429
48112SOL    HW144362   8.532  10.634   9.431
48112SOL    HW244363   8.665  10.660   9.522
48113SOL     OW44364   8.061  10.152  10.741
48113SOL    HW144365   8.117  10.233  10.724
48113SOL    HW244366   8.120  10.072  10.744
48114SOL     OW44367   8.941  11.077  10.269
48114SOL    HW144368   8.974  11.141  10.200
48114SOL    HW244369   9.007  11.071  10.344
48115SOL     OW44370   8.164   9.875  11.018
48115SOL    HW144371   8.183   9.940  11.092
48115SOL    HW244372   8.224   9.795  11.027
48116SOL     OW44373   8.898  10.530  10.943
48116SOL    HW144374   8.889  10.520  11.042
48116SOL    HW244375   8.994  10.523  10.917
48117SOL     OW44376   7.838  11.051  10.870
48117SOL    HW144377   7.747  11.092  10.868
48117SOL    HW244378   7.831  10.957  10.902
48118SOL     OW44379   9.122  10.193  10.564
48118SOL    HW144380   9.095  10.104  10.527
48118SOL    HW244381   9.123  10.261  10.491
48119SOL     OW44382   8.673   9.635   9.759
48119SOL    HW144383   8.738   9.561   9.748
48119SOL    HW244384   8.693   9.685   9.843
48120SOL     OW44385   8.042  10.055   9.962
48120SOL    HW144386   8.092  10.140   9.943
48120SOL    HW244387   7.954  10.057   9.914
48121SOL     OW44388   9.225   9.652  10.952
48121SOL    HW144389   9.208   9.683  10.858
48121SOL    HW244390   9.141   9.615  10.990
48122SOL     OW44391   9.178  10.244  10.827
48122SOL    HW144392   9.216  10.335  10.842
48122SOL    HW244393   9.170  10.227  10.728
48123SOL     OW44394   8.307  10.684   9.326
48123SOL    HW144395   8.261  10.699   9.414
48123SOL    HW244396   8.351  10.769   9.296
48124SOL     OW44397   8.109  11.100  10.263
48124SOL    HW144398   8.063  11.188  10.250
48124SOL    HW244399   8.208  11.112  10.256
48125SOL     OW44400   8.307  10.266  10.171
48125SOL    HW144401   8.361  10.197  10.219
48125SOL    HW244402   8.275  10.335  10.237
48126SOL     OW44403   8.531  10.294   9.397
48126SOL    HW144404   8.508  10.347   9.315
48126SOL    HW244405   8.612  10.238   9.378
48127SOL     OW44406   9.309  10.879  10.161
48127SOL    HW144407   9.238  10.867  10.091
48127SOL    HW244408   9.310  10.800  10.221
48128SOL     OW44409   7.669  10.624  11.154
48128SOL    HW144410   7.604  10.551  11.133
48128SOL    HW244411   7.673  10.638  11.252
48129SOL     OW44412   7.527  10.550   9.963
48129SOL    HW144413   7.526  10.503  10.051
48129SOL    HW244414   7.609  10.522   9.912
48130SOL     OW44415   8.120  10.701  10.934
48130SOL    HW144416   8.042  10.651  10.972
48130SOL    HW244417   8.117  10.796  10.965
48131SOL     OW44418   9.272   9.502  10.537
48131SOL    HW144419   9.268   9.412  10.581
48131SOL    HW244420   9.275   9.491  10.438
48132SOL     OW44421   7.876   9.734   9.830
48132SOL    HW144422   7.906   9.662   9.768
48132SOL    HW244423   7.837   9.694   9.913
48133SOL     OW44424   9.153  10.797  10.414
48133SOL    HW144425   9.060  10.772  10.387
48133SOL    HW244426   9.179  10.747  10.496
48134SOL     OW44427   7.765   9.857  10.590
48134SOL    HW144428   7.803   9.798  10.662
48134SOL    HW244429   7.805   9.831  10.502
48135SOL     OW44430   8.260  10.896   9.997
48135SOL    HW144431   8.292  10.906   9.903
48135SOL    HW244432   8.181  10.834   9.999
48136SOL     OW44433   8.872   9.524  10.422
48136SOL    HW144434   8.924   9.459  10.477
48136SOL    HW244435   8.823   9.587  10.483
48137SOL     OW44436   8.449   9.344  10.464
48137SOL    HW144437   8.386   9.272  10.433
48137SOL    HW244438   8.542   9.308  10.464
48138SOL     OW44439   8.218  10.640   9.611
48138SOL    HW144440   8.172  10.553   9.628
48138SOL    HW244441   8.309  10.637   9.652
48139SOL     OW44442   8.066  10.877  10.594
48139SOL    HW144443   8.061  10.959  10.651
48139SOL    HW244444   8.155  10.874  10.549
48140SOL     OW44445   8.800   9.362   9.478
48140SOL    HW144446   8.835   9.321   9.394
48140SOL    HW244447   8.710   9.324   9.498
48141SOL     OW44448   8.748   9.763  10.001
48141SOL    HW144449   8.689   9.843  10.005
48141SOL    HW244450   8.763   9.728  10.094
48142SOL     OW44451   9.041   9.531  10.192
48142SOL    HW144452   8.957   9.530  10.246
48142SOL    HW244453   9.043   9.614  10.136
48143SOL     OW44454   7.487  10.387   9.610
48143SOL    HW144455   7.586  10.376   9.601
48143SOL    HW244456   7.447  10.301   9.642
48144SOL     OW44457   8.323  10.956   9.647
48144SOL    HW144458   8.246  10.921   9.593
48144SOL    HW244459   8.291  11.027   9.709
48145SOL     OW44460   7.678   9.938  11.285
48145SOL    HW144461   7.585   9.936  11.322
48145SOL    HW244462   7.679   9.899  11.193
48146SOL     OW44463   7.673   9.585  12.168
48146SOL    HW144464   7.708   9.568  12.260
48146SOL    HW244465   7.585   9.540  12.156
48147SOL     OW44466   7.467   9.678  11.819
48147SOL    HW144467   7.385   9.721  11.858
48147SOL    HW244468   7.439   9.605  11.756
48148SOL     OW44469   8.017  10.585  12.337
48148SOL    HW144470   7.924  10.578  12.300
48148SOL    HW244471   8.028  10.674  12.381
48149SOL     OW44472   9.003  10.821  11.875
48149SOL    HW144473   8.946  10.805  11.956
48149SOL    HW244474   8.944  10.831  11.795
48150SOL     OW44475   8.583  10.013  11.889
48150SOL    HW144476   8.640  10.091  11.864
48150SOL    HW244477   8.523  10.039  11.965
48151SOL     OW44478   9.203   9.917  11.403
48151SOL    HW144479   9.191   9.904  11.304
48151SOL    HW244480   9.173   9.836  11.452
48152SOL     OW44481   8.216  10.454  12.195
48152SOL    HW144482   8.138  10.471  12.255
48152SOL    HW244483   8.250  10.541  12.159
48153SOL     OW44484   8.133  10.322  11.837
48153SOL    HW144485   8.202  10.306  11.907
48153SOL    HW244486   8.060  10.379  11.875
48154SOL     OW44487   7.783  10.745  12.233
48154SOL    HW144488   7.705  10.714  12.180
48154SOL    HW244489   7.841  10.803  12.176
48155SOL     OW44490   8.908  10.815  12.511
48155SOL    HW144491   8.932  10.909  12.537
48155SOL    HW244492   8.892  10.761  12.593
48156SOL     OW44493   7.886   9.702  12.671
48156SOL    HW144494   7.968   9.646  12.680
48156SOL    HW244495   7.805   9.644  12.675
48157SOL     OW44496   9.051   9.757  11.909
48157SOL    HW144497   8.977   9.803  11.859
48157SOL    HW244498   9.102   9.825  11.962
48158SOL     OW44499   7.679  11.023  11.655
48158SOL    HW144500   7.713  11.100  11.709
48158SOL    HW244501   7.723  11.023  11.565
48159SOL     OW44502   7.678  10.744  11.710
48159SOL    HW144503   7.652  10.840  11.710
48159SOL    HW244504   7.607  10.690  11.755
48160SOL     OW44505   7.688  10.401  12.058
48160SOL    HW144506   7.702  10.317  12.110
48160SOL    HW244507   7.633  10.465  12.113
48161SOL     OW44508   8.068  11.096  12.611
48161SOL    HW144509   7.976  11.079  12.646
48161SOL    HW244510   8.096  11.188  12.637
48162SOL     OW44511   8.054  10.274  11.295
48162SOL    HW144512   8.061  10.358  11.241
48162SOL    HW244513   8.100  10.287  11.383
48163SOL     OW44514   9.042   9.424  12.652
48163SOL    HW144515   9.024   9.491  12.580
48163SOL    HW244516   9.039   9.470  12.741
48164SOL     OW44517   7.570   9.953  11.735
48164SOL    HW144518   7.525   9.865  11.752
48164SOL    HW244519   7.569  10.007  11.819
48165SOL     OW44520   9.290  11.077  11.531
48165SOL    HW144521   9.344  11.048  11.611
48165SOL    HW244522   9.320  11.167  11.502
48166SOL     OW44523   7.475  10.906  11.289
48166SOL    HW144524   7.456  10.810  11.310
48166SOL    HW244525   7.442  10.964  11.364
48167SOL     OW44526   9.137  10.232  11.784
48167SOL    HW144527   9.232  10.203  11.792
48167SOL    HW244528   9.129  10.297  11.709
48168SOL     OW44529   9.089  10.418  11.604
48168SOL    HW144530   9.175  10.420  11.552
48168SOL    HW244531   9.103  10.465  11.692
48169SOL     OW44532   8.061  10.675  11.898
48169SOL    HW144533   8.012  10.588  11.907
48169SOL    HW244534   8.038  10.718  11.811
48170SOL     OW44535   8.257   9.314  11.674
48170SOL    HW144536   8.297   9.405  11.665
48170SOL    HW244537   8.157   9.322  11.680
48171SOL     OW44538   7.645  10.286  12.436
48171SOL    HW144539   7.734  10.241  12.422
48171SOL    HW244540   7.572  10.221  12.417
48172SOL     OW44541   8.973  10.309  11.362
48172SOL    HW144542   8.910  10.233  11.375
48172SOL    HW244543   9.021  10.327  11.448
48173SOL     OW44544   7.765   9.561  12.973
48173SOL    HW144545   7.836   9.632  12.979
48173SOL    HW244546   7.677   9.600  13.001
48174SOL     OW44547   8.914  10.727  12.125
48174SOL    HW144548   8.855  10.733  12.205
48174SOL    HW244549   8.899  10.639  12.079
48175SOL     OW44550   9.115  11.024  11.744
48175SOL    HW144551   9.074  11.001  11.656
48175SOL    HW244552   9.097  10.950  11.809
48176SOL     OW44553   8.046  10.039  11.442
48176SOL    HW144554   8.070  10.108  11.374
48176SOL    HW244555   7.968  10.072  11.496
48177SOL     OW44556   8.729   9.655  12.116
48177SOL    HW144557   8.643   9.605  12.103
48177SOL    HW244558   8.791   9.601  12.172
48178SOL     OW44559   9.024  10.972  11.479
48178SOL    HW144560   9.113  11.018  11.482
48178SOL    HW244561   9.003  10.948  11.384
48179SOL     OW44562   8.255   9.915  12.637
48179SOL    HW144563   8.208   9.912  12.726
48179SOL    HW244564   8.204   9.860  12.571
48180SOL     OW44565   8.439   9.720  12.414
48180SOL    HW144566   8.362   9.754  12.468
48180SOL    HW244567   8.405   9.669  12.335
48181SOL     OW44568   8.489  10.011  11.601
48181SOL    HW144569   8.515  10.007  11.697
48181SOL    HW244570   8.404   9.960  11.587
48182SOL     OW44571   7.524  10.121  11.961
48182SOL    HW144572   7.623  10.109  11.970
48182SOL    HW244573   7.500  10.216  11.982
48183SOL     OW44574   7.578  11.131  12.743
48183SOL    HW144575   7.568  11.116  12.842
48183SOL    HW244576   7.492  11.167  12.707
48184SOL     OW44577   8.313   9.658  11.367
48184SOL    HW144578   8.372   9.721  11.318
48184SOL    HW244579   8.332   9.564  11.338
48185SOL     OW44580   8.810  10.454  11.717
48185SOL    HW144581   8.893  10.425  11.669
48185SOL    HW244582   8.761  10.521  11.661
48186SOL     OW44583   7.998   9.506  12.057
48186SOL    HW144584   7.993   9.501  12.157
48186SOL    HW244585   8.000   9.602  12.028
48187SOL     OW44586   8.456  10.766  11.649
48187SOL    HW144587   8.410  10.838  11.597
48187SOL    HW244588   8.452  10.786  11.747
48188SOL     OW44589   7.799  11.111  12.025
48188SOL    HW144590   7.849  11.025  12.031
48188SOL    HW244591   7.864  11.188  12.022
48189SOL     OW44592   9.243  10.376  12.045
48189SOL    HW144593   9.181  10.361  11.969
48189SOL    HW244594   9.191  10.387  12.130
48190SOL     OW44595   7.769  10.253  11.414
48190SOL    HW144596   7.851  10.292  11.372
48190SOL    HW244597   7.742  10.171  11.365
48191SOL     OW44598   8.906  10.045  11.900
48191SOL    HW144599   8.901   9.980  11.975
48191SOL    HW244600   8.986  10.104  11.913
48192SOL     OW44601   8.559  11.086  11.409
48192SOL    HW144602   8.499  11.024  11.459
48192SOL    HW244603   8.590  11.042  11.324
48193SOL     OW44604   7.650   9.595  12.670
48193SOL    HW144605   7.570   9.655  12.657
48193SOL    HW244606   7.640   9.546  12.756
48194SOL     OW44607   9.080  10.687  11.253
48194SOL    HW144608   9.048  10.781  11.243
48194SOL    HW244609   9.004  10.624  11.241
48195SOL     OW44610   7.912  11.053  11.495
48195SOL    HW144611   7.945  11.092  11.581
48195SOL    HW244612   7.988  11.046  11.430
48196SOL     OW44613   8.848   9.417  11.598
48196SOL    HW144614   8.824   9.380  11.508
48196SOL    HW244615   8.947   9.433  11.602
48197SOL     OW44616   7.697  11.095  12.413
48197SOL    HW144617   7.754  11.030  12.463
48197SOL    HW244618   7.681  11.062  12.320
48198SOL     OW44619   8.388  11.008  12.076
48198SOL    HW144620   8.468  10.951  12.097
48198SOL    HW244621   8.339  10.968  11.999
48199SOL     OW44622   7.830  10.010  11.652
48199SOL    HW144623   7.875   9.920  11.649
48199SOL    HW244624   7.736   9.999  11.685
48200SOL     OW44625   8.062   9.432  11.289
48200SOL    HW144626   8.160   9.410  11.296
48200SOL    HW244627   8.031   9.415  11.196
48201SOL     OW44628   8.336  10.824  12.367
48201SOL    HW144629   8.313  10.799  12.273
48201SOL    HW244630   8.397  10.755  12.406
48202SOL     OW44631   8.251  10.712  12.096
48202SOL    HW144632   8.341  10.726  12.054
48202SOL    HW244633   8.180  10.714  12.025
48203SOL     OW44634   8.370   9.813  12.071
48203SOL    HW144635   8.345   9.804  11.975
48203SOL    HW244636   8.418   9.731  12.102
48204SOL     OW44637   7.987   9.374  11.684
48204SOL    HW144638   7.906   9.375  11.742
48204SOL    HW244639   7.990   9.457  11.629
48205SOL     OW44640   8.882  10.498  11.213
48205SOL    HW144641   8.914  10.422  11.270
48205SOL    HW244642   8.790  10.525  11.243
48206SOL     OW44643   7.745   9.345  11.343
48206SOL    HW144644   7.794   9.429  11.322
48206SOL    HW244645   7.807   9.280  11.388
48207SOL     OW44646   8.383   9.546  11.652
48207SOL    HW144647   8.335   9.587  11.574
48207SOL    HW244648   8.482   9.544  11.633
48208SOL     OW44649   8.675  10.880  11.965
48208SOL    HW144650   8.696  10.954  11.900
48208SOL    HW244651   8.743  10.880  12.038
48209SOL     OW44652   7.907  10.462  11.913
48209SOL    HW144653   7.836  10.435  11.978
48209SOL    HW244654   7.881  10.434  11.820
48210SOL     OW44655   8.719  11.107  11.763
48210SOL    HW144656   8.763  11.171  11.699
48210SOL    HW244657   8.669  11.159  11.833
48211SOL     OW44658   8.480   9.859  11.188
48211SOL    HW144659   8.439   9.941  11.149
48211SOL    HW244660   8.544   9.885  11.261
48212SOL     OW44661   7.526   9.866  12.558
48212SOL    HW144662   7.618   9.865  12.517
48212SOL    HW244663   7.520   9.940  12.625
48213SOL     OW44664   8.009   9.532  12.319
48213SOL    HW144665   8.047   9.448  12.356
48213SOL    HW244666   7.921   9.551  12.363
48214SOL     OW44667   8.314   9.764  11.814
48214SOL    HW144668   8.282   9.836  11.752
48214SOL    HW244669   8.338   9.683  11.761
48215SOL     OW44670   8.465   9.349  11.925
48215SOL    HW144671   8.393   9.354  11.856
48215SOL    HW244672   8.441   9.280  11.994
48216SOL     OW44673   8.877  10.483  12.039
48216SOL    HW144674   8.822  10.399  12.032
48216SOL    HW244675   8.903  10.512  11.947
48217SOL     OW44676   8.914   9.900  12.164
48217SOL    HW144677   8.884   9.805  12.171
48217SOL    HW244678   8.987   9.916  12.230
48218SOL     OW44679   9.305  10.143  11.549
48218SOL    HW144680   9.347  10.079  11.613
48218SOL    HW244681   9.267  10.092  11.471
48219SOL     OW44682   7.936  10.695  11.346
48219SOL    HW144683   7.849  10.680  11.393
48219SOL    HW244684   7.919  10.721  11.251
48220SOL     OW44685   9.112  10.590  11.829
48220SOL    HW144686   9.211  10.598  11.843
48220SOL    HW244687   9.067  10.674  11.860
48221SOL     OW44688   8.838   9.885  11.250
48221SOL    HW144689   8.784   9.864  11.331
48221SOL    HW244690   8.929   9.844  11.259
48222SOL     OW44691   7.975   9.566  11.500
48222SOL    HW144692   8.002   9.507  11.425
48222SOL    HW244693   7.975   9.661  11.469
48223SOL     OW44694   8.512  10.657  12.512
48223SOL    HW144695   8.432  10.634  12.567
48223SOL    HW244696   8.595  10.631  12.561
48224SOL     OW44697   8.559  10.505  12.272
48224SOL    HW144698   8.519  10.549  12.353
48224SOL    HW244699   8.518  10.542  12.189
48225SOL     OW44700   9.086  10.409  12.251
48225SOL    HW144701   9.091  10.490  12.310
48225SOL    HW244702   9.000  10.411  12.200
48226SOL     OW44703   8.363   9.399  12.574
48226SOL    HW144704   8.388   9.379  12.479
48226SOL    HW244705   8.435   9.455  12.616
48227SOL     OW44706   8.153  10.360  11.540
48227SOL    HW144707   8.139  10.367  11.639
48227SOL    HW244708   8.237  10.309  11.522
48228SOL     OW44709   7.858  10.123  12.423
48228SOL    HW144710   7.944  10.135  12.473
48228SOL    HW244711   7.816  10.036  12.450
48229SOL     OW44712   8.722   9.696  12.434
48229SOL    HW144713   8.743   9.770  12.498
48229SOL    HW244714   8.633   9.713  12.391
48230SOL     OW44715   7.512  10.874  12.503
48230SOL    HW144716   7.466  10.956  12.469
48230SOL    HW244717   7.610  10.893  12.512
48231SOL     OW44718   7.815  10.410  11.673
48231SOL    HW144719   7.808  10.493  11.617
48231SOL    HW244720   7.819  10.330  11.613
48232SOL     OW44721   8.014   9.847  12.037
48232SOL    HW144722   8.026   9.913  11.963
48232SOL    HW244723   8.060   9.881  12.120
48233SOL     OW44724   8.700  10.658  11.560
48233SOL    HW144725   8.750  10.735  11.600
48233SOL    HW244726   8.605  10.660  11.592
48234SOL     OW44727   8.720  10.755  12.314
48234SOL    HW144728   8.767  10.768  12.401
48234SOL    HW244729   8.654  10.681  12.323
48235SOL     OW44730   9.030   9.949  11.644
48235SOL    HW144731   8.999  10.010  11.717
48235SOL    HW244732   9.080  10.001  11.575
48236SOL     OW44733   7.802  10.820  12.501
48236SOL    HW144734   7.781  10.776  12.414
48236SOL    HW244735   7.899  10.846  12.504
48237SOL     OW44736   7.850  10.061  12.770
48237SOL    HW144737   7.918  10.116  12.723
48237SOL    HW244738   7.890   9.973  12.797
48238SOL     OW44739   9.035  10.089  12.842
48238SOL    HW144740   8.943  10.127  12.837
48238SOL    HW244741   9.095  10.136  12.777
48239SOL     OW44742   8.021  10.180  12.201
48239SOL    HW144743   8.065  10.269  12.192
48239SOL    HW244744   7.958  10.180  12.278
48240SOL     OW44745   8.808  10.172  12.217
48240SOL    HW144746   8.733  10.172  12.151
48240SOL    HW244747   8.845  10.080  12.226
48241SOL     OW44748   8.657   9.835  11.447
48241SOL    HW144749   8.670   9.751  11.501
48241SOL    HW244750   8.628   9.909  11.507
48242SOL     OW44751   7.755   9.523  12.403
48242SOL    HW144752   7.732   9.560  12.493
48242SOL    HW244753   7.725   9.428  12.397
48243SOL     OW44754   7.485  10.620  12.454
48243SOL    HW144755   7.538  10.571  12.522
48243SOL    HW244756   7.507  10.718  12.459
48244SOL     OW44757   8.180   9.944  12.236
48244SOL    HW144758   8.239   9.918  12.160
48244SOL    HW244759   8.152  10.040  12.225
48245SOL     OW44760   7.755   9.373  11.790
48245SOL    HW144761   7.744   9.467  11.823
48245SOL    HW244762   7.750   9.310  11.867
48246SOL     OW44763   9.070   9.677  11.546
48246SOL    HW144764   9.072   9.601  11.610
48246SOL    HW244765   9.022   9.754  11.586
48247SOL     OW44766   8.471  10.076  12.138
48247SOL    HW144767   8.486  10.097  12.234
48247SOL    HW244768   8.441   9.981  12.129
48248SOL     OW44769   8.428  10.883  12.872
48248SOL    HW144770   8.408  10.927  12.784
48248SOL    HW244771   8.467  10.792  12.856
48249SOL     OW44772   8.988   9.584  11.297
48249SOL    HW144773   8.927   9.509  11.320
48249SOL    HW244774   9.010   9.636  11.380
48250SOL     OW44775   8.751  10.148  11.214
48250SOL    HW144776   8.785  10.055  11.229
48250SOL    HW244777   8.769  10.175  11.119
48251SOL     OW44778   8.516  10.643  12.021
48251SOL    HW144779   8.523  10.559  11.966
48251SOL    HW244780   8.578  10.712  11.985
48252SOL     OW44781   7.767  10.120  12.121
48252SOL    HW144782   7.860  10.156  12.126
48252SOL    HW244783   7.761  10.035  12.173
48253SOL     OW44784   7.787   9.819  12.178
48253SOL    HW144785   7.735   9.736  12.161
48253SOL    HW244786   7.864   9.824  12.114
48254SOL     OW44787   8.586   9.690  12.850
48254SOL    HW144788   8.541   9.753  12.914
48254SOL    HW244789   8.679   9.721  12.833
48255SOL     OW44790   8.608   9.517  12.649
48255SOL    HW144791   8.608   9.581  12.726
48255SOL    HW244792   8.636   9.565  12.566
48256SOL     OW44793   7.456  10.636  11.372
48256SOL    HW144794   7.363  10.657  11.341
48256SOL    HW244795   7.466  10.537  11.385
48257SOL     OW44796   7.536  11.111  12.099
48257SOL    HW144797   7.494  11.025  12.072
48257SOL    HW244798   7.630  11.114  12.065
48258SOL     OW44799   7.952  10.878  12.082
48258SOL    HW144800   8.018  10.952  12.091
48258SOL    HW244801   7.996  10.799  12.040
48259SOL     OW44802   8.450  10.106  12.410
48259SOL    HW144803   8.491  10.074  12.496
48259SOL    HW244804   8.354  10.079  12.407
48260SOL     OW44805   7.488   9.854  12.286
48260SOL    HW144806   7.573   9.821  12.245
48260SOL    HW244807   7.501   9.869  12.384
48261SOL     OW44808   8.263   9.882  11.497
48261SOL    HW144809   8.270   9.793  11.451
48261SOL    HW244810   8.169   9.916  11.489
48262SOL     OW44811   9.105   9.914  12.378
48262SOL    HW144812   9.067   9.845  12.440
48262SOL    HW244813   9.187   9.878  12.334
48263SOL     OW44814   8.119   9.774  12.441
48263SOL    HW144815   8.085   9.685  12.411
48263SOL    HW244816   8.145   9.828  12.361
48264SOL     OW44817   8.378  10.988  12.637
48264SOL    HW144818   8.354  10.970  12.542
48264SOL    HW244819   8.408  11.082  12.647
48265SOL     OW44820   7.921   9.810  11.363
48265SOL    HW144821   7.982   9.890  11.367
48265SOL    HW244822   7.826   9.841  11.370
48266SOL     OW44823   7.607  10.447  12.638
48266SOL    HW144824   7.629  10.386  12.714
48266SOL    HW244825   7.617  10.398  12.552
48267SOL     OW44826   8.795  10.369  12.406
48267SOL    HW144827   8.819  10.306  12.332
48267SOL    HW244828   8.705  10.409  12.388
48268SOL     OW44829   8.750  10.165  11.481
48268SOL    HW144830   8.664  10.134  11.523
48268SOL    HW244831   8.746  10.151  11.382
48269SOL     OW44832   9.207  11.057  12.326
48269SOL    HW144833   9.268  11.087  12.253
48269SOL    HW244834   9.169  10.968  12.304
48270SOL     OW44835   8.700  11.041  12.300
48270SOL    HW144836   8.784  11.046  12.246
48270SOL    HW244837   8.677  10.945  12.318
48271SOL     OW44838   7.531  10.568  12.194
48271SOL    HW144839   7.526  10.567  12.294
48271SOL    HW244840   7.448  10.527  12.156
48272SOL     OW44841   9.174   9.445  11.695
48272SOL    HW144842   9.247   9.428  11.628
48272SOL    HW244843   9.143   9.358  11.733
48273SOL     OW44844   8.836  10.883  11.649
48273SOL    HW144845   8.903  10.895  11.575
48273SOL    HW244846   8.796  10.972  11.672
48274SOL     OW44847   8.728  10.237  11.844
48274SOL    HW144848   8.788  10.156  11.846
48274SOL    HW244849   8.768  10.306  11.784
48275SOL     OW44850   8.120  10.926  11.326
48275SOL    HW144851   8.129  10.936  11.227
48275SOL    HW244852   8.080  10.837  11.347
48276SOL     OW44853   9.098  11.030  12.566
48276SOL    HW144854   9.151  11.040  12.482
48276SOL    HW244855   9.071  11.120  12.600
48277SOL     OW44856   9.289   9.485  12.135
48277SOL    HW144857   9.328   9.400  12.099
48277SOL    HW244858   9.191   9.487  12.116
48278SOL     OW44859   7.711   9.636  11.892
48278SOL    HW144860   7.632   9.687  11.858
48278SOL    HW244861   7.702   9.621  11.990
48279SOL     OW44862   8.642  10.922  11.203
48279SOL    HW144863   8.648  10.829  11.240
48279SOL    HW244864   8.583  10.922  11.123
48280SOL     OW44865   8.270  10.312  12.544
48280SOL    HW144866   8.310  10.311  12.452
48280SOL    HW244867   8.280  10.404  12.584
48281SOL     OW44868   8.364  10.220  11.463
48281SOL    HW144869   8.427  10.258  11.395
48281SOL    HW244870   8.404  10.137  11.502
48282SOL     OW44871   8.952  10.917  11.216
48282SOL    HW144872   8.860  10.954  11.223
48282SOL    HW244873   8.990  10.937  11.126
48283SOL     OW44874   7.820  10.598  12.662
48283SOL    HW144875   7.807  10.691  12.628
48283SOL    HW244876   7.736  10.546  12.649
48284SOL     OW44877   9.062  10.602  12.461
48284SOL    HW144878   9.122  10.605  12.541
48284SOL    HW244879   8.987  10.666  12.474
48285SOL     OW44880   8.487  10.408  11.868
48285SOL    HW144881   8.417  10.361  11.922
48285SOL    HW244882   8.546  10.340  11.825
48286SOL     OW44883   8.462   9.546  12.143
48286SOL    HW144884   8.454   9.510  12.050
48286SOL    HW244885   8.460   9.470  12.208
48287SOL     OW44886   8.038  10.797  11.663
48287SOL    HW144887   8.080  10.739  11.593
48287SOL    HW244888   7.994  10.876  11.619
48288SOL     OW44889   9.157   9.695  12.553
48288SOL    HW144890   9.230   9.764  12.557
48288SOL    HW244891   9.185   9.620  12.494
48289SOL     OW44892   7.703  10.658  11.462
48289SOL    HW144893   7.607  10.659  11.435
48289SOL    HW244894   7.715  10.711  11.546
48290SOL     OW44895   7.523   9.655  11.205
48290SOL    HW144896   7.431   9.627  11.176
48290SOL    HW244897   7.554   9.732  11.149
48291SOL     OW44898   8.888  10.166  12.570
48291SOL    HW144899   8.831  10.218  12.507
48291SOL    HW244900   8.984  10.178  12.546
48292SOL     OW44901   7.520   9.476  11.490
48292SOL    HW144902   7.503   9.559  11.436
48292SOL    HW244903   7.610   9.439  11.468
48293SOL     OW44904   8.631  10.645  11.291
48293SOL    HW144905   8.532  10.634  11.293
48293SOL    HW244906   8.665  10.660  11.384
48294SOL     OW44907   8.061  10.152  12.603
48294SOL    HW144908   8.117  10.233  12.586
48294SOL    HW244909   8.120  10.072  12.606
48295SOL     OW44910   8.941  11.077  12.131
48295SOL    HW144911   8.974  11.141  12.062
48295SOL    HW244912   9.007  11.071  12.206
48296SOL     OW44913   7.838  11.051  12.732
48296SOL    HW144914   7.747  11.092  12.730
48296SOL    HW244915   7.831  10.957  12.764
48297SOL     OW44916   9.122  10.193  12.426
48297SOL    HW144917   9.095  10.104  12.389
48297SOL    HW244918   9.123  10.261  12.353
48298SOL     OW44919   8.673   9.635  11.621
48298SOL    HW144920   8.738   9.561  11.610
48298SOL    HW244921   8.693   9.685  11.705
48299SOL     OW44922   8.042  10.055  11.824
48299SOL    HW144923   8.092  10.140  11.805
48299SOL    HW244924   7.954  10.057  11.776
48300SOL     OW44925   9.225   9.652  12.814
48300SOL    HW144926   9.208   9.683  12.720
48300SOL    HW244927   9.141   9.615  12.852
48301SOL     OW44928   9.178  10.244  12.689
48301SOL    HW144929   9.216  10.335  12.704
48301SOL    HW244930   9.170  10.227  12.590
48302SOL     OW44931   8.307  10.684  11.188
48302SOL    HW144932   8.261  10.699  11.276
48302SOL    HW244933   8.351  10.769  11.158
48303SOL     OW44934   8.109  11.100  12.125
48303SOL    HW144935   8.063  11.188  12.112
48303SOL    HW244936   8.208  11.112  12.118
48304SOL     OW44937   8.307  10.266  12.033
48304SOL    HW144938   8.361  10.197  12.081
48304SOL    HW244939   8.275  10.335  12.099
48305SOL     OW44940   8.531  10.294  11.259
48305SOL    HW144941   8.508  10.347  11.177
48305SOL    HW244942   8.612  10.238  11.240
48306SOL     OW44943   9.309  10.879  12.023
48306SOL    HW144944   9.238  10.867  11.953
48306SOL    HW244945   9.310  10.800  12.083
48307SOL     OW44946   7.527  10.550  11.825
48307SOL    HW144947   7.526  10.503  11.913
48307SOL    HW244948   7.609  10.522  11.774
48308SOL     OW44949   9.272   9.502  12.399
48308SOL    HW144950   9.268   9.412  12.443
48308SOL    HW244951   9.275   9.491  12.300
48309SOL     OW44952   7.876   9.734  11.692
48309SOL    HW144953   7.906   9.662  11.630
48309SOL    HW244954   7.837   9.694  11.775
48310SOL     OW44955   9.153  10.797  12.276
48310SOL    HW144956   9.060  10.772  12.249
48310SOL    HW244957   9.179  10.747  12.358
48311SOL     OW44958   7.765   9.857  12.452
48311SOL    HW144959   7.803   9.798  12.524
48311SOL    HW244960   7.805   9.831  12.364
48312SOL     OW44961   8.260  10.896  11.859
48312SOL    HW144962   8.292  10.906  11.765
48312SOL    HW244963   8.181  10.834  11.861
48313SOL     OW44964   8.872   9.524  12.284
48313SOL    HW144965   8.924   9.459  12.339
48313SOL    HW244966   8.823   9.587  12.345
48314SOL     OW44967   8.449   9.344  12.326
48314SOL    HW144968   8.386   9.272  12.295
48314SOL    HW244969   8.542   9.308  12.326
48315SOL     OW44970   8.218  10.640  11.473
48315SOL    HW144971   8.172  10.553  11.490
48315SOL    HW244972   8.309  10.637  11.514
48316SOL     OW44973   8.066  10.877  12.456
48316SOL    HW144974   8.061  10.959  12.513
48316SOL    HW244975   8.155  10.874  12.411
48317SOL     OW44976   8.800   9.362  11.340
48317SOL    HW144977   8.835   9.321  11.256
48317SOL    HW244978   8.710   9.324  11.360
48318SOL     OW44979   8.748   9.763  11.863
48318SOL    HW144980   8.689   9.843  11.867
48318SOL    HW244981   8.763   9.728  11.956
48319SOL     OW44982   9.041   9.531  12.054
48319SOL    HW144983   8.957   9.530  12.108
48319SOL    HW244984   9.043   9.614  11.998
48320SOL     OW44985   7.487  10.387  11.472
48320SOL    HW144986   7.586  10.376  11.463
48320SOL    HW244987   7.447  10.301  11.504
48321SOL     OW44988   8.323  10.956  11.509
48321SOL    HW144989   8.246  10.921  11.455
48321SOL    HW244990   8.291  11.027  11.571
48322SOL     OW44991   7.678  11.800   0.113
48322SOL    HW144992   7.585  11.798   0.150
48322SOL    HW244993   7.679  11.761   0.021
48323SOL     OW44994   7.673  11.447   0.996
48323SOL    HW144995   7.708  11.430   1.088
48323SOL    HW244996   7.585  11.402   0.984
48324SOL     OW44997   7.467  11.540   0.647
48324SOL    HW144998   7.385  11.583   0.686
48324SOL    HW244999   7.439  11.467   0.584
48325SOL     OW45000   8.017  12.447   1.165
48325SOL    HW145001   7.924  12.440   1.128
48325SOL    HW245002   8.028  12.536   1.209
48326SOL     OW45003   9.003  12.683   0.703
48326SOL    HW145004   8.946  12.667   0.784
48326SOL    HW245005   8.944  12.693   0.623
48327SOL     OW45006   8.583  11.875   0.717
48327SOL    HW145007   8.640  11.953   0.692
48327SOL    HW245008   8.523  11.901   0.793
48328SOL     OW45009   9.203  11.779   0.231
48328SOL    HW145010   9.191  11.766   0.132
48328SOL    HW245011   9.173  11.698   0.280
48329SOL     OW45012   8.216  12.316   1.023
48329SOL    HW145013   8.138  12.333   1.083
48329SOL    HW245014   8.250  12.403   0.987
48330SOL     OW45015   8.298  11.970   1.823
48330SOL    HW145016   8.294  12.046   1.888
48330SOL    HW245017   8.320  12.006   1.732
48331SOL     OW45018   8.133  12.184   0.665
48331SOL    HW145019   8.202  12.168   0.735
48331SOL    HW245020   8.060  12.241   0.703
48332SOL     OW45021   8.134  12.333   1.803
48332SOL    HW145022   8.194  12.412   1.817
48332SOL    HW245023   8.048  12.364   1.762
48333SOL     OW45024   7.783  12.607   1.061
48333SOL    HW145025   7.705  12.576   1.008
48333SOL    HW245026   7.841  12.665   1.004
48334SOL     OW45027   8.908  12.677   1.339
48334SOL    HW145028   8.932  12.771   1.365
48334SOL    HW245029   8.892  12.623   1.421
48335SOL     OW45030   7.886  11.564   1.499
48335SOL    HW145031   7.968  11.508   1.508
48335SOL    HW245032   7.805  11.506   1.503
48336SOL     OW45033   9.051  11.619   0.737
48336SOL    HW145034   8.977  11.665   0.687
48336SOL    HW245035   9.102  11.687   0.790
48337SOL     OW45036   7.679  12.885   0.483
48337SOL    HW145037   7.713  12.962   0.537
48337SOL    HW245038   7.723  12.885   0.393
48338SOL     OW45039   8.575  12.513   1.690
48338SOL    HW145040   8.622  12.513   1.778
48338SOL    HW245041   8.527  12.426   1.679
48339SOL     OW45042   7.678  12.606   0.538
48339SOL    HW145043   7.652  12.702   0.538
48339SOL    HW245044   7.607  12.552   0.583
48340SOL     OW45045   7.688  12.263   0.886
48340SOL    HW145046   7.702  12.179   0.938
48340SOL    HW245047   7.633  12.327   0.941
48341SOL     OW45048   8.054  12.136   0.123
48341SOL    HW145049   8.061  12.220   0.069
48341SOL    HW245050   8.100  12.149   0.211
48342SOL     OW45051   9.042  11.286   1.480
48342SOL    HW145052   9.024  11.353   1.408
48342SOL    HW245053   9.039  11.332   1.569
48343SOL     OW45054   7.570  11.815   0.563
48343SOL    HW145055   7.525  11.727   0.580
48343SOL    HW245056   7.569  11.869   0.647
48344SOL     OW45057   7.475  12.768   0.117
48344SOL    HW145058   7.456  12.672   0.138
48344SOL    HW245059   7.442  12.826   0.192
48345SOL     OW45060   9.137  12.094   0.612
48345SOL    HW145061   9.232  12.065   0.620
48345SOL    HW245062   9.129  12.159   0.537
48346SOL     OW45063   9.089  12.280   0.432
48346SOL    HW145064   9.175  12.282   0.380
48346SOL    HW245065   9.103  12.327   0.520
48347SOL     OW45066   7.561  11.909   1.597
48347SOL    HW145067   7.649  11.896   1.642
48347SOL    HW245068   7.548  12.006   1.575
48348SOL     OW45069   8.061  12.537   0.726
48348SOL    HW145070   8.012  12.450   0.735
48348SOL    HW245071   8.038  12.580   0.639
48349SOL     OW45072   8.741  12.400   1.423
48349SOL    HW145073   8.778  12.327   1.365
48349SOL    HW245074   8.793  12.405   1.508
48350SOL     OW45075   8.257  11.176   0.502
48350SOL    HW145076   8.297  11.267   0.493
48350SOL    HW245077   8.157  11.184   0.508
48351SOL     OW45078   7.645  12.148   1.264
48351SOL    HW145079   7.734  12.103   1.250
48351SOL    HW245080   7.572  12.083   1.245
48352SOL     OW45081   8.973  12.171   0.190
48352SOL    HW145082   8.910  12.095   0.203
48352SOL    HW245083   9.021  12.189   0.276
48353SOL     OW45084   7.765  11.423   1.801
48353SOL    HW145085   7.836  11.494   1.807
48353SOL    HW245086   7.677  11.462   1.829
48354SOL     OW45087   8.914  12.589   0.953
48354SOL    HW145088   8.855  12.595   1.033
48354SOL    HW245089   8.899  12.501   0.907
48355SOL     OW45090   8.046  11.901   0.270
48355SOL    HW145091   8.070  11.970   0.202
48355SOL    HW245092   7.968  11.934   0.324
48356SOL     OW45093   8.729  11.517   0.944
48356SOL    HW145094   8.643  11.467   0.931
48356SOL    HW245095   8.791  11.463   1.000
48357SOL     OW45096   8.255  11.777   1.465
48357SOL    HW145097   8.208  11.774   1.554
48357SOL    HW245098   8.204  11.722   1.399
48358SOL     OW45099   8.842  11.641   1.674
48358SOL    HW145100   8.822  11.684   1.762
48358SOL    HW245101   8.920  11.579   1.683
48359SOL     OW45102   8.421  12.062   1.572
48359SOL    HW145103   8.467  11.978   1.543
48359SOL    HW245104   8.365  12.096   1.497
48360SOL     OW45105   8.439  11.582   1.242
48360SOL    HW145106   8.362  11.616   1.296
48360SOL    HW245107   8.405  11.531   1.163
48361SOL     OW45108   8.489  11.873   0.429
48361SOL    HW145109   8.515  11.869   0.525
48361SOL    HW245110   8.404  11.822   0.415
48362SOL     OW45111   7.524  11.983   0.789
48362SOL    HW145112   7.623  11.971   0.798
48362SOL    HW245113   7.500  12.078   0.810
48363SOL     OW45114   8.313  11.520   0.195
48363SOL    HW145115   8.372  11.583   0.146
48363SOL    HW245116   8.332  11.426   0.166
48364SOL     OW45117   9.167  11.757   1.831
48364SOL    HW145118   9.141  11.846   1.795
48364SOL    HW245119   9.165  11.689   1.758
48365SOL     OW45120   8.810  12.316   0.545
48365SOL    HW145121   8.893  12.287   0.497
48365SOL    HW245122   8.761  12.383   0.489
48366SOL     OW45123   7.998  11.368   0.885
48366SOL    HW145124   7.993  11.363   0.985
48366SOL    HW245125   8.000  11.464   0.856
48367SOL     OW45126   8.456  12.628   0.477
48367SOL    HW145127   8.410  12.700   0.425
48367SOL    HW245128   8.452  12.648   0.575
48368SOL     OW45129   9.243  12.238   0.873
48368SOL    HW145130   9.181  12.223   0.797
48368SOL    HW245131   9.191  12.249   0.958
48369SOL     OW45132   8.675  12.722   1.506
48369SOL    HW145133   8.681  12.645   1.570
48369SOL    HW245134   8.623  12.696   1.426
48370SOL     OW45135   7.769  12.115   0.242
48370SOL    HW145136   7.851  12.154   0.200
48370SOL    HW245137   7.742  12.033   0.193
48371SOL     OW45138   8.906  11.907   0.728
48371SOL    HW145139   8.901  11.842   0.803
48371SOL    HW245140   8.986  11.966   0.741
48372SOL     OW45141   7.909  12.438   1.727
48372SOL    HW145142   7.859  12.439   1.641
48372SOL    HW245143   7.846  12.420   1.803
48373SOL     OW45144   8.559  12.948   0.237
48373SOL    HW145145   8.499  12.886   0.287
48373SOL    HW245146   8.590  12.904   0.152
48374SOL     OW45147   7.650  11.457   1.498
48374SOL    HW145148   7.570  11.517   1.485
48374SOL    HW245149   7.640  11.408   1.584
48375SOL     OW45150   9.080  12.549   0.081
48375SOL    HW145151   9.048  12.643   0.071
48375SOL    HW245152   9.004  12.486   0.069
48376SOL     OW45153   8.848  11.279   0.426
48376SOL    HW145154   8.824  11.242   0.336
48376SOL    HW245155   8.947  11.295   0.430
48377SOL     OW45156   7.830  11.872   0.480
48377SOL    HW145157   7.875  11.782   0.477
48377SOL    HW245158   7.736  11.861   0.513
48378SOL     OW45159   8.995  11.394   1.729
48378SOL    HW145160   8.990  11.431   1.821
48378SOL    HW245161   8.923  11.325   1.717
48379SOL     OW45162   8.062  11.294   0.117
48379SOL    HW145163   8.160  11.272   0.124
48379SOL    HW245164   8.031  11.277   0.024
48380SOL     OW45165   8.229  11.436   1.749
48380SOL    HW145166   8.296  11.375   1.792
48380SOL    HW245167   8.156  11.455   1.814
48381SOL     OW45168   8.799  11.762   1.433
48381SOL    HW145169   8.827  11.719   1.518
48381SOL    HW245170   8.824  11.858   1.434
48382SOL     OW45171   8.251  12.574   0.924
48382SOL    HW145172   8.341  12.588   0.882
48382SOL    HW245173   8.180  12.576   0.853
48383SOL     OW45174   8.370  11.675   0.899
48383SOL    HW145175   8.345  11.666   0.803
48383SOL    HW245176   8.418  11.593   0.930
48384SOL     OW45177   7.987  11.236   0.512
48384SOL    HW145178   7.906  11.237   0.570
48384SOL    HW245179   7.990  11.319   0.457
48385SOL     OW45180   8.882  12.360   0.041
48385SOL    HW145181   8.914  12.284   0.098
48385SOL    HW245182   8.790  12.387   0.071
48386SOL     OW45183   7.745  11.207   0.171
48386SOL    HW145184   7.794  11.291   0.150
48386SOL    HW245185   7.807  11.142   0.216
48387SOL     OW45186   8.383  11.408   0.480
48387SOL    HW145187   8.335  11.449   0.402
48387SOL    HW245188   8.482  11.406   0.461
48388SOL     OW45189   8.524  11.855   1.464
48388SOL    HW145190   8.444  11.794   1.467
48388SOL    HW245191   8.605  11.802   1.440
48389SOL     OW45192   8.675  12.742   0.793
48389SOL    HW145193   8.696  12.816   0.728
48389SOL    HW245194   8.743  12.742   0.866
48390SOL     OW45195   7.907  12.324   0.741
48390SOL    HW145196   7.836  12.297   0.806
48390SOL    HW245197   7.881  12.296   0.648
48391SOL     OW45198   8.480  11.721   0.016
48391SOL    HW145199   8.439  11.803  -0.023
48391SOL    HW245200   8.544  11.747   0.089
48392SOL     OW45201   7.526  11.728   1.386
48392SOL    HW145202   7.618  11.727   1.345
48392SOL    HW245203   7.520  11.802   1.453
48393SOL     OW45204   8.009  11.394   1.147
48393SOL    HW145205   8.047  11.310   1.184
48393SOL    HW245206   7.921  11.413   1.191
48394SOL     OW45207   8.314  11.626   0.642
48394SOL    HW145208   8.282  11.698   0.580
48394SOL    HW245209   8.338  11.545   0.589
48395SOL     OW45210   8.465  11.211   0.753
48395SOL    HW145211   8.393  11.216   0.684
48395SOL    HW245212   8.441  11.142   0.822
48396SOL     OW45213   8.877  12.345   0.867
48396SOL    HW145214   8.822  12.261   0.860
48396SOL    HW245215   8.903  12.374   0.775
48397SOL     OW45216   8.914  11.762   0.992
48397SOL    HW145217   8.884  11.667   0.999
48397SOL    HW245218   8.987  11.778   1.058
48398SOL     OW45219   9.305  12.005   0.377
48398SOL    HW145220   9.347  11.941   0.441
48398SOL    HW245221   9.267  11.954   0.299
48399SOL     OW45222   7.936  12.557   0.174
48399SOL    HW145223   7.849  12.542   0.221
48399SOL    HW245224   7.919  12.583   0.079
48400SOL     OW45225   9.112  12.452   0.657
48400SOL    HW145226   9.211  12.460   0.671
48400SOL    HW245227   9.067  12.536   0.688
48401SOL     OW45228   8.838  11.747   0.078
48401SOL    HW145229   8.784  11.726   0.159
48401SOL    HW245230   8.929  11.706   0.087
48402SOL     OW45231   7.975  11.428   0.328
48402SOL    HW145232   8.002  11.369   0.253
48402SOL    HW245233   7.975  11.523   0.297
48403SOL     OW45234   9.202  12.395   1.588
48403SOL    HW145235   9.293  12.356   1.575
48403SOL    HW245236   9.210  12.491   1.612
48404SOL     OW45237   8.512  12.519   1.340
48404SOL    HW145238   8.432  12.496   1.395
48404SOL    HW245239   8.595  12.493   1.389
48405SOL     OW45240   8.559  12.367   1.100
48405SOL    HW145241   8.519  12.411   1.181
48405SOL    HW245242   8.518  12.404   1.017
48406SOL     OW45243   9.086  12.271   1.079
48406SOL    HW145244   9.091  12.352   1.138
48406SOL    HW245245   9.000  12.273   1.028
48407SOL     OW45246   8.363  11.261   1.402
48407SOL    HW145247   8.388  11.241   1.307
48407SOL    HW245248   8.435  11.317   1.444
48408SOL     OW45249   8.428  12.288   1.719
48408SOL    HW145250   8.329  12.294   1.729
48408SOL    HW245251   8.451  12.208   1.663
48409SOL     OW45252   8.153  12.222   0.368
48409SOL    HW145253   8.139  12.229   0.467
48409SOL    HW245254   8.237  12.171   0.350
48410SOL     OW45255   7.858  11.985   1.251
48410SOL    HW145256   7.944  11.997   1.301
48410SOL    HW245257   7.816  11.898   1.278
48411SOL     OW45258   8.722  11.558   1.262
48411SOL    HW145259   8.743  11.632   1.326
48411SOL    HW245260   8.633  11.575   1.219
48412SOL     OW45261   7.815  12.272   0.501
48412SOL    HW145262   7.808  12.355   0.445
48412SOL    HW245263   7.819  12.192   0.441
48413SOL     OW45264   8.014  11.709   0.865
48413SOL    HW145265   8.026  11.775   0.791
48413SOL    HW245266   8.060  11.743   0.948
48414SOL     OW45267   8.700  12.520   0.388
48414SOL    HW145268   8.750  12.597   0.428
48414SOL    HW245269   8.605  12.522   0.420
48415SOL     OW45270   8.720  12.617   1.142
48415SOL    HW145271   8.767  12.630   1.229
48415SOL    HW245272   8.654  12.543   1.151
48416SOL     OW45273   9.030  11.811   0.472
48416SOL    HW145274   8.999  11.872   0.545
48416SOL    HW245275   9.080  11.863   0.403
48417SOL     OW45276   7.802  12.682   1.329
48417SOL    HW145277   7.781  12.638   1.242
48417SOL    HW245278   7.899  12.708   1.332
48418SOL     OW45279   7.850  11.923   1.598
48418SOL    HW145280   7.918  11.978   1.551
48418SOL    HW245281   7.890  11.835   1.625
48419SOL     OW45282   9.035  11.951   1.670
48419SOL    HW145283   8.943  11.989   1.665
48419SOL    HW245284   9.095  11.998   1.605
48420SOL     OW45285   8.461  11.277   1.770
48420SOL    HW145286   8.467  11.362   1.718
48420SOL    HW245287   8.493  11.201   1.713
48421SOL     OW45288   7.952  11.222   1.740
48421SOL    HW145289   7.910  11.165   1.670
48421SOL    HW245290   7.886  11.291   1.772
48422SOL     OW45291   8.021  12.042   1.029
48422SOL    HW145292   8.065  12.131   1.020
48422SOL    HW245293   7.958  12.042   1.106
48423SOL     OW45294   8.808  12.034   1.045
48423SOL    HW145295   8.733  12.034   0.979
48423SOL    HW245296   8.845  11.942   1.054
48424SOL     OW45297   8.657  11.697   0.275
48424SOL    HW145298   8.670  11.613   0.329
48424SOL    HW245299   8.628  11.771   0.335
48425SOL     OW45300   7.755  11.385   1.231
48425SOL    HW145301   7.732  11.422   1.321
48425SOL    HW245302   7.725  11.290   1.225
48426SOL     OW45303   7.485  12.482   1.282
48426SOL    HW145304   7.538  12.433   1.350
48426SOL    HW245305   7.507  12.580   1.287
48427SOL     OW45306   8.180  11.806   1.064
48427SOL    HW145307   8.239  11.780   0.988
48427SOL    HW245308   8.152  11.902   1.053
48428SOL     OW45309   9.176  12.107   1.854
48428SOL    HW145310   9.130  12.100   1.765
48428SOL    HW245311   9.114  12.151   1.920
48429SOL     OW45312   7.755  11.235   0.618
48429SOL    HW145313   7.744  11.329   0.651
48429SOL    HW245314   7.750  11.172   0.695
48430SOL     OW45315   9.070  11.539   0.374
48430SOL    HW145316   9.072  11.463   0.438
48430SOL    HW245317   9.022  11.616   0.414
48431SOL     OW45318   8.471  11.938   0.966
48431SOL    HW145319   8.486  11.959   1.062
48431SOL    HW245320   8.441  11.843   0.957
48432SOL     OW45321   9.307  12.690   1.605
48432SOL    HW145322   9.321  12.717   1.510
48432SOL    HW245323   9.390  12.712   1.658
48433SOL     OW45324   7.798  12.070   1.804
48433SOL    HW145325   7.874  12.114   1.852
48433SOL    HW245326   7.833  12.023   1.722
48434SOL     OW45327   8.988  11.446   0.125
48434SOL    HW145328   8.927  11.371   0.148
48434SOL    HW245329   9.010  11.498   0.208
48435SOL     OW45330   8.751  12.010   0.042
48435SOL    HW145331   8.785  11.917   0.057
48435SOL    HW245332   8.769  12.037  -0.053
48436SOL     OW45333   8.516  12.505   0.849
48436SOL    HW145334   8.523  12.421   0.794
48436SOL    HW245335   8.578  12.574   0.813
48437SOL     OW45336   7.767  11.982   0.949
48437SOL    HW145337   7.860  12.018   0.954
48437SOL    HW245338   7.761  11.897   1.001
48438SOL     OW45339   7.787  11.681   1.006
48438SOL    HW145340   7.735  11.598   0.989
48438SOL    HW245341   7.864  11.686   0.942
48439SOL     OW45342   8.586  11.552   1.678
48439SOL    HW145343   8.541  11.615   1.742
48439SOL    HW245344   8.679  11.583   1.661
48440SOL     OW45345   8.608  11.379   1.477
48440SOL    HW145346   8.608  11.443   1.554
48440SOL    HW245347   8.636  11.427   1.394
48441SOL     OW45348   7.456  12.498   0.200
48441SOL    HW145349   7.363  12.519   0.169
48441SOL    HW245350   7.466  12.399   0.213
48442SOL     OW45351   8.450  11.968   1.238
48442SOL    HW145352   8.491  11.936   1.324
48442SOL    HW245353   8.354  11.941   1.235
48443SOL     OW45354   7.488  11.716   1.114
48443SOL    HW145355   7.573  11.683   1.073
48443SOL    HW245356   7.501  11.731   1.212
48444SOL     OW45357   7.637  11.692   1.722
48444SOL    HW145358   7.696  11.652   1.652
48444SOL    HW245359   7.579  11.763   1.681
48445SOL     OW45360   8.817  12.122   1.660
48445SOL    HW145361   8.856  12.211   1.680
48445SOL    HW245362   8.827  12.102   1.563
48446SOL     OW45363   8.263  11.744   0.325
48446SOL    HW145364   8.270  11.655   0.279
48446SOL    HW245365   8.169  11.778   0.317
48447SOL     OW45366   9.105  11.776   1.206
48447SOL    HW145367   9.067  11.707   1.268
48447SOL    HW245368   9.187  11.740   1.162
48448SOL     OW45369   7.700  12.736   1.744
48448SOL    HW145370   7.670  12.793   1.820
48448SOL    HW245371   7.693  12.639   1.770
48449SOL     OW45372   8.119  11.636   1.269
48449SOL    HW145373   8.085  11.547   1.239
48449SOL    HW245374   8.145  11.690   1.189
48450SOL     OW45375   7.921  11.672   0.191
48450SOL    HW145376   7.982  11.752   0.195
48450SOL    HW245377   7.826  11.703   0.198
48451SOL     OW45378   7.607  12.309   1.466
48451SOL    HW145379   7.629  12.248   1.542
48451SOL    HW245380   7.617  12.260   1.380
48452SOL     OW45381   8.795  12.231   1.234
48452SOL    HW145382   8.819  12.168   1.160
48452SOL    HW245383   8.705  12.271   1.216
48453SOL     OW45384   8.750  12.027   0.309
48453SOL    HW145385   8.664  11.996   0.351
48453SOL    HW245386   8.746  12.013   0.210
48454SOL     OW45387   7.531  12.430   1.022
48454SOL    HW145388   7.526  12.429   1.122
48454SOL    HW245389   7.448  12.389   0.984
48455SOL     OW45390   8.351  11.258   0.133
48455SOL    HW145391   8.402  11.259   0.047
48455SOL    HW245392   8.407  11.216   0.204
48456SOL     OW45393   9.174  11.307   0.523
48456SOL    HW145394   9.247  11.290   0.456
48456SOL    HW245395   9.143  11.220   0.561
48457SOL     OW45396   8.728  12.099   0.672
48457SOL    HW145397   8.788  12.018   0.674
48457SOL    HW245398   8.768  12.168   0.612
48458SOL     OW45399   8.278  12.445   1.422
48458SOL    HW145400   8.273  12.478   1.517
48458SOL    HW245401   8.192  12.464   1.376
48459SOL     OW45402   9.289  11.347   0.963
48459SOL    HW145403   9.328  11.262   0.927
48459SOL    HW245404   9.191  11.349   0.944
48460SOL     OW45405   7.711  11.498   0.720
48460SOL    HW145406   7.632  11.549   0.686
48460SOL    HW245407   7.702  11.483   0.818
48461SOL     OW45408   8.642  12.784   0.031
48461SOL    HW145409   8.648  12.691   0.068
48461SOL    HW245410   8.583  12.784  -0.049
48462SOL     OW45411   8.270  12.174   1.372
48462SOL    HW145412   8.310  12.173   1.280
48462SOL    HW245413   8.280  12.266   1.412
48463SOL     OW45414   8.364  12.082   0.291
48463SOL    HW145415   8.427  12.120   0.223
48463SOL    HW245416   8.404  11.999   0.330
48464SOL     OW45417   7.820  12.460   1.490
48464SOL    HW145418   7.807  12.553   1.456
48464SOL    HW245419   7.736  12.408   1.477
48465SOL     OW45420   9.062  12.464   1.289
48465SOL    HW145421   9.122  12.467   1.369
48465SOL    HW245422   8.987  12.528   1.302
48466SOL     OW45423   8.487  12.270   0.696
48466SOL    HW145424   8.417  12.223   0.750
48466SOL    HW245425   8.546  12.202   0.653
48467SOL     OW45426   8.462  11.408   0.971
48467SOL    HW145427   8.454  11.372   0.878
48467SOL    HW245428   8.460  11.332   1.036
48468SOL     OW45429   9.157  11.557   1.381
48468SOL    HW145430   9.230  11.626   1.385
48468SOL    HW245431   9.185  11.482   1.322
48469SOL     OW45432   7.703  12.520   0.290
48469SOL    HW145433   7.607  12.521   0.263
48469SOL    HW245434   7.715  12.573   0.374
48470SOL     OW45435   7.553  12.185   1.726
48470SOL    HW145436   7.476  12.152   1.780
48470SOL    HW245437   7.638  12.155   1.768
48471SOL     OW45438   8.120  11.375   1.489
48471SOL    HW145439   8.210  11.359   1.449
48471SOL    HW245440   8.128  11.380   1.588
48472SOL     OW45441   8.888  12.028   1.398
48472SOL    HW145442   8.831  12.080   1.335
48472SOL    HW245443   8.984  12.040   1.374
48473SOL     OW45444   7.520  11.338   0.318
48473SOL    HW145445   7.503  11.421   0.264
48473SOL    HW245446   7.610  11.301   0.296
48474SOL     OW45447   8.631  12.507   0.119
48474SOL    HW145448   8.532  12.496   0.121
48474SOL    HW245449   8.665  12.522   0.212
48475SOL     OW45450   8.061  12.014   1.431
48475SOL    HW145451   8.117  12.095   1.414
48475SOL    HW245452   8.120  11.934   1.434
48476SOL     OW45453   8.164  11.737   1.708
48476SOL    HW145454   8.183  11.802   1.782
48476SOL    HW245455   8.224  11.657   1.717
48477SOL     OW45456   8.898  12.392   1.633
48477SOL    HW145457   8.889  12.382   1.732
48477SOL    HW245458   8.994  12.385   1.607
48478SOL     OW45459   9.122  12.055   1.254
48478SOL    HW145460   9.095  11.966   1.217
48478SOL    HW245461   9.123  12.123   1.181
48479SOL     OW45462   8.673  11.497   0.449
48479SOL    HW145463   8.738  11.423   0.438
48479SOL    HW245464   8.693  11.547   0.533
48480SOL     OW45465   8.042  11.917   0.652
48480SOL    HW145466   8.092  12.002   0.633
48480SOL    HW245467   7.954  11.919   0.604
48481SOL     OW45468   9.225  11.514   1.642
48481SOL    HW145469   9.208  11.545   1.548
48481SOL    HW245470   9.141  11.477   1.680
48482SOL     OW45471   9.178  12.106   1.517
48482SOL    HW145472   9.216  12.197   1.532
48482SOL    HW245473   9.170  12.089   1.418
48483SOL     OW45474   8.307  12.546   0.016
48483SOL    HW145475   8.261  12.561   0.104
48483SOL    HW245476   8.351  12.631  -0.014
48484SOL     OW45477   8.307  12.128   0.861
48484SOL    HW145478   8.361  12.059   0.909
48484SOL    HW245479   8.275  12.197   0.927
48485SOL     OW45480   8.531  12.156   0.087
48485SOL    HW145481   8.508  12.209   0.005
48485SOL    HW245482   8.612  12.100   0.068
48486SOL     OW45483   7.669  12.486   1.844
48486SOL    HW145484   7.604  12.413   1.823
48486SOL    HW245485   7.673  12.500   1.942
48487SOL     OW45486   7.527  12.412   0.653
48487SOL    HW145487   7.526  12.365   0.741
48487SOL    HW245488   7.609  12.384   0.602
48488SOL     OW45489   8.120  12.563   1.624
48488SOL    HW145490   8.042  12.513   1.662
48488SOL    HW245491   8.117  12.658   1.655
48489SOL     OW45492   9.272  11.364   1.227
48489SOL    HW145493   9.268  11.274   1.271
48489SOL    HW245494   9.275  11.353   1.128
48490SOL     OW45495   7.876  11.596   0.520
48490SOL    HW145496   7.906  11.524   0.458
48490SOL    HW245497   7.837  11.556   0.603
48491SOL     OW45498   9.153  12.659   1.104
48491SOL    HW145499   9.060  12.634   1.077
48491SOL    HW245500   9.179  12.609   1.186
48492SOL     OW45501   7.765  11.719   1.280
48492SOL    HW145502   7.803  11.660   1.352
48492SOL    HW245503   7.805  11.693   1.192
48493SOL     OW45504   8.872  11.386   1.112
48493SOL    HW145505   8.924  11.321   1.167
48493SOL    HW245506   8.823  11.449   1.173
48494SOL     OW45507   8.449  11.206   1.154
48494SOL    HW145508   8.386  11.134   1.123
48494SOL    HW245509   8.542  11.170   1.154
48495SOL     OW45510   8.218  12.502   0.301
48495SOL    HW145511   8.172  12.415   0.318
48495SOL    HW245512   8.309  12.499   0.342
48496SOL     OW45513   8.066  12.739   1.284
48496SOL    HW145514   8.061  12.821   1.341
48496SOL    HW245515   8.155  12.736   1.239
48497SOL     OW45516   8.800  11.224   0.168
48497SOL    HW145517   8.835  11.183   0.084
48497SOL    HW245518   8.710  11.186   0.188
48498SOL     OW45519   8.748  11.625   0.691
48498SOL    HW145520   8.689  11.705   0.695
48498SOL    HW245521   8.763  11.590   0.784
48499SOL     OW45522   9.041  11.393   0.882
48499SOL    HW145523   8.957  11.392   0.936
48499SOL    HW245524   9.043  11.476   0.826
48500SOL     OW45525   7.487  12.249   0.300
48500SOL    HW145526   7.586  12.238   0.291
48500SOL    HW245527   7.447  12.163   0.332
48501SOL     OW45528   7.678  11.800   1.975
48501SOL    HW145529   7.585  11.798   2.012
48501SOL    HW245530   7.679  11.761   1.883
48502SOL     OW45531   7.673  11.447   2.858
48502SOL    HW145532   7.708  11.430   2.950
48502SOL    HW245533   7.585  11.402   2.846
48503SOL     OW45534   7.467  11.540   2.509
48503SOL    HW145535   7.385  11.583   2.548
48503SOL    HW245536   7.439  11.467   2.446
48504SOL     OW45537   8.017  12.447   3.027
48504SOL    HW145538   7.924  12.440   2.990
48504SOL    HW245539   8.028  12.536   3.071
48505SOL     OW45540   9.003  12.683   2.565
48505SOL    HW145541   8.946  12.667   2.646
48505SOL    HW245542   8.944  12.693   2.485
48506SOL     OW45543   8.583  11.875   2.579
48506SOL    HW145544   8.640  11.953   2.554
48506SOL    HW245545   8.523  11.901   2.655
48507SOL     OW45546   9.203  11.779   2.093
48507SOL    HW145547   9.191  11.766   1.994
48507SOL    HW245548   9.173  11.698   2.142
48508SOL     OW45549   8.216  12.316   2.885
48508SOL    HW145550   8.138  12.333   2.945
48508SOL    HW245551   8.250  12.403   2.849
48509SOL     OW45552   8.298  11.970   3.685
48509SOL    HW145553   8.294  12.046   3.750
48509SOL    HW245554   8.320  12.006   3.594
48510SOL     OW45555   8.133  12.184   2.527
48510SOL    HW145556   8.202  12.168   2.597
48510SOL    HW245557   8.060  12.241   2.565
48511SOL     OW45558   8.134  12.333   3.665
48511SOL    HW145559   8.194  12.412   3.679
48511SOL    HW245560   8.048  12.364   3.624
48512SOL     OW45561   7.783  12.607   2.923
48512SOL    HW145562   7.705  12.576   2.870
48512SOL    HW245563   7.841  12.665   2.866
48513SOL     OW45564   8.908  12.677   3.201
48513SOL    HW145565   8.932  12.771   3.227
48513SOL    HW245566   8.892  12.623   3.283
48514SOL     OW45567   7.886  11.564   3.361
48514SOL    HW145568   7.968  11.508   3.370
48514SOL    HW245569   7.805  11.506   3.365
48515SOL     OW45570   9.051  11.619   2.599
48515SOL    HW145571   8.977  11.665   2.549
48515SOL    HW245572   9.102  11.687   2.652
48516SOL     OW45573   7.679  12.885   2.345
48516SOL    HW145574   7.713  12.962   2.399
48516SOL    HW245575   7.723  12.885   2.255
48517SOL     OW45576   8.575  12.513   3.552
48517SOL    HW145577   8.622  12.513   3.640
48517SOL    HW245578   8.527  12.426   3.541
48518SOL     OW45579   7.678  12.606   2.400
48518SOL    HW145580   7.652  12.702   2.400
48518SOL    HW245581   7.607  12.552   2.445
48519SOL     OW45582   7.688  12.263   2.748
48519SOL    HW145583   7.702  12.179   2.800
48519SOL    HW245584   7.633  12.327   2.803
48520SOL     OW45585   8.054  12.136   1.985
48520SOL    HW145586   8.061  12.220   1.931
48520SOL    HW245587   8.100  12.149   2.073
48521SOL     OW45588   9.042  11.286   3.342
48521SOL    HW145589   9.024  11.353   3.270
48521SOL    HW245590   9.039  11.332   3.431
48522SOL     OW45591   7.570  11.815   2.425
48522SOL    HW145592   7.525  11.727   2.442
48522SOL    HW245593   7.569  11.869   2.509
48523SOL     OW45594   7.475  12.768   1.979
48523SOL    HW145595   7.456  12.672   2.000
48523SOL    HW245596   7.442  12.826   2.054
48524SOL     OW45597   9.137  12.094   2.474
48524SOL    HW145598   9.232  12.065   2.482
48524SOL    HW245599   9.129  12.159   2.399
48525SOL     OW45600   9.089  12.280   2.294
48525SOL    HW145601   9.175  12.282   2.242
48525SOL    HW245602   9.103  12.327   2.382
48526SOL     OW45603   7.561  11.909   3.459
48526SOL    HW145604   7.649  11.896   3.504
48526SOL    HW245605   7.548  12.006   3.437
48527SOL     OW45606   8.061  12.537   2.588
48527SOL    HW145607   8.012  12.450   2.597
48527SOL    HW245608   8.038  12.580   2.501
48528SOL     OW45609   8.741  12.400   3.285
48528SOL    HW145610   8.778  12.327   3.227
48528SOL    HW245611   8.793  12.405   3.370
48529SOL     OW45612   8.257  11.176   2.364
48529SOL    HW145613   8.297  11.267   2.355
48529SOL    HW245614   8.157  11.184   2.370
48530SOL     OW45615   7.645  12.148   3.126
48530SOL    HW145616   7.734  12.103   3.112
48530SOL    HW245617   7.572  12.083   3.107
48531SOL     OW45618   8.973  12.171   2.052
48531SOL    HW145619   8.910  12.095   2.065
48531SOL    HW245620   9.021  12.189   2.138
48532SOL     OW45621   7.765  11.423   3.663
48532SOL    HW145622   7.836  11.494   3.669
48532SOL    HW245623   7.677  11.462   3.691
48533SOL     OW45624   8.914  12.589   2.815
48533SOL    HW145625   8.855  12.595   2.895
48533SOL    HW245626   8.899  12.501   2.769
48534SOL     OW45627   8.046  11.901   2.132
48534SOL    HW145628   8.070  11.970   2.064
48534SOL    HW245629   7.968  11.934   2.186
48535SOL     OW45630   8.729  11.517   2.806
48535SOL    HW145631   8.643  11.467   2.793
48535SOL    HW245632   8.791  11.463   2.862
48536SOL     OW45633   8.255  11.777   3.327
48536SOL    HW145634   8.208  11.774   3.416
48536SOL    HW245635   8.204  11.722   3.261
48537SOL     OW45636   8.842  11.641   3.536
48537SOL    HW145637   8.822  11.684   3.624
48537SOL    HW245638   8.920  11.579   3.545
48538SOL     OW45639   8.421  12.062   3.434
48538SOL    HW145640   8.467  11.978   3.405
48538SOL    HW245641   8.365  12.096   3.359
48539SOL     OW45642   8.439  11.582   3.104
48539SOL    HW145643   8.362  11.616   3.158
48539SOL    HW245644   8.405  11.531   3.025
48540SOL     OW45645   8.489  11.873   2.291
48540SOL    HW145646   8.515  11.869   2.387
48540SOL    HW245647   8.404  11.822   2.277
48541SOL     OW45648   7.524  11.983   2.651
48541SOL    HW145649   7.623  11.971   2.660
48541SOL    HW245650   7.500  12.078   2.672
48542SOL     OW45651   8.313  11.520   2.057
48542SOL    HW145652   8.372  11.583   2.008
48542SOL    HW245653   8.332  11.426   2.028
48543SOL     OW45654   9.167  11.757   3.693
48543SOL    HW145655   9.141  11.846   3.657
48543SOL    HW245656   9.165  11.689   3.620
48544SOL     OW45657   8.810  12.316   2.407
48544SOL    HW145658   8.893  12.287   2.359
48544SOL    HW245659   8.761  12.383   2.351
48545SOL     OW45660   7.998  11.368   2.747
48545SOL    HW145661   7.993  11.363   2.847
48545SOL    HW245662   8.000  11.464   2.718
48546SOL     OW45663   8.456  12.628   2.339
48546SOL    HW145664   8.410  12.700   2.287
48546SOL    HW245665   8.452  12.648   2.437
48547SOL     OW45666   9.243  12.238   2.735
48547SOL    HW145667   9.181  12.223   2.659
48547SOL    HW245668   9.191  12.249   2.820
48548SOL     OW45669   8.675  12.722   3.368
48548SOL    HW145670   8.681  12.645   3.432
48548SOL    HW245671   8.623  12.696   3.288
48549SOL     OW45672   7.769  12.115   2.104
48549SOL    HW145673   7.851  12.154   2.062
48549SOL    HW245674   7.742  12.033   2.055
48550SOL     OW45675   8.906  11.907   2.590
48550SOL    HW145676   8.901  11.842   2.665
48550SOL    HW245677   8.986  11.966   2.603
48551SOL     OW45678   7.909  12.438   3.589
48551SOL    HW145679   7.859  12.439   3.503
48551SOL    HW245680   7.846  12.420   3.665
48552SOL     OW45681   8.559  12.948   2.099
48552SOL    HW145682   8.499  12.886   2.149
48552SOL    HW245683   8.590  12.904   2.014
48553SOL     OW45684   7.650  11.457   3.360
48553SOL    HW145685   7.570  11.517   3.347
48553SOL    HW245686   7.640  11.408   3.446
48554SOL     OW45687   9.080  12.549   1.943
48554SOL    HW145688   9.048  12.643   1.933
48554SOL    HW245689   9.004  12.486   1.931
48555SOL     OW45690   8.848  11.279   2.288
48555SOL    HW145691   8.824  11.242   2.198
48555SOL    HW245692   8.947  11.295   2.292
48556SOL     OW45693   7.830  11.872   2.342
48556SOL    HW145694   7.875  11.782   2.339
48556SOL    HW245695   7.736  11.861   2.375
48557SOL     OW45696   8.995  11.394   3.591
48557SOL    HW145697   8.990  11.431   3.683
48557SOL    HW245698   8.923  11.325   3.579
48558SOL     OW45699   8.062  11.294   1.979
48558SOL    HW145700   8.160  11.272   1.986
48558SOL    HW245701   8.031  11.277   1.886
48559SOL     OW45702   8.229  11.436   3.611
48559SOL    HW145703   8.296  11.375   3.654
48559SOL    HW245704   8.156  11.455   3.676
48560SOL     OW45705   8.799  11.762   3.295
48560SOL    HW145706   8.827  11.719   3.380
48560SOL    HW245707   8.824  11.858   3.296
48561SOL     OW45708   8.251  12.574   2.786
48561SOL    HW145709   8.341  12.588   2.744
48561SOL    HW245710   8.180  12.576   2.715
48562SOL     OW45711   8.370  11.675   2.761
48562SOL    HW145712   8.345  11.666   2.665
48562SOL    HW245713   8.418  11.593   2.792
48563SOL     OW45714   7.987  11.236   2.374
48563SOL    HW145715   7.906  11.237   2.432
48563SOL    HW245716   7.990  11.319   2.319
48564SOL     OW45717   8.882  12.360   1.903
48564SOL    HW145718   8.914  12.284   1.960
48564SOL    HW245719   8.790  12.387   1.933
48565SOL     OW45720   7.745  11.207   2.033
48565SOL    HW145721   7.794  11.291   2.012
48565SOL    HW245722   7.807  11.142   2.078
48566SOL     OW45723   8.383  11.408   2.342
48566SOL    HW145724   8.335  11.449   2.264
48566SOL    HW245725   8.482  11.406   2.323
48567SOL     OW45726   8.524  11.855   3.326
48567SOL    HW145727   8.444  11.794   3.329
48567SOL    HW245728   8.605  11.802   3.302
48568SOL     OW45729   8.675  12.742   2.655
48568SOL    HW145730   8.696  12.816   2.590
48568SOL    HW245731   8.743  12.742   2.728
48569SOL     OW45732   7.907  12.324   2.603
48569SOL    HW145733   7.836  12.297   2.668
48569SOL    HW245734   7.881  12.296   2.510
48570SOL     OW45735   8.480  11.721   1.878
48570SOL    HW145736   8.439  11.803   1.839
48570SOL    HW245737   8.544  11.747   1.951
48571SOL     OW45738   7.526  11.728   3.248
48571SOL    HW145739   7.618  11.727   3.207
48571SOL    HW245740   7.520  11.802   3.315
48572SOL     OW45741   8.009  11.394   3.009
48572SOL    HW145742   8.047  11.310   3.046
48572SOL    HW245743   7.921  11.413   3.053
48573SOL     OW45744   8.314  11.626   2.504
48573SOL    HW145745   8.282  11.698   2.442
48573SOL    HW245746   8.338  11.545   2.451
48574SOL     OW45747   8.465  11.211   2.615
48574SOL    HW145748   8.393  11.216   2.546
48574SOL    HW245749   8.441  11.142   2.684
48575SOL     OW45750   8.877  12.345   2.729
48575SOL    HW145751   8.822  12.261   2.722
48575SOL    HW245752   8.903  12.374   2.637
48576SOL     OW45753   8.914  11.762   2.854
48576SOL    HW145754   8.884  11.667   2.861
48576SOL    HW245755   8.987  11.778   2.920
48577SOL     OW45756   9.305  12.005   2.239
48577SOL    HW145757   9.347  11.941   2.303
48577SOL    HW245758   9.267  11.954   2.161
48578SOL     OW45759   7.936  12.557   2.036
48578SOL    HW145760   7.849  12.542   2.083
48578SOL    HW245761   7.919  12.583   1.941
48579SOL     OW45762   9.112  12.452   2.519
48579SOL    HW145763   9.211  12.460   2.533
48579SOL    HW245764   9.067  12.536   2.550
48580SOL     OW45765   8.838  11.747   1.940
48580SOL    HW145766   8.784  11.726   2.021
48580SOL    HW245767   8.929  11.706   1.949
48581SOL     OW45768   7.975  11.428   2.190
48581SOL    HW145769   8.002  11.369   2.115
48581SOL    HW245770   7.975  11.523   2.159
48582SOL     OW45771   9.202  12.395   3.450
48582SOL    HW145772   9.293  12.356   3.437
48582SOL    HW245773   9.210  12.491   3.474
48583SOL     OW45774   8.512  12.519   3.202
48583SOL    HW145775   8.432  12.496   3.257
48583SOL    HW245776   8.595  12.493   3.251
48584SOL     OW45777   8.559  12.367   2.962
48584SOL    HW145778   8.519  12.411   3.043
48584SOL    HW245779   8.518  12.404   2.879
48585SOL     OW45780   9.086  12.271   2.941
48585SOL    HW145781   9.091  12.352   3.000
48585SOL    HW245782   9.000  12.273   2.890
48586SOL     OW45783   8.363  11.261   3.264
48586SOL    HW145784   8.388  11.241   3.169
48586SOL    HW245785   8.435  11.317   3.306
48587SOL     OW45786   8.428  12.288   3.581
48587SOL    HW145787   8.329  12.294   3.591
48587SOL    HW245788   8.451  12.208   3.525
48588SOL     OW45789   8.153  12.222   2.230
48588SOL    HW145790   8.139  12.229   2.329
48588SOL    HW245791   8.237  12.171   2.212
48589SOL     OW45792   7.858  11.985   3.113
48589SOL    HW145793   7.944  11.997   3.163
48589SOL    HW245794   7.816  11.898   3.140
48590SOL     OW45795   8.722  11.558   3.124
48590SOL    HW145796   8.743  11.632   3.188
48590SOL    HW245797   8.633  11.575   3.081
48591SOL     OW45798   7.815  12.272   2.363
48591SOL    HW145799   7.808  12.355   2.307
48591SOL    HW245800   7.819  12.192   2.303
48592SOL     OW45801   8.014  11.709   2.727
48592SOL    HW145802   8.026  11.775   2.653
48592SOL    HW245803   8.060  11.743   2.810
48593SOL     OW45804   8.700  12.520   2.250
48593SOL    HW145805   8.750  12.597   2.290
48593SOL    HW245806   8.605  12.522   2.282
48594SOL     OW45807   8.720  12.617   3.004
48594SOL    HW145808   8.767  12.630   3.091
48594SOL    HW245809   8.654  12.543   3.013
48595SOL     OW45810   9.030  11.811   2.334
48595SOL    HW145811   8.999  11.872   2.407
48595SOL    HW245812   9.080  11.863   2.265
48596SOL     OW45813   7.802  12.682   3.191
48596SOL    HW145814   7.781  12.638   3.104
48596SOL    HW245815   7.899  12.708   3.194
48597SOL     OW45816   7.850  11.923   3.460
48597SOL    HW145817   7.918  11.978   3.413
48597SOL    HW245818   7.890  11.835   3.487
48598SOL     OW45819   9.035  11.951   3.532
48598SOL    HW145820   8.943  11.989   3.527
48598SOL    HW245821   9.095  11.998   3.467
48599SOL     OW45822   8.461  11.277   3.632
48599SOL    HW145823   8.467  11.362   3.580
48599SOL    HW245824   8.493  11.201   3.575
48600SOL     OW45825   7.952  11.222   3.602
48600SOL    HW145826   7.910  11.165   3.532
48600SOL    HW245827   7.886  11.291   3.634
48601SOL     OW45828   8.021  12.042   2.891
48601SOL    HW145829   8.065  12.131   2.882
48601SOL    HW245830   7.958  12.042   2.968
48602SOL     OW45831   8.808  12.034   2.907
48602SOL    HW145832   8.733  12.034   2.841
48602SOL    HW245833   8.845  11.942   2.916
48603SOL     OW45834   8.657  11.697   2.137
48603SOL    HW145835   8.670  11.613   2.191
48603SOL    HW245836   8.628  11.771   2.197
48604SOL     OW45837   7.755  11.385   3.093
48604SOL    HW145838   7.732  11.422   3.183
48604SOL    HW245839   7.725  11.290   3.087
48605SOL     OW45840   7.485  12.482   3.144
48605SOL    HW145841   7.538  12.433   3.212
48605SOL    HW245842   7.507  12.580   3.149
48606SOL     OW45843   8.180  11.806   2.926
48606SOL    HW145844   8.239  11.780   2.850
48606SOL    HW245845   8.152  11.902   2.915
48607SOL     OW45846   9.176  12.107   3.716
48607SOL    HW145847   9.130  12.100   3.627
48607SOL    HW245848   9.114  12.151   3.782
48608SOL     OW45849   7.755  11.235   2.480
48608SOL    HW145850   7.744  11.329   2.513
48608SOL    HW245851   7.750  11.172   2.557
48609SOL     OW45852   9.070  11.539   2.236
48609SOL    HW145853   9.072  11.463   2.300
48609SOL    HW245854   9.022  11.616   2.276
48610SOL     OW45855   8.471  11.938   2.828
48610SOL    HW145856   8.486  11.959   2.924
48610SOL    HW245857   8.441  11.843   2.819
48611SOL     OW45858   9.307  12.690   3.467
48611SOL    HW145859   9.321  12.717   3.372
48611SOL    HW245860   9.390  12.712   3.520
48612SOL     OW45861   7.798  12.070   3.666
48612SOL    HW145862   7.874  12.114   3.714
48612SOL    HW245863   7.833  12.023   3.584
48613SOL     OW45864   8.988  11.446   1.987
48613SOL    HW145865   8.927  11.371   2.010
48613SOL    HW245866   9.010  11.498   2.070
48614SOL     OW45867   8.751  12.010   1.904
48614SOL    HW145868   8.785  11.917   1.919
48614SOL    HW245869   8.769  12.037   1.809
48615SOL     OW45870   8.516  12.505   2.711
48615SOL    HW145871   8.523  12.421   2.656
48615SOL    HW245872   8.578  12.574   2.675
48616SOL     OW45873   7.767  11.982   2.811
48616SOL    HW145874   7.860  12.018   2.816
48616SOL    HW245875   7.761  11.897   2.863
48617SOL     OW45876   7.787  11.681   2.868
48617SOL    HW145877   7.735  11.598   2.851
48617SOL    HW245878   7.864  11.686   2.804
48618SOL     OW45879   8.586  11.552   3.540
48618SOL    HW145880   8.541  11.615   3.604
48618SOL    HW245881   8.679  11.583   3.523
48619SOL     OW45882   8.608  11.379   3.339
48619SOL    HW145883   8.608  11.443   3.416
48619SOL    HW245884   8.636  11.427   3.256
48620SOL     OW45885   7.456  12.498   2.062
48620SOL    HW145886   7.363  12.519   2.031
48620SOL    HW245887   7.466  12.399   2.075
48621SOL     OW45888   8.450  11.968   3.100
48621SOL    HW145889   8.491  11.936   3.186
48621SOL    HW245890   8.354  11.941   3.097
48622SOL     OW45891   7.488  11.716   2.976
48622SOL    HW145892   7.573  11.683   2.935
48622SOL    HW245893   7.501  11.731   3.074
48623SOL     OW45894   7.637  11.692   3.584
48623SOL    HW145895   7.696  11.652   3.514
48623SOL    HW245896   7.579  11.763   3.543
48624SOL     OW45897   8.817  12.122   3.522
48624SOL    HW145898   8.856  12.211   3.542
48624SOL    HW245899   8.827  12.102   3.425
48625SOL     OW45900   8.263  11.744   2.187
48625SOL    HW145901   8.270  11.655   2.141
48625SOL    HW245902   8.169  11.778   2.179
48626SOL     OW45903   9.105  11.776   3.068
48626SOL    HW145904   9.067  11.707   3.130
48626SOL    HW245905   9.187  11.740   3.024
48627SOL     OW45906   7.700  12.736   3.606
48627SOL    HW145907   7.670  12.793   3.682
48627SOL    HW245908   7.693  12.639   3.632
48628SOL     OW45909   8.119  11.636   3.131
48628SOL    HW145910   8.085  11.547   3.101
48628SOL    HW245911   8.145  11.690   3.051
48629SOL     OW45912   7.921  11.672   2.053
48629SOL    HW145913   7.982  11.752   2.057
48629SOL    HW245914   7.826  11.703   2.060
48630SOL     OW45915   7.607  12.309   3.328
48630SOL    HW145916   7.629  12.248   3.404
48630SOL    HW245917   7.617  12.260   3.242
48631SOL     OW45918   8.795  12.231   3.096
48631SOL    HW145919   8.819  12.168   3.022
48631SOL    HW245920   8.705  12.271   3.078
48632SOL     OW45921   8.750  12.027   2.171
48632SOL    HW145922   8.664  11.996   2.213
48632SOL    HW245923   8.746  12.013   2.072
48633SOL     OW45924   7.531  12.430   2.884
48633SOL    HW145925   7.526  12.429   2.984
48633SOL    HW245926   7.448  12.389   2.846
48634SOL     OW45927   9.174  11.307   2.385
48634SOL    HW145928   9.247  11.290   2.318
48634SOL    HW245929   9.143  11.220   2.423
48635SOL     OW45930   8.728  12.099   2.534
48635SOL    HW145931   8.788  12.018   2.536
48635SOL    HW245932   8.768  12.168   2.474
48636SOL     OW45933   8.278  12.445   3.284
48636SOL    HW145934   8.273  12.478   3.379
48636SOL    HW245935   8.192  12.464   3.238
48637SOL     OW45936   9.289  11.347   2.825
48637SOL    HW145937   9.328  11.262   2.789
48637SOL    HW245938   9.191  11.349   2.806
48638SOL     OW45939   7.711  11.498   2.582
48638SOL    HW145940   7.632  11.549   2.548
48638SOL    HW245941   7.702  11.483   2.680
48639SOL     OW45942   8.270  12.174   3.234
48639SOL    HW145943   8.310  12.173   3.142
48639SOL    HW245944   8.280  12.266   3.274
48640SOL     OW45945   8.364  12.082   2.153
48640SOL    HW145946   8.427  12.120   2.085
48640SOL    HW245947   8.404  11.999   2.192
48641SOL     OW45948   7.820  12.460   3.352
48641SOL    HW145949   7.807  12.553   3.318
48641SOL    HW245950   7.736  12.408   3.339
48642SOL     OW45951   9.062  12.464   3.151
48642SOL    HW145952   9.122  12.467   3.231
48642SOL    HW245953   8.987  12.528   3.164
48643SOL     OW45954   8.487  12.270   2.558
48643SOL    HW145955   8.417  12.223   2.612
48643SOL    HW245956   8.546  12.202   2.515
48644SOL     OW45957   8.462  11.408   2.833
48644SOL    HW145958   8.454  11.372   2.740
48644SOL    HW245959   8.460  11.332   2.898
48645SOL     OW45960   9.157  11.557   3.243
48645SOL    HW145961   9.230  11.626   3.247
48645SOL    HW245962   9.185  11.482   3.184
48646SOL     OW45963   7.703  12.520   2.152
48646SOL    HW145964   7.607  12.521   2.125
48646SOL    HW245965   7.715  12.573   2.236
48647SOL     OW45966   7.553  12.185   3.588
48647SOL    HW145967   7.476  12.152   3.642
48647SOL    HW245968   7.638  12.155   3.630
48648SOL     OW45969   8.120  11.375   3.351
48648SOL    HW145970   8.210  11.359   3.311
48648SOL    HW245971   8.128  11.380   3.450
48649SOL     OW45972   7.523  11.517   1.895
48649SOL    HW145973   7.431  11.489   1.866
48649SOL    HW245974   7.554  11.594   1.839
48650SOL     OW45975   8.888  12.028   3.260
48650SOL    HW145976   8.831  12.080   3.197
48650SOL    HW245977   8.984  12.040   3.236
48651SOL     OW45978   7.520  11.338   2.180
48651SOL    HW145979   7.503  11.421   2.126
48651SOL    HW245980   7.610  11.301   2.158
48652SOL     OW45981   8.631  12.507   1.981
48652SOL    HW145982   8.532  12.496   1.983
48652SOL    HW245983   8.665  12.522   2.074
48653SOL     OW45984   8.061  12.014   3.293
48653SOL    HW145985   8.117  12.095   3.276
48653SOL    HW245986   8.120  11.934   3.296
48654SOL     OW45987   8.164  11.737   3.570
48654SOL    HW145988   8.183  11.802   3.644
48654SOL    HW245989   8.224  11.657   3.579
48655SOL     OW45990   8.898  12.392   3.495
48655SOL    HW145991   8.889  12.382   3.594
48655SOL    HW245992   8.994  12.385   3.469
48656SOL     OW45993   9.122  12.055   3.116
48656SOL    HW145994   9.095  11.966   3.079
48656SOL    HW245995   9.123  12.123   3.043
48657SOL     OW45996   8.673  11.497   2.311
48657SOL    HW145997   8.738  11.423   2.300
48657SOL    HW245998   8.693  11.547   2.395
48658SOL     OW45999   8.042  11.917   2.514
48658SOL    HW146000   8.092  12.002   2.495
48658SOL    HW246001   7.954  11.919   2.466
48659SOL     OW46002   9.225  11.514   3.504
48659SOL    HW146003   9.208  11.545   3.410
48659SOL    HW246004   9.141  11.477   3.542
48660SOL     OW46005   9.178  12.106   3.379
48660SOL    HW146006   9.216  12.197   3.394
48660SOL    HW246007   9.170  12.089   3.280
48661SOL     OW46008   8.307  12.546   1.878
48661SOL    HW146009   8.261  12.561   1.966
48661SOL    HW246010   8.351  12.631   1.848
48662SOL     OW46011   8.307  12.128   2.723
48662SOL    HW146012   8.361  12.059   2.771
48662SOL    HW246013   8.275  12.197   2.789
48663SOL     OW46014   8.531  12.156   1.949
48663SOL    HW146015   8.508  12.209   1.867
48663SOL    HW246016   8.612  12.100   1.930
48664SOL     OW46017   7.669  12.486   3.706
48664SOL    HW146018   7.604  12.413   3.685
48664SOL    HW246019   7.673  12.500   3.804
48665SOL     OW46020   7.527  12.412   2.515
48665SOL    HW146021   7.526  12.365   2.603
48665SOL    HW246022   7.609  12.384   2.464
48666SOL     OW46023   8.120  12.563   3.486
48666SOL    HW146024   8.042  12.513   3.524
48666SOL    HW246025   8.117  12.658   3.517
48667SOL     OW46026   9.272  11.364   3.089
48667SOL    HW146027   9.268  11.274   3.133
48667SOL    HW246028   9.275  11.353   2.990
48668SOL     OW46029   7.876  11.596   2.382
48668SOL    HW146030   7.906  11.524   2.320
48668SOL    HW246031   7.837  11.556   2.465
48669SOL     OW46032   9.153  12.659   2.966
48669SOL    HW146033   9.060  12.634   2.939
48669SOL    HW246034   9.179  12.609   3.048
48670SOL     OW46035   7.765  11.719   3.142
48670SOL    HW146036   7.803  11.660   3.214
48670SOL    HW246037   7.805  11.693   3.054
48671SOL     OW46038   8.872  11.386   2.974
48671SOL    HW146039   8.924  11.321   3.029
48671SOL    HW246040   8.823  11.449   3.035
48672SOL     OW46041   8.449  11.206   3.016
48672SOL    HW146042   8.386  11.134   2.985
48672SOL    HW246043   8.542  11.170   3.016
48673SOL     OW46044   8.218  12.502   2.163
48673SOL    HW146045   8.172  12.415   2.180
48673SOL    HW246046   8.309  12.499   2.204
48674SOL     OW46047   8.066  12.739   3.146
48674SOL    HW146048   8.061  12.821   3.203
48674SOL    HW246049   8.155  12.736   3.101
48675SOL     OW46050   8.800  11.224   2.030
48675SOL    HW146051   8.835  11.183   1.946
48675SOL    HW246052   8.710  11.186   2.050
48676SOL     OW46053   8.748  11.625   2.553
48676SOL    HW146054   8.689  11.705   2.557
48676SOL    HW246055   8.763  11.590   2.646
48677SOL     OW46056   9.041  11.393   2.744
48677SOL    HW146057   8.957  11.392   2.798
48677SOL    HW246058   9.043  11.476   2.688
48678SOL     OW46059   7.487  12.249   2.162
48678SOL    HW146060   7.586  12.238   2.153
48678SOL    HW246061   7.447  12.163   2.194
48679SOL     OW46062   7.678  11.800   3.837
48679SOL    HW146063   7.585  11.798   3.874
48679SOL    HW246064   7.679  11.761   3.745
48680SOL     OW46065   7.673  11.447   4.720
48680SOL    HW146066   7.708  11.430   4.812
48680SOL    HW246067   7.585  11.402   4.708
48681SOL     OW46068   7.467  11.540   4.371
48681SOL    HW146069   7.385  11.583   4.410
48681SOL    HW246070   7.439  11.467   4.308
48682SOL     OW46071   8.017  12.447   4.889
48682SOL    HW146072   7.924  12.440   4.852
48682SOL    HW246073   8.028  12.536   4.933
48683SOL     OW46074   9.003  12.683   4.427
48683SOL    HW146075   8.946  12.667   4.508
48683SOL    HW246076   8.944  12.693   4.347
48684SOL     OW46077   8.583  11.875   4.441
48684SOL    HW146078   8.640  11.953   4.416
48684SOL    HW246079   8.523  11.901   4.517
48685SOL     OW46080   9.203  11.779   3.955
48685SOL    HW146081   9.191  11.766   3.856
48685SOL    HW246082   9.173  11.698   4.004
48686SOL     OW46083   8.216  12.316   4.747
48686SOL    HW146084   8.138  12.333   4.807
48686SOL    HW246085   8.250  12.403   4.711
48687SOL     OW46086   8.298  11.970   5.547
48687SOL    HW146087   8.294  12.046   5.612
48687SOL    HW246088   8.320  12.006   5.456
48688SOL     OW46089   8.133  12.184   4.389
48688SOL    HW146090   8.202  12.168   4.459
48688SOL    HW246091   8.060  12.241   4.427
48689SOL     OW46092   8.134  12.333   5.527
48689SOL    HW146093   8.194  12.412   5.541
48689SOL    HW246094   8.048  12.364   5.486
48690SOL     OW46095   7.783  12.607   4.785
48690SOL    HW146096   7.705  12.576   4.732
48690SOL    HW246097   7.841  12.665   4.728
48691SOL     OW46098   8.908  12.677   5.063
48691SOL    HW146099   8.932  12.771   5.089
48691SOL    HW246100   8.892  12.623   5.145
48692SOL     OW46101   7.886  11.564   5.223
48692SOL    HW146102   7.968  11.508   5.232
48692SOL    HW246103   7.805  11.506   5.227
48693SOL     OW46104   9.051  11.619   4.461
48693SOL    HW146105   8.977  11.665   4.411
48693SOL    HW246106   9.102  11.687   4.514
48694SOL     OW46107   7.679  12.885   4.207
48694SOL    HW146108   7.713  12.962   4.261
48694SOL    HW246109   7.723  12.885   4.117
48695SOL     OW46110   8.575  12.513   5.414
48695SOL    HW146111   8.622  12.513   5.502
48695SOL    HW246112   8.527  12.426   5.403
48696SOL     OW46113   7.678  12.606   4.262
48696SOL    HW146114   7.652  12.702   4.262
48696SOL    HW246115   7.607  12.552   4.307
48697SOL     OW46116   7.688  12.263   4.610
48697SOL    HW146117   7.702  12.179   4.662
48697SOL    HW246118   7.633  12.327   4.665
48698SOL     OW46119   8.054  12.136   3.847
48698SOL    HW146120   8.061  12.220   3.793
48698SOL    HW246121   8.100  12.149   3.935
48699SOL     OW46122   9.042  11.286   5.204
48699SOL    HW146123   9.024  11.353   5.132
48699SOL    HW246124   9.039  11.332   5.293
48700SOL     OW46125   7.570  11.815   4.287
48700SOL    HW146126   7.525  11.727   4.304
48700SOL    HW246127   7.569  11.869   4.371
48701SOL     OW46128   7.475  12.768   3.841
48701SOL    HW146129   7.456  12.672   3.862
48701SOL    HW246130   7.442  12.826   3.916
48702SOL     OW46131   9.137  12.094   4.336
48702SOL    HW146132   9.232  12.065   4.344
48702SOL    HW246133   9.129  12.159   4.261
48703SOL     OW46134   9.089  12.280   4.156
48703SOL    HW146135   9.175  12.282   4.104
48703SOL    HW246136   9.103  12.327   4.244
48704SOL     OW46137   7.561  11.909   5.321
48704SOL    HW146138   7.649  11.896   5.366
48704SOL    HW246139   7.548  12.006   5.299
48705SOL     OW46140   8.061  12.537   4.450
48705SOL    HW146141   8.012  12.450   4.459
48705SOL    HW246142   8.038  12.580   4.363
48706SOL     OW46143   8.741  12.400   5.147
48706SOL    HW146144   8.778  12.327   5.089
48706SOL    HW246145   8.793  12.405   5.232
48707SOL     OW46146   8.257  11.176   4.226
48707SOL    HW146147   8.297  11.267   4.217
48707SOL    HW246148   8.157  11.184   4.232
48708SOL     OW46149   7.645  12.148   4.988
48708SOL    HW146150   7.734  12.103   4.974
48708SOL    HW246151   7.572  12.083   4.969
48709SOL     OW46152   8.973  12.171   3.914
48709SOL    HW146153   8.910  12.095   3.927
48709SOL    HW246154   9.021  12.189   4.000
48710SOL     OW46155   7.765  11.423   5.525
48710SOL    HW146156   7.836  11.494   5.531
48710SOL    HW246157   7.677  11.462   5.553
48711SOL     OW46158   8.914  12.589   4.677
48711SOL    HW146159   8.855  12.595   4.757
48711SOL    HW246160   8.899  12.501   4.631
48712SOL     OW46161   8.046  11.901   3.994
48712SOL    HW146162   8.070  11.970   3.926
48712SOL    HW246163   7.968  11.934   4.048
48713SOL     OW46164   8.729  11.517   4.668
48713SOL    HW146165   8.643  11.467   4.655
48713SOL    HW246166   8.791  11.463   4.724
48714SOL     OW46167   8.255  11.777   5.189
48714SOL    HW146168   8.208  11.774   5.278
48714SOL    HW246169   8.204  11.722   5.123
48715SOL     OW46170   8.842  11.641   5.398
48715SOL    HW146171   8.822  11.684   5.486
48715SOL    HW246172   8.920  11.579   5.407
48716SOL     OW46173   8.421  12.062   5.296
48716SOL    HW146174   8.467  11.978   5.267
48716SOL    HW246175   8.365  12.096   5.221
48717SOL     OW46176   8.439  11.582   4.966
48717SOL    HW146177   8.362  11.616   5.020
48717SOL    HW246178   8.405  11.531   4.887
48718SOL     OW46179   8.489  11.873   4.153
48718SOL    HW146180   8.515  11.869   4.249
48718SOL    HW246181   8.404  11.822   4.139
48719SOL     OW46182   7.524  11.983   4.513
48719SOL    HW146183   7.623  11.971   4.522
48719SOL    HW246184   7.500  12.078   4.534
48720SOL     OW46185   8.313  11.520   3.919
48720SOL    HW146186   8.372  11.583   3.870
48720SOL    HW246187   8.332  11.426   3.890
48721SOL     OW46188   9.167  11.757   5.555
48721SOL    HW146189   9.141  11.846   5.519
48721SOL    HW246190   9.165  11.689   5.482
48722SOL     OW46191   8.810  12.316   4.269
48722SOL    HW146192   8.893  12.287   4.221
48722SOL    HW246193   8.761  12.383   4.213
48723SOL     OW46194   7.998  11.368   4.609
48723SOL    HW146195   7.993  11.363   4.709
48723SOL    HW246196   8.000  11.464   4.580
48724SOL     OW46197   8.456  12.628   4.201
48724SOL    HW146198   8.410  12.700   4.149
48724SOL    HW246199   8.452  12.648   4.299
48725SOL     OW46200   9.243  12.238   4.597
48725SOL    HW146201   9.181  12.223   4.521
48725SOL    HW246202   9.191  12.249   4.682
48726SOL     OW46203   8.675  12.722   5.230
48726SOL    HW146204   8.681  12.645   5.294
48726SOL    HW246205   8.623  12.696   5.150
48727SOL     OW46206   7.769  12.115   3.966
48727SOL    HW146207   7.851  12.154   3.924
48727SOL    HW246208   7.742  12.033   3.917
48728SOL     OW46209   8.906  11.907   4.452
48728SOL    HW146210   8.901  11.842   4.527
48728SOL    HW246211   8.986  11.966   4.465
48729SOL     OW46212   7.909  12.438   5.451
48729SOL    HW146213   7.859  12.439   5.365
48729SOL    HW246214   7.846  12.420   5.527
48730SOL     OW46215   8.559  12.948   3.961
48730SOL    HW146216   8.499  12.886   4.011
48730SOL    HW246217   8.590  12.904   3.876
48731SOL     OW46218   7.650  11.457   5.222
48731SOL    HW146219   7.570  11.517   5.209
48731SOL    HW246220   7.640  11.408   5.308
48732SOL     OW46221   9.080  12.549   3.805
48732SOL    HW146222   9.048  12.643   3.795
48732SOL    HW246223   9.004  12.486   3.793
48733SOL     OW46224   8.848  11.279   4.150
48733SOL    HW146225   8.824  11.242   4.060
48733SOL    HW246226   8.947  11.295   4.154
48734SOL     OW46227   7.830  11.872   4.204
48734SOL    HW146228   7.875  11.782   4.201
48734SOL    HW246229   7.736  11.861   4.237
48735SOL     OW46230   8.995  11.394   5.453
48735SOL    HW146231   8.990  11.431   5.545
48735SOL    HW246232   8.923  11.325   5.441
48736SOL     OW46233   8.062  11.294   3.841
48736SOL    HW146234   8.160  11.272   3.848
48736SOL    HW246235   8.031  11.277   3.748
48737SOL     OW46236   8.229  11.436   5.473
48737SOL    HW146237   8.296  11.375   5.516
48737SOL    HW246238   8.156  11.455   5.538
48738SOL     OW46239   8.799  11.762   5.157
48738SOL    HW146240   8.827  11.719   5.242
48738SOL    HW246241   8.824  11.858   5.158
48739SOL     OW46242   8.251  12.574   4.648
48739SOL    HW146243   8.341  12.588   4.606
48739SOL    HW246244   8.180  12.576   4.577
48740SOL     OW46245   8.370  11.675   4.623
48740SOL    HW146246   8.345  11.666   4.527
48740SOL    HW246247   8.418  11.593   4.654
48741SOL     OW46248   7.987  11.236   4.236
48741SOL    HW146249   7.906  11.237   4.294
48741SOL    HW246250   7.990  11.319   4.181
48742SOL     OW46251   8.882  12.360   3.765
48742SOL    HW146252   8.914  12.284   3.822
48742SOL    HW246253   8.790  12.387   3.795
48743SOL     OW46254   7.745  11.207   3.895
48743SOL    HW146255   7.794  11.291   3.874
48743SOL    HW246256   7.807  11.142   3.940
48744SOL     OW46257   8.383  11.408   4.204
48744SOL    HW146258   8.335  11.449   4.126
48744SOL    HW246259   8.482  11.406   4.185
48745SOL     OW46260   8.524  11.855   5.188
48745SOL    HW146261   8.444  11.794   5.191
48745SOL    HW246262   8.605  11.802   5.164
48746SOL     OW46263   8.675  12.742   4.517
48746SOL    HW146264   8.696  12.816   4.452
48746SOL    HW246265   8.743  12.742   4.590
48747SOL     OW46266   7.907  12.324   4.465
48747SOL    HW146267   7.836  12.297   4.530
48747SOL    HW246268   7.881  12.296   4.372
48748SOL     OW46269   8.480  11.721   3.740
48748SOL    HW146270   8.439  11.803   3.701
48748SOL    HW246271   8.544  11.747   3.813
48749SOL     OW46272   7.526  11.728   5.110
48749SOL    HW146273   7.618  11.727   5.069
48749SOL    HW246274   7.520  11.802   5.177
48750SOL     OW46275   8.009  11.394   4.871
48750SOL    HW146276   8.047  11.310   4.908
48750SOL    HW246277   7.921  11.413   4.915
48751SOL     OW46278   8.314  11.626   4.366
48751SOL    HW146279   8.282  11.698   4.304
48751SOL    HW246280   8.338  11.545   4.313
48752SOL     OW46281   8.465  11.211   4.477
48752SOL    HW146282   8.393  11.216   4.408
48752SOL    HW246283   8.441  11.142   4.546
48753SOL     OW46284   8.877  12.345   4.591
48753SOL    HW146285   8.822  12.261   4.584
48753SOL    HW246286   8.903  12.374   4.499
48754SOL     OW46287   8.914  11.762   4.716
48754SOL    HW146288   8.884  11.667   4.723
48754SOL    HW246289   8.987  11.778   4.782
48755SOL     OW46290   9.305  12.005   4.101
48755SOL    HW146291   9.347  11.941   4.165
48755SOL    HW246292   9.267  11.954   4.023
48756SOL     OW46293   7.936  12.557   3.898
48756SOL    HW146294   7.849  12.542   3.945
48756SOL    HW246295   7.919  12.583   3.803
48757SOL     OW46296   9.112  12.452   4.381
48757SOL    HW146297   9.211  12.460   4.395
48757SOL    HW246298   9.067  12.536   4.412
48758SOL     OW46299   8.838  11.747   3.802
48758SOL    HW146300   8.784  11.726   3.883
48758SOL    HW246301   8.929  11.706   3.811
48759SOL     OW46302   7.975  11.428   4.052
48759SOL    HW146303   8.002  11.369   3.977
48759SOL    HW246304   7.975  11.523   4.021
48760SOL     OW46305   9.202  12.395   5.312
48760SOL    HW146306   9.293  12.356   5.299
48760SOL    HW246307   9.210  12.491   5.336
48761SOL     OW46308   8.512  12.519   5.064
48761SOL    HW146309   8.432  12.496   5.119
48761SOL    HW246310   8.595  12.493   5.113
48762SOL     OW46311   8.559  12.367   4.824
48762SOL    HW146312   8.519  12.411   4.905
48762SOL    HW246313   8.518  12.404   4.741
48763SOL     OW46314   9.086  12.271   4.803
48763SOL    HW146315   9.091  12.352   4.862
48763SOL    HW246316   9.000  12.273   4.752
48764SOL     OW46317   8.363  11.261   5.126
48764SOL    HW146318   8.388  11.241   5.031
48764SOL    HW246319   8.435  11.317   5.168
48765SOL     OW46320   8.428  12.288   5.443
48765SOL    HW146321   8.329  12.294   5.453
48765SOL    HW246322   8.451  12.208   5.387
48766SOL     OW46323   8.153  12.222   4.092
48766SOL    HW146324   8.139  12.229   4.191
48766SOL    HW246325   8.237  12.171   4.074
48767SOL     OW46326   7.858  11.985   4.975
48767SOL    HW146327   7.944  11.997   5.025
48767SOL    HW246328   7.816  11.898   5.002
48768SOL     OW46329   8.722  11.558   4.986
48768SOL    HW146330   8.743  11.632   5.050
48768SOL    HW246331   8.633  11.575   4.943
48769SOL     OW46332   7.815  12.272   4.225
48769SOL    HW146333   7.808  12.355   4.169
48769SOL    HW246334   7.819  12.192   4.165
48770SOL     OW46335   8.014  11.709   4.589
48770SOL    HW146336   8.026  11.775   4.515
48770SOL    HW246337   8.060  11.743   4.672
48771SOL     OW46338   8.700  12.520   4.112
48771SOL    HW146339   8.750  12.597   4.152
48771SOL    HW246340   8.605  12.522   4.144
48772SOL     OW46341   8.720  12.617   4.866
48772SOL    HW146342   8.767  12.630   4.953
48772SOL    HW246343   8.654  12.543   4.875
48773SOL     OW46344   9.030  11.811   4.196
48773SOL    HW146345   8.999  11.872   4.269
48773SOL    HW246346   9.080  11.863   4.127
48774SOL     OW46347   7.802  12.682   5.053
48774SOL    HW146348   7.781  12.638   4.966
48774SOL    HW246349   7.899  12.708   5.056
48775SOL     OW46350   7.850  11.923   5.322
48775SOL    HW146351   7.918  11.978   5.275
48775SOL    HW246352   7.890  11.835   5.349
48776SOL     OW46353   9.035  11.951   5.394
48776SOL    HW146354   8.943  11.989   5.389
48776SOL    HW246355   9.095  11.998   5.329
48777SOL     OW46356   8.461  11.277   5.494
48777SOL    HW146357   8.467  11.362   5.442
48777SOL    HW246358   8.493  11.201   5.437
48778SOL     OW46359   7.952  11.222   5.464
48778SOL    HW146360   7.910  11.165   5.394
48778SOL    HW246361   7.886  11.291   5.496
48779SOL     OW46362   8.021  12.042   4.753
48779SOL    HW146363   8.065  12.131   4.744
48779SOL    HW246364   7.958  12.042   4.830
48780SOL     OW46365   8.808  12.034   4.769
48780SOL    HW146366   8.733  12.034   4.703
48780SOL    HW246367   8.845  11.942   4.778
48781SOL     OW46368   8.657  11.697   3.999
48781SOL    HW146369   8.670  11.613   4.053
48781SOL    HW246370   8.628  11.771   4.059
48782SOL     OW46371   7.755  11.385   4.955
48782SOL    HW146372   7.732  11.422   5.045
48782SOL    HW246373   7.725  11.290   4.949
48783SOL     OW46374   7.485  12.482   5.006
48783SOL    HW146375   7.538  12.433   5.074
48783SOL    HW246376   7.507  12.580   5.011
48784SOL     OW46377   8.180  11.806   4.788
48784SOL    HW146378   8.239  11.780   4.712
48784SOL    HW246379   8.152  11.902   4.777
48785SOL     OW46380   9.176  12.107   5.578
48785SOL    HW146381   9.130  12.100   5.489
48785SOL    HW246382   9.114  12.151   5.644
48786SOL     OW46383   7.755  11.235   4.342
48786SOL    HW146384   7.744  11.329   4.375
48786SOL    HW246385   7.750  11.172   4.419
48787SOL     OW46386   9.070  11.539   4.098
48787SOL    HW146387   9.072  11.463   4.162
48787SOL    HW246388   9.022  11.616   4.138
48788SOL     OW46389   8.471  11.938   4.690
48788SOL    HW146390   8.486  11.959   4.786
48788SOL    HW246391   8.441  11.843   4.681
48789SOL     OW46392   9.307  12.690   5.329
48789SOL    HW146393   9.321  12.717   5.234
48789SOL    HW246394   9.390  12.712   5.382
48790SOL     OW46395   7.798  12.070   5.528
48790SOL    HW146396   7.874  12.114   5.576
48790SOL    HW246397   7.833  12.023   5.446
48791SOL     OW46398   8.988  11.446   3.849
48791SOL    HW146399   8.927  11.371   3.872
48791SOL    HW246400   9.010  11.498   3.932
48792SOL     OW46401   8.751  12.010   3.766
48792SOL    HW146402   8.785  11.917   3.781
48792SOL    HW246403   8.769  12.037   3.671
48793SOL     OW46404   8.516  12.505   4.573
48793SOL    HW146405   8.523  12.421   4.518
48793SOL    HW246406   8.578  12.574   4.537
48794SOL     OW46407   7.767  11.982   4.673
48794SOL    HW146408   7.860  12.018   4.678
48794SOL    HW246409   7.761  11.897   4.725
48795SOL     OW46410   7.787  11.681   4.730
48795SOL    HW146411   7.735  11.598   4.713
48795SOL    HW246412   7.864  11.686   4.666
48796SOL     OW46413   8.586  11.552   5.402
48796SOL    HW146414   8.541  11.615   5.466
48796SOL    HW246415   8.679  11.583   5.385
48797SOL     OW46416   8.608  11.379   5.201
48797SOL    HW146417   8.608  11.443   5.278
48797SOL    HW246418   8.636  11.427   5.118
48798SOL     OW46419   7.456  12.498   3.924
48798SOL    HW146420   7.363  12.519   3.893
48798SOL    HW246421   7.466  12.399   3.937
48799SOL     OW46422   8.450  11.968   4.962
48799SOL    HW146423   8.491  11.936   5.048
48799SOL    HW246424   8.354  11.941   4.959
48800SOL     OW46425   7.488  11.716   4.838
48800SOL    HW146426   7.573  11.683   4.797
48800SOL    HW246427   7.501  11.731   4.936
48801SOL     OW46428   7.637  11.692   5.446
48801SOL    HW146429   7.696  11.652   5.376
48801SOL    HW246430   7.579  11.763   5.405
48802SOL     OW46431   8.817  12.122   5.384
48802SOL    HW146432   8.856  12.211   5.404
48802SOL    HW246433   8.827  12.102   5.287
48803SOL     OW46434   8.263  11.744   4.049
48803SOL    HW146435   8.270  11.655   4.003
48803SOL    HW246436   8.169  11.778   4.041
48804SOL     OW46437   9.105  11.776   4.930
48804SOL    HW146438   9.067  11.707   4.992
48804SOL    HW246439   9.187  11.740   4.886
48805SOL     OW46440   7.700  12.736   5.468
48805SOL    HW146441   7.670  12.793   5.544
48805SOL    HW246442   7.693  12.639   5.494
48806SOL     OW46443   8.119  11.636   4.993
48806SOL    HW146444   8.085  11.547   4.963
48806SOL    HW246445   8.145  11.690   4.913
48807SOL     OW46446   7.921  11.672   3.915
48807SOL    HW146447   7.982  11.752   3.919
48807SOL    HW246448   7.826  11.703   3.922
48808SOL     OW46449   7.607  12.309   5.190
48808SOL    HW146450   7.629  12.248   5.266
48808SOL    HW246451   7.617  12.260   5.104
48809SOL     OW46452   8.795  12.231   4.958
48809SOL    HW146453   8.819  12.168   4.884
48809SOL    HW246454   8.705  12.271   4.940
48810SOL     OW46455   8.750  12.027   4.033
48810SOL    HW146456   8.664  11.996   4.075
48810SOL    HW246457   8.746  12.013   3.934
48811SOL     OW46458   7.531  12.430   4.746
48811SOL    HW146459   7.526  12.429   4.846
48811SOL    HW246460   7.448  12.389   4.708
48812SOL     OW46461   9.174  11.307   4.247
48812SOL    HW146462   9.247  11.290   4.180
48812SOL    HW246463   9.143  11.220   4.285
48813SOL     OW46464   8.728  12.099   4.396
48813SOL    HW146465   8.788  12.018   4.398
48813SOL    HW246466   8.768  12.168   4.336
48814SOL     OW46467   8.278  12.445   5.146
48814SOL    HW146468   8.273  12.478   5.241
48814SOL    HW246469   8.192  12.464   5.100
48815SOL     OW46470   9.289  11.347   4.687
48815SOL    HW146471   9.328  11.262   4.651
48815SOL    HW246472   9.191  11.349   4.668
48816SOL     OW46473   7.711  11.498   4.444
48816SOL    HW146474   7.632  11.549   4.410
48816SOL    HW246475   7.702  11.483   4.542
48817SOL     OW46476   8.270  12.174   5.096
48817SOL    HW146477   8.310  12.173   5.004
48817SOL    HW246478   8.280  12.266   5.136
48818SOL     OW46479   8.364  12.082   4.015
48818SOL    HW146480   8.427  12.120   3.947
48818SOL    HW246481   8.404  11.999   4.054
48819SOL     OW46482   7.820  12.460   5.214
48819SOL    HW146483   7.807  12.553   5.180
48819SOL    HW246484   7.736  12.408   5.201
48820SOL     OW46485   9.062  12.464   5.013
48820SOL    HW146486   9.122  12.467   5.093
48820SOL    HW246487   8.987  12.528   5.026
48821SOL     OW46488   8.487  12.270   4.420
48821SOL    HW146489   8.417  12.223   4.474
48821SOL    HW246490   8.546  12.202   4.377
48822SOL     OW46491   8.462  11.408   4.695
48822SOL    HW146492   8.454  11.372   4.602
48822SOL    HW246493   8.460  11.332   4.760
48823SOL     OW46494   9.157  11.557   5.105
48823SOL    HW146495   9.230  11.626   5.109
48823SOL    HW246496   9.185  11.482   5.046
48824SOL     OW46497   7.703  12.520   4.014
48824SOL    HW146498   7.607  12.521   3.987
48824SOL    HW246499   7.715  12.573   4.098
48825SOL     OW46500   7.553  12.185   5.450
48825SOL    HW146501   7.476  12.152   5.504
48825SOL    HW246502   7.638  12.155   5.492
48826SOL     OW46503   8.120  11.375   5.213
48826SOL    HW146504   8.210  11.359   5.173
48826SOL    HW246505   8.128  11.380   5.312
48827SOL     OW46506   7.523  11.517   3.757
48827SOL    HW146507   7.431  11.489   3.728
48827SOL    HW246508   7.554  11.594   3.701
48828SOL     OW46509   8.888  12.028   5.122
48828SOL    HW146510   8.831  12.080   5.059
48828SOL    HW246511   8.984  12.040   5.098
48829SOL     OW46512   7.520  11.338   4.042
48829SOL    HW146513   7.503  11.421   3.988
48829SOL    HW246514   7.610  11.301   4.020
48830SOL     OW46515   8.631  12.507   3.843
48830SOL    HW146516   8.532  12.496   3.845
48830SOL    HW246517   8.665  12.522   3.936
48831SOL     OW46518   8.061  12.014   5.155
48831SOL    HW146519   8.117  12.095   5.138
48831SOL    HW246520   8.120  11.934   5.158
48832SOL     OW46521   8.164  11.737   5.432
48832SOL    HW146522   8.183  11.802   5.506
48832SOL    HW246523   8.224  11.657   5.441
48833SOL     OW46524   8.898  12.392   5.357
48833SOL    HW146525   8.889  12.382   5.456
48833SOL    HW246526   8.994  12.385   5.331
48834SOL     OW46527   9.122  12.055   4.978
48834SOL    HW146528   9.095  11.966   4.941
48834SOL    HW246529   9.123  12.123   4.905
48835SOL     OW46530   8.673  11.497   4.173
48835SOL    HW146531   8.738  11.423   4.162
48835SOL    HW246532   8.693  11.547   4.257
48836SOL     OW46533   8.042  11.917   4.376
48836SOL    HW146534   8.092  12.002   4.357
48836SOL    HW246535   7.954  11.919   4.328
48837SOL     OW46536   9.225  11.514   5.366
48837SOL    HW146537   9.208  11.545   5.272
48837SOL    HW246538   9.141  11.477   5.404
48838SOL     OW46539   9.178  12.106   5.241
48838SOL    HW146540   9.216  12.197   5.256
48838SOL    HW246541   9.170  12.089   5.142
48839SOL     OW46542   8.307  12.546   3.740
48839SOL    HW146543   8.261  12.561   3.828
48839SOL    HW246544   8.351  12.631   3.710
48840SOL     OW46545   8.307  12.128   4.585
48840SOL    HW146546   8.361  12.059   4.633
48840SOL    HW246547   8.275  12.197   4.651
48841SOL     OW46548   8.531  12.156   3.811
48841SOL    HW146549   8.508  12.209   3.729
48841SOL    HW246550   8.612  12.100   3.792
48842SOL     OW46551   7.669  12.486   5.568
48842SOL    HW146552   7.604  12.413   5.547
48842SOL    HW246553   7.673  12.500   5.666
48843SOL     OW46554   7.527  12.412   4.377
48843SOL    HW146555   7.526  12.365   4.465
48843SOL    HW246556   7.609  12.384   4.326
48844SOL     OW46557   8.120  12.563   5.348
48844SOL    HW146558   8.042  12.513   5.386
48844SOL    HW246559   8.117  12.658   5.379
48845SOL     OW46560   9.272  11.364   4.951
48845SOL    HW146561   9.268  11.274   4.995
48845SOL    HW246562   9.275  11.353   4.852
48846SOL     OW46563   7.876  11.596   4.244
48846SOL    HW146564   7.906  11.524   4.182
48846SOL    HW246565   7.837  11.556   4.327
48847SOL     OW46566   9.153  12.659   4.828
48847SOL    HW146567   9.060  12.634   4.801
48847SOL    HW246568   9.179  12.609   4.910
48848SOL     OW46569   7.765  11.719   5.004
48848SOL    HW146570   7.803  11.660   5.076
48848SOL    HW246571   7.805  11.693   4.916
48849SOL     OW46572   8.872  11.386   4.836
48849SOL    HW146573   8.924  11.321   4.891
48849SOL    HW246574   8.823  11.449   4.897
48850SOL     OW46575   8.449  11.206   4.878
48850SOL    HW146576   8.386  11.134   4.847
48850SOL    HW246577   8.542  11.170   4.878
48851SOL     OW46578   8.218  12.502   4.025
48851SOL    HW146579   8.172  12.415   4.042
48851SOL    HW246580   8.309  12.499   4.066
48852SOL     OW46581   8.066  12.739   5.008
48852SOL    HW146582   8.061  12.821   5.065
48852SOL    HW246583   8.155  12.736   4.963
48853SOL     OW46584   8.800  11.224   3.892
48853SOL    HW146585   8.835  11.183   3.808
48853SOL    HW246586   8.710  11.186   3.912
48854SOL     OW46587   8.748  11.625   4.415
48854SOL    HW146588   8.689  11.705   4.419
48854SOL    HW246589   8.763  11.590   4.508
48855SOL     OW46590   9.041  11.393   4.606
48855SOL    HW146591   8.957  11.392   4.660
48855SOL    HW246592   9.043  11.476   4.550
48856SOL     OW46593   7.487  12.249   4.024
48856SOL    HW146594   7.586  12.238   4.015
48856SOL    HW246595   7.447  12.163   4.056
48857SOL     OW46596   7.678  11.800   5.699
48857SOL    HW146597   7.585  11.798   5.736
48857SOL    HW246598   7.679  11.761   5.607
48858SOL     OW46599   7.673  11.447   6.582
48858SOL    HW146600   7.708  11.430   6.674
48858SOL    HW246601   7.585  11.402   6.570
48859SOL     OW46602   7.467  11.540   6.233
48859SOL    HW146603   7.385  11.583   6.272
48859SOL    HW246604   7.439  11.467   6.170
48860SOL     OW46605   8.017  12.447   6.751
48860SOL    HW146606   7.924  12.440   6.714
48860SOL    HW246607   8.028  12.536   6.795
48861SOL     OW46608   9.003  12.683   6.289
48861SOL    HW146609   8.946  12.667   6.370
48861SOL    HW246610   8.944  12.693   6.209
48862SOL     OW46611   8.583  11.875   6.303
48862SOL    HW146612   8.640  11.953   6.278
48862SOL    HW246613   8.523  11.901   6.379
48863SOL     OW46614   9.203  11.779   5.817
48863SOL    HW146615   9.191  11.766   5.718
48863SOL    HW246616   9.173  11.698   5.866
48864SOL     OW46617   8.216  12.316   6.609
48864SOL    HW146618   8.138  12.333   6.669
48864SOL    HW246619   8.250  12.403   6.573
48865SOL     OW46620   8.298  11.970   7.409
48865SOL    HW146621   8.294  12.046   7.474
48865SOL    HW246622   8.320  12.006   7.318
48866SOL     OW46623   8.133  12.184   6.251
48866SOL    HW146624   8.202  12.168   6.321
48866SOL    HW246625   8.060  12.241   6.289
48867SOL     OW46626   8.134  12.333   7.389
48867SOL    HW146627   8.194  12.412   7.403
48867SOL    HW246628   8.048  12.364   7.348
48868SOL     OW46629   7.783  12.607   6.647
48868SOL    HW146630   7.705  12.576   6.594
48868SOL    HW246631   7.841  12.665   6.590
48869SOL     OW46632   8.908  12.677   6.925
48869SOL    HW146633   8.932  12.771   6.951
48869SOL    HW246634   8.892  12.623   7.007
48870SOL     OW46635   7.886  11.564   7.085
48870SOL    HW146636   7.968  11.508   7.094
48870SOL    HW246637   7.805  11.506   7.089
48871SOL     OW46638   9.051  11.619   6.323
48871SOL    HW146639   8.977  11.665   6.273
48871SOL    HW246640   9.102  11.687   6.376
48872SOL     OW46641   7.679  12.885   6.069
48872SOL    HW146642   7.713  12.962   6.123
48872SOL    HW246643   7.723  12.885   5.979
48873SOL     OW46644   8.575  12.513   7.276
48873SOL    HW146645   8.622  12.513   7.364
48873SOL    HW246646   8.527  12.426   7.265
48874SOL     OW46647   7.678  12.606   6.124
48874SOL    HW146648   7.652  12.702   6.124
48874SOL    HW246649   7.607  12.552   6.169
48875SOL     OW46650   7.688  12.263   6.472
48875SOL    HW146651   7.702  12.179   6.524
48875SOL    HW246652   7.633  12.327   6.527
48876SOL     OW46653   8.054  12.136   5.709
48876SOL    HW146654   8.061  12.220   5.655
48876SOL    HW246655   8.100  12.149   5.797
48877SOL     OW46656   9.042  11.286   7.066
48877SOL    HW146657   9.024  11.353   6.994
48877SOL    HW246658   9.039  11.332   7.155
48878SOL     OW46659   7.570  11.815   6.149
48878SOL    HW146660   7.525  11.727   6.166
48878SOL    HW246661   7.569  11.869   6.233
48879SOL     OW46662   7.475  12.768   5.703
48879SOL    HW146663   7.456  12.672   5.724
48879SOL    HW246664   7.442  12.826   5.778
48880SOL     OW46665   9.137  12.094   6.198
48880SOL    HW146666   9.232  12.065   6.206
48880SOL    HW246667   9.129  12.159   6.123
48881SOL     OW46668   9.089  12.280   6.018
48881SOL    HW146669   9.175  12.282   5.966
48881SOL    HW246670   9.103  12.327   6.106
48882SOL     OW46671   7.561  11.909   7.183
48882SOL    HW146672   7.649  11.896   7.228
48882SOL    HW246673   7.548  12.006   7.161
48883SOL     OW46674   8.061  12.537   6.312
48883SOL    HW146675   8.012  12.450   6.321
48883SOL    HW246676   8.038  12.580   6.225
48884SOL     OW46677   8.741  12.400   7.009
48884SOL    HW146678   8.778  12.327   6.951
48884SOL    HW246679   8.793  12.405   7.094
48885SOL     OW46680   8.257  11.176   6.088
48885SOL    HW146681   8.297  11.267   6.079
48885SOL    HW246682   8.157  11.184   6.094
48886SOL     OW46683   7.645  12.148   6.850
48886SOL    HW146684   7.734  12.103   6.836
48886SOL    HW246685   7.572  12.083   6.831
48887SOL     OW46686   8.973  12.171   5.776
48887SOL    HW146687   8.910  12.095   5.789
48887SOL    HW246688   9.021  12.189   5.862
48888SOL     OW46689   7.765  11.423   7.387
48888SOL    HW146690   7.836  11.494   7.393
48888SOL    HW246691   7.677  11.462   7.415
48889SOL     OW46692   8.914  12.589   6.539
48889SOL    HW146693   8.855  12.595   6.619
48889SOL    HW246694   8.899  12.501   6.493
48890SOL     OW46695   8.046  11.901   5.856
48890SOL    HW146696   8.070  11.970   5.788
48890SOL    HW246697   7.968  11.934   5.910
48891SOL     OW46698   8.729  11.517   6.530
48891SOL    HW146699   8.643  11.467   6.517
48891SOL    HW246700   8.791  11.463   6.586
48892SOL     OW46701   8.255  11.777   7.051
48892SOL    HW146702   8.208  11.774   7.140
48892SOL    HW246703   8.204  11.722   6.985
48893SOL     OW46704   8.842  11.641   7.260
48893SOL    HW146705   8.822  11.684   7.348
48893SOL    HW246706   8.920  11.579   7.269
48894SOL     OW46707   8.421  12.062   7.158
48894SOL    HW146708   8.467  11.978   7.129
48894SOL    HW246709   8.365  12.096   7.083
48895SOL     OW46710   8.439  11.582   6.828
48895SOL    HW146711   8.362  11.616   6.882
48895SOL    HW246712   8.405  11.531   6.749
48896SOL     OW46713   8.489  11.873   6.015
48896SOL    HW146714   8.515  11.869   6.111
48896SOL    HW246715   8.404  11.822   6.001
48897SOL     OW46716   7.524  11.983   6.375
48897SOL    HW146717   7.623  11.971   6.384
48897SOL    HW246718   7.500  12.078   6.396
48898SOL     OW46719   8.313  11.520   5.781
48898SOL    HW146720   8.372  11.583   5.732
48898SOL    HW246721   8.332  11.426   5.752
48899SOL     OW46722   9.167  11.757   7.417
48899SOL    HW146723   9.141  11.846   7.381
48899SOL    HW246724   9.165  11.689   7.344
48900SOL     OW46725   8.810  12.316   6.131
48900SOL    HW146726   8.893  12.287   6.083
48900SOL    HW246727   8.761  12.383   6.075
48901SOL     OW46728   7.998  11.368   6.471
48901SOL    HW146729   7.993  11.363   6.571
48901SOL    HW246730   8.000  11.464   6.442
48902SOL     OW46731   8.456  12.628   6.063
48902SOL    HW146732   8.410  12.700   6.011
48902SOL    HW246733   8.452  12.648   6.161
48903SOL     OW46734   9.243  12.238   6.459
48903SOL    HW146735   9.181  12.223   6.383
48903SOL    HW246736   9.191  12.249   6.544
48904SOL     OW46737   8.675  12.722   7.092
48904SOL    HW146738   8.681  12.645   7.156
48904SOL    HW246739   8.623  12.696   7.012
48905SOL     OW46740   7.769  12.115   5.828
48905SOL    HW146741   7.851  12.154   5.786
48905SOL    HW246742   7.742  12.033   5.779
48906SOL     OW46743   8.906  11.907   6.314
48906SOL    HW146744   8.901  11.842   6.389
48906SOL    HW246745   8.986  11.966   6.327
48907SOL     OW46746   7.909  12.438   7.313
48907SOL    HW146747   7.859  12.439   7.227
48907SOL    HW246748   7.846  12.420   7.389
48908SOL     OW46749   8.559  12.948   5.823
48908SOL    HW146750   8.499  12.886   5.873
48908SOL    HW246751   8.590  12.904   5.738
48909SOL     OW46752   7.650  11.457   7.084
48909SOL    HW146753   7.570  11.517   7.071
48909SOL    HW246754   7.640  11.408   7.170
48910SOL     OW46755   9.080  12.549   5.667
48910SOL    HW146756   9.048  12.643   5.657
48910SOL    HW246757   9.004  12.486   5.655
48911SOL     OW46758   8.848  11.279   6.012
48911SOL    HW146759   8.824  11.242   5.922
48911SOL    HW246760   8.947  11.295   6.016
48912SOL     OW46761   7.830  11.872   6.066
48912SOL    HW146762   7.875  11.782   6.063
48912SOL    HW246763   7.736  11.861   6.099
48913SOL     OW46764   8.995  11.394   7.315
48913SOL    HW146765   8.990  11.431   7.407
48913SOL    HW246766   8.923  11.325   7.303
48914SOL     OW46767   8.062  11.294   5.703
48914SOL    HW146768   8.160  11.272   5.710
48914SOL    HW246769   8.031  11.277   5.610
48915SOL     OW46770   8.229  11.436   7.335
48915SOL    HW146771   8.296  11.375   7.378
48915SOL    HW246772   8.156  11.455   7.400
48916SOL     OW46773   8.799  11.762   7.019
48916SOL    HW146774   8.827  11.719   7.104
48916SOL    HW246775   8.824  11.858   7.020
48917SOL     OW46776   8.251  12.574   6.510
48917SOL    HW146777   8.341  12.588   6.468
48917SOL    HW246778   8.180  12.576   6.439
48918SOL     OW46779   8.370  11.675   6.485
48918SOL    HW146780   8.345  11.666   6.389
48918SOL    HW246781   8.418  11.593   6.516
48919SOL     OW46782   7.987  11.236   6.098
48919SOL    HW146783   7.906  11.237   6.156
48919SOL    HW246784   7.990  11.319   6.043
48920SOL     OW46785   8.882  12.360   5.627
48920SOL    HW146786   8.914  12.284   5.684
48920SOL    HW246787   8.790  12.387   5.657
48921SOL     OW46788   7.745  11.207   5.757
48921SOL    HW146789   7.794  11.291   5.736
48921SOL    HW246790   7.807  11.142   5.802
48922SOL     OW46791   8.383  11.408   6.066
48922SOL    HW146792   8.335  11.449   5.988
48922SOL    HW246793   8.482  11.406   6.047
48923SOL     OW46794   8.524  11.855   7.050
48923SOL    HW146795   8.444  11.794   7.053
48923SOL    HW246796   8.605  11.802   7.026
48924SOL     OW46797   8.675  12.742   6.379
48924SOL    HW146798   8.696  12.816   6.314
48924SOL    HW246799   8.743  12.742   6.452
48925SOL     OW46800   7.907  12.324   6.327
48925SOL    HW146801   7.836  12.297   6.392
48925SOL    HW246802   7.881  12.296   6.234
48926SOL     OW46803   8.480  11.721   5.602
48926SOL    HW146804   8.439  11.803   5.563
48926SOL    HW246805   8.544  11.747   5.675
48927SOL     OW46806   7.526  11.728   6.972
48927SOL    HW146807   7.618  11.727   6.931
48927SOL    HW246808   7.520  11.802   7.039
48928SOL     OW46809   8.009  11.394   6.733
48928SOL    HW146810   8.047  11.310   6.770
48928SOL    HW246811   7.921  11.413   6.777
48929SOL     OW46812   8.314  11.626   6.228
48929SOL    HW146813   8.282  11.698   6.166
48929SOL    HW246814   8.338  11.545   6.175
48930SOL     OW46815   8.465  11.211   6.339
48930SOL    HW146816   8.393  11.216   6.270
48930SOL    HW246817   8.441  11.142   6.408
48931SOL     OW46818   8.877  12.345   6.453
48931SOL    HW146819   8.822  12.261   6.446
48931SOL    HW246820   8.903  12.374   6.361
48932SOL     OW46821   8.914  11.762   6.578
48932SOL    HW146822   8.884  11.667   6.585
48932SOL    HW246823   8.987  11.778   6.644
48933SOL     OW46824   9.305  12.005   5.963
48933SOL    HW146825   9.347  11.941   6.027
48933SOL    HW246826   9.267  11.954   5.885
48934SOL     OW46827   7.936  12.557   5.760
48934SOL    HW146828   7.849  12.542   5.807
48934SOL    HW246829   7.919  12.583   5.665
48935SOL     OW46830   9.112  12.452   6.243
48935SOL    HW146831   9.211  12.460   6.257
48935SOL    HW246832   9.067  12.536   6.274
48936SOL     OW46833   8.838  11.747   5.664
48936SOL    HW146834   8.784  11.726   5.745
48936SOL    HW246835   8.929  11.706   5.673
48937SOL     OW46836   7.975  11.428   5.914
48937SOL    HW146837   8.002  11.369   5.839
48937SOL    HW246838   7.975  11.523   5.883
48938SOL     OW46839   9.202  12.395   7.174
48938SOL    HW146840   9.293  12.356   7.161
48938SOL    HW246841   9.210  12.491   7.198
48939SOL     OW46842   8.512  12.519   6.926
48939SOL    HW146843   8.432  12.496   6.981
48939SOL    HW246844   8.595  12.493   6.975
48940SOL     OW46845   8.559  12.367   6.686
48940SOL    HW146846   8.519  12.411   6.767
48940SOL    HW246847   8.518  12.404   6.603
48941SOL     OW46848   9.086  12.271   6.665
48941SOL    HW146849   9.091  12.352   6.724
48941SOL    HW246850   9.000  12.273   6.614
48942SOL     OW46851   8.363  11.261   6.988
48942SOL    HW146852   8.388  11.241   6.893
48942SOL    HW246853   8.435  11.317   7.030
48943SOL     OW46854   8.428  12.288   7.305
48943SOL    HW146855   8.329  12.294   7.315
48943SOL    HW246856   8.451  12.208   7.249
48944SOL     OW46857   8.153  12.222   5.954
48944SOL    HW146858   8.139  12.229   6.053
48944SOL    HW246859   8.237  12.171   5.936
48945SOL     OW46860   7.858  11.985   6.837
48945SOL    HW146861   7.944  11.997   6.887
48945SOL    HW246862   7.816  11.898   6.864
48946SOL     OW46863   8.722  11.558   6.848
48946SOL    HW146864   8.743  11.632   6.912
48946SOL    HW246865   8.633  11.575   6.805
48947SOL     OW46866   7.815  12.272   6.087
48947SOL    HW146867   7.808  12.355   6.031
48947SOL    HW246868   7.819  12.192   6.027
48948SOL     OW46869   8.014  11.709   6.451
48948SOL    HW146870   8.026  11.775   6.377
48948SOL    HW246871   8.060  11.743   6.534
48949SOL     OW46872   8.700  12.520   5.974
48949SOL    HW146873   8.750  12.597   6.014
48949SOL    HW246874   8.605  12.522   6.006
48950SOL     OW46875   8.720  12.617   6.728
48950SOL    HW146876   8.767  12.630   6.815
48950SOL    HW246877   8.654  12.543   6.737
48951SOL     OW46878   9.030  11.811   6.058
48951SOL    HW146879   8.999  11.872   6.131
48951SOL    HW246880   9.080  11.863   5.989
48952SOL     OW46881   7.802  12.682   6.915
48952SOL    HW146882   7.781  12.638   6.828
48952SOL    HW246883   7.899  12.708   6.918
48953SOL     OW46884   7.850  11.923   7.184
48953SOL    HW146885   7.918  11.978   7.137
48953SOL    HW246886   7.890  11.835   7.211
48954SOL     OW46887   9.035  11.951   7.256
48954SOL    HW146888   8.943  11.989   7.251
48954SOL    HW246889   9.095  11.998   7.191
48955SOL     OW46890   8.461  11.277   7.356
48955SOL    HW146891   8.467  11.362   7.304
48955SOL    HW246892   8.493  11.201   7.299
48956SOL     OW46893   7.952  11.222   7.326
48956SOL    HW146894   7.910  11.165   7.256
48956SOL    HW246895   7.886  11.291   7.358
48957SOL     OW46896   8.021  12.042   6.615
48957SOL    HW146897   8.065  12.131   6.606
48957SOL    HW246898   7.958  12.042   6.692
48958SOL     OW46899   8.808  12.034   6.631
48958SOL    HW146900   8.733  12.034   6.565
48958SOL    HW246901   8.845  11.942   6.640
48959SOL     OW46902   8.657  11.697   5.861
48959SOL    HW146903   8.670  11.613   5.915
48959SOL    HW246904   8.628  11.771   5.921
48960SOL     OW46905   7.755  11.385   6.817
48960SOL    HW146906   7.732  11.422   6.907
48960SOL    HW246907   7.725  11.290   6.811
48961SOL     OW46908   7.485  12.482   6.868
48961SOL    HW146909   7.538  12.433   6.936
48961SOL    HW246910   7.507  12.580   6.873
48962SOL     OW46911   8.180  11.806   6.650
48962SOL    HW146912   8.239  11.780   6.574
48962SOL    HW246913   8.152  11.902   6.639
48963SOL     OW46914   9.176  12.107   7.440
48963SOL    HW146915   9.130  12.100   7.351
48963SOL    HW246916   9.114  12.151   7.506
48964SOL     OW46917   7.755  11.235   6.204
48964SOL    HW146918   7.744  11.329   6.237
48964SOL    HW246919   7.750  11.172   6.281
48965SOL     OW46920   9.070  11.539   5.960
48965SOL    HW146921   9.072  11.463   6.024
48965SOL    HW246922   9.022  11.616   6.000
48966SOL     OW46923   8.471  11.938   6.552
48966SOL    HW146924   8.486  11.959   6.648
48966SOL    HW246925   8.441  11.843   6.543
48967SOL     OW46926   9.307  12.690   7.191
48967SOL    HW146927   9.321  12.717   7.096
48967SOL    HW246928   9.390  12.712   7.244
48968SOL     OW46929   7.798  12.070   7.390
48968SOL    HW146930   7.874  12.114   7.438
48968SOL    HW246931   7.833  12.023   7.308
48969SOL     OW46932   8.988  11.446   5.711
48969SOL    HW146933   8.927  11.371   5.734
48969SOL    HW246934   9.010  11.498   5.794
48970SOL     OW46935   8.751  12.010   5.628
48970SOL    HW146936   8.785  11.917   5.643
48970SOL    HW246937   8.769  12.037   5.533
48971SOL     OW46938   8.516  12.505   6.435
48971SOL    HW146939   8.523  12.421   6.380
48971SOL    HW246940   8.578  12.574   6.399
48972SOL     OW46941   7.767  11.982   6.535
48972SOL    HW146942   7.860  12.018   6.540
48972SOL    HW246943   7.761  11.897   6.587
48973SOL     OW46944   7.787  11.681   6.592
48973SOL    HW146945   7.735  11.598   6.575
48973SOL    HW246946   7.864  11.686   6.528
48974SOL     OW46947   8.586  11.552   7.264
48974SOL    HW146948   8.541  11.615   7.328
48974SOL    HW246949   8.679  11.583   7.247
48975SOL     OW46950   8.608  11.379   7.063
48975SOL    HW146951   8.608  11.443   7.140
48975SOL    HW246952   8.636  11.427   6.980
48976SOL     OW46953   7.456  12.498   5.786
48976SOL    HW146954   7.363  12.519   5.755
48976SOL    HW246955   7.466  12.399   5.799
48977SOL     OW46956   8.450  11.968   6.824
48977SOL    HW146957   8.491  11.936   6.910
48977SOL    HW246958   8.354  11.941   6.821
48978SOL     OW46959   7.488  11.716   6.700
48978SOL    HW146960   7.573  11.683   6.659
48978SOL    HW246961   7.501  11.731   6.798
48979SOL     OW46962   7.637  11.692   7.308
48979SOL    HW146963   7.696  11.652   7.238
48979SOL    HW246964   7.579  11.763   7.267
48980SOL     OW46965   8.817  12.122   7.246
48980SOL    HW146966   8.856  12.211   7.266
48980SOL    HW246967   8.827  12.102   7.149
48981SOL     OW46968   8.263  11.744   5.911
48981SOL    HW146969   8.270  11.655   5.865
48981SOL    HW246970   8.169  11.778   5.903
48982SOL     OW46971   9.105  11.776   6.792
48982SOL    HW146972   9.067  11.707   6.854
48982SOL    HW246973   9.187  11.740   6.748
48983SOL     OW46974   7.700  12.736   7.330
48983SOL    HW146975   7.670  12.793   7.406
48983SOL    HW246976   7.693  12.639   7.356
48984SOL     OW46977   8.119  11.636   6.855
48984SOL    HW146978   8.085  11.547   6.825
48984SOL    HW246979   8.145  11.690   6.775
48985SOL     OW46980   7.921  11.672   5.777
48985SOL    HW146981   7.982  11.752   5.781
48985SOL    HW246982   7.826  11.703   5.784
48986SOL     OW46983   7.607  12.309   7.052
48986SOL    HW146984   7.629  12.248   7.128
48986SOL    HW246985   7.617  12.260   6.966
48987SOL     OW46986   8.795  12.231   6.820
48987SOL    HW146987   8.819  12.168   6.746
48987SOL    HW246988   8.705  12.271   6.802
48988SOL     OW46989   8.750  12.027   5.895
48988SOL    HW146990   8.664  11.996   5.937
48988SOL    HW246991   8.746  12.013   5.796
48989SOL     OW46992   7.531  12.430   6.608
48989SOL    HW146993   7.526  12.429   6.708
48989SOL    HW246994   7.448  12.389   6.570
48990SOL     OW46995   9.174  11.307   6.109
48990SOL    HW146996   9.247  11.290   6.042
48990SOL    HW246997   9.143  11.220   6.147
48991SOL     OW46998   8.728  12.099   6.258
48991SOL    HW146999   8.788  12.018   6.260
48991SOL    HW247000   8.768  12.168   6.198
48992SOL     OW47001   8.278  12.445   7.008
48992SOL    HW147002   8.273  12.478   7.103
48992SOL    HW247003   8.192  12.464   6.962
48993SOL     OW47004   9.289  11.347   6.549
48993SOL    HW147005   9.328  11.262   6.513
48993SOL    HW247006   9.191  11.349   6.530
48994SOL     OW47007   7.711  11.498   6.306
48994SOL    HW147008   7.632  11.549   6.272
48994SOL    HW247009   7.702  11.483   6.404
48995SOL     OW47010   8.270  12.174   6.958
48995SOL    HW147011   8.310  12.173   6.866
48995SOL    HW247012   8.280  12.266   6.998
48996SOL     OW47013   8.364  12.082   5.877
48996SOL    HW147014   8.427  12.120   5.809
48996SOL    HW247015   8.404  11.999   5.916
48997SOL     OW47016   7.820  12.460   7.076
48997SOL    HW147017   7.807  12.553   7.042
48997SOL    HW247018   7.736  12.408   7.063
48998SOL     OW47019   9.062  12.464   6.875
48998SOL    HW147020   9.122  12.467   6.955
48998SOL    HW247021   8.987  12.528   6.888
48999SOL     OW47022   8.487  12.270   6.282
48999SOL    HW147023   8.417  12.223   6.336
48999SOL    HW247024   8.546  12.202   6.239
49000SOL     OW47025   8.462  11.408   6.557
49000SOL    HW147026   8.454  11.372   6.464
49000SOL    HW247027   8.460  11.332   6.622
49001SOL     OW47028   9.157  11.557   6.967
49001SOL    HW147029   9.230  11.626   6.971
49001SOL    HW247030   9.185  11.482   6.908
49002SOL     OW47031   7.703  12.520   5.876
49002SOL    HW147032   7.607  12.521   5.849
49002SOL    HW247033   7.715  12.573   5.960
49003SOL     OW47034   7.553  12.185   7.312
49003SOL    HW147035   7.476  12.152   7.366
49003SOL    HW247036   7.638  12.155   7.354
49004SOL     OW47037   8.120  11.375   7.075
49004SOL    HW147038   8.210  11.359   7.035
49004SOL    HW247039   8.128  11.380   7.174
49005SOL     OW47040   7.523  11.517   5.619
49005SOL    HW147041   7.431  11.489   5.590
49005SOL    HW247042   7.554  11.594   5.563
49006SOL     OW47043   8.888  12.028   6.984
49006SOL    HW147044   8.831  12.080   6.921
49006SOL    HW247045   8.984  12.040   6.960
49007SOL     OW47046   7.520  11.338   5.904
49007SOL    HW147047   7.503  11.421   5.850
49007SOL    HW247048   7.610  11.301   5.882
49008SOL     OW47049   8.631  12.507   5.705
49008SOL    HW147050   8.532  12.496   5.707
49008SOL    HW247051   8.665  12.522   5.798
49009SOL     OW47052   8.061  12.014   7.017
49009SOL    HW147053   8.117  12.095   7.000
49009SOL    HW247054   8.120  11.934   7.020
49010SOL     OW47055   8.164  11.737   7.294
49010SOL    HW147056   8.183  11.802   7.368
49010SOL    HW247057   8.224  11.657   7.303
49011SOL     OW47058   8.898  12.392   7.219
49011SOL    HW147059   8.889  12.382   7.318
49011SOL    HW247060   8.994  12.385   7.193
49012SOL     OW47061   9.122  12.055   6.840
49012SOL    HW147062   9.095  11.966   6.803
49012SOL    HW247063   9.123  12.123   6.767
49013SOL     OW47064   8.673  11.497   6.035
49013SOL    HW147065   8.738  11.423   6.024
49013SOL    HW247066   8.693  11.547   6.119
49014SOL     OW47067   8.042  11.917   6.238
49014SOL    HW147068   8.092  12.002   6.219
49014SOL    HW247069   7.954  11.919   6.190
49015SOL     OW47070   9.225  11.514   7.228
49015SOL    HW147071   9.208  11.545   7.134
49015SOL    HW247072   9.141  11.477   7.266
49016SOL     OW47073   9.178  12.106   7.103
49016SOL    HW147074   9.216  12.197   7.118
49016SOL    HW247075   9.170  12.089   7.004
49017SOL     OW47076   8.307  12.546   5.602
49017SOL    HW147077   8.261  12.561   5.690
49017SOL    HW247078   8.351  12.631   5.572
49018SOL     OW47079   8.307  12.128   6.447
49018SOL    HW147080   8.361  12.059   6.495
49018SOL    HW247081   8.275  12.197   6.513
49019SOL     OW47082   8.531  12.156   5.673
49019SOL    HW147083   8.508  12.209   5.591
49019SOL    HW247084   8.612  12.100   5.654
49020SOL     OW47085   7.669  12.486   7.430
49020SOL    HW147086   7.604  12.413   7.409
49020SOL    HW247087   7.673  12.500   7.528
49021SOL     OW47088   7.527  12.412   6.239
49021SOL    HW147089   7.526  12.365   6.327
49021SOL    HW247090   7.609  12.384   6.188
49022SOL     OW47091   8.120  12.563   7.210
49022SOL    HW147092   8.042  12.513   7.248
49022SOL    HW247093   8.117  12.658   7.241
49023SOL     OW47094   9.272  11.364   6.813
49023SOL    HW147095   9.268  11.274   6.857
49023SOL    HW247096   9.275  11.353   6.714
49024SOL     OW47097   7.876  11.596   6.106
49024SOL    HW147098   7.906  11.524   6.044
49024SOL    HW247099   7.837  11.556   6.189
49025SOL     OW47100   9.153  12.659   6.690
49025SOL    HW147101   9.060  12.634   6.663
49025SOL    HW247102   9.179  12.609   6.772
49026SOL     OW47103   7.765  11.719   6.866
49026SOL    HW147104   7.803  11.660   6.938
49026SOL    HW247105   7.805  11.693   6.778
49027SOL     OW47106   8.872  11.386   6.698
49027SOL    HW147107   8.924  11.321   6.753
49027SOL    HW247108   8.823  11.449   6.759
49028SOL     OW47109   8.449  11.206   6.740
49028SOL    HW147110   8.386  11.134   6.709
49028SOL    HW247111   8.542  11.170   6.740
49029SOL     OW47112   8.218  12.502   5.887
49029SOL    HW147113   8.172  12.415   5.904
49029SOL    HW247114   8.309  12.499   5.928
49030SOL     OW47115   8.066  12.739   6.870
49030SOL    HW147116   8.061  12.821   6.927
49030SOL    HW247117   8.155  12.736   6.825
49031SOL     OW47118   8.800  11.224   5.754
49031SOL    HW147119   8.835  11.183   5.670
49031SOL    HW247120   8.710  11.186   5.774
49032SOL     OW47121   8.748  11.625   6.277
49032SOL    HW147122   8.689  11.705   6.281
49032SOL    HW247123   8.763  11.590   6.370
49033SOL     OW47124   9.041  11.393   6.468
49033SOL    HW147125   8.957  11.392   6.522
49033SOL    HW247126   9.043  11.476   6.412
49034SOL     OW47127   7.487  12.249   5.886
49034SOL    HW147128   7.586  12.238   5.877
49034SOL    HW247129   7.447  12.163   5.918
49035SOL     OW47130   7.678  11.800   7.561
49035SOL    HW147131   7.585  11.798   7.598
49035SOL    HW247132   7.679  11.761   7.469
49036SOL     OW47133   7.673  11.447   8.444
49036SOL    HW147134   7.708  11.430   8.536
49036SOL    HW247135   7.585  11.402   8.432
49037SOL     OW47136   7.467  11.540   8.095
49037SOL    HW147137   7.385  11.583   8.134
49037SOL    HW247138   7.439  11.467   8.032
49038SOL     OW47139   8.017  12.447   8.613
49038SOL    HW147140   7.924  12.440   8.576
49038SOL    HW247141   8.028  12.536   8.657
49039SOL     OW47142   9.003  12.683   8.151
49039SOL    HW147143   8.946  12.667   8.232
49039SOL    HW247144   8.944  12.693   8.071
49040SOL     OW47145   8.583  11.875   8.165
49040SOL    HW147146   8.640  11.953   8.140
49040SOL    HW247147   8.523  11.901   8.241
49041SOL     OW47148   9.203  11.779   7.679
49041SOL    HW147149   9.191  11.766   7.580
49041SOL    HW247150   9.173  11.698   7.728
49042SOL     OW47151   8.216  12.316   8.471
49042SOL    HW147152   8.138  12.333   8.531
49042SOL    HW247153   8.250  12.403   8.435
49043SOL     OW47154   8.298  11.970   9.271
49043SOL    HW147155   8.294  12.046   9.336
49043SOL    HW247156   8.320  12.006   9.180
49044SOL     OW47157   8.133  12.184   8.113
49044SOL    HW147158   8.202  12.168   8.183
49044SOL    HW247159   8.060  12.241   8.151
49045SOL     OW47160   8.134  12.333   9.251
49045SOL    HW147161   8.194  12.412   9.265
49045SOL    HW247162   8.048  12.364   9.210
49046SOL     OW47163   7.783  12.607   8.509
49046SOL    HW147164   7.705  12.576   8.456
49046SOL    HW247165   7.841  12.665   8.452
49047SOL     OW47166   8.908  12.677   8.787
49047SOL    HW147167   8.932  12.771   8.813
49047SOL    HW247168   8.892  12.623   8.869
49048SOL     OW47169   7.886  11.564   8.947
49048SOL    HW147170   7.968  11.508   8.956
49048SOL    HW247171   7.805  11.506   8.951
49049SOL     OW47172   9.051  11.619   8.185
49049SOL    HW147173   8.977  11.665   8.135
49049SOL    HW247174   9.102  11.687   8.238
49050SOL     OW47175   7.679  12.885   7.931
49050SOL    HW147176   7.713  12.962   7.985
49050SOL    HW247177   7.723  12.885   7.841
49051SOL     OW47178   8.575  12.513   9.138
49051SOL    HW147179   8.622  12.513   9.226
49051SOL    HW247180   8.527  12.426   9.127
49052SOL     OW47181   7.678  12.606   7.986
49052SOL    HW147182   7.652  12.702   7.986
49052SOL    HW247183   7.607  12.552   8.031
49053SOL     OW47184   7.688  12.263   8.334
49053SOL    HW147185   7.702  12.179   8.386
49053SOL    HW247186   7.633  12.327   8.389
49054SOL     OW47187   8.054  12.136   7.571
49054SOL    HW147188   8.061  12.220   7.517
49054SOL    HW247189   8.100  12.149   7.659
49055SOL     OW47190   9.042  11.286   8.928
49055SOL    HW147191   9.024  11.353   8.856
49055SOL    HW247192   9.039  11.332   9.017
49056SOL     OW47193   7.570  11.815   8.011
49056SOL    HW147194   7.525  11.727   8.028
49056SOL    HW247195   7.569  11.869   8.095
49057SOL     OW47196   7.475  12.768   7.565
49057SOL    HW147197   7.456  12.672   7.586
49057SOL    HW247198   7.442  12.826   7.640
49058SOL     OW47199   9.137  12.094   8.060
49058SOL    HW147200   9.232  12.065   8.068
49058SOL    HW247201   9.129  12.159   7.985
49059SOL     OW47202   9.089  12.280   7.880
49059SOL    HW147203   9.175  12.282   7.828
49059SOL    HW247204   9.103  12.327   7.968
49060SOL     OW47205   7.561  11.909   9.045
49060SOL    HW147206   7.649  11.896   9.090
49060SOL    HW247207   7.548  12.006   9.023
49061SOL     OW47208   8.061  12.537   8.174
49061SOL    HW147209   8.012  12.450   8.183
49061SOL    HW247210   8.038  12.580   8.087
49062SOL     OW47211   8.741  12.400   8.871
49062SOL    HW147212   8.778  12.327   8.813
49062SOL    HW247213   8.793  12.405   8.956
49063SOL     OW47214   8.257  11.176   7.950
49063SOL    HW147215   8.297  11.267   7.941
49063SOL    HW247216   8.157  11.184   7.956
49064SOL     OW47217   7.645  12.148   8.712
49064SOL    HW147218   7.734  12.103   8.698
49064SOL    HW247219   7.572  12.083   8.693
49065SOL     OW47220   8.973  12.171   7.638
49065SOL    HW147221   8.910  12.095   7.651
49065SOL    HW247222   9.021  12.189   7.724
49066SOL     OW47223   7.765  11.423   9.249
49066SOL    HW147224   7.836  11.494   9.255
49066SOL    HW247225   7.677  11.462   9.277
49067SOL     OW47226   8.914  12.589   8.401
49067SOL    HW147227   8.855  12.595   8.481
49067SOL    HW247228   8.899  12.501   8.355
49068SOL     OW47229   8.046  11.901   7.718
49068SOL    HW147230   8.070  11.970   7.650
49068SOL    HW247231   7.968  11.934   7.772
49069SOL     OW47232   8.729  11.517   8.392
49069SOL    HW147233   8.643  11.467   8.379
49069SOL    HW247234   8.791  11.463   8.448
49070SOL     OW47235   8.255  11.777   8.913
49070SOL    HW147236   8.208  11.774   9.002
49070SOL    HW247237   8.204  11.722   8.847
49071SOL     OW47238   8.842  11.641   9.122
49071SOL    HW147239   8.822  11.684   9.210
49071SOL    HW247240   8.920  11.579   9.131
49072SOL     OW47241   8.421  12.062   9.020
49072SOL    HW147242   8.467  11.978   8.991
49072SOL    HW247243   8.365  12.096   8.945
49073SOL     OW47244   8.439  11.582   8.690
49073SOL    HW147245   8.362  11.616   8.744
49073SOL    HW247246   8.405  11.531   8.611
49074SOL     OW47247   8.489  11.873   7.877
49074SOL    HW147248   8.515  11.869   7.973
49074SOL    HW247249   8.404  11.822   7.863
49075SOL     OW47250   7.524  11.983   8.237
49075SOL    HW147251   7.623  11.971   8.246
49075SOL    HW247252   7.500  12.078   8.258
49076SOL     OW47253   8.313  11.520   7.643
49076SOL    HW147254   8.372  11.583   7.594
49076SOL    HW247255   8.332  11.426   7.614
49077SOL     OW47256   9.167  11.757   9.279
49077SOL    HW147257   9.141  11.846   9.243
49077SOL    HW247258   9.165  11.689   9.206
49078SOL     OW47259   8.810  12.316   7.993
49078SOL    HW147260   8.893  12.287   7.945
49078SOL    HW247261   8.761  12.383   7.937
49079SOL     OW47262   7.998  11.368   8.333
49079SOL    HW147263   7.993  11.363   8.433
49079SOL    HW247264   8.000  11.464   8.304
49080SOL     OW47265   8.456  12.628   7.925
49080SOL    HW147266   8.410  12.700   7.873
49080SOL    HW247267   8.452  12.648   8.023
49081SOL     OW47268   9.243  12.238   8.321
49081SOL    HW147269   9.181  12.223   8.245
49081SOL    HW247270   9.191  12.249   8.406
49082SOL     OW47271   8.675  12.722   8.954
49082SOL    HW147272   8.681  12.645   9.018
49082SOL    HW247273   8.623  12.696   8.874
49083SOL     OW47274   7.769  12.115   7.690
49083SOL    HW147275   7.851  12.154   7.648
49083SOL    HW247276   7.742  12.033   7.641
49084SOL     OW47277   8.906  11.907   8.176
49084SOL    HW147278   8.901  11.842   8.251
49084SOL    HW247279   8.986  11.966   8.189
49085SOL     OW47280   7.909  12.438   9.175
49085SOL    HW147281   7.859  12.439   9.089
49085SOL    HW247282   7.846  12.420   9.251
49086SOL     OW47283   8.559  12.948   7.685
49086SOL    HW147284   8.499  12.886   7.735
49086SOL    HW247285   8.590  12.904   7.600
49087SOL     OW47286   7.650  11.457   8.946
49087SOL    HW147287   7.570  11.517   8.933
49087SOL    HW247288   7.640  11.408   9.032
49088SOL     OW47289   9.080  12.549   7.529
49088SOL    HW147290   9.048  12.643   7.519
49088SOL    HW247291   9.004  12.486   7.517
49089SOL     OW47292   8.848  11.279   7.874
49089SOL    HW147293   8.824  11.242   7.784
49089SOL    HW247294   8.947  11.295   7.878
49090SOL     OW47295   7.830  11.872   7.928
49090SOL    HW147296   7.875  11.782   7.925
49090SOL    HW247297   7.736  11.861   7.961
49091SOL     OW47298   8.995  11.394   9.177
49091SOL    HW147299   8.990  11.431   9.269
49091SOL    HW247300   8.923  11.325   9.165
49092SOL     OW47301   8.062  11.294   7.565
49092SOL    HW147302   8.160  11.272   7.572
49092SOL    HW247303   8.031  11.277   7.472
49093SOL     OW47304   8.229  11.436   9.197
49093SOL    HW147305   8.296  11.375   9.240
49093SOL    HW247306   8.156  11.455   9.262
49094SOL     OW47307   8.799  11.762   8.881
49094SOL    HW147308   8.827  11.719   8.966
49094SOL    HW247309   8.824  11.858   8.882
49095SOL     OW47310   8.251  12.574   8.372
49095SOL    HW147311   8.341  12.588   8.330
49095SOL    HW247312   8.180  12.576   8.301
49096SOL     OW47313   8.370  11.675   8.347
49096SOL    HW147314   8.345  11.666   8.251
49096SOL    HW247315   8.418  11.593   8.378
49097SOL     OW47316   7.987  11.236   7.960
49097SOL    HW147317   7.906  11.237   8.018
49097SOL    HW247318   7.990  11.319   7.905
49098SOL     OW47319   8.882  12.360   7.489
49098SOL    HW147320   8.914  12.284   7.546
49098SOL    HW247321   8.790  12.387   7.519
49099SOL     OW47322   7.745  11.207   7.619
49099SOL    HW147323   7.794  11.291   7.598
49099SOL    HW247324   7.807  11.142   7.664
49100SOL     OW47325   8.383  11.408   7.928
49100SOL    HW147326   8.335  11.449   7.850
49100SOL    HW247327   8.482  11.406   7.909
49101SOL     OW47328   8.524  11.855   8.912
49101SOL    HW147329   8.444  11.794   8.915
49101SOL    HW247330   8.605  11.802   8.888
49102SOL     OW47331   8.675  12.742   8.241
49102SOL    HW147332   8.696  12.816   8.176
49102SOL    HW247333   8.743  12.742   8.314
49103SOL     OW47334   7.907  12.324   8.189
49103SOL    HW147335   7.836  12.297   8.254
49103SOL    HW247336   7.881  12.296   8.096
49104SOL     OW47337   8.480  11.721   7.464
49104SOL    HW147338   8.439  11.803   7.425
49104SOL    HW247339   8.544  11.747   7.537
49105SOL     OW47340   7.526  11.728   8.834
49105SOL    HW147341   7.618  11.727   8.793
49105SOL    HW247342   7.520  11.802   8.901
49106SOL     OW47343   8.009  11.394   8.595
49106SOL    HW147344   8.047  11.310   8.632
49106SOL    HW247345   7.921  11.413   8.639
49107SOL     OW47346   8.314  11.626   8.090
49107SOL    HW147347   8.282  11.698   8.028
49107SOL    HW247348   8.338  11.545   8.037
49108SOL     OW47349   8.465  11.211   8.201
49108SOL    HW147350   8.393  11.216   8.132
49108SOL    HW247351   8.441  11.142   8.270
49109SOL     OW47352   8.877  12.345   8.315
49109SOL    HW147353   8.822  12.261   8.308
49109SOL    HW247354   8.903  12.374   8.223
49110SOL     OW47355   8.914  11.762   8.440
49110SOL    HW147356   8.884  11.667   8.447
49110SOL    HW247357   8.987  11.778   8.506
49111SOL     OW47358   9.305  12.005   7.825
49111SOL    HW147359   9.347  11.941   7.889
49111SOL    HW247360   9.267  11.954   7.747
49112SOL     OW47361   7.936  12.557   7.622
49112SOL    HW147362   7.849  12.542   7.669
49112SOL    HW247363   7.919  12.583   7.527
49113SOL     OW47364   9.112  12.452   8.105
49113SOL    HW147365   9.211  12.460   8.119
49113SOL    HW247366   9.067  12.536   8.136
49114SOL     OW47367   8.838  11.747   7.526
49114SOL    HW147368   8.784  11.726   7.607
49114SOL    HW247369   8.929  11.706   7.535
49115SOL     OW47370   7.975  11.428   7.776
49115SOL    HW147371   8.002  11.369   7.701
49115SOL    HW247372   7.975  11.523   7.745
49116SOL     OW47373   9.202  12.395   9.036
49116SOL    HW147374   9.293  12.356   9.023
49116SOL    HW247375   9.210  12.491   9.060
49117SOL     OW47376   8.512  12.519   8.788
49117SOL    HW147377   8.432  12.496   8.843
49117SOL    HW247378   8.595  12.493   8.837
49118SOL     OW47379   8.559  12.367   8.548
49118SOL    HW147380   8.519  12.411   8.629
49118SOL    HW247381   8.518  12.404   8.465
49119SOL     OW47382   9.086  12.271   8.527
49119SOL    HW147383   9.091  12.352   8.586
49119SOL    HW247384   9.000  12.273   8.476
49120SOL     OW47385   8.363  11.261   8.850
49120SOL    HW147386   8.388  11.241   8.755
49120SOL    HW247387   8.435  11.317   8.892
49121SOL     OW47388   8.428  12.288   9.167
49121SOL    HW147389   8.329  12.294   9.177
49121SOL    HW247390   8.451  12.208   9.111
49122SOL     OW47391   8.153  12.222   7.816
49122SOL    HW147392   8.139  12.229   7.915
49122SOL    HW247393   8.237  12.171   7.798
49123SOL     OW47394   7.858  11.985   8.699
49123SOL    HW147395   7.944  11.997   8.749
49123SOL    HW247396   7.816  11.898   8.726
49124SOL     OW47397   8.722  11.558   8.710
49124SOL    HW147398   8.743  11.632   8.774
49124SOL    HW247399   8.633  11.575   8.667
49125SOL     OW47400   7.815  12.272   7.949
49125SOL    HW147401   7.808  12.355   7.893
49125SOL    HW247402   7.819  12.192   7.889
49126SOL     OW47403   8.014  11.709   8.313
49126SOL    HW147404   8.026  11.775   8.239
49126SOL    HW247405   8.060  11.743   8.396
49127SOL     OW47406   8.700  12.520   7.836
49127SOL    HW147407   8.750  12.597   7.876
49127SOL    HW247408   8.605  12.522   7.868
49128SOL     OW47409   8.720  12.617   8.590
49128SOL    HW147410   8.767  12.630   8.677
49128SOL    HW247411   8.654  12.543   8.599
49129SOL     OW47412   9.030  11.811   7.920
49129SOL    HW147413   8.999  11.872   7.993
49129SOL    HW247414   9.080  11.863   7.851
49130SOL     OW47415   7.802  12.682   8.777
49130SOL    HW147416   7.781  12.638   8.690
49130SOL    HW247417   7.899  12.708   8.780
49131SOL     OW47418   7.850  11.923   9.046
49131SOL    HW147419   7.918  11.978   8.999
49131SOL    HW247420   7.890  11.835   9.073
49132SOL     OW47421   9.035  11.951   9.118
49132SOL    HW147422   8.943  11.989   9.113
49132SOL    HW247423   9.095  11.998   9.053
49133SOL     OW47424   8.461  11.277   9.218
49133SOL    HW147425   8.467  11.362   9.166
49133SOL    HW247426   8.493  11.201   9.161
49134SOL     OW47427   7.952  11.222   9.188
49134SOL    HW147428   7.910  11.165   9.118
49134SOL    HW247429   7.886  11.291   9.220
49135SOL     OW47430   8.021  12.042   8.477
49135SOL    HW147431   8.065  12.131   8.468
49135SOL    HW247432   7.958  12.042   8.554
49136SOL     OW47433   8.808  12.034   8.493
49136SOL    HW147434   8.733  12.034   8.427
49136SOL    HW247435   8.845  11.942   8.502
49137SOL     OW47436   8.657  11.697   7.723
49137SOL    HW147437   8.670  11.613   7.777
49137SOL    HW247438   8.628  11.771   7.783
49138SOL     OW47439   7.755  11.385   8.679
49138SOL    HW147440   7.732  11.422   8.769
49138SOL    HW247441   7.725  11.290   8.673
49139SOL     OW47442   7.485  12.482   8.730
49139SOL    HW147443   7.538  12.433   8.798
49139SOL    HW247444   7.507  12.580   8.735
49140SOL     OW47445   8.180  11.806   8.512
49140SOL    HW147446   8.239  11.780   8.436
49140SOL    HW247447   8.152  11.902   8.501
49141SOL     OW47448   9.176  12.107   9.302
49141SOL    HW147449   9.130  12.100   9.213
49141SOL    HW247450   9.114  12.151   9.368
49142SOL     OW47451   7.755  11.235   8.066
49142SOL    HW147452   7.744  11.329   8.099
49142SOL    HW247453   7.750  11.172   8.143
49143SOL     OW47454   9.070  11.539   7.822
49143SOL    HW147455   9.072  11.463   7.886
49143SOL    HW247456   9.022  11.616   7.862
49144SOL     OW47457   8.471  11.938   8.414
49144SOL    HW147458   8.486  11.959   8.510
49144SOL    HW247459   8.441  11.843   8.405
49145SOL     OW47460   9.307  12.690   9.053
49145SOL    HW147461   9.321  12.717   8.958
49145SOL    HW247462   9.390  12.712   9.106
49146SOL     OW47463   7.798  12.070   9.252
49146SOL    HW147464   7.874  12.114   9.300
49146SOL    HW247465   7.833  12.023   9.170
49147SOL     OW47466   8.988  11.446   7.573
49147SOL    HW147467   8.927  11.371   7.596
49147SOL    HW247468   9.010  11.498   7.656
49148SOL     OW47469   8.751  12.010   7.490
49148SOL    HW147470   8.785  11.917   7.505
49148SOL    HW247471   8.769  12.037   7.395
49149SOL     OW47472   8.516  12.505   8.297
49149SOL    HW147473   8.523  12.421   8.242
49149SOL    HW247474   8.578  12.574   8.261
49150SOL     OW47475   7.767  11.982   8.397
49150SOL    HW147476   7.860  12.018   8.402
49150SOL    HW247477   7.761  11.897   8.449
49151SOL     OW47478   7.787  11.681   8.454
49151SOL    HW147479   7.735  11.598   8.437
49151SOL    HW247480   7.864  11.686   8.390
49152SOL     OW47481   8.586  11.552   9.126
49152SOL    HW147482   8.541  11.615   9.190
49152SOL    HW247483   8.679  11.583   9.109
49153SOL     OW47484   8.608  11.379   8.925
49153SOL    HW147485   8.608  11.443   9.002
49153SOL    HW247486   8.636  11.427   8.842
49154SOL     OW47487   7.456  12.498   7.648
49154SOL    HW147488   7.363  12.519   7.617
49154SOL    HW247489   7.466  12.399   7.661
49155SOL     OW47490   8.450  11.968   8.686
49155SOL    HW147491   8.491  11.936   8.772
49155SOL    HW247492   8.354  11.941   8.683
49156SOL     OW47493   7.488  11.716   8.562
49156SOL    HW147494   7.573  11.683   8.521
49156SOL    HW247495   7.501  11.731   8.660
49157SOL     OW47496   7.637  11.692   9.170
49157SOL    HW147497   7.696  11.652   9.100
49157SOL    HW247498   7.579  11.763   9.129
49158SOL     OW47499   8.817  12.122   9.108
49158SOL    HW147500   8.856  12.211   9.128
49158SOL    HW247501   8.827  12.102   9.011
49159SOL     OW47502   8.263  11.744   7.773
49159SOL    HW147503   8.270  11.655   7.727
49159SOL    HW247504   8.169  11.778   7.765
49160SOL     OW47505   9.105  11.776   8.654
49160SOL    HW147506   9.067  11.707   8.716
49160SOL    HW247507   9.187  11.740   8.610
49161SOL     OW47508   7.700  12.736   9.192
49161SOL    HW147509   7.670  12.793   9.268
49161SOL    HW247510   7.693  12.639   9.218
49162SOL     OW47511   8.119  11.636   8.717
49162SOL    HW147512   8.085  11.547   8.687
49162SOL    HW247513   8.145  11.690   8.637
49163SOL     OW47514   7.921  11.672   7.639
49163SOL    HW147515   7.982  11.752   7.643
49163SOL    HW247516   7.826  11.703   7.646
49164SOL     OW47517   7.607  12.309   8.914
49164SOL    HW147518   7.629  12.248   8.990
49164SOL    HW247519   7.617  12.260   8.828
49165SOL     OW47520   8.795  12.231   8.682
49165SOL    HW147521   8.819  12.168   8.608
49165SOL    HW247522   8.705  12.271   8.664
49166SOL     OW47523   8.750  12.027   7.757
49166SOL    HW147524   8.664  11.996   7.799
49166SOL    HW247525   8.746  12.013   7.658
49167SOL     OW47526   7.531  12.430   8.470
49167SOL    HW147527   7.526  12.429   8.570
49167SOL    HW247528   7.448  12.389   8.432
49168SOL     OW47529   9.174  11.307   7.971
49168SOL    HW147530   9.247  11.290   7.904
49168SOL    HW247531   9.143  11.220   8.009
49169SOL     OW47532   8.728  12.099   8.120
49169SOL    HW147533   8.788  12.018   8.122
49169SOL    HW247534   8.768  12.168   8.060
49170SOL     OW47535   8.278  12.445   8.870
49170SOL    HW147536   8.273  12.478   8.965
49170SOL    HW247537   8.192  12.464   8.824
49171SOL     OW47538   9.289  11.347   8.411
49171SOL    HW147539   9.328  11.262   8.375
49171SOL    HW247540   9.191  11.349   8.392
49172SOL     OW47541   7.711  11.498   8.168
49172SOL    HW147542   7.632  11.549   8.134
49172SOL    HW247543   7.702  11.483   8.266
49173SOL     OW47544   8.270  12.174   8.820
49173SOL    HW147545   8.310  12.173   8.728
49173SOL    HW247546   8.280  12.266   8.860
49174SOL     OW47547   8.364  12.082   7.739
49174SOL    HW147548   8.427  12.120   7.671
49174SOL    HW247549   8.404  11.999   7.778
49175SOL     OW47550   7.820  12.460   8.938
49175SOL    HW147551   7.807  12.553   8.904
49175SOL    HW247552   7.736  12.408   8.925
49176SOL     OW47553   9.062  12.464   8.737
49176SOL    HW147554   9.122  12.467   8.817
49176SOL    HW247555   8.987  12.528   8.750
49177SOL     OW47556   8.487  12.270   8.144
49177SOL    HW147557   8.417  12.223   8.198
49177SOL    HW247558   8.546  12.202   8.101
49178SOL     OW47559   8.462  11.408   8.419
49178SOL    HW147560   8.454  11.372   8.326
49178SOL    HW247561   8.460  11.332   8.484
49179SOL     OW47562   9.157  11.557   8.829
49179SOL    HW147563   9.230  11.626   8.833
49179SOL    HW247564   9.185  11.482   8.770
49180SOL     OW47565   7.703  12.520   7.738
49180SOL    HW147566   7.607  12.521   7.711
49180SOL    HW247567   7.715  12.573   7.822
49181SOL     OW47568   7.553  12.185   9.174
49181SOL    HW147569   7.476  12.152   9.228
49181SOL    HW247570   7.638  12.155   9.216
49182SOL     OW47571   8.120  11.375   8.937
49182SOL    HW147572   8.210  11.359   8.897
49182SOL    HW247573   8.128  11.380   9.036
49183SOL     OW47574   7.523  11.517   7.481
49183SOL    HW147575   7.431  11.489   7.452
49183SOL    HW247576   7.554  11.594   7.425
49184SOL     OW47577   8.888  12.028   8.846
49184SOL    HW147578   8.831  12.080   8.783
49184SOL    HW247579   8.984  12.040   8.822
49185SOL     OW47580   7.520  11.338   7.766
49185SOL    HW147581   7.503  11.421   7.712
49185SOL    HW247582   7.610  11.301   7.744
49186SOL     OW47583   8.631  12.507   7.567
49186SOL    HW147584   8.532  12.496   7.569
49186SOL    HW247585   8.665  12.522   7.660
49187SOL     OW47586   8.061  12.014   8.879
49187SOL    HW147587   8.117  12.095   8.862
49187SOL    HW247588   8.120  11.934   8.882
49188SOL     OW47589   8.164  11.737   9.156
49188SOL    HW147590   8.183  11.802   9.230
49188SOL    HW247591   8.224  11.657   9.165
49189SOL     OW47592   8.898  12.392   9.081
49189SOL    HW147593   8.889  12.382   9.180
49189SOL    HW247594   8.994  12.385   9.055
49190SOL     OW47595   9.122  12.055   8.702
49190SOL    HW147596   9.095  11.966   8.665
49190SOL    HW247597   9.123  12.123   8.629
49191SOL     OW47598   8.673  11.497   7.897
49191SOL    HW147599   8.738  11.423   7.886
49191SOL    HW247600   8.693  11.547   7.981
49192SOL     OW47601   8.042  11.917   8.100
49192SOL    HW147602   8.092  12.002   8.081
49192SOL    HW247603   7.954  11.919   8.052
49193SOL     OW47604   9.225  11.514   9.090
49193SOL    HW147605   9.208  11.545   8.996
49193SOL    HW247606   9.141  11.477   9.128
49194SOL     OW47607   9.178  12.106   8.965
49194SOL    HW147608   9.216  12.197   8.980
49194SOL    HW247609   9.170  12.089   8.866
49195SOL     OW47610   8.307  12.546   7.464
49195SOL    HW147611   8.261  12.561   7.552
49195SOL    HW247612   8.351  12.631   7.434
49196SOL     OW47613   8.307  12.128   8.309
49196SOL    HW147614   8.361  12.059   8.357
49196SOL    HW247615   8.275  12.197   8.375
49197SOL     OW47616   8.531  12.156   7.535
49197SOL    HW147617   8.508  12.209   7.453
49197SOL    HW247618   8.612  12.100   7.516
49198SOL     OW47619   7.669  12.486   9.292
49198SOL    HW147620   7.604  12.413   9.271
49198SOL    HW247621   7.673  12.500   9.390
49199SOL     OW47622   7.527  12.412   8.101
49199SOL    HW147623   7.526  12.365   8.189
49199SOL    HW247624   7.609  12.384   8.050
49200SOL     OW47625   8.120  12.563   9.072
49200SOL    HW147626   8.042  12.513   9.110
49200SOL    HW247627   8.117  12.658   9.103
49201SOL     OW47628   9.272  11.364   8.675
49201SOL    HW147629   9.268  11.274   8.719
49201SOL    HW247630   9.275  11.353   8.576
49202SOL     OW47631   7.876  11.596   7.968
49202SOL    HW147632   7.906  11.524   7.906
49202SOL    HW247633   7.837  11.556   8.051
49203SOL     OW47634   9.153  12.659   8.552
49203SOL    HW147635   9.060  12.634   8.525
49203SOL    HW247636   9.179  12.609   8.634
49204SOL     OW47637   7.765  11.719   8.728
49204SOL    HW147638   7.803  11.660   8.800
49204SOL    HW247639   7.805  11.693   8.640
49205SOL     OW47640   8.872  11.386   8.560
49205SOL    HW147641   8.924  11.321   8.615
49205SOL    HW247642   8.823  11.449   8.621
49206SOL     OW47643   8.449  11.206   8.602
49206SOL    HW147644   8.386  11.134   8.571
49206SOL    HW247645   8.542  11.170   8.602
49207SOL     OW47646   8.218  12.502   7.749
49207SOL    HW147647   8.172  12.415   7.766
49207SOL    HW247648   8.309  12.499   7.790
49208SOL     OW47649   8.066  12.739   8.732
49208SOL    HW147650   8.061  12.821   8.789
49208SOL    HW247651   8.155  12.736   8.687
49209SOL     OW47652   8.800  11.224   7.616
49209SOL    HW147653   8.835  11.183   7.532
49209SOL    HW247654   8.710  11.186   7.636
49210SOL     OW47655   8.748  11.625   8.139
49210SOL    HW147656   8.689  11.705   8.143
49210SOL    HW247657   8.763  11.590   8.232
49211SOL     OW47658   9.041  11.393   8.330
49211SOL    HW147659   8.957  11.392   8.384
49211SOL    HW247660   9.043  11.476   8.274
49212SOL     OW47661   7.487  12.249   7.748
49212SOL    HW147662   7.586  12.238   7.739
49212SOL    HW247663   7.447  12.163   7.780
49213SOL     OW47664   7.678  11.800   9.423
49213SOL    HW147665   7.585  11.798   9.460
49213SOL    HW247666   7.679  11.761   9.331
49214SOL     OW47667   7.673  11.447  10.306
49214SOL    HW147668   7.708  11.430  10.398
49214SOL    HW247669   7.585  11.402  10.294
49215SOL     OW47670   7.467  11.540   9.957
49215SOL    HW147671   7.385  11.583   9.996
49215SOL    HW247672   7.439  11.467   9.894
49216SOL     OW47673   8.017  12.447  10.475
49216SOL    HW147674   7.924  12.440  10.438
49216SOL    HW247675   8.028  12.536  10.519
49217SOL     OW47676   9.003  12.683  10.013
49217SOL    HW147677   8.946  12.667  10.094
49217SOL    HW247678   8.944  12.693   9.933
49218SOL     OW47679   8.583  11.875  10.027
49218SOL    HW147680   8.640  11.953  10.002
49218SOL    HW247681   8.523  11.901  10.103
49219SOL     OW47682   9.203  11.779   9.541
49219SOL    HW147683   9.191  11.766   9.442
49219SOL    HW247684   9.173  11.698   9.590
49220SOL     OW47685   8.216  12.316  10.333
49220SOL    HW147686   8.138  12.333  10.393
49220SOL    HW247687   8.250  12.403  10.297
49221SOL     OW47688   8.298  11.970  11.133
49221SOL    HW147689   8.294  12.046  11.198
49221SOL    HW247690   8.320  12.006  11.042
49222SOL     OW47691   8.133  12.184   9.975
49222SOL    HW147692   8.202  12.168  10.045
49222SOL    HW247693   8.060  12.241  10.013
49223SOL     OW47694   8.134  12.333  11.113
49223SOL    HW147695   8.194  12.412  11.127
49223SOL    HW247696   8.048  12.364  11.072
49224SOL     OW47697   7.783  12.607  10.371
49224SOL    HW147698   7.705  12.576  10.318
49224SOL    HW247699   7.841  12.665  10.314
49225SOL     OW47700   8.908  12.677  10.649
49225SOL    HW147701   8.932  12.771  10.675
49225SOL    HW247702   8.892  12.623  10.731
49226SOL     OW47703   7.886  11.564  10.809
49226SOL    HW147704   7.968  11.508  10.818
49226SOL    HW247705   7.805  11.506  10.813
49227SOL     OW47706   9.051  11.619  10.047
49227SOL    HW147707   8.977  11.665   9.997
49227SOL    HW247708   9.102  11.687  10.100
49228SOL     OW47709   7.679  12.885   9.793
49228SOL    HW147710   7.713  12.962   9.847
49228SOL    HW247711   7.723  12.885   9.703
49229SOL     OW47712   8.575  12.513  11.000
49229SOL    HW147713   8.622  12.513  11.088
49229SOL    HW247714   8.527  12.426  10.989
49230SOL     OW47715   7.678  12.606   9.848
49230SOL    HW147716   7.652  12.702   9.848
49230SOL    HW247717   7.607  12.552   9.893
49231SOL     OW47718   7.688  12.263  10.196
49231SOL    HW147719   7.702  12.179  10.248
49231SOL    HW247720   7.633  12.327  10.251
49232SOL     OW47721   8.054  12.136   9.433
49232SOL    HW147722   8.061  12.220   9.379
49232SOL    HW247723   8.100  12.149   9.521
49233SOL     OW47724   9.042  11.286  10.790
49233SOL    HW147725   9.024  11.353  10.718
49233SOL    HW247726   9.039  11.332  10.879
49234SOL     OW47727   7.570  11.815   9.873
49234SOL    HW147728   7.525  11.727   9.890
49234SOL    HW247729   7.569  11.869   9.957
49235SOL     OW47730   7.475  12.768   9.427
49235SOL    HW147731   7.456  12.672   9.448
49235SOL    HW247732   7.442  12.826   9.502
49236SOL     OW47733   9.137  12.094   9.922
49236SOL    HW147734   9.232  12.065   9.930
49236SOL    HW247735   9.129  12.159   9.847
49237SOL     OW47736   9.089  12.280   9.742
49237SOL    HW147737   9.175  12.282   9.690
49237SOL    HW247738   9.103  12.327   9.830
49238SOL     OW47739   7.561  11.909  10.907
49238SOL    HW147740   7.649  11.896  10.952
49238SOL    HW247741   7.548  12.006  10.885
49239SOL     OW47742   8.061  12.537  10.036
49239SOL    HW147743   8.012  12.450  10.045
49239SOL    HW247744   8.038  12.580   9.949
49240SOL     OW47745   8.741  12.400  10.733
49240SOL    HW147746   8.778  12.327  10.675
49240SOL    HW247747   8.793  12.405  10.818
49241SOL     OW47748   8.257  11.176   9.812
49241SOL    HW147749   8.297  11.267   9.803
49241SOL    HW247750   8.157  11.184   9.818
49242SOL     OW47751   7.645  12.148  10.574
49242SOL    HW147752   7.734  12.103  10.560
49242SOL    HW247753   7.572  12.083  10.555
49243SOL     OW47754   8.973  12.171   9.500
49243SOL    HW147755   8.910  12.095   9.513
49243SOL    HW247756   9.021  12.189   9.586
49244SOL     OW47757   7.765  11.423  11.111
49244SOL    HW147758   7.836  11.494  11.117
49244SOL    HW247759   7.677  11.462  11.139
49245SOL     OW47760   8.914  12.589  10.263
49245SOL    HW147761   8.855  12.595  10.343
49245SOL    HW247762   8.899  12.501  10.217
49246SOL     OW47763   8.046  11.901   9.580
49246SOL    HW147764   8.070  11.970   9.512
49246SOL    HW247765   7.968  11.934   9.634
49247SOL     OW47766   8.729  11.517  10.254
49247SOL    HW147767   8.643  11.467  10.241
49247SOL    HW247768   8.791  11.463  10.310
49248SOL     OW47769   8.255  11.777  10.775
49248SOL    HW147770   8.208  11.774  10.864
49248SOL    HW247771   8.204  11.722  10.709
49249SOL     OW47772   8.842  11.641  10.984
49249SOL    HW147773   8.822  11.684  11.072
49249SOL    HW247774   8.920  11.579  10.993
49250SOL     OW47775   8.421  12.062  10.882
49250SOL    HW147776   8.467  11.978  10.853
49250SOL    HW247777   8.365  12.096  10.807
49251SOL     OW47778   8.439  11.582  10.552
49251SOL    HW147779   8.362  11.616  10.606
49251SOL    HW247780   8.405  11.531  10.473
49252SOL     OW47781   8.489  11.873   9.739
49252SOL    HW147782   8.515  11.869   9.835
49252SOL    HW247783   8.404  11.822   9.725
49253SOL     OW47784   7.524  11.983  10.099
49253SOL    HW147785   7.623  11.971  10.108
49253SOL    HW247786   7.500  12.078  10.120
49254SOL     OW47787   8.313  11.520   9.505
49254SOL    HW147788   8.372  11.583   9.456
49254SOL    HW247789   8.332  11.426   9.476
49255SOL     OW47790   9.167  11.757  11.141
49255SOL    HW147791   9.141  11.846  11.105
49255SOL    HW247792   9.165  11.689  11.068
49256SOL     OW47793   8.810  12.316   9.855
49256SOL    HW147794   8.893  12.287   9.807
49256SOL    HW247795   8.761  12.383   9.799
49257SOL     OW47796   7.998  11.368  10.195
49257SOL    HW147797   7.993  11.363  10.295
49257SOL    HW247798   8.000  11.464  10.166
49258SOL     OW47799   8.456  12.628   9.787
49258SOL    HW147800   8.410  12.700   9.735
49258SOL    HW247801   8.452  12.648   9.885
49259SOL     OW47802   9.243  12.238  10.183
49259SOL    HW147803   9.181  12.223  10.107
49259SOL    HW247804   9.191  12.249  10.268
49260SOL     OW47805   8.675  12.722  10.816
49260SOL    HW147806   8.681  12.645  10.880
49260SOL    HW247807   8.623  12.696  10.736
49261SOL     OW47808   7.769  12.115   9.552
49261SOL    HW147809   7.851  12.154   9.510
49261SOL    HW247810   7.742  12.033   9.503
49262SOL     OW47811   8.906  11.907  10.038
49262SOL    HW147812   8.901  11.842  10.113
49262SOL    HW247813   8.986  11.966  10.051
49263SOL     OW47814   7.909  12.438  11.037
49263SOL    HW147815   7.859  12.439  10.951
49263SOL    HW247816   7.846  12.420  11.113
49264SOL     OW47817   8.559  12.948   9.547
49264SOL    HW147818   8.499  12.886   9.597
49264SOL    HW247819   8.590  12.904   9.462
49265SOL     OW47820   7.650  11.457  10.808
49265SOL    HW147821   7.570  11.517  10.795
49265SOL    HW247822   7.640  11.408  10.894
49266SOL     OW47823   9.080  12.549   9.391
49266SOL    HW147824   9.048  12.643   9.381
49266SOL    HW247825   9.004  12.486   9.379
49267SOL     OW47826   8.848  11.279   9.736
49267SOL    HW147827   8.824  11.242   9.646
49267SOL    HW247828   8.947  11.295   9.740
49268SOL     OW47829   7.830  11.872   9.790
49268SOL    HW147830   7.875  11.782   9.787
49268SOL    HW247831   7.736  11.861   9.823
49269SOL     OW47832   8.995  11.394  11.039
49269SOL    HW147833   8.990  11.431  11.131
49269SOL    HW247834   8.923  11.325  11.027
49270SOL     OW47835   8.062  11.294   9.427
49270SOL    HW147836   8.160  11.272   9.434
49270SOL    HW247837   8.031  11.277   9.334
49271SOL     OW47838   8.229  11.436  11.059
49271SOL    HW147839   8.296  11.375  11.102
49271SOL    HW247840   8.156  11.455  11.124
49272SOL     OW47841   8.799  11.762  10.743
49272SOL    HW147842   8.827  11.719  10.828
49272SOL    HW247843   8.824  11.858  10.744
49273SOL     OW47844   8.251  12.574  10.234
49273SOL    HW147845   8.341  12.588  10.192
49273SOL    HW247846   8.180  12.576  10.163
49274SOL     OW47847   8.370  11.675  10.209
49274SOL    HW147848   8.345  11.666  10.113
49274SOL    HW247849   8.418  11.593  10.240
49275SOL     OW47850   7.987  11.236   9.822
49275SOL    HW147851   7.906  11.237   9.880
49275SOL    HW247852   7.990  11.319   9.767
49276SOL     OW47853   8.882  12.360   9.351
49276SOL    HW147854   8.914  12.284   9.408
49276SOL    HW247855   8.790  12.387   9.381
49277SOL     OW47856   7.745  11.207   9.481
49277SOL    HW147857   7.794  11.291   9.460
49277SOL    HW247858   7.807  11.142   9.526
49278SOL     OW47859   8.383  11.408   9.790
49278SOL    HW147860   8.335  11.449   9.712
49278SOL    HW247861   8.482  11.406   9.771
49279SOL     OW47862   8.524  11.855  10.774
49279SOL    HW147863   8.444  11.794  10.777
49279SOL    HW247864   8.605  11.802  10.750
49280SOL     OW47865   8.675  12.742  10.103
49280SOL    HW147866   8.696  12.816  10.038
49280SOL    HW247867   8.743  12.742  10.176
49281SOL     OW47868   7.907  12.324  10.051
49281SOL    HW147869   7.836  12.297  10.116
49281SOL    HW247870   7.881  12.296   9.958
49282SOL     OW47871   8.480  11.721   9.326
49282SOL    HW147872   8.439  11.803   9.287
49282SOL    HW247873   8.544  11.747   9.399
49283SOL     OW47874   7.526  11.728  10.696
49283SOL    HW147875   7.618  11.727  10.655
49283SOL    HW247876   7.520  11.802  10.763
49284SOL     OW47877   8.009  11.394  10.457
49284SOL    HW147878   8.047  11.310  10.494
49284SOL    HW247879   7.921  11.413  10.501
49285SOL     OW47880   8.314  11.626   9.952
49285SOL    HW147881   8.282  11.698   9.890
49285SOL    HW247882   8.338  11.545   9.899
49286SOL     OW47883   8.465  11.211  10.063
49286SOL    HW147884   8.393  11.216   9.994
49286SOL    HW247885   8.441  11.142  10.132
49287SOL     OW47886   8.877  12.345  10.177
49287SOL    HW147887   8.822  12.261  10.170
49287SOL    HW247888   8.903  12.374  10.085
49288SOL     OW47889   8.914  11.762  10.302
49288SOL    HW147890   8.884  11.667  10.309
49288SOL    HW247891   8.987  11.778  10.368
49289SOL     OW47892   9.305  12.005   9.687
49289SOL    HW147893   9.347  11.941   9.751
49289SOL    HW247894   9.267  11.954   9.609
49290SOL     OW47895   7.936  12.557   9.484
49290SOL    HW147896   7.849  12.542   9.531
49290SOL    HW247897   7.919  12.583   9.389
49291SOL     OW47898   9.112  12.452   9.967
49291SOL    HW147899   9.211  12.460   9.981
49291SOL    HW247900   9.067  12.536   9.998
49292SOL     OW47901   8.838  11.747   9.388
49292SOL    HW147902   8.784  11.726   9.469
49292SOL    HW247903   8.929  11.706   9.397
49293SOL     OW47904   7.975  11.428   9.638
49293SOL    HW147905   8.002  11.369   9.563
49293SOL    HW247906   7.975  11.523   9.607
49294SOL     OW47907   9.202  12.395  10.898
49294SOL    HW147908   9.293  12.356  10.885
49294SOL    HW247909   9.210  12.491  10.922
49295SOL     OW47910   8.512  12.519  10.650
49295SOL    HW147911   8.432  12.496  10.705
49295SOL    HW247912   8.595  12.493  10.699
49296SOL     OW47913   8.559  12.367  10.410
49296SOL    HW147914   8.519  12.411  10.491
49296SOL    HW247915   8.518  12.404  10.327
49297SOL     OW47916   9.086  12.271  10.389
49297SOL    HW147917   9.091  12.352  10.448
49297SOL    HW247918   9.000  12.273  10.338
49298SOL     OW47919   8.363  11.261  10.712
49298SOL    HW147920   8.388  11.241  10.617
49298SOL    HW247921   8.435  11.317  10.754
49299SOL     OW47922   8.428  12.288  11.029
49299SOL    HW147923   8.329  12.294  11.039
49299SOL    HW247924   8.451  12.208  10.973
49300SOL     OW47925   8.153  12.222   9.678
49300SOL    HW147926   8.139  12.229   9.777
49300SOL    HW247927   8.237  12.171   9.660
49301SOL     OW47928   7.858  11.985  10.561
49301SOL    HW147929   7.944  11.997  10.611
49301SOL    HW247930   7.816  11.898  10.588
49302SOL     OW47931   8.722  11.558  10.572
49302SOL    HW147932   8.743  11.632  10.636
49302SOL    HW247933   8.633  11.575  10.529
49303SOL     OW47934   7.815  12.272   9.811
49303SOL    HW147935   7.808  12.355   9.755
49303SOL    HW247936   7.819  12.192   9.751
49304SOL     OW47937   8.014  11.709  10.175
49304SOL    HW147938   8.026  11.775  10.101
49304SOL    HW247939   8.060  11.743  10.258
49305SOL     OW47940   8.700  12.520   9.698
49305SOL    HW147941   8.750  12.597   9.738
49305SOL    HW247942   8.605  12.522   9.730
49306SOL     OW47943   8.720  12.617  10.452
49306SOL    HW147944   8.767  12.630  10.539
49306SOL    HW247945   8.654  12.543  10.461
49307SOL     OW47946   9.030  11.811   9.782
49307SOL    HW147947   8.999  11.872   9.855
49307SOL    HW247948   9.080  11.863   9.713
49308SOL     OW47949   7.802  12.682  10.639
49308SOL    HW147950   7.781  12.638  10.552
49308SOL    HW247951   7.899  12.708  10.642
49309SOL     OW47952   7.850  11.923  10.908
49309SOL    HW147953   7.918  11.978  10.861
49309SOL    HW247954   7.890  11.835  10.935
49310SOL     OW47955   9.035  11.951  10.980
49310SOL    HW147956   8.943  11.989  10.975
49310SOL    HW247957   9.095  11.998  10.915
49311SOL     OW47958   8.461  11.277  11.080
49311SOL    HW147959   8.467  11.362  11.028
49311SOL    HW247960   8.493  11.201  11.023
49312SOL     OW47961   7.952  11.222  11.050
49312SOL    HW147962   7.910  11.165  10.980
49312SOL    HW247963   7.886  11.291  11.082
49313SOL     OW47964   8.021  12.042  10.339
49313SOL    HW147965   8.065  12.131  10.330
49313SOL    HW247966   7.958  12.042  10.416
49314SOL     OW47967   8.808  12.034  10.355
49314SOL    HW147968   8.733  12.034  10.289
49314SOL    HW247969   8.845  11.942  10.364
49315SOL     OW47970   8.657  11.697   9.585
49315SOL    HW147971   8.670  11.613   9.639
49315SOL    HW247972   8.628  11.771   9.645
49316SOL     OW47973   7.755  11.385  10.541
49316SOL    HW147974   7.732  11.422  10.631
49316SOL    HW247975   7.725  11.290  10.535
49317SOL     OW47976   7.485  12.482  10.592
49317SOL    HW147977   7.538  12.433  10.660
49317SOL    HW247978   7.507  12.580  10.597
49318SOL     OW47979   8.180  11.806  10.374
49318SOL    HW147980   8.239  11.780  10.298
49318SOL    HW247981   8.152  11.902  10.363
49319SOL     OW47982   9.176  12.107  11.164
49319SOL    HW147983   9.130  12.100  11.075
49319SOL    HW247984   9.114  12.151  11.230
49320SOL     OW47985   7.755  11.235   9.928
49320SOL    HW147986   7.744  11.329   9.961
49320SOL    HW247987   7.750  11.172  10.005
49321SOL     OW47988   9.070  11.539   9.684
49321SOL    HW147989   9.072  11.463   9.748
49321SOL    HW247990   9.022  11.616   9.724
49322SOL     OW47991   8.471  11.938  10.276
49322SOL    HW147992   8.486  11.959  10.372
49322SOL    HW247993   8.441  11.843  10.267
49323SOL     OW47994   9.307  12.690  10.915
49323SOL    HW147995   9.321  12.717  10.820
49323SOL    HW247996   9.390  12.712  10.968
49324SOL     OW47997   7.798  12.070  11.114
49324SOL    HW147998   7.874  12.114  11.162
49324SOL    HW247999   7.833  12.023  11.032
49325SOL     OW48000   8.988  11.446   9.435
49325SOL    HW148001   8.927  11.371   9.458
49325SOL    HW248002   9.010  11.498   9.518
49326SOL     OW48003   8.751  12.010   9.352
49326SOL    HW148004   8.785  11.917   9.367
49326SOL    HW248005   8.769  12.037   9.257
49327SOL     OW48006   8.516  12.505  10.159
49327SOL    HW148007   8.523  12.421  10.104
49327SOL    HW248008   8.578  12.574  10.123
49328SOL     OW48009   7.767  11.982  10.259
49328SOL    HW148010   7.860  12.018  10.264
49328SOL    HW248011   7.761  11.897  10.311
49329SOL     OW48012   7.787  11.681  10.316
49329SOL    HW148013   7.735  11.598  10.299
49329SOL    HW248014   7.864  11.686  10.252
49330SOL     OW48015   8.586  11.552  10.988
49330SOL    HW148016   8.541  11.615  11.052
49330SOL    HW248017   8.679  11.583  10.971
49331SOL     OW48018   8.608  11.379  10.787
49331SOL    HW148019   8.608  11.443  10.864
49331SOL    HW248020   8.636  11.427  10.704
49332SOL     OW48021   7.456  12.498   9.510
49332SOL    HW148022   7.363  12.519   9.479
49332SOL    HW248023   7.466  12.399   9.523
49333SOL     OW48024   8.450  11.968  10.548
49333SOL    HW148025   8.491  11.936  10.634
49333SOL    HW248026   8.354  11.941  10.545
49334SOL     OW48027   7.488  11.716  10.424
49334SOL    HW148028   7.573  11.683  10.383
49334SOL    HW248029   7.501  11.731  10.522
49335SOL     OW48030   7.637  11.692  11.032
49335SOL    HW148031   7.696  11.652  10.962
49335SOL    HW248032   7.579  11.763  10.991
49336SOL     OW48033   8.817  12.122  10.970
49336SOL    HW148034   8.856  12.211  10.990
49336SOL    HW248035   8.827  12.102  10.873
49337SOL     OW48036   8.263  11.744   9.635
49337SOL    HW148037   8.270  11.655   9.589
49337SOL    HW248038   8.169  11.778   9.627
49338SOL     OW48039   9.105  11.776  10.516
49338SOL    HW148040   9.067  11.707  10.578
49338SOL    HW248041   9.187  11.740  10.472
49339SOL     OW48042   7.700  12.736  11.054
49339SOL    HW148043   7.670  12.793  11.130
49339SOL    HW248044   7.693  12.639  11.080
49340SOL     OW48045   8.119  11.636  10.579
49340SOL    HW148046   8.085  11.547  10.549
49340SOL    HW248047   8.145  11.690  10.499
49341SOL     OW48048   7.921  11.672   9.501
49341SOL    HW148049   7.982  11.752   9.505
49341SOL    HW248050   7.826  11.703   9.508
49342SOL     OW48051   7.607  12.309  10.776
49342SOL    HW148052   7.629  12.248  10.852
49342SOL    HW248053   7.617  12.260  10.690
49343SOL     OW48054   8.795  12.231  10.544
49343SOL    HW148055   8.819  12.168  10.470
49343SOL    HW248056   8.705  12.271  10.526
49344SOL     OW48057   8.750  12.027   9.619
49344SOL    HW148058   8.664  11.996   9.661
49344SOL    HW248059   8.746  12.013   9.520
49345SOL     OW48060   7.531  12.430  10.332
49345SOL    HW148061   7.526  12.429  10.432
49345SOL    HW248062   7.448  12.389  10.294
49346SOL     OW48063   9.174  11.307   9.833
49346SOL    HW148064   9.247  11.290   9.766
49346SOL    HW248065   9.143  11.220   9.871
49347SOL     OW48066   8.728  12.099   9.982
49347SOL    HW148067   8.788  12.018   9.984
49347SOL    HW248068   8.768  12.168   9.922
49348SOL     OW48069   8.278  12.445  10.732
49348SOL    HW148070   8.273  12.478  10.827
49348SOL    HW248071   8.192  12.464  10.686
49349SOL     OW48072   9.289  11.347  10.273
49349SOL    HW148073   9.328  11.262  10.237
49349SOL    HW248074   9.191  11.349  10.254
49350SOL     OW48075   7.711  11.498  10.030
49350SOL    HW148076   7.632  11.549   9.996
49350SOL    HW248077   7.702  11.483  10.128
49351SOL     OW48078   8.270  12.174  10.682
49351SOL    HW148079   8.310  12.173  10.590
49351SOL    HW248080   8.280  12.266  10.722
49352SOL     OW48081   8.364  12.082   9.601
49352SOL    HW148082   8.427  12.120   9.533
49352SOL    HW248083   8.404  11.999   9.640
49353SOL     OW48084   7.820  12.460  10.800
49353SOL    HW148085   7.807  12.553  10.766
49353SOL    HW248086   7.736  12.408  10.787
49354SOL     OW48087   9.062  12.464  10.599
49354SOL    HW148088   9.122  12.467  10.679
49354SOL    HW248089   8.987  12.528  10.612
49355SOL     OW48090   8.487  12.270  10.006
49355SOL    HW148091   8.417  12.223  10.060
49355SOL    HW248092   8.546  12.202   9.963
49356SOL     OW48093   8.462  11.408  10.281
49356SOL    HW148094   8.454  11.372  10.188
49356SOL    HW248095   8.460  11.332  10.346
49357SOL     OW48096   9.157  11.557  10.691
49357SOL    HW148097   9.230  11.626  10.695
49357SOL    HW248098   9.185  11.482  10.632
49358SOL     OW48099   7.703  12.520   9.600
49358SOL    HW148100   7.607  12.521   9.573
49358SOL    HW248101   7.715  12.573   9.684
49359SOL     OW48102   7.553  12.185  11.036
49359SOL    HW148103   7.476  12.152  11.090
49359SOL    HW248104   7.638  12.155  11.078
49360SOL     OW48105   8.120  11.375  10.799
49360SOL    HW148106   8.210  11.359  10.759
49360SOL    HW248107   8.128  11.380  10.898
49361SOL     OW48108   7.523  11.517   9.343
49361SOL    HW148109   7.431  11.489   9.314
49361SOL    HW248110   7.554  11.594   9.287
49362SOL     OW48111   8.888  12.028  10.708
49362SOL    HW148112   8.831  12.080  10.645
49362SOL    HW248113   8.984  12.040  10.684
49363SOL     OW48114   7.520  11.338   9.628
49363SOL    HW148115   7.503  11.421   9.574
49363SOL    HW248116   7.610  11.301   9.606
49364SOL     OW48117   8.631  12.507   9.429
49364SOL    HW148118   8.532  12.496   9.431
49364SOL    HW248119   8.665  12.522   9.522
49365SOL     OW48120   8.061  12.014  10.741
49365SOL    HW148121   8.117  12.095  10.724
49365SOL    HW248122   8.120  11.934  10.744
49366SOL     OW48123   8.164  11.737  11.018
49366SOL    HW148124   8.183  11.802  11.092
49366SOL    HW248125   8.224  11.657  11.027
49367SOL     OW48126   8.898  12.392  10.943
49367SOL    HW148127   8.889  12.382  11.042
49367SOL    HW248128   8.994  12.385  10.917
49368SOL     OW48129   9.122  12.055  10.564
49368SOL    HW148130   9.095  11.966  10.527
49368SOL    HW248131   9.123  12.123  10.491
49369SOL     OW48132   8.673  11.497   9.759
49369SOL    HW148133   8.738  11.423   9.748
49369SOL    HW248134   8.693  11.547   9.843
49370SOL     OW48135   8.042  11.917   9.962
49370SOL    HW148136   8.092  12.002   9.943
49370SOL    HW248137   7.954  11.919   9.914
49371SOL     OW48138   9.225  11.514  10.952
49371SOL    HW148139   9.208  11.545  10.858
49371SOL    HW248140   9.141  11.477  10.990
49372SOL     OW48141   9.178  12.106  10.827
49372SOL    HW148142   9.216  12.197  10.842
49372SOL    HW248143   9.170  12.089  10.728
49373SOL     OW48144   8.307  12.546   9.326
49373SOL    HW148145   8.261  12.561   9.414
49373SOL    HW248146   8.351  12.631   9.296
49374SOL     OW48147   8.307  12.128  10.171
49374SOL    HW148148   8.361  12.059  10.219
49374SOL    HW248149   8.275  12.197  10.237
49375SOL     OW48150   8.531  12.156   9.397
49375SOL    HW148151   8.508  12.209   9.315
49375SOL    HW248152   8.612  12.100   9.378
49376SOL     OW48153   7.669  12.486  11.154
49376SOL    HW148154   7.604  12.413  11.133
49376SOL    HW248155   7.673  12.500  11.252
49377SOL     OW48156   7.527  12.412   9.963
49377SOL    HW148157   7.526  12.365  10.051
49377SOL    HW248158   7.609  12.384   9.912
49378SOL     OW48159   8.120  12.563  10.934
49378SOL    HW148160   8.042  12.513  10.972
49378SOL    HW248161   8.117  12.658  10.965
49379SOL     OW48162   9.272  11.364  10.537
49379SOL    HW148163   9.268  11.274  10.581
49379SOL    HW248164   9.275  11.353  10.438
49380SOL     OW48165   7.876  11.596   9.830
49380SOL    HW148166   7.906  11.524   9.768
49380SOL    HW248167   7.837  11.556   9.913
49381SOL     OW48168   9.153  12.659  10.414
49381SOL    HW148169   9.060  12.634  10.387
49381SOL    HW248170   9.179  12.609  10.496
49382SOL     OW48171   7.765  11.719  10.590
49382SOL    HW148172   7.803  11.660  10.662
49382SOL    HW248173   7.805  11.693  10.502
49383SOL     OW48174   8.872  11.386  10.422
49383SOL    HW148175   8.924  11.321  10.477
49383SOL    HW248176   8.823  11.449  10.483
49384SOL     OW48177   8.449  11.206  10.464
49384SOL    HW148178   8.386  11.134  10.433
49384SOL    HW248179   8.542  11.170  10.464
49385SOL     OW48180   8.218  12.502   9.611
49385SOL    HW148181   8.172  12.415   9.628
49385SOL    HW248182   8.309  12.499   9.652
49386SOL     OW48183   8.066  12.739  10.594
49386SOL    HW148184   8.061  12.821  10.651
49386SOL    HW248185   8.155  12.736  10.549
49387SOL     OW48186   8.800  11.224   9.478
49387SOL    HW148187   8.835  11.183   9.394
49387SOL    HW248188   8.710  11.186   9.498
49388SOL     OW48189   8.748  11.625  10.001
49388SOL    HW148190   8.689  11.705  10.005
49388SOL    HW248191   8.763  11.590  10.094
49389SOL     OW48192   9.041  11.393  10.192
49389SOL    HW148193   8.957  11.392  10.246
49389SOL    HW248194   9.043  11.476  10.136
49390SOL     OW48195   7.487  12.249   9.610
49390SOL    HW148196   7.586  12.238   9.601
49390SOL    HW248197   7.447  12.163   9.642
49391SOL     OW48198   7.678  11.800  11.285
49391SOL    HW148199   7.585  11.798  11.322
49391SOL    HW248200   7.679  11.761  11.193
49392SOL     OW48201   7.673  11.447  12.168
49392SOL    HW148202   7.708  11.430  12.260
49392SOL    HW248203   7.585  11.402  12.156
49393SOL     OW48204   7.467  11.540  11.819
49393SOL    HW148205   7.385  11.583  11.858
49393SOL    HW248206   7.439  11.467  11.756
49394SOL     OW48207   8.017  12.447  12.337
49394SOL    HW148208   7.924  12.440  12.300
49394SOL    HW248209   8.028  12.536  12.381
49395SOL     OW48210   9.003  12.683  11.875
49395SOL    HW148211   8.946  12.667  11.956
49395SOL    HW248212   8.944  12.693  11.795
49396SOL     OW48213   8.583  11.875  11.889
49396SOL    HW148214   8.640  11.953  11.864
49396SOL    HW248215   8.523  11.901  11.965
49397SOL     OW48216   9.203  11.779  11.403
49397SOL    HW148217   9.191  11.766  11.304
49397SOL    HW248218   9.173  11.698  11.452
49398SOL     OW48219   8.216  12.316  12.195
49398SOL    HW148220   8.138  12.333  12.255
49398SOL    HW248221   8.250  12.403  12.159
49399SOL     OW48222   8.133  12.184  11.837
49399SOL    HW148223   8.202  12.168  11.907
49399SOL    HW248224   8.060  12.241  11.875
49400SOL     OW48225   7.783  12.607  12.233
49400SOL    HW148226   7.705  12.576  12.180
49400SOL    HW248227   7.841  12.665  12.176
49401SOL     OW48228   8.908  12.677  12.511
49401SOL    HW148229   8.932  12.771  12.537
49401SOL    HW248230   8.892  12.623  12.593
49402SOL     OW48231   7.886  11.564  12.671
49402SOL    HW148232   7.968  11.508  12.680
49402SOL    HW248233   7.805  11.506  12.675
49403SOL     OW48234   9.051  11.619  11.909
49403SOL    HW148235   8.977  11.665  11.859
49403SOL    HW248236   9.102  11.687  11.962
49404SOL     OW48237   7.679  12.885  11.655
49404SOL    HW148238   7.713  12.962  11.709
49404SOL    HW248239   7.723  12.885  11.565
49405SOL     OW48240   7.678  12.606  11.710
49405SOL    HW148241   7.652  12.702  11.710
49405SOL    HW248242   7.607  12.552  11.755
49406SOL     OW48243   7.688  12.263  12.058
49406SOL    HW148244   7.702  12.179  12.110
49406SOL    HW248245   7.633  12.327  12.113
49407SOL     OW48246   8.054  12.136  11.295
49407SOL    HW148247   8.061  12.220  11.241
49407SOL    HW248248   8.100  12.149  11.383
49408SOL     OW48249   9.042  11.286  12.652
49408SOL    HW148250   9.024  11.353  12.580
49408SOL    HW248251   9.039  11.332  12.741
49409SOL     OW48252   7.570  11.815  11.735
49409SOL    HW148253   7.525  11.727  11.752
49409SOL    HW248254   7.569  11.869  11.819
49410SOL     OW48255   7.475  12.768  11.289
49410SOL    HW148256   7.456  12.672  11.310
49410SOL    HW248257   7.442  12.826  11.364
49411SOL     OW48258   9.137  12.094  11.784
49411SOL    HW148259   9.232  12.065  11.792
49411SOL    HW248260   9.129  12.159  11.709
49412SOL     OW48261   9.089  12.280  11.604
49412SOL    HW148262   9.175  12.282  11.552
49412SOL    HW248263   9.103  12.327  11.692
49413SOL     OW48264   8.061  12.537  11.898
49413SOL    HW148265   8.012  12.450  11.907
49413SOL    HW248266   8.038  12.580  11.811
49414SOL     OW48267   8.257  11.176  11.674
49414SOL    HW148268   8.297  11.267  11.665
49414SOL    HW248269   8.157  11.184  11.680
49415SOL     OW48270   7.645  12.148  12.436
49415SOL    HW148271   7.734  12.103  12.422
49415SOL    HW248272   7.572  12.083  12.417
49416SOL     OW48273   8.973  12.171  11.362
49416SOL    HW148274   8.910  12.095  11.375
49416SOL    HW248275   9.021  12.189  11.448
49417SOL     OW48276   7.765  11.423  12.973
49417SOL    HW148277   7.836  11.494  12.979
49417SOL    HW248278   7.677  11.462  13.001
49418SOL     OW48279   8.914  12.589  12.125
49418SOL    HW148280   8.855  12.595  12.205
49418SOL    HW248281   8.899  12.501  12.079
49419SOL     OW48282   8.046  11.901  11.442
49419SOL    HW148283   8.070  11.970  11.374
49419SOL    HW248284   7.968  11.934  11.496
49420SOL     OW48285   8.729  11.517  12.116
49420SOL    HW148286   8.643  11.467  12.103
49420SOL    HW248287   8.791  11.463  12.172
49421SOL     OW48288   8.255  11.777  12.637
49421SOL    HW148289   8.208  11.774  12.726
49421SOL    HW248290   8.204  11.722  12.571
49422SOL     OW48291   8.439  11.582  12.414
49422SOL    HW148292   8.362  11.616  12.468
49422SOL    HW248293   8.405  11.531  12.335
49423SOL     OW48294   8.489  11.873  11.601
49423SOL    HW148295   8.515  11.869  11.697
49423SOL    HW248296   8.404  11.822  11.587
49424SOL     OW48297   7.524  11.983  11.961
49424SOL    HW148298   7.623  11.971  11.970
49424SOL    HW248299   7.500  12.078  11.982
49425SOL     OW48300   8.313  11.520  11.367
49425SOL    HW148301   8.372  11.583  11.318
49425SOL    HW248302   8.332  11.426  11.338
49426SOL     OW48303   8.810  12.316  11.717
49426SOL    HW148304   8.893  12.287  11.669
49426SOL    HW248305   8.761  12.383  11.661
49427SOL     OW48306   7.998  11.368  12.057
49427SOL    HW148307   7.993  11.363  12.157
49427SOL    HW248308   8.000  11.464  12.028
49428SOL     OW48309   8.456  12.628  11.649
49428SOL    HW148310   8.410  12.700  11.597
49428SOL    HW248311   8.452  12.648  11.747
49429SOL     OW48312   9.243  12.238  12.045
49429SOL    HW148313   9.181  12.223  11.969
49429SOL    HW248314   9.191  12.249  12.130
49430SOL     OW48315   7.769  12.115  11.414
49430SOL    HW148316   7.851  12.154  11.372
49430SOL    HW248317   7.742  12.033  11.365
49431SOL     OW48318   8.906  11.907  11.900
49431SOL    HW148319   8.901  11.842  11.975
49431SOL    HW248320   8.986  11.966  11.913
49432SOL     OW48321   8.559  12.948  11.409
49432SOL    HW148322   8.499  12.886  11.459
49432SOL    HW248323   8.590  12.904  11.324
49433SOL     OW48324   7.650  11.457  12.670
49433SOL    HW148325   7.570  11.517  12.657
49433SOL    HW248326   7.640  11.408  12.756
49434SOL     OW48327   9.080  12.549  11.253
49434SOL    HW148328   9.048  12.643  11.243
49434SOL    HW248329   9.004  12.486  11.241
49435SOL     OW48330   8.848  11.279  11.598
49435SOL    HW148331   8.824  11.242  11.508
49435SOL    HW248332   8.947  11.295  11.602
49436SOL     OW48333   7.830  11.872  11.652
49436SOL    HW148334   7.875  11.782  11.649
49436SOL    HW248335   7.736  11.861  11.685
49437SOL     OW48336   8.062  11.294  11.289
49437SOL    HW148337   8.160  11.272  11.296
49437SOL    HW248338   8.031  11.277  11.196
49438SOL     OW48339   8.251  12.574  12.096
49438SOL    HW148340   8.341  12.588  12.054
49438SOL    HW248341   8.180  12.576  12.025
49439SOL     OW48342   8.370  11.675  12.071
49439SOL    HW148343   8.345  11.666  11.975
49439SOL    HW248344   8.418  11.593  12.102
49440SOL     OW48345   7.987  11.236  11.684
49440SOL    HW148346   7.906  11.237  11.742
49440SOL    HW248347   7.990  11.319  11.629
49441SOL     OW48348   8.882  12.360  11.213
49441SOL    HW148349   8.914  12.284  11.270
49441SOL    HW248350   8.790  12.387  11.243
49442SOL     OW48351   7.745  11.207  11.343
49442SOL    HW148352   7.794  11.291  11.322
49442SOL    HW248353   7.807  11.142  11.388
49443SOL     OW48354   8.383  11.408  11.652
49443SOL    HW148355   8.335  11.449  11.574
49443SOL    HW248356   8.482  11.406  11.633
49444SOL     OW48357   8.675  12.742  11.965
49444SOL    HW148358   8.696  12.816  11.900
49444SOL    HW248359   8.743  12.742  12.038
49445SOL     OW48360   7.907  12.324  11.913
49445SOL    HW148361   7.836  12.297  11.978
49445SOL    HW248362   7.881  12.296  11.820
49446SOL     OW48363   8.480  11.721  11.188
49446SOL    HW148364   8.439  11.803  11.149
49446SOL    HW248365   8.544  11.747  11.261
49447SOL     OW48366   7.526  11.728  12.558
49447SOL    HW148367   7.618  11.727  12.517
49447SOL    HW248368   7.520  11.802  12.625
49448SOL     OW48369   8.009  11.394  12.319
49448SOL    HW148370   8.047  11.310  12.356
49448SOL    HW248371   7.921  11.413  12.363
49449SOL     OW48372   8.314  11.626  11.814
49449SOL    HW148373   8.282  11.698  11.752
49449SOL    HW248374   8.338  11.545  11.761
49450SOL     OW48375   8.465  11.211  11.925
49450SOL    HW148376   8.393  11.216  11.856
49450SOL    HW248377   8.441  11.142  11.994
49451SOL     OW48378   8.877  12.345  12.039
49451SOL    HW148379   8.822  12.261  12.032
49451SOL    HW248380   8.903  12.374  11.947
49452SOL     OW48381   8.914  11.762  12.164
49452SOL    HW148382   8.884  11.667  12.171
49452SOL    HW248383   8.987  11.778  12.230
49453SOL     OW48384   9.305  12.005  11.549
49453SOL    HW148385   9.347  11.941  11.613
49453SOL    HW248386   9.267  11.954  11.471
49454SOL     OW48387   7.936  12.557  11.346
49454SOL    HW148388   7.849  12.542  11.393
49454SOL    HW248389   7.919  12.583  11.251
49455SOL     OW48390   9.112  12.452  11.829
49455SOL    HW148391   9.211  12.460  11.843
49455SOL    HW248392   9.067  12.536  11.860
49456SOL     OW48393   8.838  11.747  11.250
49456SOL    HW148394   8.784  11.726  11.331
49456SOL    HW248395   8.929  11.706  11.259
49457SOL     OW48396   7.975  11.428  11.500
49457SOL    HW148397   8.002  11.369  11.425
49457SOL    HW248398   7.975  11.523  11.469
49458SOL     OW48399   8.512  12.519  12.512
49458SOL    HW148400   8.432  12.496  12.567
49458SOL    HW248401   8.595  12.493  12.561
49459SOL     OW48402   8.559  12.367  12.272
49459SOL    HW148403   8.519  12.411  12.353
49459SOL    HW248404   8.518  12.404  12.189
49460SOL     OW48405   9.086  12.271  12.251
49460SOL    HW148406   9.091  12.352  12.310
49460SOL    HW248407   9.000  12.273  12.200
49461SOL     OW48408   8.363  11.261  12.574
49461SOL    HW148409   8.388  11.241  12.479
49461SOL    HW248410   8.435  11.317  12.616
49462SOL     OW48411   8.153  12.222  11.540
49462SOL    HW148412   8.139  12.229  11.639
49462SOL    HW248413   8.237  12.171  11.522
49463SOL     OW48414   7.858  11.985  12.423
49463SOL    HW148415   7.944  11.997  12.473
49463SOL    HW248416   7.816  11.898  12.450
49464SOL     OW48417   8.722  11.558  12.434
49464SOL    HW148418   8.743  11.632  12.498
49464SOL    HW248419   8.633  11.575  12.391
49465SOL     OW48420   7.815  12.272  11.673
49465SOL    HW148421   7.808  12.355  11.617
49465SOL    HW248422   7.819  12.192  11.613
49466SOL     OW48423   8.014  11.709  12.037
49466SOL    HW148424   8.026  11.775  11.963
49466SOL    HW248425   8.060  11.743  12.120
49467SOL     OW48426   8.700  12.520  11.560
49467SOL    HW148427   8.750  12.597  11.600
49467SOL    HW248428   8.605  12.522  11.592
49468SOL     OW48429   8.720  12.617  12.314
49468SOL    HW148430   8.767  12.630  12.401
49468SOL    HW248431   8.654  12.543  12.323
49469SOL     OW48432   9.030  11.811  11.644
49469SOL    HW148433   8.999  11.872  11.717
49469SOL    HW248434   9.080  11.863  11.575
49470SOL     OW48435   7.802  12.682  12.501
49470SOL    HW148436   7.781  12.638  12.414
49470SOL    HW248437   7.899  12.708  12.504
49471SOL     OW48438   7.850  11.923  12.770
49471SOL    HW148439   7.918  11.978  12.723
49471SOL    HW248440   7.890  11.835  12.797
49472SOL     OW48441   9.035  11.951  12.842
49472SOL    HW148442   8.943  11.989  12.837
49472SOL    HW248443   9.095  11.998  12.777
49473SOL     OW48444   8.021  12.042  12.201
49473SOL    HW148445   8.065  12.131  12.192
49473SOL    HW248446   7.958  12.042  12.278
49474SOL     OW48447   8.808  12.034  12.217
49474SOL    HW148448   8.733  12.034  12.151
49474SOL    HW248449   8.845  11.942  12.226
49475SOL     OW48450   8.657  11.697  11.447
49475SOL    HW148451   8.670  11.613  11.501
49475SOL    HW248452   8.628  11.771  11.507
49476SOL     OW48453   7.755  11.385  12.403
49476SOL    HW148454   7.732  11.422  12.493
49476SOL    HW248455   7.725  11.290  12.397
49477SOL     OW48456   7.485  12.482  12.454
49477SOL    HW148457   7.538  12.433  12.522
49477SOL    HW248458   7.507  12.580  12.459
49478SOL     OW48459   8.180  11.806  12.236
49478SOL    HW148460   8.239  11.780  12.160
49478SOL    HW248461   8.152  11.902  12.225
49479SOL     OW48462   7.755  11.235  11.790
49479SOL    HW148463   7.744  11.329  11.823
49479SOL    HW248464   7.750  11.172  11.867
49480SOL     OW48465   9.070  11.539  11.546
49480SOL    HW148466   9.072  11.463  11.610
49480SOL    HW248467   9.022  11.616  11.586
49481SOL     OW48468   8.471  11.938  12.138
49481SOL    HW148469   8.486  11.959  12.234
49481SOL    HW248470   8.441  11.843  12.129
49482SOL     OW48471   8.988  11.446  11.297
49482SOL    HW148472   8.927  11.371  11.320
49482SOL    HW248473   9.010  11.498  11.380
49483SOL     OW48474   8.751  12.010  11.214
49483SOL    HW148475   8.785  11.917  11.229
49483SOL    HW248476   8.769  12.037  11.119
49484SOL     OW48477   8.516  12.505  12.021
49484SOL    HW148478   8.523  12.421  11.966
49484SOL    HW248479   8.578  12.574  11.985
49485SOL     OW48480   7.767  11.982  12.121
49485SOL    HW148481   7.860  12.018  12.126
49485SOL    HW248482   7.761  11.897  12.173
49486SOL     OW48483   7.787  11.681  12.178
49486SOL    HW148484   7.735  11.598  12.161
49486SOL    HW248485   7.864  11.686  12.114
49487SOL     OW48486   8.586  11.552  12.850
49487SOL    HW148487   8.541  11.615  12.914
49487SOL    HW248488   8.679  11.583  12.833
49488SOL     OW48489   8.608  11.379  12.649
49488SOL    HW148490   8.608  11.443  12.726
49488SOL    HW248491   8.636  11.427  12.566
49489SOL     OW48492   7.456  12.498  11.372
49489SOL    HW148493   7.363  12.519  11.341
49489SOL    HW248494   7.466  12.399  11.385
49490SOL     OW48495   8.450  11.968  12.410
49490SOL    HW148496   8.491  11.936  12.496
49490SOL    HW248497   8.354  11.941  12.407
49491SOL     OW48498   7.488  11.716  12.286
49491SOL    HW148499   7.573  11.683  12.245
49491SOL    HW248500   7.501  11.731  12.384
49492SOL     OW48501   8.263  11.744  11.497
49492SOL    HW148502   8.270  11.655  11.451
49492SOL    HW248503   8.169  11.778  11.489
49493SOL     OW48504   9.105  11.776  12.378
49493SOL    HW148505   9.067  11.707  12.440
49493SOL    HW248506   9.187  11.740  12.334
49494SOL     OW48507   8.119  11.636  12.441
49494SOL    HW148508   8.085  11.547  12.411
49494SOL    HW248509   8.145  11.690  12.361
49495SOL     OW48510   7.921  11.672  11.363
49495SOL    HW148511   7.982  11.752  11.367
49495SOL    HW248512   7.826  11.703  11.370
49496SOL     OW48513   7.607  12.309  12.638
49496SOL    HW148514   7.629  12.248  12.714
49496SOL    HW248515   7.617  12.260  12.552
49497SOL     OW48516   8.795  12.231  12.406
49497SOL    HW148517   8.819  12.168  12.332
49497SOL    HW248518   8.705  12.271  12.388
49498SOL     OW48519   8.750  12.027  11.481
49498SOL    HW148520   8.664  11.996  11.523
49498SOL    HW248521   8.746  12.013  11.382
49499SOL     OW48522   7.531  12.430  12.194
49499SOL    HW148523   7.526  12.429  12.294
49499SOL    HW248524   7.448  12.389  12.156
49500SOL     OW48525   9.174  11.307  11.695
49500SOL    HW148526   9.247  11.290  11.628
49500SOL    HW248527   9.143  11.220  11.733
49501SOL     OW48528   8.728  12.099  11.844
49501SOL    HW148529   8.788  12.018  11.846
49501SOL    HW248530   8.768  12.168  11.784
49502SOL     OW48531   9.289  11.347  12.135
49502SOL    HW148532   9.328  11.262  12.099
49502SOL    HW248533   9.191  11.349  12.116
49503SOL     OW48534   7.711  11.498  11.892
49503SOL    HW148535   7.632  11.549  11.858
49503SOL    HW248536   7.702  11.483  11.990
49504SOL     OW48537   8.270  12.174  12.544
49504SOL    HW148538   8.310  12.173  12.452
49504SOL    HW248539   8.280  12.266  12.584
49505SOL     OW48540   8.364  12.082  11.463
49505SOL    HW148541   8.427  12.120  11.395
49505SOL    HW248542   8.404  11.999  11.502
49506SOL     OW48543   7.820  12.460  12.662
49506SOL    HW148544   7.807  12.553  12.628
49506SOL    HW248545   7.736  12.408  12.649
49507SOL     OW48546   9.062  12.464  12.461
49507SOL    HW148547   9.122  12.467  12.541
49507SOL    HW248548   8.987  12.528  12.474
49508SOL     OW48549   8.487  12.270  11.868
49508SOL    HW148550   8.417  12.223  11.922
49508SOL    HW248551   8.546  12.202  11.825
49509SOL     OW48552   8.462  11.408  12.143
49509SOL    HW148553   8.454  11.372  12.050
49509SOL    HW248554   8.460  11.332  12.208
49510SOL     OW48555   9.157  11.557  12.553
49510SOL    HW148556   9.230  11.626  12.557
49510SOL    HW248557   9.185  11.482  12.494
49511SOL     OW48558   7.703  12.520  11.462
49511SOL    HW148559   7.607  12.521  11.435
49511SOL    HW248560   7.715  12.573  11.546
49512SOL     OW48561   7.523  11.517  11.205
49512SOL    HW148562   7.431  11.489  11.176
49512SOL    HW248563   7.554  11.594  11.149
49513SOL     OW48564   8.888  12.028  12.570
49513SOL    HW148565   8.831  12.080  12.507
49513SOL    HW248566   8.984  12.040  12.546
49514SOL     OW48567   7.520  11.338  11.490
49514SOL    HW148568   7.503  11.421  11.436
49514SOL    HW248569   7.610  11.301  11.468
49515SOL     OW48570   8.631  12.507  11.291
49515SOL    HW148571   8.532  12.496  11.293
49515SOL    HW248572   8.665  12.522  11.384
49516SOL     OW48573   8.061  12.014  12.603
49516SOL    HW148574   8.117  12.095  12.586
49516SOL    HW248575   8.120  11.934  12.606
49517SOL     OW48576   9.122  12.055  12.426
49517SOL    HW148577   9.095  11.966  12.389
49517SOL    HW248578   9.123  12.123  12.353
49518SOL     OW48579   8.673  11.497  11.621
49518SOL    HW148580   8.738  11.423  11.610
49518SOL    HW248581   8.693  11.547  11.705
49519SOL     OW48582   8.042  11.917  11.824
49519SOL    HW148583   8.092  12.002  11.805
49519SOL    HW248584   7.954  11.919  11.776
49520SOL     OW48585   9.225  11.514  12.814
49520SOL    HW148586   9.208  11.545  12.720
49520SOL    HW248587   9.141  11.477  12.852
49521SOL     OW48588   9.178  12.106  12.689
49521SOL    HW148589   9.216  12.197  12.704
49521SOL    HW248590   9.170  12.089  12.590
49522SOL     OW48591   8.307  12.546  11.188
49522SOL    HW148592   8.261  12.561  11.276
49522SOL    HW248593   8.351  12.631  11.158
49523SOL     OW48594   8.307  12.128  12.033
49523SOL    HW148595   8.361  12.059  12.081
49523SOL    HW248596   8.275  12.197  12.099
49524SOL     OW48597   8.531  12.156  11.259
49524SOL    HW148598   8.508  12.209  11.177
49524SOL    HW248599   8.612  12.100  11.240
49525SOL     OW48600   7.527  12.412  11.825
49525SOL    HW148601   7.526  12.365  11.913
49525SOL    HW248602   7.609  12.384  11.774
49526SOL     OW48603   9.272  11.364  12.399
49526SOL    HW148604   9.268  11.274  12.443
49526SOL    HW248605   9.275  11.353  12.300
49527SOL     OW48606   7.876  11.596  11.692
49527SOL    HW148607   7.906  11.524  11.630
49527SOL    HW248608   7.837  11.556  11.775
49528SOL     OW48609   9.153  12.659  12.276
49528SOL    HW148610   9.060  12.634  12.249
49528SOL    HW248611   9.179  12.609  12.358
49529SOL     OW48612   7.765  11.719  12.452
49529SOL    HW148613   7.803  11.660  12.524
49529SOL    HW248614   7.805  11.693  12.364
49530SOL     OW48615   8.872  11.386  12.284
49530SOL    HW148616   8.924  11.321  12.339
49530SOL    HW248617   8.823  11.449  12.345
49531SOL     OW48618   8.449  11.206  12.326
49531SOL    HW148619   8.386  11.134  12.295
49531SOL    HW248620   8.542  11.170  12.326
49532SOL     OW48621   8.218  12.502  11.473
49532SOL    HW148622   8.172  12.415  11.490
49532SOL    HW248623   8.309  12.499  11.514
49533SOL     OW48624   8.066  12.739  12.456
49533SOL    HW148625   8.061  12.821  12.513
49533SOL    HW248626   8.155  12.736  12.411
49534SOL     OW48627   8.800  11.224  11.340
49534SOL    HW148628   8.835  11.183  11.256
49534SOL    HW248629   8.710  11.186  11.360
49535SOL     OW48630   8.748  11.625  11.863
49535SOL    HW148631   8.689  11.705  11.867
49535SOL    HW248632   8.763  11.590  11.956
49536SOL     OW48633   9.041  11.393  12.054
49536SOL    HW148634   8.957  11.392  12.108
49536SOL    HW248635   9.043  11.476  11.998
49537SOL     OW48636   7.487  12.249  11.472
49537SOL    HW148637   7.586  12.238  11.463
49537SOL    HW248638   7.447  12.163  11.504
49538SOL     OW48639   9.540   0.628   0.113
49538SOL    HW148640   9.447   0.626   0.150
49538SOL    HW248641   9.541   0.589   0.021
49539SOL     OW48642   9.535   0.275   0.996
49539SOL    HW148643   9.570   0.258   1.088
49539SOL    HW248644   9.447   0.230   0.984
49540SOL     OW48645   9.329   0.368   0.647
49540SOL    HW148646   9.247   0.411   0.686
49540SOL    HW248647   9.301   0.295   0.584
49541SOL     OW48648   9.879   1.275   1.165
49541SOL    HW148649   9.786   1.268   1.128
49541SOL    HW248650   9.890   1.364   1.209
49542SOL     OW48651  10.865   1.511   0.703
49542SOL    HW148652  10.808   1.495   0.784
49542SOL    HW248653  10.806   1.521   0.623
49543SOL     OW48654  10.445   0.703   0.717
49543SOL    HW148655  10.502   0.781   0.692
49543SOL    HW248656  10.385   0.729   0.793
49544SOL     OW48657  11.065   0.607   0.231
49544SOL    HW148658  11.053   0.594   0.132
49544SOL    HW248659  11.035   0.526   0.280
49545SOL     OW48660  10.078   1.144   1.023
49545SOL    HW148661  10.000   1.161   1.083
49545SOL    HW248662  10.112   1.231   0.987
49546SOL     OW48663  10.160   0.798   1.823
49546SOL    HW148664  10.156   0.874   1.888
49546SOL    HW248665  10.182   0.834   1.732
49547SOL     OW48666   9.995   1.012   0.665
49547SOL    HW148667  10.064   0.996   0.735
49547SOL    HW248668   9.922   1.069   0.703
49548SOL     OW48669   9.996   1.161   1.803
49548SOL    HW148670  10.056   1.240   1.817
49548SOL    HW248671   9.910   1.192   1.762
49549SOL     OW48672   9.645   1.435   1.061
49549SOL    HW148673   9.567   1.404   1.008
49549SOL    HW248674   9.703   1.493   1.004
49550SOL     OW48675  10.770   1.505   1.339
49550SOL    HW148676  10.794   1.599   1.365
49550SOL    HW248677  10.754   1.451   1.421
49551SOL     OW48678   9.748   0.392   1.499
49551SOL    HW148679   9.830   0.336   1.508
49551SOL    HW248680   9.667   0.334   1.503
49552SOL     OW48681  10.913   0.447   0.737
49552SOL    HW148682  10.839   0.493   0.687
49552SOL    HW248683  10.964   0.515   0.790
49553SOL     OW48684   9.541   1.713   0.483
49553SOL    HW148685   9.575   1.790   0.537
49553SOL    HW248686   9.585   1.713   0.393
49554SOL     OW48687  10.437   1.341   1.690
49554SOL    HW148688  10.484   1.341   1.778
49554SOL    HW248689  10.389   1.254   1.679
49555SOL     OW48690   9.540   1.434   0.538
49555SOL    HW148691   9.514   1.530   0.538
49555SOL    HW248692   9.469   1.380   0.583
49556SOL     OW48693   9.550   1.091   0.886
49556SOL    HW148694   9.564   1.007   0.938
49556SOL    HW248695   9.495   1.155   0.941
49557SOL     OW48696   9.930   1.786   1.439
49557SOL    HW148697   9.838   1.769   1.474
49557SOL    HW248698   9.958   1.878   1.465
49558SOL     OW48699   9.916   0.964   0.123
49558SOL    HW148700   9.923   1.048   0.069
49558SOL    HW248701   9.962   0.977   0.211
49559SOL     OW48702  10.904   0.114   1.480
49559SOL    HW148703  10.886   0.181   1.408
49559SOL    HW248704  10.901   0.160   1.569
49560SOL     OW48705   9.432   0.643   0.563
49560SOL    HW148706   9.387   0.555   0.580
49560SOL    HW248707   9.431   0.697   0.647
49561SOL     OW48708  11.152   1.767   0.359
49561SOL    HW148709  11.206   1.738   0.439
49561SOL    HW248710  11.182   1.857   0.330
49562SOL     OW48711   9.337   1.596   0.117
49562SOL    HW148712   9.318   1.500   0.138
49562SOL    HW248713   9.304   1.654   0.192
49563SOL     OW48714  10.999   0.922   0.612
49563SOL    HW148715  11.094   0.893   0.620
49563SOL    HW248716  10.991   0.987   0.537
49564SOL     OW48717  10.951   1.108   0.432
49564SOL    HW148718  11.037   1.110   0.380
49564SOL    HW248719  10.965   1.155   0.520
49565SOL     OW48720   9.423   0.737   1.597
49565SOL    HW148721   9.511   0.724   1.642
49565SOL    HW248722   9.410   0.834   1.575
49566SOL     OW48723   9.923   1.365   0.726
49566SOL    HW148724   9.874   1.278   0.735
49566SOL    HW248725   9.900   1.408   0.639
49567SOL     OW48726  10.603   1.228   1.423
49567SOL    HW148727  10.640   1.155   1.365
49567SOL    HW248728  10.655   1.233   1.508
49568SOL     OW48729  10.119   0.004   0.502
49568SOL    HW148730  10.159   0.095   0.493
49568SOL    HW248731  10.019   0.012   0.508
49569SOL     OW48732   9.507   0.976   1.264
49569SOL    HW148733   9.596   0.931   1.250
49569SOL    HW248734   9.434   0.911   1.245
49570SOL     OW48735  10.835   0.999   0.190
49570SOL    HW148736  10.772   0.923   0.203
49570SOL    HW248737  10.883   1.017   0.276
49571SOL     OW48738  10.497   1.792   1.616
49571SOL    HW148739  10.521   1.852   1.540
49571SOL    HW248740  10.504   1.697   1.586
49572SOL     OW48741   9.627   0.251   1.801
49572SOL    HW148742   9.698   0.322   1.807
49572SOL    HW248743   9.539   0.290   1.829
49573SOL     OW48744  10.776   1.417   0.953
49573SOL    HW148745  10.717   1.423   1.033
49573SOL    HW248746  10.761   1.329   0.907
49574SOL     OW48747  10.977   1.714   0.572
49574SOL    HW148748  10.936   1.691   0.484
49574SOL    HW248749  10.959   1.640   0.637
49575SOL     OW48750   9.908   0.729   0.270
49575SOL    HW148751   9.932   0.798   0.202
49575SOL    HW248752   9.830   0.762   0.324
49576SOL     OW48753  10.591   0.345   0.944
49576SOL    HW148754  10.505   0.295   0.931
49576SOL    HW248755  10.653   0.291   1.000
49577SOL     OW48756  10.886   1.662   0.307
49577SOL    HW148757  10.975   1.708   0.310
49577SOL    HW248758  10.865   1.638   0.212
49578SOL     OW48759  10.117   0.605   1.465
49578SOL    HW148760  10.070   0.602   1.554
49578SOL    HW248761  10.066   0.550   1.399
49579SOL     OW48762  10.704   0.469   1.674
49579SOL    HW148763  10.684   0.512   1.762
49579SOL    HW248764  10.782   0.407   1.683
49580SOL     OW48765  10.283   0.890   1.572
49580SOL    HW148766  10.329   0.806   1.543
49580SOL    HW248767  10.227   0.924   1.497
49581SOL     OW48768  10.301   0.410   1.242
49581SOL    HW148769  10.224   0.444   1.296
49581SOL    HW248770  10.267   0.359   1.163
49582SOL     OW48771  10.351   0.701   0.429
49582SOL    HW148772  10.377   0.697   0.525
49582SOL    HW248773  10.266   0.650   0.415
49583SOL     OW48774   9.386   0.811   0.789
49583SOL    HW148775   9.485   0.799   0.798
49583SOL    HW248776   9.362   0.906   0.810
49584SOL     OW48777   9.440   1.821   1.571
49584SOL    HW148778   9.430   1.806   1.670
49584SOL    HW248779   9.354   1.857   1.535
49585SOL     OW48780  10.175   0.348   0.195
49585SOL    HW148781  10.234   0.411   0.146
49585SOL    HW248782  10.194   0.254   0.166
49586SOL     OW48783  11.029   0.585   1.831
49586SOL    HW148784  11.003   0.674   1.795
49586SOL    HW248785  11.027   0.517   1.758
49587SOL     OW48786  10.672   1.144   0.545
49587SOL    HW148787  10.755   1.115   0.497
49587SOL    HW248788  10.623   1.211   0.489
49588SOL     OW48789   9.860   0.196   0.885
49588SOL    HW148790   9.855   0.191   0.985
49588SOL    HW248791   9.862   0.292   0.856
49589SOL     OW48792  10.318   1.456   0.477
49589SOL    HW148793  10.272   1.528   0.425
49589SOL    HW248794  10.314   1.476   0.575
49590SOL     OW48795   9.661   1.801   0.853
49590SOL    HW148796   9.711   1.715   0.859
49590SOL    HW248797   9.726   1.878   0.850
49591SOL     OW48798  11.105   1.066   0.873
49591SOL    HW148799  11.043   1.051   0.797
49591SOL    HW248800  11.053   1.077   0.958
49592SOL     OW48801  10.537   1.550   1.506
49592SOL    HW148802  10.543   1.473   1.570
49592SOL    HW248803  10.485   1.524   1.426
49593SOL     OW48804   9.631   0.943   0.242
49593SOL    HW148805   9.713   0.982   0.200
49593SOL    HW248806   9.604   0.861   0.193
49594SOL     OW48807  10.768   0.735   0.728
49594SOL    HW148808  10.763   0.670   0.803
49594SOL    HW248809  10.848   0.794   0.741
49595SOL     OW48810   9.771   1.266   1.727
49595SOL    HW148811   9.721   1.267   1.641
49595SOL    HW248812   9.708   1.248   1.803
49596SOL     OW48813  10.421   1.776   0.237
49596SOL    HW148814  10.361   1.714   0.287
49596SOL    HW248815  10.452   1.732   0.152
49597SOL     OW48816   9.512   0.285   1.498
49597SOL    HW148817   9.432   0.345   1.485
49597SOL    HW248818   9.502   0.236   1.584
49598SOL     OW48819  10.942   1.377   0.081
49598SOL    HW148820  10.910   1.471   0.071
49598SOL    HW248821  10.866   1.314   0.069
49599SOL     OW48822   9.774   1.743   0.323
49599SOL    HW148823   9.807   1.782   0.409
49599SOL    HW248824   9.850   1.736   0.258
49600SOL     OW48825  10.710   0.107   0.426
49600SOL    HW148826  10.686   0.070   0.336
49600SOL    HW248827  10.809   0.123   0.430
49601SOL     OW48828   9.559   1.785   1.241
49601SOL    HW148829   9.616   1.720   1.291
49601SOL    HW248830   9.543   1.752   1.148
49602SOL     OW48831  10.250   1.698   0.904
49602SOL    HW148832  10.330   1.641   0.925
49602SOL    HW248833  10.201   1.658   0.827
49603SOL     OW48834   9.692   0.700   0.480
49603SOL    HW148835   9.737   0.610   0.477
49603SOL    HW248836   9.598   0.689   0.513
49604SOL     OW48837  10.857   0.222   1.729
49604SOL    HW148838  10.852   0.259   1.821
49604SOL    HW248839  10.785   0.153   1.717
49605SOL     OW48840   9.924   0.122   0.117
49605SOL    HW148841  10.022   0.100   0.124
49605SOL    HW248842   9.893   0.105   0.024
49606SOL     OW48843  10.091   0.264   1.749
49606SOL    HW148844  10.158   0.203   1.792
49606SOL    HW248845  10.018   0.283   1.814
49607SOL     OW48846  10.198   1.514   1.195
49607SOL    HW148847  10.175   1.489   1.101
49607SOL    HW248848  10.259   1.445   1.234
49608SOL     OW48849  10.661   0.590   1.433
49608SOL    HW148850  10.689   0.547   1.518
49608SOL    HW248851  10.686   0.686   1.434
49609SOL     OW48852  10.113   1.402   0.924
49609SOL    HW148853  10.203   1.416   0.882
49609SOL    HW248854  10.042   1.404   0.853
49610SOL     OW48855  10.232   0.503   0.899
49610SOL    HW148856  10.207   0.494   0.803
49610SOL    HW248857  10.280   0.421   0.930
49611SOL     OW48858   9.849   0.064   0.512
49611SOL    HW148859   9.768   0.065   0.570
49611SOL    HW248860   9.852   0.147   0.457
49612SOL     OW48861  10.744   1.188   0.041
49612SOL    HW148862  10.776   1.112   0.098
49612SOL    HW248863  10.652   1.215   0.071
49613SOL     OW48864   9.607   0.035   0.171
49613SOL    HW148865   9.656   0.119   0.150
49613SOL    HW248866   9.669  -0.030   0.216
49614SOL     OW48867  10.245   0.236   0.480
49614SOL    HW148868  10.197   0.277   0.402
49614SOL    HW248869  10.344   0.234   0.461
49615SOL     OW48870  10.386   0.683   1.464
49615SOL    HW148871  10.306   0.622   1.467
49615SOL    HW248872  10.467   0.630   1.440
49616SOL     OW48873  10.537   1.570   0.793
49616SOL    HW148874  10.558   1.644   0.728
49616SOL    HW248875  10.605   1.570   0.866
49617SOL     OW48876   9.769   1.152   0.741
49617SOL    HW148877   9.698   1.125   0.806
49617SOL    HW248878   9.743   1.124   0.648
49618SOL     OW48879  10.581   1.797   0.591
49618SOL    HW148880  10.625   1.861   0.527
49618SOL    HW248881  10.531   1.849   0.661
49619SOL     OW48882  10.342   0.549   0.016
49619SOL    HW148883  10.301   0.631  -0.023
49619SOL    HW248884  10.406   0.575   0.089
49620SOL     OW48885   9.388   0.556   1.386
49620SOL    HW148886   9.480   0.555   1.345
49620SOL    HW248887   9.382   0.630   1.453
49621SOL     OW48888   9.871   0.222   1.147
49621SOL    HW148889   9.909   0.138   1.184
49621SOL    HW248890   9.783   0.241   1.191
49622SOL     OW48891  10.176   0.454   0.642
49622SOL    HW148892  10.144   0.526   0.580
49622SOL    HW248893  10.200   0.373   0.589
49623SOL     OW48894  10.327   0.039   0.753
49623SOL    HW148895  10.255   0.044   0.684
49623SOL    HW248896  10.303  -0.030   0.822
49624SOL     OW48897  10.739   1.173   0.867
49624SOL    HW148898  10.684   1.089   0.860
49624SOL    HW248899  10.765   1.202   0.775
49625SOL     OW48900  10.776   0.590   0.992
49625SOL    HW148901  10.746   0.495   0.999
49625SOL    HW248902  10.849   0.606   1.058
49626SOL     OW48903  11.167   0.833   0.377
49626SOL    HW148904  11.209   0.769   0.441
49626SOL    HW248905  11.129   0.782   0.299
49627SOL     OW48906   9.798   1.385   0.174
49627SOL    HW148907   9.711   1.370   0.221
49627SOL    HW248908   9.781   1.411   0.079
49628SOL     OW48909  10.974   1.280   0.657
49628SOL    HW148910  11.073   1.288   0.671
49628SOL    HW248911  10.929   1.364   0.688
49629SOL     OW48912  10.700   0.575   0.078
49629SOL    HW148913  10.646   0.554   0.159
49629SOL    HW248914  10.791   0.534   0.087
49630SOL     OW48915   9.837   0.256   0.328
49630SOL    HW148916   9.864   0.197   0.253
49630SOL    HW248917   9.837   0.351   0.297
49631SOL     OW48918  11.064   1.223   1.588
49631SOL    HW148919  11.155   1.184   1.575
49631SOL    HW248920  11.072   1.319   1.612
49632SOL     OW48921  10.374   1.347   1.340
49632SOL    HW148922  10.294   1.324   1.395
49632SOL    HW248923  10.457   1.321   1.389
49633SOL     OW48924  10.902   1.629   1.625
49633SOL    HW148925  10.929   1.663   1.535
49633SOL    HW248926  10.981   1.591   1.671
49634SOL     OW48927  10.421   1.195   1.100
49634SOL    HW148928  10.381   1.239   1.181
49634SOL    HW248929  10.380   1.232   1.017
49635SOL     OW48930  10.948   1.099   1.079
49635SOL    HW148931  10.953   1.180   1.138
49635SOL    HW248932  10.862   1.101   1.028
49636SOL     OW48933  10.225   0.089   1.402
49636SOL    HW148934  10.250   0.069   1.307
49636SOL    HW248935  10.297   0.145   1.444
49637SOL     OW48936  10.290   1.116   1.719
49637SOL    HW148937  10.191   1.122   1.729
49637SOL    HW248938  10.313   1.036   1.663
49638SOL     OW48939  10.015   1.050   0.368
49638SOL    HW148940  10.001   1.057   0.467
49638SOL    HW248941  10.099   0.999   0.350
49639SOL     OW48942   9.720   0.813   1.251
49639SOL    HW148943   9.806   0.825   1.301
49639SOL    HW248944   9.678   0.726   1.278
49640SOL     OW48945  10.584   0.386   1.262
49640SOL    HW148946  10.605   0.460   1.326
49640SOL    HW248947  10.495   0.403   1.219
49641SOL     OW48948   9.374   1.564   1.331
49641SOL    HW148949   9.328   1.646   1.297
49641SOL    HW248950   9.472   1.583   1.340
49642SOL     OW48951   9.677   1.100   0.501
49642SOL    HW148952   9.670   1.183   0.445
49642SOL    HW248953   9.681   1.020   0.441
49643SOL     OW48954   9.876   0.537   0.865
49643SOL    HW148955   9.888   0.603   0.791
49643SOL    HW248956   9.922   0.571   0.948
49644SOL     OW48957  10.562   1.348   0.388
49644SOL    HW148958  10.612   1.425   0.428
49644SOL    HW248959  10.467   1.350   0.420
49645SOL     OW48960  10.582   1.445   1.142
49645SOL    HW148961  10.629   1.458   1.229
49645SOL    HW248962  10.516   1.371   1.151
49646SOL     OW48963  10.892   0.639   0.472
49646SOL    HW148964  10.861   0.700   0.545
49646SOL    HW248965  10.942   0.691   0.403
49647SOL     OW48966   9.664   1.510   1.329
49647SOL    HW148967   9.643   1.466   1.242
49647SOL    HW248968   9.761   1.536   1.332
49648SOL     OW48969   9.712   0.751   1.598
49648SOL    HW148970   9.780   0.806   1.551
49648SOL    HW248971   9.752   0.663   1.625
49649SOL     OW48972  10.897   0.779   1.670
49649SOL    HW148973  10.805   0.817   1.665
49649SOL    HW248974  10.957   0.826   1.605
49650SOL     OW48975  10.323   0.105   1.770
49650SOL    HW148976  10.329   0.190   1.718
49650SOL    HW248977  10.355   0.029   1.713
49651SOL     OW48978   9.814   0.050   1.740
49651SOL    HW148979   9.772  -0.007   1.670
49651SOL    HW248980   9.748   0.119   1.772
49652SOL     OW48981   9.883   0.870   1.029
49652SOL    HW148982   9.927   0.959   1.020
49652SOL    HW248983   9.820   0.870   1.106
49653SOL     OW48984  10.670   0.862   1.045
49653SOL    HW148985  10.595   0.862   0.979
49653SOL    HW248986  10.707   0.770   1.054
49654SOL     OW48987  10.519   0.525   0.275
49654SOL    HW148988  10.532   0.441   0.329
49654SOL    HW248989  10.490   0.599   0.335
49655SOL     OW48990   9.617   0.213   1.231
49655SOL    HW148991   9.594   0.250   1.321
49655SOL    HW248992   9.587   0.118   1.225
49656SOL     OW48993   9.347   1.310   1.282
49656SOL    HW148994   9.400   1.261   1.350
49656SOL    HW248995   9.369   1.408   1.287
49657SOL     OW48996  10.042   0.634   1.064
49657SOL    HW148997  10.101   0.608   0.988
49657SOL    HW248998  10.014   0.730   1.053
49658SOL     OW48999  11.038   0.935   1.854
49658SOL    HW149000  10.992   0.928   1.765
49658SOL    HW249001  10.976   0.979   1.920
49659SOL     OW49002   9.617   0.063   0.618
49659SOL    HW149003   9.606   0.157   0.651
49659SOL    HW249004   9.612   0.000   0.695
49660SOL     OW49005  10.932   0.367   0.374
49660SOL    HW149006  10.934   0.291   0.438
49660SOL    HW249007  10.884   0.444   0.414
49661SOL     OW49008  10.333   0.766   0.966
49661SOL    HW149009  10.348   0.787   1.062
49661SOL    HW249010  10.303   0.671   0.957
49662SOL     OW49011  10.290   1.573   1.700
49662SOL    HW149012  10.270   1.617   1.612
49662SOL    HW249013  10.329   1.482   1.684
49663SOL     OW49014  11.169   1.518   1.605
49663SOL    HW149015  11.183   1.545   1.510
49663SOL    HW249016  11.252   1.540   1.658
49664SOL     OW49017   9.660   0.898   1.804
49664SOL    HW149018   9.736   0.942   1.852
49664SOL    HW249019   9.695   0.851   1.722
49665SOL     OW49020  10.850   0.274   0.125
49665SOL    HW149021  10.789   0.199   0.148
49665SOL    HW249022  10.872   0.326   0.208
49666SOL     OW49023  10.613   0.838   0.042
49666SOL    HW149024  10.647   0.745   0.057
49666SOL    HW249025  10.631   0.865  -0.053
49667SOL     OW49026  10.378   1.333   0.849
49667SOL    HW149027  10.385   1.249   0.794
49667SOL    HW249028  10.440   1.402   0.813
49668SOL     OW49029   9.629   0.810   0.949
49668SOL    HW149030   9.722   0.846   0.954
49668SOL    HW249031   9.623   0.725   1.001
49669SOL     OW49032   9.649   0.509   1.006
49669SOL    HW149033   9.597   0.426   0.989
49669SOL    HW249034   9.726   0.514   0.942
49670SOL     OW49035  10.448   0.380   1.678
49670SOL    HW149036  10.403   0.443   1.742
49670SOL    HW249037  10.541   0.411   1.661
49671SOL     OW49038  10.470   0.207   1.477
49671SOL    HW149039  10.470   0.271   1.554
49671SOL    HW249040  10.498   0.255   1.394
49672SOL     OW49041   9.318   1.326   0.200
49672SOL    HW149042   9.225   1.347   0.169
49672SOL    HW249043   9.328   1.227   0.213
49673SOL     OW49044   9.398   1.801   0.927
49673SOL    HW149045   9.356   1.715   0.900
49673SOL    HW249046   9.492   1.804   0.893
49674SOL     OW49047   9.814   1.568   0.910
49674SOL    HW149048   9.880   1.642   0.919
49674SOL    HW249049   9.858   1.489   0.868
49675SOL     OW49050  10.312   0.796   1.238
49675SOL    HW149051  10.353   0.764   1.324
49675SOL    HW249052  10.216   0.769   1.235
49676SOL     OW49053   9.350   0.544   1.114
49676SOL    HW149054   9.435   0.511   1.073
49676SOL    HW249055   9.363   0.559   1.212
49677SOL     OW49056   9.499   0.520   1.722
49677SOL    HW149057   9.558   0.480   1.652
49677SOL    HW249058   9.441   0.591   1.681
49678SOL     OW49059  10.679   0.950   1.660
49678SOL    HW149060  10.718   1.039   1.680
49678SOL    HW249061  10.689   0.930   1.563
49679SOL     OW49062  10.125   0.572   0.325
49679SOL    HW149063  10.132   0.483   0.279
49679SOL    HW249064  10.031   0.606   0.317
49680SOL     OW49065  10.967   0.604   1.206
49680SOL    HW149066  10.929   0.535   1.268
49680SOL    HW249067  11.049   0.568   1.162
49681SOL     OW49068   9.562   1.564   1.744
49681SOL    HW149069   9.532   1.621   1.820
49681SOL    HW249070   9.555   1.467   1.770
49682SOL     OW49071   9.981   0.464   1.269
49682SOL    HW149072   9.947   0.375   1.239
49682SOL    HW249073  10.007   0.518   1.189
49683SOL     OW49074  10.240   1.678   1.465
49683SOL    HW149075  10.216   1.660   1.370
49683SOL    HW249076  10.270   1.772   1.475
49684SOL     OW49077   9.783   0.500   0.191
49684SOL    HW149078   9.844   0.580   0.195
49684SOL    HW249079   9.688   0.531   0.198
49685SOL     OW49080   9.469   1.137   1.466
49685SOL    HW149081   9.491   1.076   1.542
49685SOL    HW249082   9.479   1.088   1.380
49686SOL     OW49083  10.657   1.059   1.234
49686SOL    HW149084  10.681   0.996   1.160
49686SOL    HW249085  10.567   1.099   1.216
49687SOL     OW49086  10.612   0.855   0.309
49687SOL    HW149087  10.526   0.824   0.351
49687SOL    HW249088  10.608   0.841   0.210
49688SOL     OW49089  11.069   1.747   1.154
49688SOL    HW149090  11.130   1.777   1.081
49688SOL    HW249091  11.031   1.658   1.132
49689SOL     OW49092  10.562   1.731   1.128
49689SOL    HW149093  10.646   1.736   1.074
49689SOL    HW249094  10.539   1.635   1.146
49690SOL     OW49095   9.393   1.258   1.022
49690SOL    HW149096   9.388   1.257   1.122
49690SOL    HW249097   9.310   1.217   0.984
49691SOL     OW49098   9.998   1.662   1.716
49691SOL    HW149099   9.942   1.743   1.725
49691SOL    HW249100  10.050   1.666   1.630
49692SOL     OW49101  10.213   0.086   0.133
49692SOL    HW149102  10.264   0.087   0.047
49692SOL    HW249103  10.269   0.044   0.204
49693SOL     OW49104  11.036   0.135   0.523
49693SOL    HW149105  11.109   0.118   0.456
49693SOL    HW249106  11.005   0.048   0.561
49694SOL     OW49107  10.698   1.573   0.477
49694SOL    HW149108  10.765   1.585   0.403
49694SOL    HW249109  10.658   1.662   0.500
49695SOL     OW49110   9.440   1.794   1.851
49695SOL    HW149111   9.399   1.720   1.904
49695SOL    HW249112   9.504   1.845   1.909
49696SOL     OW49113  10.590   0.927   0.672
49696SOL    HW149114  10.650   0.846   0.674
49696SOL    HW249115  10.630   0.996   0.612
49697SOL     OW49116  10.140   1.273   1.422
49697SOL    HW149117  10.135   1.306   1.517
49697SOL    HW249118  10.054   1.292   1.376
49698SOL     OW49119   9.982   1.616   0.154
49698SOL    HW149120   9.991   1.626   0.055
49698SOL    HW249121   9.942   1.527   0.175
49699SOL     OW49122  10.960   1.720   1.394
49699SOL    HW149123  11.013   1.730   1.310
49699SOL    HW249124  10.933   1.810   1.428
49700SOL     OW49125  11.151   0.175   0.963
49700SOL    HW149126  11.190   0.090   0.927
49700SOL    HW249127  11.053   0.177   0.944
49701SOL     OW49128   9.573   0.326   0.720
49701SOL    HW149129   9.494   0.377   0.686
49701SOL    HW249130   9.564   0.311   0.818
49702SOL     OW49131  10.504   1.612   0.031
49702SOL    HW149132  10.510   1.519   0.068
49702SOL    HW249133  10.445   1.612  -0.049
49703SOL     OW49134  10.132   1.002   1.372
49703SOL    HW149135  10.172   1.001   1.280
49703SOL    HW249136  10.142   1.094   1.412
49704SOL     OW49137  10.226   0.910   0.291
49704SOL    HW149138  10.289   0.948   0.223
49704SOL    HW249139  10.266   0.827   0.330
49705SOL     OW49140  10.814   1.607   0.044
49705SOL    HW149141  10.722   1.644   0.051
49705SOL    HW249142  10.852   1.627  -0.046
49706SOL     OW49143   9.682   1.288   1.490
49706SOL    HW149144   9.669   1.381   1.456
49706SOL    HW249145   9.598   1.236   1.477
49707SOL     OW49146  10.924   1.292   1.289
49707SOL    HW149147  10.984   1.295   1.369
49707SOL    HW249148  10.849   1.356   1.302
49708SOL     OW49149  10.349   1.098   0.696
49708SOL    HW149150  10.279   1.051   0.750
49708SOL    HW249151  10.408   1.030   0.653
49709SOL     OW49152  10.324   0.236   0.971
49709SOL    HW149153  10.316   0.200   0.878
49709SOL    HW249154  10.322   0.160   1.036
49710SOL     OW49155   9.900   1.487   0.491
49710SOL    HW149156   9.942   1.429   0.421
49710SOL    HW249157   9.856   1.566   0.447
49711SOL     OW49158  11.019   0.385   1.381
49711SOL    HW149159  11.092   0.454   1.385
49711SOL    HW249160  11.047   0.310   1.322
49712SOL     OW49161   9.565   1.348   0.290
49712SOL    HW149162   9.469   1.349   0.263
49712SOL    HW249163   9.577   1.401   0.374
49713SOL     OW49164   9.415   1.013   1.726
49713SOL    HW149165   9.338   0.980   1.780
49713SOL    HW249166   9.500   0.983   1.768
49714SOL     OW49167   9.982   0.203   1.489
49714SOL    HW149168  10.072   0.187   1.449
49714SOL    HW249169   9.990   0.208   1.588
49715SOL     OW49170  10.750   0.856   1.398
49715SOL    HW149171  10.693   0.908   1.335
49715SOL    HW249172  10.846   0.868   1.374
49716SOL     OW49173   9.382   0.166   0.318
49716SOL    HW149174   9.365   0.249   0.264
49716SOL    HW249175   9.472   0.129   0.296
49717SOL     OW49176  10.493   1.335   0.119
49717SOL    HW149177  10.394   1.324   0.121
49717SOL    HW249178  10.527   1.350   0.212
49718SOL     OW49179   9.923   0.842   1.431
49718SOL    HW149180   9.979   0.923   1.414
49718SOL    HW249181   9.982   0.762   1.434
49719SOL     OW49182  10.803   1.767   0.959
49719SOL    HW149183  10.836   1.831   0.890
49719SOL    HW249184  10.869   1.761   1.034
49720SOL     OW49185  10.026   0.565   1.708
49720SOL    HW149186  10.045   0.630   1.782
49720SOL    HW249187  10.086   0.485   1.717
49721SOL     OW49188  10.760   1.220   1.633
49721SOL    HW149189  10.751   1.210   1.732
49721SOL    HW249190  10.856   1.213   1.607
49722SOL     OW49191   9.700   1.741   1.560
49722SOL    HW149192   9.609   1.782   1.558
49722SOL    HW249193   9.693   1.647   1.592
49723SOL     OW49194  10.984   0.883   1.254
49723SOL    HW149195  10.957   0.794   1.217
49723SOL    HW249196  10.985   0.951   1.181
49724SOL     OW49197  10.535   0.325   0.449
49724SOL    HW149198  10.600   0.251   0.438
49724SOL    HW249199  10.555   0.375   0.533
49725SOL     OW49200   9.904   0.745   0.652
49725SOL    HW149201   9.954   0.830   0.633
49725SOL    HW249202   9.816   0.747   0.604
49726SOL     OW49203  11.087   0.342   1.642
49726SOL    HW149204  11.070   0.373   1.548
49726SOL    HW249205  11.003   0.305   1.680
49727SOL     OW49206  11.040   0.934   1.517
49727SOL    HW149207  11.078   1.025   1.532
49727SOL    HW249208  11.032   0.917   1.418
49728SOL     OW49209  10.169   1.374   0.016
49728SOL    HW149210  10.123   1.389   0.104
49728SOL    HW249211  10.213   1.459  -0.014
49729SOL     OW49212   9.971   1.790   0.953
49729SOL    HW149213   9.925   1.878   0.940
49729SOL    HW249214  10.070   1.802   0.946
49730SOL     OW49215  10.169   0.956   0.861
49730SOL    HW149216  10.223   0.887   0.909
49730SOL    HW249217  10.137   1.025   0.927
49731SOL     OW49218  10.393   0.984   0.087
49731SOL    HW149219  10.370   1.037   0.005
49731SOL    HW249220  10.474   0.928   0.068
49732SOL     OW49221  11.171   1.569   0.851
49732SOL    HW149222  11.100   1.557   0.781
49732SOL    HW249223  11.172   1.490   0.911
49733SOL     OW49224   9.531   1.314   1.844
49733SOL    HW149225   9.466   1.241   1.823
49733SOL    HW249226   9.535   1.328   1.942
49734SOL     OW49227   9.389   1.240   0.653
49734SOL    HW149228   9.388   1.193   0.741
49734SOL    HW249229   9.471   1.212   0.602
49735SOL     OW49230   9.982   1.391   1.624
49735SOL    HW149231   9.904   1.341   1.662
49735SOL    HW249232   9.979   1.486   1.655
49736SOL     OW49233  11.134   0.192   1.227
49736SOL    HW149234  11.130   0.102   1.271
49736SOL    HW249235  11.137   0.181   1.128
49737SOL     OW49236   9.738   0.424   0.520
49737SOL    HW149237   9.768   0.352   0.458
49737SOL    HW249238   9.699   0.384   0.603
49738SOL     OW49239  11.015   1.487   1.104
49738SOL    HW149240  10.922   1.462   1.077
49738SOL    HW249241  11.041   1.437   1.186
49739SOL     OW49242   9.627   0.547   1.280
49739SOL    HW149243   9.665   0.488   1.352
49739SOL    HW249244   9.667   0.521   1.192
49740SOL     OW49245  10.122   1.586   0.687
49740SOL    HW149246  10.154   1.596   0.593
49740SOL    HW249247  10.043   1.524   0.689
49741SOL     OW49248  10.734   0.214   1.112
49741SOL    HW149249  10.786   0.149   1.167
49741SOL    HW249250  10.685   0.277   1.173
49742SOL     OW49251  10.311   0.034   1.154
49742SOL    HW149252  10.248  -0.038   1.123
49742SOL    HW249253  10.404  -0.002   1.154
49743SOL     OW49254  10.080   1.330   0.301
49743SOL    HW149255  10.034   1.243   0.318
49743SOL    HW249256  10.171   1.327   0.342
49744SOL     OW49257   9.928   1.567   1.284
49744SOL    HW149258   9.923   1.649   1.341
49744SOL    HW249259  10.017   1.564   1.239
49745SOL     OW49260  10.662   0.052   0.168
49745SOL    HW149261  10.697   0.011   0.084
49745SOL    HW249262  10.572   0.014   0.188
49746SOL     OW49263  10.610   0.453   0.691
49746SOL    HW149264  10.551   0.533   0.695
49746SOL    HW249265  10.625   0.418   0.784
49747SOL     OW49266  10.903   0.221   0.882
49747SOL    HW149267  10.819   0.220   0.936
49747SOL    HW249268  10.905   0.304   0.826
49748SOL     OW49269   9.349   1.077   0.300
49748SOL    HW149270   9.448   1.066   0.291
49748SOL    HW249271   9.309   0.991   0.332
49749SOL     OW49272  10.185   1.646   0.337
49749SOL    HW149273  10.108   1.611   0.283
49749SOL    HW249274  10.153   1.717   0.399
49750SOL     OW49275   9.540   0.628   1.975
49750SOL    HW149276   9.447   0.626   2.012
49750SOL    HW249277   9.541   0.589   1.883
49751SOL     OW49278   9.535   0.275   2.858
49751SOL    HW149279   9.570   0.258   2.950
49751SOL    HW249280   9.447   0.230   2.846
49752SOL     OW49281   9.329   0.368   2.509
49752SOL    HW149282   9.247   0.411   2.548
49752SOL    HW249283   9.301   0.295   2.446
49753SOL     OW49284   9.879   1.275   3.027
49753SOL    HW149285   9.786   1.268   2.990
49753SOL    HW249286   9.890   1.364   3.071
49754SOL     OW49287  10.865   1.511   2.565
49754SOL    HW149288  10.808   1.495   2.646
49754SOL    HW249289  10.806   1.521   2.485
49755SOL     OW49290  10.445   0.703   2.579
49755SOL    HW149291  10.502   0.781   2.554
49755SOL    HW249292  10.385   0.729   2.655
49756SOL     OW49293  11.065   0.607   2.093
49756SOL    HW149294  11.053   0.594   1.994
49756SOL    HW249295  11.035   0.526   2.142
49757SOL     OW49296  10.078   1.144   2.885
49757SOL    HW149297  10.000   1.161   2.945
49757SOL    HW249298  10.112   1.231   2.849
49758SOL     OW49299  10.160   0.798   3.685
49758SOL    HW149300  10.156   0.874   3.750
49758SOL    HW249301  10.182   0.834   3.594
49759SOL     OW49302   9.995   1.012   2.527
49759SOL    HW149303  10.064   0.996   2.597
49759SOL    HW249304   9.922   1.069   2.565
49760SOL     OW49305   9.996   1.161   3.665
49760SOL    HW149306  10.056   1.240   3.679
49760SOL    HW249307   9.910   1.192   3.624
49761SOL     OW49308   9.645   1.435   2.923
49761SOL    HW149309   9.567   1.404   2.870
49761SOL    HW249310   9.703   1.493   2.866
49762SOL     OW49311  10.770   1.505   3.201
49762SOL    HW149312  10.794   1.599   3.227
49762SOL    HW249313  10.754   1.451   3.283
49763SOL     OW49314   9.748   0.392   3.361
49763SOL    HW149315   9.830   0.336   3.370
49763SOL    HW249316   9.667   0.334   3.365
49764SOL     OW49317  10.913   0.447   2.599
49764SOL    HW149318  10.839   0.493   2.549
49764SOL    HW249319  10.964   0.515   2.652
49765SOL     OW49320   9.541   1.713   2.345
49765SOL    HW149321   9.575   1.790   2.399
49765SOL    HW249322   9.585   1.713   2.255
49766SOL     OW49323  10.437   1.341   3.552
49766SOL    HW149324  10.484   1.341   3.640
49766SOL    HW249325  10.389   1.254   3.541
49767SOL     OW49326   9.540   1.434   2.400
49767SOL    HW149327   9.514   1.530   2.400
49767SOL    HW249328   9.469   1.380   2.445
49768SOL     OW49329   9.550   1.091   2.748
49768SOL    HW149330   9.564   1.007   2.800
49768SOL    HW249331   9.495   1.155   2.803
49769SOL     OW49332   9.930   1.786   3.301
49769SOL    HW149333   9.838   1.769   3.336
49769SOL    HW249334   9.958   1.878   3.327
49770SOL     OW49335   9.916   0.964   1.985
49770SOL    HW149336   9.923   1.048   1.931
49770SOL    HW249337   9.962   0.977   2.073
49771SOL     OW49338  10.904   0.114   3.342
49771SOL    HW149339  10.886   0.181   3.270
49771SOL    HW249340  10.901   0.160   3.431
49772SOL     OW49341   9.432   0.643   2.425
49772SOL    HW149342   9.387   0.555   2.442
49772SOL    HW249343   9.431   0.697   2.509
49773SOL     OW49344  11.152   1.767   2.221
49773SOL    HW149345  11.206   1.738   2.301
49773SOL    HW249346  11.182   1.857   2.192
49774SOL     OW49347   9.337   1.596   1.979
49774SOL    HW149348   9.318   1.500   2.000
49774SOL    HW249349   9.304   1.654   2.054
49775SOL     OW49350  10.999   0.922   2.474
49775SOL    HW149351  11.094   0.893   2.482
49775SOL    HW249352  10.991   0.987   2.399
49776SOL     OW49353  10.951   1.108   2.294
49776SOL    HW149354  11.037   1.110   2.242
49776SOL    HW249355  10.965   1.155   2.382
49777SOL     OW49356   9.423   0.737   3.459
49777SOL    HW149357   9.511   0.724   3.504
49777SOL    HW249358   9.410   0.834   3.437
49778SOL     OW49359   9.923   1.365   2.588
49778SOL    HW149360   9.874   1.278   2.597
49778SOL    HW249361   9.900   1.408   2.501
49779SOL     OW49362  10.603   1.228   3.285
49779SOL    HW149363  10.640   1.155   3.227
49779SOL    HW249364  10.655   1.233   3.370
49780SOL     OW49365  10.119   0.004   2.364
49780SOL    HW149366  10.159   0.095   2.355
49780SOL    HW249367  10.019   0.012   2.370
49781SOL     OW49368   9.507   0.976   3.126
49781SOL    HW149369   9.596   0.931   3.112
49781SOL    HW249370   9.434   0.911   3.107
49782SOL     OW49371  10.835   0.999   2.052
49782SOL    HW149372  10.772   0.923   2.065
49782SOL    HW249373  10.883   1.017   2.138
49783SOL     OW49374  10.497   1.792   3.478
49783SOL    HW149375  10.521   1.852   3.402
49783SOL    HW249376  10.504   1.697   3.448
49784SOL     OW49377   9.627   0.251   3.663
49784SOL    HW149378   9.698   0.322   3.669
49784SOL    HW249379   9.539   0.290   3.691
49785SOL     OW49380  10.776   1.417   2.815
49785SOL    HW149381  10.717   1.423   2.895
49785SOL    HW249382  10.761   1.329   2.769
49786SOL     OW49383  10.977   1.714   2.434
49786SOL    HW149384  10.936   1.691   2.346
49786SOL    HW249385  10.959   1.640   2.499
49787SOL     OW49386   9.908   0.729   2.132
49787SOL    HW149387   9.932   0.798   2.064
49787SOL    HW249388   9.830   0.762   2.186
49788SOL     OW49389  10.591   0.345   2.806
49788SOL    HW149390  10.505   0.295   2.793
49788SOL    HW249391  10.653   0.291   2.862
49789SOL     OW49392  10.886   1.662   2.169
49789SOL    HW149393  10.975   1.708   2.172
49789SOL    HW249394  10.865   1.638   2.074
49790SOL     OW49395  10.117   0.605   3.327
49790SOL    HW149396  10.070   0.602   3.416
49790SOL    HW249397  10.066   0.550   3.261
49791SOL     OW49398  10.704   0.469   3.536
49791SOL    HW149399  10.684   0.512   3.624
49791SOL    HW249400  10.782   0.407   3.545
49792SOL     OW49401  10.283   0.890   3.434
49792SOL    HW149402  10.329   0.806   3.405
49792SOL    HW249403  10.227   0.924   3.359
49793SOL     OW49404  10.301   0.410   3.104
49793SOL    HW149405  10.224   0.444   3.158
49793SOL    HW249406  10.267   0.359   3.025
49794SOL     OW49407  10.351   0.701   2.291
49794SOL    HW149408  10.377   0.697   2.387
49794SOL    HW249409  10.266   0.650   2.277
49795SOL     OW49410   9.386   0.811   2.651
49795SOL    HW149411   9.485   0.799   2.660
49795SOL    HW249412   9.362   0.906   2.672
49796SOL     OW49413   9.440   1.821   3.433
49796SOL    HW149414   9.430   1.806   3.532
49796SOL    HW249415   9.354   1.857   3.397
49797SOL     OW49416  10.175   0.348   2.057
49797SOL    HW149417  10.234   0.411   2.008
49797SOL    HW249418  10.194   0.254   2.028
49798SOL     OW49419  11.029   0.585   3.693
49798SOL    HW149420  11.003   0.674   3.657
49798SOL    HW249421  11.027   0.517   3.620
49799SOL     OW49422  10.672   1.144   2.407
49799SOL    HW149423  10.755   1.115   2.359
49799SOL    HW249424  10.623   1.211   2.351
49800SOL     OW49425   9.860   0.196   2.747
49800SOL    HW149426   9.855   0.191   2.847
49800SOL    HW249427   9.862   0.292   2.718
49801SOL     OW49428  10.318   1.456   2.339
49801SOL    HW149429  10.272   1.528   2.287
49801SOL    HW249430  10.314   1.476   2.437
49802SOL     OW49431   9.661   1.801   2.715
49802SOL    HW149432   9.711   1.715   2.721
49802SOL    HW249433   9.726   1.878   2.712
49803SOL     OW49434  11.105   1.066   2.735
49803SOL    HW149435  11.043   1.051   2.659
49803SOL    HW249436  11.053   1.077   2.820
49804SOL     OW49437  10.537   1.550   3.368
49804SOL    HW149438  10.543   1.473   3.432
49804SOL    HW249439  10.485   1.524   3.288
49805SOL     OW49440   9.631   0.943   2.104
49805SOL    HW149441   9.713   0.982   2.062
49805SOL    HW249442   9.604   0.861   2.055
49806SOL     OW49443  10.768   0.735   2.590
49806SOL    HW149444  10.763   0.670   2.665
49806SOL    HW249445  10.848   0.794   2.603
49807SOL     OW49446   9.771   1.266   3.589
49807SOL    HW149447   9.721   1.267   3.503
49807SOL    HW249448   9.708   1.248   3.665
49808SOL     OW49449  10.421   1.776   2.099
49808SOL    HW149450  10.361   1.714   2.149
49808SOL    HW249451  10.452   1.732   2.014
49809SOL     OW49452   9.512   0.285   3.360
49809SOL    HW149453   9.432   0.345   3.347
49809SOL    HW249454   9.502   0.236   3.446
49810SOL     OW49455  10.942   1.377   1.943
49810SOL    HW149456  10.910   1.471   1.933
49810SOL    HW249457  10.866   1.314   1.931
49811SOL     OW49458   9.774   1.743   2.185
49811SOL    HW149459   9.807   1.782   2.271
49811SOL    HW249460   9.850   1.736   2.120
49812SOL     OW49461  10.710   0.107   2.288
49812SOL    HW149462  10.686   0.070   2.198
49812SOL    HW249463  10.809   0.123   2.292
49813SOL     OW49464   9.559   1.785   3.103
49813SOL    HW149465   9.616   1.720   3.153
49813SOL    HW249466   9.543   1.752   3.010
49814SOL     OW49467  10.250   1.698   2.766
49814SOL    HW149468  10.330   1.641   2.787
49814SOL    HW249469  10.201   1.658   2.689
49815SOL     OW49470   9.692   0.700   2.342
49815SOL    HW149471   9.737   0.610   2.339
49815SOL    HW249472   9.598   0.689   2.375
49816SOL     OW49473  10.857   0.222   3.591
49816SOL    HW149474  10.852   0.259   3.683
49816SOL    HW249475  10.785   0.153   3.579
49817SOL     OW49476   9.924   0.122   1.979
49817SOL    HW149477  10.022   0.100   1.986
49817SOL    HW249478   9.893   0.105   1.886
49818SOL     OW49479  10.091   0.264   3.611
49818SOL    HW149480  10.158   0.203   3.654
49818SOL    HW249481  10.018   0.283   3.676
49819SOL     OW49482  10.198   1.514   3.057
49819SOL    HW149483  10.175   1.489   2.963
49819SOL    HW249484  10.259   1.445   3.096
49820SOL     OW49485  10.661   0.590   3.295
49820SOL    HW149486  10.689   0.547   3.380
49820SOL    HW249487  10.686   0.686   3.296
49821SOL     OW49488  10.113   1.402   2.786
49821SOL    HW149489  10.203   1.416   2.744
49821SOL    HW249490  10.042   1.404   2.715
49822SOL     OW49491  10.232   0.503   2.761
49822SOL    HW149492  10.207   0.494   2.665
49822SOL    HW249493  10.280   0.421   2.792
49823SOL     OW49494   9.849   0.064   2.374
49823SOL    HW149495   9.768   0.065   2.432
49823SOL    HW249496   9.852   0.147   2.319
49824SOL     OW49497  10.744   1.188   1.903
49824SOL    HW149498  10.776   1.112   1.960
49824SOL    HW249499  10.652   1.215   1.933
49825SOL     OW49500   9.607   0.035   2.033
49825SOL    HW149501   9.656   0.119   2.012
49825SOL    HW249502   9.669  -0.030   2.078
49826SOL     OW49503  10.245   0.236   2.342
49826SOL    HW149504  10.197   0.277   2.264
49826SOL    HW249505  10.344   0.234   2.323
49827SOL     OW49506  10.386   0.683   3.326
49827SOL    HW149507  10.306   0.622   3.329
49827SOL    HW249508  10.467   0.630   3.302
49828SOL     OW49509  10.537   1.570   2.655
49828SOL    HW149510  10.558   1.644   2.590
49828SOL    HW249511  10.605   1.570   2.728
49829SOL     OW49512   9.769   1.152   2.603
49829SOL    HW149513   9.698   1.125   2.668
49829SOL    HW249514   9.743   1.124   2.510
49830SOL     OW49515  10.581   1.797   2.453
49830SOL    HW149516  10.625   1.861   2.389
49830SOL    HW249517  10.531   1.849   2.523
49831SOL     OW49518  10.342   0.549   1.878
49831SOL    HW149519  10.301   0.631   1.839
49831SOL    HW249520  10.406   0.575   1.951
49832SOL     OW49521   9.388   0.556   3.248
49832SOL    HW149522   9.480   0.555   3.207
49832SOL    HW249523   9.382   0.630   3.315
49833SOL     OW49524   9.871   0.222   3.009
49833SOL    HW149525   9.909   0.138   3.046
49833SOL    HW249526   9.783   0.241   3.053
49834SOL     OW49527  10.176   0.454   2.504
49834SOL    HW149528  10.144   0.526   2.442
49834SOL    HW249529  10.200   0.373   2.451
49835SOL     OW49530  10.327   0.039   2.615
49835SOL    HW149531  10.255   0.044   2.546
49835SOL    HW249532  10.303  -0.030   2.684
49836SOL     OW49533  10.739   1.173   2.729
49836SOL    HW149534  10.684   1.089   2.722
49836SOL    HW249535  10.765   1.202   2.637
49837SOL     OW49536  10.776   0.590   2.854
49837SOL    HW149537  10.746   0.495   2.861
49837SOL    HW249538  10.849   0.606   2.920
49838SOL     OW49539  11.167   0.833   2.239
49838SOL    HW149540  11.209   0.769   2.303
49838SOL    HW249541  11.129   0.782   2.161
49839SOL     OW49542   9.798   1.385   2.036
49839SOL    HW149543   9.711   1.370   2.083
49839SOL    HW249544   9.781   1.411   1.941
49840SOL     OW49545  10.974   1.280   2.519
49840SOL    HW149546  11.073   1.288   2.533
49840SOL    HW249547  10.929   1.364   2.550
49841SOL     OW49548  10.700   0.575   1.940
49841SOL    HW149549  10.646   0.554   2.021
49841SOL    HW249550  10.791   0.534   1.949
49842SOL     OW49551   9.837   0.256   2.190
49842SOL    HW149552   9.864   0.197   2.115
49842SOL    HW249553   9.837   0.351   2.159
49843SOL     OW49554  11.064   1.223   3.450
49843SOL    HW149555  11.155   1.184   3.437
49843SOL    HW249556  11.072   1.319   3.474
49844SOL     OW49557  10.374   1.347   3.202
49844SOL    HW149558  10.294   1.324   3.257
49844SOL    HW249559  10.457   1.321   3.251
49845SOL     OW49560  10.902   1.629   3.487
49845SOL    HW149561  10.929   1.663   3.397
49845SOL    HW249562  10.981   1.591   3.533
49846SOL     OW49563  10.421   1.195   2.962
49846SOL    HW149564  10.381   1.239   3.043
49846SOL    HW249565  10.380   1.232   2.879
49847SOL     OW49566  10.948   1.099   2.941
49847SOL    HW149567  10.953   1.180   3.000
49847SOL    HW249568  10.862   1.101   2.890
49848SOL     OW49569  10.225   0.089   3.264
49848SOL    HW149570  10.250   0.069   3.169
49848SOL    HW249571  10.297   0.145   3.306
49849SOL     OW49572  10.290   1.116   3.581
49849SOL    HW149573  10.191   1.122   3.591
49849SOL    HW249574  10.313   1.036   3.525
49850SOL     OW49575  10.015   1.050   2.230
49850SOL    HW149576  10.001   1.057   2.329
49850SOL    HW249577  10.099   0.999   2.212
49851SOL     OW49578   9.720   0.813   3.113
49851SOL    HW149579   9.806   0.825   3.163
49851SOL    HW249580   9.678   0.726   3.140
49852SOL     OW49581  10.584   0.386   3.124
49852SOL    HW149582  10.605   0.460   3.188
49852SOL    HW249583  10.495   0.403   3.081
49853SOL     OW49584   9.374   1.564   3.193
49853SOL    HW149585   9.328   1.646   3.159
49853SOL    HW249586   9.472   1.583   3.202
49854SOL     OW49587   9.677   1.100   2.363
49854SOL    HW149588   9.670   1.183   2.307
49854SOL    HW249589   9.681   1.020   2.303
49855SOL     OW49590   9.876   0.537   2.727
49855SOL    HW149591   9.888   0.603   2.653
49855SOL    HW249592   9.922   0.571   2.810
49856SOL     OW49593  10.562   1.348   2.250
49856SOL    HW149594  10.612   1.425   2.290
49856SOL    HW249595  10.467   1.350   2.282
49857SOL     OW49596  10.582   1.445   3.004
49857SOL    HW149597  10.629   1.458   3.091
49857SOL    HW249598  10.516   1.371   3.013
49858SOL     OW49599  10.892   0.639   2.334
49858SOL    HW149600  10.861   0.700   2.407
49858SOL    HW249601  10.942   0.691   2.265
49859SOL     OW49602   9.664   1.510   3.191
49859SOL    HW149603   9.643   1.466   3.104
49859SOL    HW249604   9.761   1.536   3.194
49860SOL     OW49605   9.712   0.751   3.460
49860SOL    HW149606   9.780   0.806   3.413
49860SOL    HW249607   9.752   0.663   3.487
49861SOL     OW49608  10.897   0.779   3.532
49861SOL    HW149609  10.805   0.817   3.527
49861SOL    HW249610  10.957   0.826   3.467
49862SOL     OW49611  10.323   0.105   3.632
49862SOL    HW149612  10.329   0.190   3.580
49862SOL    HW249613  10.355   0.029   3.575
49863SOL     OW49614   9.814   0.050   3.602
49863SOL    HW149615   9.772  -0.007   3.532
49863SOL    HW249616   9.748   0.119   3.634
49864SOL     OW49617   9.883   0.870   2.891
49864SOL    HW149618   9.927   0.959   2.882
49864SOL    HW249619   9.820   0.870   2.968
49865SOL     OW49620  10.670   0.862   2.907
49865SOL    HW149621  10.595   0.862   2.841
49865SOL    HW249622  10.707   0.770   2.916
49866SOL     OW49623  10.519   0.525   2.137
49866SOL    HW149624  10.532   0.441   2.191
49866SOL    HW249625  10.490   0.599   2.197
49867SOL     OW49626   9.617   0.213   3.093
49867SOL    HW149627   9.594   0.250   3.183
49867SOL    HW249628   9.587   0.118   3.087
49868SOL     OW49629   9.347   1.310   3.144
49868SOL    HW149630   9.400   1.261   3.212
49868SOL    HW249631   9.369   1.408   3.149
49869SOL     OW49632  10.042   0.634   2.926
49869SOL    HW149633  10.101   0.608   2.850
49869SOL    HW249634  10.014   0.730   2.915
49870SOL     OW49635  11.038   0.935   3.716
49870SOL    HW149636  10.992   0.928   3.627
49870SOL    HW249637  10.976   0.979   3.782
49871SOL     OW49638   9.617   0.063   2.480
49871SOL    HW149639   9.606   0.157   2.513
49871SOL    HW249640   9.612   0.000   2.557
49872SOL     OW49641  10.932   0.367   2.236
49872SOL    HW149642  10.934   0.291   2.300
49872SOL    HW249643  10.884   0.444   2.276
49873SOL     OW49644  10.333   0.766   2.828
49873SOL    HW149645  10.348   0.787   2.924
49873SOL    HW249646  10.303   0.671   2.819
49874SOL     OW49647  10.290   1.573   3.562
49874SOL    HW149648  10.270   1.617   3.474
49874SOL    HW249649  10.329   1.482   3.546
49875SOL     OW49650  11.169   1.518   3.467
49875SOL    HW149651  11.183   1.545   3.372
49875SOL    HW249652  11.252   1.540   3.520
49876SOL     OW49653   9.660   0.898   3.666
49876SOL    HW149654   9.736   0.942   3.714
49876SOL    HW249655   9.695   0.851   3.584
49877SOL     OW49656  10.850   0.274   1.987
49877SOL    HW149657  10.789   0.199   2.010
49877SOL    HW249658  10.872   0.326   2.070
49878SOL     OW49659  10.613   0.838   1.904
49878SOL    HW149660  10.647   0.745   1.919
49878SOL    HW249661  10.631   0.865   1.809
49879SOL     OW49662  10.378   1.333   2.711
49879SOL    HW149663  10.385   1.249   2.656
49879SOL    HW249664  10.440   1.402   2.675
49880SOL     OW49665   9.629   0.810   2.811
49880SOL    HW149666   9.722   0.846   2.816
49880SOL    HW249667   9.623   0.725   2.863
49881SOL     OW49668   9.649   0.509   2.868
49881SOL    HW149669   9.597   0.426   2.851
49881SOL    HW249670   9.726   0.514   2.804
49882SOL     OW49671  10.448   0.380   3.540
49882SOL    HW149672  10.403   0.443   3.604
49882SOL    HW249673  10.541   0.411   3.523
49883SOL     OW49674  10.470   0.207   3.339
49883SOL    HW149675  10.470   0.271   3.416
49883SOL    HW249676  10.498   0.255   3.256
49884SOL     OW49677   9.318   1.326   2.062
49884SOL    HW149678   9.225   1.347   2.031
49884SOL    HW249679   9.328   1.227   2.075
49885SOL     OW49680   9.398   1.801   2.789
49885SOL    HW149681   9.356   1.715   2.762
49885SOL    HW249682   9.492   1.804   2.755
49886SOL     OW49683   9.814   1.568   2.772
49886SOL    HW149684   9.880   1.642   2.781
49886SOL    HW249685   9.858   1.489   2.730
49887SOL     OW49686  10.312   0.796   3.100
49887SOL    HW149687  10.353   0.764   3.186
49887SOL    HW249688  10.216   0.769   3.097
49888SOL     OW49689   9.350   0.544   2.976
49888SOL    HW149690   9.435   0.511   2.935
49888SOL    HW249691   9.363   0.559   3.074
49889SOL     OW49692   9.499   0.520   3.584
49889SOL    HW149693   9.558   0.480   3.514
49889SOL    HW249694   9.441   0.591   3.543
49890SOL     OW49695  10.679   0.950   3.522
49890SOL    HW149696  10.718   1.039   3.542
49890SOL    HW249697  10.689   0.930   3.425
49891SOL     OW49698  10.125   0.572   2.187
49891SOL    HW149699  10.132   0.483   2.141
49891SOL    HW249700  10.031   0.606   2.179
49892SOL     OW49701  10.967   0.604   3.068
49892SOL    HW149702  10.929   0.535   3.130
49892SOL    HW249703  11.049   0.568   3.024
49893SOL     OW49704   9.562   1.564   3.606
49893SOL    HW149705   9.532   1.621   3.682
49893SOL    HW249706   9.555   1.467   3.632
49894SOL     OW49707   9.981   0.464   3.131
49894SOL    HW149708   9.947   0.375   3.101
49894SOL    HW249709  10.007   0.518   3.051
49895SOL     OW49710  10.240   1.678   3.327
49895SOL    HW149711  10.216   1.660   3.232
49895SOL    HW249712  10.270   1.772   3.337
49896SOL     OW49713   9.783   0.500   2.053
49896SOL    HW149714   9.844   0.580   2.057
49896SOL    HW249715   9.688   0.531   2.060
49897SOL     OW49716   9.469   1.137   3.328
49897SOL    HW149717   9.491   1.076   3.404
49897SOL    HW249718   9.479   1.088   3.242
49898SOL     OW49719  10.657   1.059   3.096
49898SOL    HW149720  10.681   0.996   3.022
49898SOL    HW249721  10.567   1.099   3.078
49899SOL     OW49722  10.612   0.855   2.171
49899SOL    HW149723  10.526   0.824   2.213
49899SOL    HW249724  10.608   0.841   2.072
49900SOL     OW49725  11.069   1.747   3.016
49900SOL    HW149726  11.130   1.777   2.943
49900SOL    HW249727  11.031   1.658   2.994
49901SOL     OW49728  10.562   1.731   2.990
49901SOL    HW149729  10.646   1.736   2.936
49901SOL    HW249730  10.539   1.635   3.008
49902SOL     OW49731   9.393   1.258   2.884
49902SOL    HW149732   9.388   1.257   2.984
49902SOL    HW249733   9.310   1.217   2.846
49903SOL     OW49734   9.998   1.662   3.578
49903SOL    HW149735   9.942   1.743   3.587
49903SOL    HW249736  10.050   1.666   3.492
49904SOL     OW49737  11.036   0.135   2.385
49904SOL    HW149738  11.109   0.118   2.318
49904SOL    HW249739  11.005   0.048   2.423
49905SOL     OW49740  10.698   1.573   2.339
49905SOL    HW149741  10.765   1.585   2.265
49905SOL    HW249742  10.658   1.662   2.362
49906SOL     OW49743   9.440   1.794   3.713
49906SOL    HW149744   9.399   1.720   3.766
49906SOL    HW249745   9.504   1.845   3.771
49907SOL     OW49746  10.590   0.927   2.534
49907SOL    HW149747  10.650   0.846   2.536
49907SOL    HW249748  10.630   0.996   2.474
49908SOL     OW49749  10.140   1.273   3.284
49908SOL    HW149750  10.135   1.306   3.379
49908SOL    HW249751  10.054   1.292   3.238
49909SOL     OW49752   9.982   1.616   2.016
49909SOL    HW149753   9.991   1.626   1.917
49909SOL    HW249754   9.942   1.527   2.037
49910SOL     OW49755  10.960   1.720   3.256
49910SOL    HW149756  11.013   1.730   3.172
49910SOL    HW249757  10.933   1.810   3.290
49911SOL     OW49758  11.151   0.175   2.825
49911SOL    HW149759  11.190   0.090   2.789
49911SOL    HW249760  11.053   0.177   2.806
49912SOL     OW49761   9.573   0.326   2.582
49912SOL    HW149762   9.494   0.377   2.548
49912SOL    HW249763   9.564   0.311   2.680
49913SOL     OW49764  10.504   1.612   1.893
49913SOL    HW149765  10.510   1.519   1.930
49913SOL    HW249766  10.445   1.612   1.813
49914SOL     OW49767  10.132   1.002   3.234
49914SOL    HW149768  10.172   1.001   3.142
49914SOL    HW249769  10.142   1.094   3.274
49915SOL     OW49770  10.226   0.910   2.153
49915SOL    HW149771  10.289   0.948   2.085
49915SOL    HW249772  10.266   0.827   2.192
49916SOL     OW49773  10.814   1.607   1.906
49916SOL    HW149774  10.722   1.644   1.913
49916SOL    HW249775  10.852   1.627   1.816
49917SOL     OW49776   9.682   1.288   3.352
49917SOL    HW149777   9.669   1.381   3.318
49917SOL    HW249778   9.598   1.236   3.339
49918SOL     OW49779  10.924   1.292   3.151
49918SOL    HW149780  10.984   1.295   3.231
49918SOL    HW249781  10.849   1.356   3.164
49919SOL     OW49782  10.349   1.098   2.558
49919SOL    HW149783  10.279   1.051   2.612
49919SOL    HW249784  10.408   1.030   2.515
49920SOL     OW49785  10.324   0.236   2.833
49920SOL    HW149786  10.316   0.200   2.740
49920SOL    HW249787  10.322   0.160   2.898
49921SOL     OW49788   9.900   1.487   2.353
49921SOL    HW149789   9.942   1.429   2.283
49921SOL    HW249790   9.856   1.566   2.309
49922SOL     OW49791  11.019   0.385   3.243
49922SOL    HW149792  11.092   0.454   3.247
49922SOL    HW249793  11.047   0.310   3.184
49923SOL     OW49794   9.565   1.348   2.152
49923SOL    HW149795   9.469   1.349   2.125
49923SOL    HW249796   9.577   1.401   2.236
49924SOL     OW49797   9.415   1.013   3.588
49924SOL    HW149798   9.338   0.980   3.642
49924SOL    HW249799   9.500   0.983   3.630
49925SOL     OW49800   9.982   0.203   3.351
49925SOL    HW149801  10.072   0.187   3.311
49925SOL    HW249802   9.990   0.208   3.450
49926SOL     OW49803   9.385   0.345   1.895
49926SOL    HW149804   9.293   0.317   1.866
49926SOL    HW249805   9.416   0.422   1.839
49927SOL     OW49806  10.750   0.856   3.260
49927SOL    HW149807  10.693   0.908   3.197
49927SOL    HW249808  10.846   0.868   3.236
49928SOL     OW49809   9.382   0.166   2.180
49928SOL    HW149810   9.365   0.249   2.126
49928SOL    HW249811   9.472   0.129   2.158
49929SOL     OW49812  10.493   1.335   1.981
49929SOL    HW149813  10.394   1.324   1.983
49929SOL    HW249814  10.527   1.350   2.074
49930SOL     OW49815   9.923   0.842   3.293
49930SOL    HW149816   9.979   0.923   3.276
49930SOL    HW249817   9.982   0.762   3.296
49931SOL     OW49818  10.803   1.767   2.821
49931SOL    HW149819  10.836   1.831   2.752
49931SOL    HW249820  10.869   1.761   2.896
49932SOL     OW49821  10.026   0.565   3.570
49932SOL    HW149822  10.045   0.630   3.644
49932SOL    HW249823  10.086   0.485   3.579
49933SOL     OW49824  10.760   1.220   3.495
49933SOL    HW149825  10.751   1.210   3.594
49933SOL    HW249826  10.856   1.213   3.469
49934SOL     OW49827   9.700   1.741   3.422
49934SOL    HW149828   9.609   1.782   3.420
49934SOL    HW249829   9.693   1.647   3.454
49935SOL     OW49830  10.984   0.883   3.116
49935SOL    HW149831  10.957   0.794   3.079
49935SOL    HW249832  10.985   0.951   3.043
49936SOL     OW49833  10.535   0.325   2.311
49936SOL    HW149834  10.600   0.251   2.300
49936SOL    HW249835  10.555   0.375   2.395
49937SOL     OW49836   9.904   0.745   2.514
49937SOL    HW149837   9.954   0.830   2.495
49937SOL    HW249838   9.816   0.747   2.466
49938SOL     OW49839  11.087   0.342   3.504
49938SOL    HW149840  11.070   0.373   3.410
49938SOL    HW249841  11.003   0.305   3.542
49939SOL     OW49842  11.040   0.934   3.379
49939SOL    HW149843  11.078   1.025   3.394
49939SOL    HW249844  11.032   0.917   3.280
49940SOL     OW49845  10.169   1.374   1.878
49940SOL    HW149846  10.123   1.389   1.966
49940SOL    HW249847  10.213   1.459   1.848
49941SOL     OW49848   9.971   1.790   2.815
49941SOL    HW149849   9.925   1.878   2.802
49941SOL    HW249850  10.070   1.802   2.808
49942SOL     OW49851  10.169   0.956   2.723
49942SOL    HW149852  10.223   0.887   2.771
49942SOL    HW249853  10.137   1.025   2.789
49943SOL     OW49854  10.393   0.984   1.949
49943SOL    HW149855  10.370   1.037   1.867
49943SOL    HW249856  10.474   0.928   1.930
49944SOL     OW49857  11.171   1.569   2.713
49944SOL    HW149858  11.100   1.557   2.643
49944SOL    HW249859  11.172   1.490   2.773
49945SOL     OW49860   9.531   1.314   3.706
49945SOL    HW149861   9.466   1.241   3.685
49945SOL    HW249862   9.535   1.328   3.804
49946SOL     OW49863   9.389   1.240   2.515
49946SOL    HW149864   9.388   1.193   2.603
49946SOL    HW249865   9.471   1.212   2.464
49947SOL     OW49866   9.982   1.391   3.486
49947SOL    HW149867   9.904   1.341   3.524
49947SOL    HW249868   9.979   1.486   3.517
49948SOL     OW49869  11.134   0.192   3.089
49948SOL    HW149870  11.130   0.102   3.133
49948SOL    HW249871  11.137   0.181   2.990
49949SOL     OW49872   9.738   0.424   2.382
49949SOL    HW149873   9.768   0.352   2.320
49949SOL    HW249874   9.699   0.384   2.465
49950SOL     OW49875  11.015   1.487   2.966
49950SOL    HW149876  10.922   1.462   2.939
49950SOL    HW249877  11.041   1.437   3.048
49951SOL     OW49878   9.627   0.547   3.142
49951SOL    HW149879   9.665   0.488   3.214
49951SOL    HW249880   9.667   0.521   3.054
49952SOL     OW49881  10.122   1.586   2.549
49952SOL    HW149882  10.154   1.596   2.455
49952SOL    HW249883  10.043   1.524   2.551
49953SOL     OW49884  10.734   0.214   2.974
49953SOL    HW149885  10.786   0.149   3.029
49953SOL    HW249886  10.685   0.277   3.035
49954SOL     OW49887  10.311   0.034   3.016
49954SOL    HW149888  10.248  -0.038   2.985
49954SOL    HW249889  10.404  -0.002   3.016
49955SOL     OW49890  10.080   1.330   2.163
49955SOL    HW149891  10.034   1.243   2.180
49955SOL    HW249892  10.171   1.327   2.204
49956SOL     OW49893   9.928   1.567   3.146
49956SOL    HW149894   9.923   1.649   3.203
49956SOL    HW249895  10.017   1.564   3.101
49957SOL     OW49896  10.662   0.052   2.030
49957SOL    HW149897  10.697   0.011   1.946
49957SOL    HW249898  10.572   0.014   2.050
49958SOL     OW49899  10.610   0.453   2.553
49958SOL    HW149900  10.551   0.533   2.557
49958SOL    HW249901  10.625   0.418   2.646
49959SOL     OW49902  10.903   0.221   2.744
49959SOL    HW149903  10.819   0.220   2.798
49959SOL    HW249904  10.905   0.304   2.688
49960SOL     OW49905   9.349   1.077   2.162
49960SOL    HW149906   9.448   1.066   2.153
49960SOL    HW249907   9.309   0.991   2.194
49961SOL     OW49908  10.185   1.646   2.199
49961SOL    HW149909  10.108   1.611   2.145
49961SOL    HW249910  10.153   1.717   2.261
49962SOL     OW49911   9.540   0.628   3.837
49962SOL    HW149912   9.447   0.626   3.874
49962SOL    HW249913   9.541   0.589   3.745
49963SOL     OW49914   9.535   0.275   4.720
49963SOL    HW149915   9.570   0.258   4.812
49963SOL    HW249916   9.447   0.230   4.708
49964SOL     OW49917   9.329   0.368   4.371
49964SOL    HW149918   9.247   0.411   4.410
49964SOL    HW249919   9.301   0.295   4.308
49965SOL     OW49920   9.879   1.275   4.889
49965SOL    HW149921   9.786   1.268   4.852
49965SOL    HW249922   9.890   1.364   4.933
49966SOL     OW49923  10.865   1.511   4.427
49966SOL    HW149924  10.808   1.495   4.508
49966SOL    HW249925  10.806   1.521   4.347
49967SOL     OW49926  10.445   0.703   4.441
49967SOL    HW149927  10.502   0.781   4.416
49967SOL    HW249928  10.385   0.729   4.517
49968SOL     OW49929  11.065   0.607   3.955
49968SOL    HW149930  11.053   0.594   3.856
49968SOL    HW249931  11.035   0.526   4.004
49969SOL     OW49932  10.078   1.144   4.747
49969SOL    HW149933  10.000   1.161   4.807
49969SOL    HW249934  10.112   1.231   4.711
49970SOL     OW49935  10.160   0.798   5.547
49970SOL    HW149936  10.156   0.874   5.612
49970SOL    HW249937  10.182   0.834   5.456
49971SOL     OW49938   9.995   1.012   4.389
49971SOL    HW149939  10.064   0.996   4.459
49971SOL    HW249940   9.922   1.069   4.427
49972SOL     OW49941   9.996   1.161   5.527
49972SOL    HW149942  10.056   1.240   5.541
49972SOL    HW249943   9.910   1.192   5.486
49973SOL     OW49944   9.645   1.435   4.785
49973SOL    HW149945   9.567   1.404   4.732
49973SOL    HW249946   9.703   1.493   4.728
49974SOL     OW49947  10.770   1.505   5.063
49974SOL    HW149948  10.794   1.599   5.089
49974SOL    HW249949  10.754   1.451   5.145
49975SOL     OW49950   9.748   0.392   5.223
49975SOL    HW149951   9.830   0.336   5.232
49975SOL    HW249952   9.667   0.334   5.227
49976SOL     OW49953  10.913   0.447   4.461
49976SOL    HW149954  10.839   0.493   4.411
49976SOL    HW249955  10.964   0.515   4.514
49977SOL     OW49956   9.541   1.713   4.207
49977SOL    HW149957   9.575   1.790   4.261
49977SOL    HW249958   9.585   1.713   4.117
49978SOL     OW49959  10.437   1.341   5.414
49978SOL    HW149960  10.484   1.341   5.502
49978SOL    HW249961  10.389   1.254   5.403
49979SOL     OW49962   9.540   1.434   4.262
49979SOL    HW149963   9.514   1.530   4.262
49979SOL    HW249964   9.469   1.380   4.307
49980SOL     OW49965   9.550   1.091   4.610
49980SOL    HW149966   9.564   1.007   4.662
49980SOL    HW249967   9.495   1.155   4.665
49981SOL     OW49968   9.930   1.786   5.163
49981SOL    HW149969   9.838   1.769   5.198
49981SOL    HW249970   9.958   1.878   5.189
49982SOL     OW49971   9.916   0.964   3.847
49982SOL    HW149972   9.923   1.048   3.793
49982SOL    HW249973   9.962   0.977   3.935
49983SOL     OW49974  10.904   0.114   5.204
49983SOL    HW149975  10.886   0.181   5.132
49983SOL    HW249976  10.901   0.160   5.293
49984SOL     OW49977   9.432   0.643   4.287
49984SOL    HW149978   9.387   0.555   4.304
49984SOL    HW249979   9.431   0.697   4.371
49985SOL     OW49980  11.152   1.767   4.083
49985SOL    HW149981  11.206   1.738   4.163
49985SOL    HW249982  11.182   1.857   4.054
49986SOL     OW49983   9.337   1.596   3.841
49986SOL    HW149984   9.318   1.500   3.862
49986SOL    HW249985   9.304   1.654   3.916
49987SOL     OW49986  10.999   0.922   4.336
49987SOL    HW149987  11.094   0.893   4.344
49987SOL    HW249988  10.991   0.987   4.261
49988SOL     OW49989  10.951   1.108   4.156
49988SOL    HW149990  11.037   1.110   4.104
49988SOL    HW249991  10.965   1.155   4.244
49989SOL     OW49992   9.423   0.737   5.321
49989SOL    HW149993   9.511   0.724   5.366
49989SOL    HW249994   9.410   0.834   5.299
49990SOL     OW49995   9.923   1.365   4.450
49990SOL    HW149996   9.874   1.278   4.459
49990SOL    HW249997   9.900   1.408   4.363
49991SOL     OW49998  10.603   1.228   5.147
49991SOL    HW149999  10.640   1.155   5.089
49991SOL    HW250000  10.655   1.233   5.232
49992SOL     OW50001  10.119   0.004   4.226
49992SOL    HW150002  10.159   0.095   4.217
49992SOL    HW250003  10.019   0.012   4.232
49993SOL     OW50004   9.507   0.976   4.988
49993SOL    HW150005   9.596   0.931   4.974
49993SOL    HW250006   9.434   0.911   4.969
49994SOL     OW50007  10.835   0.999   3.914
49994SOL    HW150008  10.772   0.923   3.927
49994SOL    HW250009  10.883   1.017   4.000
49995SOL     OW50010  10.497   1.792   5.340
49995SOL    HW150011  10.521   1.852   5.264
49995SOL    HW250012  10.504   1.697   5.310
49996SOL     OW50013   9.627   0.251   5.525
49996SOL    HW150014   9.698   0.322   5.531
49996SOL    HW250015   9.539   0.290   5.553
49997SOL     OW50016  10.776   1.417   4.677
49997SOL    HW150017  10.717   1.423   4.757
49997SOL    HW250018  10.761   1.329   4.631
49998SOL     OW50019  10.977   1.714   4.296
49998SOL    HW150020  10.936   1.691   4.208
49998SOL    HW250021  10.959   1.640   4.361
49999SOL     OW50022   9.908   0.729   3.994
49999SOL    HW150023   9.932   0.798   3.926
49999SOL    HW250024   9.830   0.762   4.048
50000SOL     OW50025  10.591   0.345   4.668
50000SOL    HW150026  10.505   0.295   4.655
50000SOL    HW250027  10.653   0.291   4.724
50001SOL     OW50028  10.886   1.662   4.031
50001SOL    HW150029  10.975   1.708   4.034
50001SOL    HW250030  10.865   1.638   3.936
50002SOL     OW50031  10.117   0.605   5.189
50002SOL    HW150032  10.070   0.602   5.278
50002SOL    HW250033  10.066   0.550   5.123
50003SOL     OW50034  10.704   0.469   5.398
50003SOL    HW150035  10.684   0.512   5.486
50003SOL    HW250036  10.782   0.407   5.407
50004SOL     OW50037  10.283   0.890   5.296
50004SOL    HW150038  10.329   0.806   5.267
50004SOL    HW250039  10.227   0.924   5.221
50005SOL     OW50040  10.301   0.410   4.966
50005SOL    HW150041  10.224   0.444   5.020
50005SOL    HW250042  10.267   0.359   4.887
50006SOL     OW50043  10.351   0.701   4.153
50006SOL    HW150044  10.377   0.697   4.249
50006SOL    HW250045  10.266   0.650   4.139
50007SOL     OW50046   9.386   0.811   4.513
50007SOL    HW150047   9.485   0.799   4.522
50007SOL    HW250048   9.362   0.906   4.534
50008SOL     OW50049   9.440   1.821   5.295
50008SOL    HW150050   9.430   1.806   5.394
50008SOL    HW250051   9.354   1.857   5.259
50009SOL     OW50052  10.175   0.348   3.919
50009SOL    HW150053  10.234   0.411   3.870
50009SOL    HW250054  10.194   0.254   3.890
50010SOL     OW50055  11.029   0.585   5.555
50010SOL    HW150056  11.003   0.674   5.519
50010SOL    HW250057  11.027   0.517   5.482
50011SOL     OW50058  10.672   1.144   4.269
50011SOL    HW150059  10.755   1.115   4.221
50011SOL    HW250060  10.623   1.211   4.213
50012SOL     OW50061   9.860   0.196   4.609
50012SOL    HW150062   9.855   0.191   4.709
50012SOL    HW250063   9.862   0.292   4.580
50013SOL     OW50064  10.318   1.456   4.201
50013SOL    HW150065  10.272   1.528   4.149
50013SOL    HW250066  10.314   1.476   4.299
50014SOL     OW50067   9.661   1.801   4.577
50014SOL    HW150068   9.711   1.715   4.583
50014SOL    HW250069   9.726   1.878   4.574
50015SOL     OW50070  11.105   1.066   4.597
50015SOL    HW150071  11.043   1.051   4.521
50015SOL    HW250072  11.053   1.077   4.682
50016SOL     OW50073  10.537   1.550   5.230
50016SOL    HW150074  10.543   1.473   5.294
50016SOL    HW250075  10.485   1.524   5.150
50017SOL     OW50076   9.631   0.943   3.966
50017SOL    HW150077   9.713   0.982   3.924
50017SOL    HW250078   9.604   0.861   3.917
50018SOL     OW50079  10.768   0.735   4.452
50018SOL    HW150080  10.763   0.670   4.527
50018SOL    HW250081  10.848   0.794   4.465
50019SOL     OW50082   9.771   1.266   5.451
50019SOL    HW150083   9.721   1.267   5.365
50019SOL    HW250084   9.708   1.248   5.527
50020SOL     OW50085  10.421   1.776   3.961
50020SOL    HW150086  10.361   1.714   4.011
50020SOL    HW250087  10.452   1.732   3.876
50021SOL     OW50088   9.512   0.285   5.222
50021SOL    HW150089   9.432   0.345   5.209
50021SOL    HW250090   9.502   0.236   5.308
50022SOL     OW50091  10.942   1.377   3.805
50022SOL    HW150092  10.910   1.471   3.795
50022SOL    HW250093  10.866   1.314   3.793
50023SOL     OW50094   9.774   1.743   4.047
50023SOL    HW150095   9.807   1.782   4.133
50023SOL    HW250096   9.850   1.736   3.982
50024SOL     OW50097  10.710   0.107   4.150
50024SOL    HW150098  10.686   0.070   4.060
50024SOL    HW250099  10.809   0.123   4.154
50025SOL     OW50100   9.559   1.785   4.965
50025SOL    HW150101   9.616   1.720   5.015
50025SOL    HW250102   9.543   1.752   4.872
50026SOL     OW50103  10.250   1.698   4.628
50026SOL    HW150104  10.330   1.641   4.649
50026SOL    HW250105  10.201   1.658   4.551
50027SOL     OW50106   9.692   0.700   4.204
50027SOL    HW150107   9.737   0.610   4.201
50027SOL    HW250108   9.598   0.689   4.237
50028SOL     OW50109  10.857   0.222   5.453
50028SOL    HW150110  10.852   0.259   5.545
50028SOL    HW250111  10.785   0.153   5.441
50029SOL     OW50112   9.924   0.122   3.841
50029SOL    HW150113  10.022   0.100   3.848
50029SOL    HW250114   9.893   0.105   3.748
50030SOL     OW50115  10.091   0.264   5.473
50030SOL    HW150116  10.158   0.203   5.516
50030SOL    HW250117  10.018   0.283   5.538
50031SOL     OW50118  10.198   1.514   4.919
50031SOL    HW150119  10.175   1.489   4.825
50031SOL    HW250120  10.259   1.445   4.958
50032SOL     OW50121  10.661   0.590   5.157
50032SOL    HW150122  10.689   0.547   5.242
50032SOL    HW250123  10.686   0.686   5.158
50033SOL     OW50124  10.113   1.402   4.648
50033SOL    HW150125  10.203   1.416   4.606
50033SOL    HW250126  10.042   1.404   4.577
50034SOL     OW50127  10.232   0.503   4.623
50034SOL    HW150128  10.207   0.494   4.527
50034SOL    HW250129  10.280   0.421   4.654
50035SOL     OW50130   9.849   0.064   4.236
50035SOL    HW150131   9.768   0.065   4.294
50035SOL    HW250132   9.852   0.147   4.181
50036SOL     OW50133  10.744   1.188   3.765
50036SOL    HW150134  10.776   1.112   3.822
50036SOL    HW250135  10.652   1.215   3.795
50037SOL     OW50136   9.607   0.035   3.895
50037SOL    HW150137   9.656   0.119   3.874
50037SOL    HW250138   9.669  -0.030   3.940
50038SOL     OW50139  10.245   0.236   4.204
50038SOL    HW150140  10.197   0.277   4.126
50038SOL    HW250141  10.344   0.234   4.185
50039SOL     OW50142  10.386   0.683   5.188
50039SOL    HW150143  10.306   0.622   5.191
50039SOL    HW250144  10.467   0.630   5.164
50040SOL     OW50145  10.537   1.570   4.517
50040SOL    HW150146  10.558   1.644   4.452
50040SOL    HW250147  10.605   1.570   4.590
50041SOL     OW50148   9.769   1.152   4.465
50041SOL    HW150149   9.698   1.125   4.530
50041SOL    HW250150   9.743   1.124   4.372
50042SOL     OW50151  10.581   1.797   4.315
50042SOL    HW150152  10.625   1.861   4.251
50042SOL    HW250153  10.531   1.849   4.385
50043SOL     OW50154  10.342   0.549   3.740
50043SOL    HW150155  10.301   0.631   3.701
50043SOL    HW250156  10.406   0.575   3.813
50044SOL     OW50157   9.388   0.556   5.110
50044SOL    HW150158   9.480   0.555   5.069
50044SOL    HW250159   9.382   0.630   5.177
50045SOL     OW50160   9.871   0.222   4.871
50045SOL    HW150161   9.909   0.138   4.908
50045SOL    HW250162   9.783   0.241   4.915
50046SOL     OW50163  10.176   0.454   4.366
50046SOL    HW150164  10.144   0.526   4.304
50046SOL    HW250165  10.200   0.373   4.313
50047SOL     OW50166  10.327   0.039   4.477
50047SOL    HW150167  10.255   0.044   4.408
50047SOL    HW250168  10.303  -0.030   4.546
50048SOL     OW50169  10.739   1.173   4.591
50048SOL    HW150170  10.684   1.089   4.584
50048SOL    HW250171  10.765   1.202   4.499
50049SOL     OW50172  10.776   0.590   4.716
50049SOL    HW150173  10.746   0.495   4.723
50049SOL    HW250174  10.849   0.606   4.782
50050SOL     OW50175  11.167   0.833   4.101
50050SOL    HW150176  11.209   0.769   4.165
50050SOL    HW250177  11.129   0.782   4.023
50051SOL     OW50178   9.798   1.385   3.898
50051SOL    HW150179   9.711   1.370   3.945
50051SOL    HW250180   9.781   1.411   3.803
50052SOL     OW50181  10.974   1.280   4.381
50052SOL    HW150182  11.073   1.288   4.395
50052SOL    HW250183  10.929   1.364   4.412
50053SOL     OW50184  10.700   0.575   3.802
50053SOL    HW150185  10.646   0.554   3.883
50053SOL    HW250186  10.791   0.534   3.811
50054SOL     OW50187   9.837   0.256   4.052
50054SOL    HW150188   9.864   0.197   3.977
50054SOL    HW250189   9.837   0.351   4.021
50055SOL     OW50190  11.064   1.223   5.312
50055SOL    HW150191  11.155   1.184   5.299
50055SOL    HW250192  11.072   1.319   5.336
50056SOL     OW50193  10.374   1.347   5.064
50056SOL    HW150194  10.294   1.324   5.119
50056SOL    HW250195  10.457   1.321   5.113
50057SOL     OW50196  10.902   1.629   5.349
50057SOL    HW150197  10.929   1.663   5.259
50057SOL    HW250198  10.981   1.591   5.395
50058SOL     OW50199  10.421   1.195   4.824
50058SOL    HW150200  10.381   1.239   4.905
50058SOL    HW250201  10.380   1.232   4.741
50059SOL     OW50202  10.948   1.099   4.803
50059SOL    HW150203  10.953   1.180   4.862
50059SOL    HW250204  10.862   1.101   4.752
50060SOL     OW50205  10.225   0.089   5.126
50060SOL    HW150206  10.250   0.069   5.031
50060SOL    HW250207  10.297   0.145   5.168
50061SOL     OW50208  10.290   1.116   5.443
50061SOL    HW150209  10.191   1.122   5.453
50061SOL    HW250210  10.313   1.036   5.387
50062SOL     OW50211  10.015   1.050   4.092
50062SOL    HW150212  10.001   1.057   4.191
50062SOL    HW250213  10.099   0.999   4.074
50063SOL     OW50214   9.720   0.813   4.975
50063SOL    HW150215   9.806   0.825   5.025
50063SOL    HW250216   9.678   0.726   5.002
50064SOL     OW50217  10.584   0.386   4.986
50064SOL    HW150218  10.605   0.460   5.050
50064SOL    HW250219  10.495   0.403   4.943
50065SOL     OW50220   9.374   1.564   5.055
50065SOL    HW150221   9.328   1.646   5.021
50065SOL    HW250222   9.472   1.583   5.064
50066SOL     OW50223   9.677   1.100   4.225
50066SOL    HW150224   9.670   1.183   4.169
50066SOL    HW250225   9.681   1.020   4.165
50067SOL     OW50226   9.876   0.537   4.589
50067SOL    HW150227   9.888   0.603   4.515
50067SOL    HW250228   9.922   0.571   4.672
50068SOL     OW50229  10.562   1.348   4.112
50068SOL    HW150230  10.612   1.425   4.152
50068SOL    HW250231  10.467   1.350   4.144
50069SOL     OW50232  10.582   1.445   4.866
50069SOL    HW150233  10.629   1.458   4.953
50069SOL    HW250234  10.516   1.371   4.875
50070SOL     OW50235  10.892   0.639   4.196
50070SOL    HW150236  10.861   0.700   4.269
50070SOL    HW250237  10.942   0.691   4.127
50071SOL     OW50238   9.664   1.510   5.053
50071SOL    HW150239   9.643   1.466   4.966
50071SOL    HW250240   9.761   1.536   5.056
50072SOL     OW50241   9.712   0.751   5.322
50072SOL    HW150242   9.780   0.806   5.275
50072SOL    HW250243   9.752   0.663   5.349
50073SOL     OW50244  10.897   0.779   5.394
50073SOL    HW150245  10.805   0.817   5.389
50073SOL    HW250246  10.957   0.826   5.329
50074SOL     OW50247  10.323   0.105   5.494
50074SOL    HW150248  10.329   0.190   5.442
50074SOL    HW250249  10.355   0.029   5.437
50075SOL     OW50250   9.814   0.050   5.464
50075SOL    HW150251   9.772  -0.007   5.394
50075SOL    HW250252   9.748   0.119   5.496
50076SOL     OW50253   9.883   0.870   4.753
50076SOL    HW150254   9.927   0.959   4.744
50076SOL    HW250255   9.820   0.870   4.830
50077SOL     OW50256  10.670   0.862   4.769
50077SOL    HW150257  10.595   0.862   4.703
50077SOL    HW250258  10.707   0.770   4.778
50078SOL     OW50259  10.519   0.525   3.999
50078SOL    HW150260  10.532   0.441   4.053
50078SOL    HW250261  10.490   0.599   4.059
50079SOL     OW50262   9.617   0.213   4.955
50079SOL    HW150263   9.594   0.250   5.045
50079SOL    HW250264   9.587   0.118   4.949
50080SOL     OW50265   9.347   1.310   5.006
50080SOL    HW150266   9.400   1.261   5.074
50080SOL    HW250267   9.369   1.408   5.011
50081SOL     OW50268  10.042   0.634   4.788
50081SOL    HW150269  10.101   0.608   4.712
50081SOL    HW250270  10.014   0.730   4.777
50082SOL     OW50271  11.038   0.935   5.578
50082SOL    HW150272  10.992   0.928   5.489
50082SOL    HW250273  10.976   0.979   5.644
50083SOL     OW50274   9.617   0.063   4.342
50083SOL    HW150275   9.606   0.157   4.375
50083SOL    HW250276   9.612   0.000   4.419
50084SOL     OW50277  10.932   0.367   4.098
50084SOL    HW150278  10.934   0.291   4.162
50084SOL    HW250279  10.884   0.444   4.138
50085SOL     OW50280  10.333   0.766   4.690
50085SOL    HW150281  10.348   0.787   4.786
50085SOL    HW250282  10.303   0.671   4.681
50086SOL     OW50283  10.290   1.573   5.424
50086SOL    HW150284  10.270   1.617   5.336
50086SOL    HW250285  10.329   1.482   5.408
50087SOL     OW50286  11.169   1.518   5.329
50087SOL    HW150287  11.183   1.545   5.234
50087SOL    HW250288  11.252   1.540   5.382
50088SOL     OW50289   9.660   0.898   5.528
50088SOL    HW150290   9.736   0.942   5.576
50088SOL    HW250291   9.695   0.851   5.446
50089SOL     OW50292  10.850   0.274   3.849
50089SOL    HW150293  10.789   0.199   3.872
50089SOL    HW250294  10.872   0.326   3.932
50090SOL     OW50295  10.613   0.838   3.766
50090SOL    HW150296  10.647   0.745   3.781
50090SOL    HW250297  10.631   0.865   3.671
50091SOL     OW50298  10.378   1.333   4.573
50091SOL    HW150299  10.385   1.249   4.518
50091SOL    HW250300  10.440   1.402   4.537
50092SOL     OW50301   9.629   0.810   4.673
50092SOL    HW150302   9.722   0.846   4.678
50092SOL    HW250303   9.623   0.725   4.725
50093SOL     OW50304   9.649   0.509   4.730
50093SOL    HW150305   9.597   0.426   4.713
50093SOL    HW250306   9.726   0.514   4.666
50094SOL     OW50307  10.448   0.380   5.402
50094SOL    HW150308  10.403   0.443   5.466
50094SOL    HW250309  10.541   0.411   5.385
50095SOL     OW50310  10.470   0.207   5.201
50095SOL    HW150311  10.470   0.271   5.278
50095SOL    HW250312  10.498   0.255   5.118
50096SOL     OW50313   9.318   1.326   3.924
50096SOL    HW150314   9.225   1.347   3.893
50096SOL    HW250315   9.328   1.227   3.937
50097SOL     OW50316   9.398   1.801   4.651
50097SOL    HW150317   9.356   1.715   4.624
50097SOL    HW250318   9.492   1.804   4.617
50098SOL     OW50319   9.814   1.568   4.634
50098SOL    HW150320   9.880   1.642   4.643
50098SOL    HW250321   9.858   1.489   4.592
50099SOL     OW50322  10.312   0.796   4.962
50099SOL    HW150323  10.353   0.764   5.048
50099SOL    HW250324  10.216   0.769   4.959
50100SOL     OW50325   9.350   0.544   4.838
50100SOL    HW150326   9.435   0.511   4.797
50100SOL    HW250327   9.363   0.559   4.936
50101SOL     OW50328   9.499   0.520   5.446
50101SOL    HW150329   9.558   0.480   5.376
50101SOL    HW250330   9.441   0.591   5.405
50102SOL     OW50331  10.679   0.950   5.384
50102SOL    HW150332  10.718   1.039   5.404
50102SOL    HW250333  10.689   0.930   5.287
50103SOL     OW50334  10.125   0.572   4.049
50103SOL    HW150335  10.132   0.483   4.003
50103SOL    HW250336  10.031   0.606   4.041
50104SOL     OW50337  10.967   0.604   4.930
50104SOL    HW150338  10.929   0.535   4.992
50104SOL    HW250339  11.049   0.568   4.886
50105SOL     OW50340   9.562   1.564   5.468
50105SOL    HW150341   9.532   1.621   5.544
50105SOL    HW250342   9.555   1.467   5.494
50106SOL     OW50343   9.981   0.464   4.993
50106SOL    HW150344   9.947   0.375   4.963
50106SOL    HW250345  10.007   0.518   4.913
50107SOL     OW50346  10.240   1.678   5.189
50107SOL    HW150347  10.216   1.660   5.094
50107SOL    HW250348  10.270   1.772   5.199
50108SOL     OW50349   9.783   0.500   3.915
50108SOL    HW150350   9.844   0.580   3.919
50108SOL    HW250351   9.688   0.531   3.922
50109SOL     OW50352   9.469   1.137   5.190
50109SOL    HW150353   9.491   1.076   5.266
50109SOL    HW250354   9.479   1.088   5.104
50110SOL     OW50355  10.657   1.059   4.958
50110SOL    HW150356  10.681   0.996   4.884
50110SOL    HW250357  10.567   1.099   4.940
50111SOL     OW50358  10.612   0.855   4.033
50111SOL    HW150359  10.526   0.824   4.075
50111SOL    HW250360  10.608   0.841   3.934
50112SOL     OW50361  11.069   1.747   4.878
50112SOL    HW150362  11.130   1.777   4.805
50112SOL    HW250363  11.031   1.658   4.856
50113SOL     OW50364  10.562   1.731   4.852
50113SOL    HW150365  10.646   1.736   4.798
50113SOL    HW250366  10.539   1.635   4.870
50114SOL     OW50367   9.393   1.258   4.746
50114SOL    HW150368   9.388   1.257   4.846
50114SOL    HW250369   9.310   1.217   4.708
50115SOL     OW50370   9.998   1.662   5.440
50115SOL    HW150371   9.942   1.743   5.449
50115SOL    HW250372  10.050   1.666   5.354
50116SOL     OW50373  11.036   0.135   4.247
50116SOL    HW150374  11.109   0.118   4.180
50116SOL    HW250375  11.005   0.048   4.285
50117SOL     OW50376  10.698   1.573   4.201
50117SOL    HW150377  10.765   1.585   4.127
50117SOL    HW250378  10.658   1.662   4.224
50118SOL     OW50379   9.440   1.794   5.575
50118SOL    HW150380   9.399   1.720   5.628
50118SOL    HW250381   9.504   1.845   5.633
50119SOL     OW50382  10.590   0.927   4.396
50119SOL    HW150383  10.650   0.846   4.398
50119SOL    HW250384  10.630   0.996   4.336
50120SOL     OW50385  10.140   1.273   5.146
50120SOL    HW150386  10.135   1.306   5.241
50120SOL    HW250387  10.054   1.292   5.100
50121SOL     OW50388   9.982   1.616   3.878
50121SOL    HW150389   9.991   1.626   3.779
50121SOL    HW250390   9.942   1.527   3.899
50122SOL     OW50391  10.960   1.720   5.118
50122SOL    HW150392  11.013   1.730   5.034
50122SOL    HW250393  10.933   1.810   5.152
50123SOL     OW50394  11.151   0.175   4.687
50123SOL    HW150395  11.190   0.090   4.651
50123SOL    HW250396  11.053   0.177   4.668
50124SOL     OW50397   9.573   0.326   4.444
50124SOL    HW150398   9.494   0.377   4.410
50124SOL    HW250399   9.564   0.311   4.542
50125SOL     OW50400  10.504   1.612   3.755
50125SOL    HW150401  10.510   1.519   3.792
50125SOL    HW250402  10.445   1.612   3.675
50126SOL     OW50403  10.132   1.002   5.096
50126SOL    HW150404  10.172   1.001   5.004
50126SOL    HW250405  10.142   1.094   5.136
50127SOL     OW50406  10.226   0.910   4.015
50127SOL    HW150407  10.289   0.948   3.947
50127SOL    HW250408  10.266   0.827   4.054
50128SOL     OW50409  10.814   1.607   3.768
50128SOL    HW150410  10.722   1.644   3.775
50128SOL    HW250411  10.852   1.627   3.678
50129SOL     OW50412   9.682   1.288   5.214
50129SOL    HW150413   9.669   1.381   5.180
50129SOL    HW250414   9.598   1.236   5.201
50130SOL     OW50415  10.924   1.292   5.013
50130SOL    HW150416  10.984   1.295   5.093
50130SOL    HW250417  10.849   1.356   5.026
50131SOL     OW50418  10.349   1.098   4.420
50131SOL    HW150419  10.279   1.051   4.474
50131SOL    HW250420  10.408   1.030   4.377
50132SOL     OW50421  10.324   0.236   4.695
50132SOL    HW150422  10.316   0.200   4.602
50132SOL    HW250423  10.322   0.160   4.760
50133SOL     OW50424   9.900   1.487   4.215
50133SOL    HW150425   9.942   1.429   4.145
50133SOL    HW250426   9.856   1.566   4.171
50134SOL     OW50427  11.019   0.385   5.105
50134SOL    HW150428  11.092   0.454   5.109
50134SOL    HW250429  11.047   0.310   5.046
50135SOL     OW50430   9.565   1.348   4.014
50135SOL    HW150431   9.469   1.349   3.987
50135SOL    HW250432   9.577   1.401   4.098
50136SOL     OW50433   9.415   1.013   5.450
50136SOL    HW150434   9.338   0.980   5.504
50136SOL    HW250435   9.500   0.983   5.492
50137SOL     OW50436   9.982   0.203   5.213
50137SOL    HW150437  10.072   0.187   5.173
50137SOL    HW250438   9.990   0.208   5.312
50138SOL     OW50439   9.385   0.345   3.757
50138SOL    HW150440   9.293   0.317   3.728
50138SOL    HW250441   9.416   0.422   3.701
50139SOL     OW50442  10.750   0.856   5.122
50139SOL    HW150443  10.693   0.908   5.059
50139SOL    HW250444  10.846   0.868   5.098
50140SOL     OW50445   9.382   0.166   4.042
50140SOL    HW150446   9.365   0.249   3.988
50140SOL    HW250447   9.472   0.129   4.020
50141SOL     OW50448  10.493   1.335   3.843
50141SOL    HW150449  10.394   1.324   3.845
50141SOL    HW250450  10.527   1.350   3.936
50142SOL     OW50451   9.923   0.842   5.155
50142SOL    HW150452   9.979   0.923   5.138
50142SOL    HW250453   9.982   0.762   5.158
50143SOL     OW50454  10.803   1.767   4.683
50143SOL    HW150455  10.836   1.831   4.614
50143SOL    HW250456  10.869   1.761   4.758
50144SOL     OW50457  10.026   0.565   5.432
50144SOL    HW150458  10.045   0.630   5.506
50144SOL    HW250459  10.086   0.485   5.441
50145SOL     OW50460  10.760   1.220   5.357
50145SOL    HW150461  10.751   1.210   5.456
50145SOL    HW250462  10.856   1.213   5.331
50146SOL     OW50463   9.700   1.741   5.284
50146SOL    HW150464   9.609   1.782   5.282
50146SOL    HW250465   9.693   1.647   5.316
50147SOL     OW50466  10.984   0.883   4.978
50147SOL    HW150467  10.957   0.794   4.941
50147SOL    HW250468  10.985   0.951   4.905
50148SOL     OW50469  10.535   0.325   4.173
50148SOL    HW150470  10.600   0.251   4.162
50148SOL    HW250471  10.555   0.375   4.257
50149SOL     OW50472   9.904   0.745   4.376
50149SOL    HW150473   9.954   0.830   4.357
50149SOL    HW250474   9.816   0.747   4.328
50150SOL     OW50475  11.087   0.342   5.366
50150SOL    HW150476  11.070   0.373   5.272
50150SOL    HW250477  11.003   0.305   5.404
50151SOL     OW50478  11.040   0.934   5.241
50151SOL    HW150479  11.078   1.025   5.256
50151SOL    HW250480  11.032   0.917   5.142
50152SOL     OW50481  10.169   1.374   3.740
50152SOL    HW150482  10.123   1.389   3.828
50152SOL    HW250483  10.213   1.459   3.710
50153SOL     OW50484   9.971   1.790   4.677
50153SOL    HW150485   9.925   1.878   4.664
50153SOL    HW250486  10.070   1.802   4.670
50154SOL     OW50487  10.169   0.956   4.585
50154SOL    HW150488  10.223   0.887   4.633
50154SOL    HW250489  10.137   1.025   4.651
50155SOL     OW50490  10.393   0.984   3.811
50155SOL    HW150491  10.370   1.037   3.729
50155SOL    HW250492  10.474   0.928   3.792
50156SOL     OW50493  11.171   1.569   4.575
50156SOL    HW150494  11.100   1.557   4.505
50156SOL    HW250495  11.172   1.490   4.635
50157SOL     OW50496   9.531   1.314   5.568
50157SOL    HW150497   9.466   1.241   5.547
50157SOL    HW250498   9.535   1.328   5.666
50158SOL     OW50499   9.389   1.240   4.377
50158SOL    HW150500   9.388   1.193   4.465
50158SOL    HW250501   9.471   1.212   4.326
50159SOL     OW50502   9.982   1.391   5.348
50159SOL    HW150503   9.904   1.341   5.386
50159SOL    HW250504   9.979   1.486   5.379
50160SOL     OW50505  11.134   0.192   4.951
50160SOL    HW150506  11.130   0.102   4.995
50160SOL    HW250507  11.137   0.181   4.852
50161SOL     OW50508   9.738   0.424   4.244
50161SOL    HW150509   9.768   0.352   4.182
50161SOL    HW250510   9.699   0.384   4.327
50162SOL     OW50511  11.015   1.487   4.828
50162SOL    HW150512  10.922   1.462   4.801
50162SOL    HW250513  11.041   1.437   4.910
50163SOL     OW50514   9.627   0.547   5.004
50163SOL    HW150515   9.665   0.488   5.076
50163SOL    HW250516   9.667   0.521   4.916
50164SOL     OW50517  10.122   1.586   4.411
50164SOL    HW150518  10.154   1.596   4.317
50164SOL    HW250519  10.043   1.524   4.413
50165SOL     OW50520  10.734   0.214   4.836
50165SOL    HW150521  10.786   0.149   4.891
50165SOL    HW250522  10.685   0.277   4.897
50166SOL     OW50523  10.311   0.034   4.878
50166SOL    HW150524  10.248  -0.038   4.847
50166SOL    HW250525  10.404  -0.002   4.878
50167SOL     OW50526  10.080   1.330   4.025
50167SOL    HW150527  10.034   1.243   4.042
50167SOL    HW250528  10.171   1.327   4.066
50168SOL     OW50529   9.928   1.567   5.008
50168SOL    HW150530   9.923   1.649   5.065
50168SOL    HW250531  10.017   1.564   4.963
50169SOL     OW50532  10.662   0.052   3.892
50169SOL    HW150533  10.697   0.011   3.808
50169SOL    HW250534  10.572   0.014   3.912
50170SOL     OW50535  10.610   0.453   4.415
50170SOL    HW150536  10.551   0.533   4.419
50170SOL    HW250537  10.625   0.418   4.508
50171SOL     OW50538  10.903   0.221   4.606
50171SOL    HW150539  10.819   0.220   4.660
50171SOL    HW250540  10.905   0.304   4.550
50172SOL     OW50541   9.349   1.077   4.024
50172SOL    HW150542   9.448   1.066   4.015
50172SOL    HW250543   9.309   0.991   4.056
50173SOL     OW50544  10.185   1.646   4.061
50173SOL    HW150545  10.108   1.611   4.007
50173SOL    HW250546  10.153   1.717   4.123
50174SOL     OW50547   9.540   0.628   5.699
50174SOL    HW150548   9.447   0.626   5.736
50174SOL    HW250549   9.541   0.589   5.607
50175SOL     OW50550   9.535   0.275   6.582
50175SOL    HW150551   9.570   0.258   6.674
50175SOL    HW250552   9.447   0.230   6.570
50176SOL     OW50553   9.329   0.368   6.233
50176SOL    HW150554   9.247   0.411   6.272
50176SOL    HW250555   9.301   0.295   6.170
50177SOL     OW50556   9.879   1.275   6.751
50177SOL    HW150557   9.786   1.268   6.714
50177SOL    HW250558   9.890   1.364   6.795
50178SOL     OW50559  10.865   1.511   6.289
50178SOL    HW150560  10.808   1.495   6.370
50178SOL    HW250561  10.806   1.521   6.209
50179SOL     OW50562  10.445   0.703   6.303
50179SOL    HW150563  10.502   0.781   6.278
50179SOL    HW250564  10.385   0.729   6.379
50180SOL     OW50565  11.065   0.607   5.817
50180SOL    HW150566  11.053   0.594   5.718
50180SOL    HW250567  11.035   0.526   5.866
50181SOL     OW50568  10.078   1.144   6.609
50181SOL    HW150569  10.000   1.161   6.669
50181SOL    HW250570  10.112   1.231   6.573
50182SOL     OW50571  10.160   0.798   7.409
50182SOL    HW150572  10.156   0.874   7.474
50182SOL    HW250573  10.182   0.834   7.318
50183SOL     OW50574   9.995   1.012   6.251
50183SOL    HW150575  10.064   0.996   6.321
50183SOL    HW250576   9.922   1.069   6.289
50184SOL     OW50577   9.996   1.161   7.389
50184SOL    HW150578  10.056   1.240   7.403
50184SOL    HW250579   9.910   1.192   7.348
50185SOL     OW50580   9.645   1.435   6.647
50185SOL    HW150581   9.567   1.404   6.594
50185SOL    HW250582   9.703   1.493   6.590
50186SOL     OW50583  10.770   1.505   6.925
50186SOL    HW150584  10.794   1.599   6.951
50186SOL    HW250585  10.754   1.451   7.007
50187SOL     OW50586   9.748   0.392   7.085
50187SOL    HW150587   9.830   0.336   7.094
50187SOL    HW250588   9.667   0.334   7.089
50188SOL     OW50589  10.913   0.447   6.323
50188SOL    HW150590  10.839   0.493   6.273
50188SOL    HW250591  10.964   0.515   6.376
50189SOL     OW50592   9.541   1.713   6.069
50189SOL    HW150593   9.575   1.790   6.123
50189SOL    HW250594   9.585   1.713   5.979
50190SOL     OW50595  10.437   1.341   7.276
50190SOL    HW150596  10.484   1.341   7.364
50190SOL    HW250597  10.389   1.254   7.265
50191SOL     OW50598   9.540   1.434   6.124
50191SOL    HW150599   9.514   1.530   6.124
50191SOL    HW250600   9.469   1.380   6.169
50192SOL     OW50601   9.550   1.091   6.472
50192SOL    HW150602   9.564   1.007   6.524
50192SOL    HW250603   9.495   1.155   6.527
50193SOL     OW50604   9.930   1.786   7.025
50193SOL    HW150605   9.838   1.769   7.060
50193SOL    HW250606   9.958   1.878   7.051
50194SOL     OW50607   9.916   0.964   5.709
50194SOL    HW150608   9.923   1.048   5.655
50194SOL    HW250609   9.962   0.977   5.797
50195SOL     OW50610  10.904   0.114   7.066
50195SOL    HW150611  10.886   0.181   6.994
50195SOL    HW250612  10.901   0.160   7.155
50196SOL     OW50613   9.432   0.643   6.149
50196SOL    HW150614   9.387   0.555   6.166
50196SOL    HW250615   9.431   0.697   6.233
50197SOL     OW50616  11.152   1.767   5.945
50197SOL    HW150617  11.206   1.738   6.025
50197SOL    HW250618  11.182   1.857   5.916
50198SOL     OW50619   9.337   1.596   5.703
50198SOL    HW150620   9.318   1.500   5.724
50198SOL    HW250621   9.304   1.654   5.778
50199SOL     OW50622  10.999   0.922   6.198
50199SOL    HW150623  11.094   0.893   6.206
50199SOL    HW250624  10.991   0.987   6.123
50200SOL     OW50625  10.951   1.108   6.018
50200SOL    HW150626  11.037   1.110   5.966
50200SOL    HW250627  10.965   1.155   6.106
50201SOL     OW50628   9.423   0.737   7.183
50201SOL    HW150629   9.511   0.724   7.228
50201SOL    HW250630   9.410   0.834   7.161
50202SOL     OW50631   9.923   1.365   6.312
50202SOL    HW150632   9.874   1.278   6.321
50202SOL    HW250633   9.900   1.408   6.225
50203SOL     OW50634  10.603   1.228   7.009
50203SOL    HW150635  10.640   1.155   6.951
50203SOL    HW250636  10.655   1.233   7.094
50204SOL     OW50637  10.119   0.004   6.088
50204SOL    HW150638  10.159   0.095   6.079
50204SOL    HW250639  10.019   0.012   6.094
50205SOL     OW50640   9.507   0.976   6.850
50205SOL    HW150641   9.596   0.931   6.836
50205SOL    HW250642   9.434   0.911   6.831
50206SOL     OW50643  10.835   0.999   5.776
50206SOL    HW150644  10.772   0.923   5.789
50206SOL    HW250645  10.883   1.017   5.862
50207SOL     OW50646  10.497   1.792   7.202
50207SOL    HW150647  10.521   1.852   7.126
50207SOL    HW250648  10.504   1.697   7.172
50208SOL     OW50649   9.627   0.251   7.387
50208SOL    HW150650   9.698   0.322   7.393
50208SOL    HW250651   9.539   0.290   7.415
50209SOL     OW50652  10.776   1.417   6.539
50209SOL    HW150653  10.717   1.423   6.619
50209SOL    HW250654  10.761   1.329   6.493
50210SOL     OW50655  10.977   1.714   6.158
50210SOL    HW150656  10.936   1.691   6.070
50210SOL    HW250657  10.959   1.640   6.223
50211SOL     OW50658   9.908   0.729   5.856
50211SOL    HW150659   9.932   0.798   5.788
50211SOL    HW250660   9.830   0.762   5.910
50212SOL     OW50661  10.591   0.345   6.530
50212SOL    HW150662  10.505   0.295   6.517
50212SOL    HW250663  10.653   0.291   6.586
50213SOL     OW50664  10.886   1.662   5.893
50213SOL    HW150665  10.975   1.708   5.896
50213SOL    HW250666  10.865   1.638   5.798
50214SOL     OW50667  10.117   0.605   7.051
50214SOL    HW150668  10.070   0.602   7.140
50214SOL    HW250669  10.066   0.550   6.985
50215SOL     OW50670  10.704   0.469   7.260
50215SOL    HW150671  10.684   0.512   7.348
50215SOL    HW250672  10.782   0.407   7.269
50216SOL     OW50673  10.283   0.890   7.158
50216SOL    HW150674  10.329   0.806   7.129
50216SOL    HW250675  10.227   0.924   7.083
50217SOL     OW50676  10.301   0.410   6.828
50217SOL    HW150677  10.224   0.444   6.882
50217SOL    HW250678  10.267   0.359   6.749
50218SOL     OW50679  10.351   0.701   6.015
50218SOL    HW150680  10.377   0.697   6.111
50218SOL    HW250681  10.266   0.650   6.001
50219SOL     OW50682   9.386   0.811   6.375
50219SOL    HW150683   9.485   0.799   6.384
50219SOL    HW250684   9.362   0.906   6.396
50220SOL     OW50685   9.440   1.821   7.157
50220SOL    HW150686   9.430   1.806   7.256
50220SOL    HW250687   9.354   1.857   7.121
50221SOL     OW50688  10.175   0.348   5.781
50221SOL    HW150689  10.234   0.411   5.732
50221SOL    HW250690  10.194   0.254   5.752
50222SOL     OW50691  11.029   0.585   7.417
50222SOL    HW150692  11.003   0.674   7.381
50222SOL    HW250693  11.027   0.517   7.344
50223SOL     OW50694  10.672   1.144   6.131
50223SOL    HW150695  10.755   1.115   6.083
50223SOL    HW250696  10.623   1.211   6.075
50224SOL     OW50697   9.860   0.196   6.471
50224SOL    HW150698   9.855   0.191   6.571
50224SOL    HW250699   9.862   0.292   6.442
50225SOL     OW50700  10.318   1.456   6.063
50225SOL    HW150701  10.272   1.528   6.011
50225SOL    HW250702  10.314   1.476   6.161
50226SOL     OW50703   9.661   1.801   6.439
50226SOL    HW150704   9.711   1.715   6.445
50226SOL    HW250705   9.726   1.878   6.436
50227SOL     OW50706  11.105   1.066   6.459
50227SOL    HW150707  11.043   1.051   6.383
50227SOL    HW250708  11.053   1.077   6.544
50228SOL     OW50709  10.537   1.550   7.092
50228SOL    HW150710  10.543   1.473   7.156
50228SOL    HW250711  10.485   1.524   7.012
50229SOL     OW50712   9.631   0.943   5.828
50229SOL    HW150713   9.713   0.982   5.786
50229SOL    HW250714   9.604   0.861   5.779
50230SOL     OW50715  10.768   0.735   6.314
50230SOL    HW150716  10.763   0.670   6.389
50230SOL    HW250717  10.848   0.794   6.327
50231SOL     OW50718   9.771   1.266   7.313
50231SOL    HW150719   9.721   1.267   7.227
50231SOL    HW250720   9.708   1.248   7.389
50232SOL     OW50721  10.421   1.776   5.823
50232SOL    HW150722  10.361   1.714   5.873
50232SOL    HW250723  10.452   1.732   5.738
50233SOL     OW50724   9.512   0.285   7.084
50233SOL    HW150725   9.432   0.345   7.071
50233SOL    HW250726   9.502   0.236   7.170
50234SOL     OW50727  10.942   1.377   5.667
50234SOL    HW150728  10.910   1.471   5.657
50234SOL    HW250729  10.866   1.314   5.655
50235SOL     OW50730   9.774   1.743   5.909
50235SOL    HW150731   9.807   1.782   5.995
50235SOL    HW250732   9.850   1.736   5.844
50236SOL     OW50733  10.710   0.107   6.012
50236SOL    HW150734  10.686   0.070   5.922
50236SOL    HW250735  10.809   0.123   6.016
50237SOL     OW50736   9.559   1.785   6.827
50237SOL    HW150737   9.616   1.720   6.877
50237SOL    HW250738   9.543   1.752   6.734
50238SOL     OW50739  10.250   1.698   6.490
50238SOL    HW150740  10.330   1.641   6.511
50238SOL    HW250741  10.201   1.658   6.413
50239SOL     OW50742   9.692   0.700   6.066
50239SOL    HW150743   9.737   0.610   6.063
50239SOL    HW250744   9.598   0.689   6.099
50240SOL     OW50745  10.857   0.222   7.315
50240SOL    HW150746  10.852   0.259   7.407
50240SOL    HW250747  10.785   0.153   7.303
50241SOL     OW50748   9.924   0.122   5.703
50241SOL    HW150749  10.022   0.100   5.710
50241SOL    HW250750   9.893   0.105   5.610
50242SOL     OW50751  10.091   0.264   7.335
50242SOL    HW150752  10.158   0.203   7.378
50242SOL    HW250753  10.018   0.283   7.400
50243SOL     OW50754  10.198   1.514   6.781
50243SOL    HW150755  10.175   1.489   6.687
50243SOL    HW250756  10.259   1.445   6.820
50244SOL     OW50757  10.661   0.590   7.019
50244SOL    HW150758  10.689   0.547   7.104
50244SOL    HW250759  10.686   0.686   7.020
50245SOL     OW50760  10.113   1.402   6.510
50245SOL    HW150761  10.203   1.416   6.468
50245SOL    HW250762  10.042   1.404   6.439
50246SOL     OW50763  10.232   0.503   6.485
50246SOL    HW150764  10.207   0.494   6.389
50246SOL    HW250765  10.280   0.421   6.516
50247SOL     OW50766   9.849   0.064   6.098
50247SOL    HW150767   9.768   0.065   6.156
50247SOL    HW250768   9.852   0.147   6.043
50248SOL     OW50769  10.744   1.188   5.627
50248SOL    HW150770  10.776   1.112   5.684
50248SOL    HW250771  10.652   1.215   5.657
50249SOL     OW50772   9.607   0.035   5.757
50249SOL    HW150773   9.656   0.119   5.736
50249SOL    HW250774   9.669  -0.030   5.802
50250SOL     OW50775  10.245   0.236   6.066
50250SOL    HW150776  10.197   0.277   5.988
50250SOL    HW250777  10.344   0.234   6.047
50251SOL     OW50778  10.386   0.683   7.050
50251SOL    HW150779  10.306   0.622   7.053
50251SOL    HW250780  10.467   0.630   7.026
50252SOL     OW50781  10.537   1.570   6.379
50252SOL    HW150782  10.558   1.644   6.314
50252SOL    HW250783  10.605   1.570   6.452
50253SOL     OW50784   9.769   1.152   6.327
50253SOL    HW150785   9.698   1.125   6.392
50253SOL    HW250786   9.743   1.124   6.234
50254SOL     OW50787  10.581   1.797   6.177
50254SOL    HW150788  10.625   1.861   6.113
50254SOL    HW250789  10.531   1.849   6.247
50255SOL     OW50790  10.342   0.549   5.602
50255SOL    HW150791  10.301   0.631   5.563
50255SOL    HW250792  10.406   0.575   5.675
50256SOL     OW50793   9.388   0.556   6.972
50256SOL    HW150794   9.480   0.555   6.931
50256SOL    HW250795   9.382   0.630   7.039
50257SOL     OW50796   9.871   0.222   6.733
50257SOL    HW150797   9.909   0.138   6.770
50257SOL    HW250798   9.783   0.241   6.777
50258SOL     OW50799  10.176   0.454   6.228
50258SOL    HW150800  10.144   0.526   6.166
50258SOL    HW250801  10.200   0.373   6.175
50259SOL     OW50802  10.327   0.039   6.339
50259SOL    HW150803  10.255   0.044   6.270
50259SOL    HW250804  10.303  -0.030   6.408
50260SOL     OW50805  10.739   1.173   6.453
50260SOL    HW150806  10.684   1.089   6.446
50260SOL    HW250807  10.765   1.202   6.361
50261SOL     OW50808  10.776   0.590   6.578
50261SOL    HW150809  10.746   0.495   6.585
50261SOL    HW250810  10.849   0.606   6.644
50262SOL     OW50811  11.167   0.833   5.963
50262SOL    HW150812  11.209   0.769   6.027
50262SOL    HW250813  11.129   0.782   5.885
50263SOL     OW50814   9.798   1.385   5.760
50263SOL    HW150815   9.711   1.370   5.807
50263SOL    HW250816   9.781   1.411   5.665
50264SOL     OW50817  10.974   1.280   6.243
50264SOL    HW150818  11.073   1.288   6.257
50264SOL    HW250819  10.929   1.364   6.274
50265SOL     OW50820  10.700   0.575   5.664
50265SOL    HW150821  10.646   0.554   5.745
50265SOL    HW250822  10.791   0.534   5.673
50266SOL     OW50823   9.837   0.256   5.914
50266SOL    HW150824   9.864   0.197   5.839
50266SOL    HW250825   9.837   0.351   5.883
50267SOL     OW50826  11.064   1.223   7.174
50267SOL    HW150827  11.155   1.184   7.161
50267SOL    HW250828  11.072   1.319   7.198
50268SOL     OW50829  10.374   1.347   6.926
50268SOL    HW150830  10.294   1.324   6.981
50268SOL    HW250831  10.457   1.321   6.975
50269SOL     OW50832  10.902   1.629   7.211
50269SOL    HW150833  10.929   1.663   7.121
50269SOL    HW250834  10.981   1.591   7.257
50270SOL     OW50835  10.421   1.195   6.686
50270SOL    HW150836  10.381   1.239   6.767
50270SOL    HW250837  10.380   1.232   6.603
50271SOL     OW50838  10.948   1.099   6.665
50271SOL    HW150839  10.953   1.180   6.724
50271SOL    HW250840  10.862   1.101   6.614
50272SOL     OW50841  10.225   0.089   6.988
50272SOL    HW150842  10.250   0.069   6.893
50272SOL    HW250843  10.297   0.145   7.030
50273SOL     OW50844  10.290   1.116   7.305
50273SOL    HW150845  10.191   1.122   7.315
50273SOL    HW250846  10.313   1.036   7.249
50274SOL     OW50847  10.015   1.050   5.954
50274SOL    HW150848  10.001   1.057   6.053
50274SOL    HW250849  10.099   0.999   5.936
50275SOL     OW50850   9.720   0.813   6.837
50275SOL    HW150851   9.806   0.825   6.887
50275SOL    HW250852   9.678   0.726   6.864
50276SOL     OW50853  10.584   0.386   6.848
50276SOL    HW150854  10.605   0.460   6.912
50276SOL    HW250855  10.495   0.403   6.805
50277SOL     OW50856   9.374   1.564   6.917
50277SOL    HW150857   9.328   1.646   6.883
50277SOL    HW250858   9.472   1.583   6.926
50278SOL     OW50859   9.677   1.100   6.087
50278SOL    HW150860   9.670   1.183   6.031
50278SOL    HW250861   9.681   1.020   6.027
50279SOL     OW50862   9.876   0.537   6.451
50279SOL    HW150863   9.888   0.603   6.377
50279SOL    HW250864   9.922   0.571   6.534
50280SOL     OW50865  10.562   1.348   5.974
50280SOL    HW150866  10.612   1.425   6.014
50280SOL    HW250867  10.467   1.350   6.006
50281SOL     OW50868  10.582   1.445   6.728
50281SOL    HW150869  10.629   1.458   6.815
50281SOL    HW250870  10.516   1.371   6.737
50282SOL     OW50871  10.892   0.639   6.058
50282SOL    HW150872  10.861   0.700   6.131
50282SOL    HW250873  10.942   0.691   5.989
50283SOL     OW50874   9.664   1.510   6.915
50283SOL    HW150875   9.643   1.466   6.828
50283SOL    HW250876   9.761   1.536   6.918
50284SOL     OW50877   9.712   0.751   7.184
50284SOL    HW150878   9.780   0.806   7.137
50284SOL    HW250879   9.752   0.663   7.211
50285SOL     OW50880  10.897   0.779   7.256
50285SOL    HW150881  10.805   0.817   7.251
50285SOL    HW250882  10.957   0.826   7.191
50286SOL     OW50883  10.323   0.105   7.356
50286SOL    HW150884  10.329   0.190   7.304
50286SOL    HW250885  10.355   0.029   7.299
50287SOL     OW50886   9.814   0.050   7.326
50287SOL    HW150887   9.772  -0.007   7.256
50287SOL    HW250888   9.748   0.119   7.358
50288SOL     OW50889   9.883   0.870   6.615
50288SOL    HW150890   9.927   0.959   6.606
50288SOL    HW250891   9.820   0.870   6.692
50289SOL     OW50892  10.670   0.862   6.631
50289SOL    HW150893  10.595   0.862   6.565
50289SOL    HW250894  10.707   0.770   6.640
50290SOL     OW50895  10.519   0.525   5.861
50290SOL    HW150896  10.532   0.441   5.915
50290SOL    HW250897  10.490   0.599   5.921
50291SOL     OW50898   9.617   0.213   6.817
50291SOL    HW150899   9.594   0.250   6.907
50291SOL    HW250900   9.587   0.118   6.811
50292SOL     OW50901   9.347   1.310   6.868
50292SOL    HW150902   9.400   1.261   6.936
50292SOL    HW250903   9.369   1.408   6.873
50293SOL     OW50904  10.042   0.634   6.650
50293SOL    HW150905  10.101   0.608   6.574
50293SOL    HW250906  10.014   0.730   6.639
50294SOL     OW50907  11.038   0.935   7.440
50294SOL    HW150908  10.992   0.928   7.351
50294SOL    HW250909  10.976   0.979   7.506
50295SOL     OW50910   9.617   0.063   6.204
50295SOL    HW150911   9.606   0.157   6.237
50295SOL    HW250912   9.612   0.000   6.281
50296SOL     OW50913  10.932   0.367   5.960
50296SOL    HW150914  10.934   0.291   6.024
50296SOL    HW250915  10.884   0.444   6.000
50297SOL     OW50916  10.333   0.766   6.552
50297SOL    HW150917  10.348   0.787   6.648
50297SOL    HW250918  10.303   0.671   6.543
50298SOL     OW50919  10.290   1.573   7.286
50298SOL    HW150920  10.270   1.617   7.198
50298SOL    HW250921  10.329   1.482   7.270
50299SOL     OW50922  11.169   1.518   7.191
50299SOL    HW150923  11.183   1.545   7.096
50299SOL    HW250924  11.252   1.540   7.244
50300SOL     OW50925   9.660   0.898   7.390
50300SOL    HW150926   9.736   0.942   7.438
50300SOL    HW250927   9.695   0.851   7.308
50301SOL     OW50928  10.850   0.274   5.711
50301SOL    HW150929  10.789   0.199   5.734
50301SOL    HW250930  10.872   0.326   5.794
50302SOL     OW50931  10.613   0.838   5.628
50302SOL    HW150932  10.647   0.745   5.643
50302SOL    HW250933  10.631   0.865   5.533
50303SOL     OW50934  10.378   1.333   6.435
50303SOL    HW150935  10.385   1.249   6.380
50303SOL    HW250936  10.440   1.402   6.399
50304SOL     OW50937   9.629   0.810   6.535
50304SOL    HW150938   9.722   0.846   6.540
50304SOL    HW250939   9.623   0.725   6.587
50305SOL     OW50940   9.649   0.509   6.592
50305SOL    HW150941   9.597   0.426   6.575
50305SOL    HW250942   9.726   0.514   6.528
50306SOL     OW50943  10.448   0.380   7.264
50306SOL    HW150944  10.403   0.443   7.328
50306SOL    HW250945  10.541   0.411   7.247
50307SOL     OW50946  10.470   0.207   7.063
50307SOL    HW150947  10.470   0.271   7.140
50307SOL    HW250948  10.498   0.255   6.980
50308SOL     OW50949   9.318   1.326   5.786
50308SOL    HW150950   9.225   1.347   5.755
50308SOL    HW250951   9.328   1.227   5.799
50309SOL     OW50952   9.398   1.801   6.513
50309SOL    HW150953   9.356   1.715   6.486
50309SOL    HW250954   9.492   1.804   6.479
50310SOL     OW50955   9.814   1.568   6.496
50310SOL    HW150956   9.880   1.642   6.505
50310SOL    HW250957   9.858   1.489   6.454
50311SOL     OW50958  10.312   0.796   6.824
50311SOL    HW150959  10.353   0.764   6.910
50311SOL    HW250960  10.216   0.769   6.821
50312SOL     OW50961   9.350   0.544   6.700
50312SOL    HW150962   9.435   0.511   6.659
50312SOL    HW250963   9.363   0.559   6.798
50313SOL     OW50964   9.499   0.520   7.308
50313SOL    HW150965   9.558   0.480   7.238
50313SOL    HW250966   9.441   0.591   7.267
50314SOL     OW50967  10.679   0.950   7.246
50314SOL    HW150968  10.718   1.039   7.266
50314SOL    HW250969  10.689   0.930   7.149
50315SOL     OW50970  10.125   0.572   5.911
50315SOL    HW150971  10.132   0.483   5.865
50315SOL    HW250972  10.031   0.606   5.903
50316SOL     OW50973  10.967   0.604   6.792
50316SOL    HW150974  10.929   0.535   6.854
50316SOL    HW250975  11.049   0.568   6.748
50317SOL     OW50976   9.562   1.564   7.330
50317SOL    HW150977   9.532   1.621   7.406
50317SOL    HW250978   9.555   1.467   7.356
50318SOL     OW50979   9.981   0.464   6.855
50318SOL    HW150980   9.947   0.375   6.825
50318SOL    HW250981  10.007   0.518   6.775
50319SOL     OW50982  10.240   1.678   7.051
50319SOL    HW150983  10.216   1.660   6.956
50319SOL    HW250984  10.270   1.772   7.061
50320SOL     OW50985   9.783   0.500   5.777
50320SOL    HW150986   9.844   0.580   5.781
50320SOL    HW250987   9.688   0.531   5.784
50321SOL     OW50988   9.469   1.137   7.052
50321SOL    HW150989   9.491   1.076   7.128
50321SOL    HW250990   9.479   1.088   6.966
50322SOL     OW50991  10.657   1.059   6.820
50322SOL    HW150992  10.681   0.996   6.746
50322SOL    HW250993  10.567   1.099   6.802
50323SOL     OW50994  10.612   0.855   5.895
50323SOL    HW150995  10.526   0.824   5.937
50323SOL    HW250996  10.608   0.841   5.796
50324SOL     OW50997  11.069   1.747   6.740
50324SOL    HW150998  11.130   1.777   6.667
50324SOL    HW250999  11.031   1.658   6.718
50325SOL     OW51000  10.562   1.731   6.714
50325SOL    HW151001  10.646   1.736   6.660
50325SOL    HW251002  10.539   1.635   6.732
50326SOL     OW51003   9.393   1.258   6.608
50326SOL    HW151004   9.388   1.257   6.708
50326SOL    HW251005   9.310   1.217   6.570
50327SOL     OW51006   9.998   1.662   7.302
50327SOL    HW151007   9.942   1.743   7.311
50327SOL    HW251008  10.050   1.666   7.216
50328SOL     OW51009  11.036   0.135   6.109
50328SOL    HW151010  11.109   0.118   6.042
50328SOL    HW251011  11.005   0.048   6.147
50329SOL     OW51012  10.698   1.573   6.063
50329SOL    HW151013  10.765   1.585   5.989
50329SOL    HW251014  10.658   1.662   6.086
50330SOL     OW51015   9.440   1.794   7.437
50330SOL    HW151016   9.399   1.720   7.490
50330SOL    HW251017   9.504   1.845   7.495
50331SOL     OW51018  10.590   0.927   6.258
50331SOL    HW151019  10.650   0.846   6.260
50331SOL    HW251020  10.630   0.996   6.198
50332SOL     OW51021  10.140   1.273   7.008
50332SOL    HW151022  10.135   1.306   7.103
50332SOL    HW251023  10.054   1.292   6.962
50333SOL     OW51024   9.982   1.616   5.740
50333SOL    HW151025   9.991   1.626   5.641
50333SOL    HW251026   9.942   1.527   5.761
50334SOL     OW51027  10.960   1.720   6.980
50334SOL    HW151028  11.013   1.730   6.896
50334SOL    HW251029  10.933   1.810   7.014
50335SOL     OW51030  11.151   0.175   6.549
50335SOL    HW151031  11.190   0.090   6.513
50335SOL    HW251032  11.053   0.177   6.530
50336SOL     OW51033   9.573   0.326   6.306
50336SOL    HW151034   9.494   0.377   6.272
50336SOL    HW251035   9.564   0.311   6.404
50337SOL     OW51036  10.504   1.612   5.617
50337SOL    HW151037  10.510   1.519   5.654
50337SOL    HW251038  10.445   1.612   5.537
50338SOL     OW51039  10.132   1.002   6.958
50338SOL    HW151040  10.172   1.001   6.866
50338SOL    HW251041  10.142   1.094   6.998
50339SOL     OW51042  10.226   0.910   5.877
50339SOL    HW151043  10.289   0.948   5.809
50339SOL    HW251044  10.266   0.827   5.916
50340SOL     OW51045  10.814   1.607   5.630
50340SOL    HW151046  10.722   1.644   5.637
50340SOL    HW251047  10.852   1.627   5.540
50341SOL     OW51048   9.682   1.288   7.076
50341SOL    HW151049   9.669   1.381   7.042
50341SOL    HW251050   9.598   1.236   7.063
50342SOL     OW51051  10.924   1.292   6.875
50342SOL    HW151052  10.984   1.295   6.955
50342SOL    HW251053  10.849   1.356   6.888
50343SOL     OW51054  10.349   1.098   6.282
50343SOL    HW151055  10.279   1.051   6.336
50343SOL    HW251056  10.408   1.030   6.239
50344SOL     OW51057  10.324   0.236   6.557
50344SOL    HW151058  10.316   0.200   6.464
50344SOL    HW251059  10.322   0.160   6.622
50345SOL     OW51060   9.900   1.487   6.077
50345SOL    HW151061   9.942   1.429   6.007
50345SOL    HW251062   9.856   1.566   6.033
50346SOL     OW51063  11.019   0.385   6.967
50346SOL    HW151064  11.092   0.454   6.971
50346SOL    HW251065  11.047   0.310   6.908
50347SOL     OW51066   9.565   1.348   5.876
50347SOL    HW151067   9.469   1.349   5.849
50347SOL    HW251068   9.577   1.401   5.960
50348SOL     OW51069   9.415   1.013   7.312
50348SOL    HW151070   9.338   0.980   7.366
50348SOL    HW251071   9.500   0.983   7.354
50349SOL     OW51072   9.982   0.203   7.075
50349SOL    HW151073  10.072   0.187   7.035
50349SOL    HW251074   9.990   0.208   7.174
50350SOL     OW51075   9.385   0.345   5.619
50350SOL    HW151076   9.293   0.317   5.590
50350SOL    HW251077   9.416   0.422   5.563
50351SOL     OW51078  10.750   0.856   6.984
50351SOL    HW151079  10.693   0.908   6.921
50351SOL    HW251080  10.846   0.868   6.960
50352SOL     OW51081   9.382   0.166   5.904
50352SOL    HW151082   9.365   0.249   5.850
50352SOL    HW251083   9.472   0.129   5.882
50353SOL     OW51084  10.493   1.335   5.705
50353SOL    HW151085  10.394   1.324   5.707
50353SOL    HW251086  10.527   1.350   5.798
50354SOL     OW51087   9.923   0.842   7.017
50354SOL    HW151088   9.979   0.923   7.000
50354SOL    HW251089   9.982   0.762   7.020
50355SOL     OW51090  10.803   1.767   6.545
50355SOL    HW151091  10.836   1.831   6.476
50355SOL    HW251092  10.869   1.761   6.620
50356SOL     OW51093  10.026   0.565   7.294
50356SOL    HW151094  10.045   0.630   7.368
50356SOL    HW251095  10.086   0.485   7.303
50357SOL     OW51096  10.760   1.220   7.219
50357SOL    HW151097  10.751   1.210   7.318
50357SOL    HW251098  10.856   1.213   7.193
50358SOL     OW51099   9.700   1.741   7.146
50358SOL    HW151100   9.609   1.782   7.144
50358SOL    HW251101   9.693   1.647   7.178
50359SOL     OW51102  10.984   0.883   6.840
50359SOL    HW151103  10.957   0.794   6.803
50359SOL    HW251104  10.985   0.951   6.767
50360SOL     OW51105  10.535   0.325   6.035
50360SOL    HW151106  10.600   0.251   6.024
50360SOL    HW251107  10.555   0.375   6.119
50361SOL     OW51108   9.904   0.745   6.238
50361SOL    HW151109   9.954   0.830   6.219
50361SOL    HW251110   9.816   0.747   6.190
50362SOL     OW51111  11.087   0.342   7.228
50362SOL    HW151112  11.070   0.373   7.134
50362SOL    HW251113  11.003   0.305   7.266
50363SOL     OW51114  11.040   0.934   7.103
50363SOL    HW151115  11.078   1.025   7.118
50363SOL    HW251116  11.032   0.917   7.004
50364SOL     OW51117  10.169   1.374   5.602
50364SOL    HW151118  10.123   1.389   5.690
50364SOL    HW251119  10.213   1.459   5.572
50365SOL     OW51120   9.971   1.790   6.539
50365SOL    HW151121   9.925   1.878   6.526
50365SOL    HW251122  10.070   1.802   6.532
50366SOL     OW51123  10.169   0.956   6.447
50366SOL    HW151124  10.223   0.887   6.495
50366SOL    HW251125  10.137   1.025   6.513
50367SOL     OW51126  10.393   0.984   5.673
50367SOL    HW151127  10.370   1.037   5.591
50367SOL    HW251128  10.474   0.928   5.654
50368SOL     OW51129  11.171   1.569   6.437
50368SOL    HW151130  11.100   1.557   6.367
50368SOL    HW251131  11.172   1.490   6.497
50369SOL     OW51132   9.531   1.314   7.430
50369SOL    HW151133   9.466   1.241   7.409
50369SOL    HW251134   9.535   1.328   7.528
50370SOL     OW51135   9.389   1.240   6.239
50370SOL    HW151136   9.388   1.193   6.327
50370SOL    HW251137   9.471   1.212   6.188
50371SOL     OW51138   9.982   1.391   7.210
50371SOL    HW151139   9.904   1.341   7.248
50371SOL    HW251140   9.979   1.486   7.241
50372SOL     OW51141  11.134   0.192   6.813
50372SOL    HW151142  11.130   0.102   6.857
50372SOL    HW251143  11.137   0.181   6.714
50373SOL     OW51144   9.738   0.424   6.106
50373SOL    HW151145   9.768   0.352   6.044
50373SOL    HW251146   9.699   0.384   6.189
50374SOL     OW51147  11.015   1.487   6.690
50374SOL    HW151148  10.922   1.462   6.663
50374SOL    HW251149  11.041   1.437   6.772
50375SOL     OW51150   9.627   0.547   6.866
50375SOL    HW151151   9.665   0.488   6.938
50375SOL    HW251152   9.667   0.521   6.778
50376SOL     OW51153  10.122   1.586   6.273
50376SOL    HW151154  10.154   1.596   6.179
50376SOL    HW251155  10.043   1.524   6.275
50377SOL     OW51156  10.734   0.214   6.698
50377SOL    HW151157  10.786   0.149   6.753
50377SOL    HW251158  10.685   0.277   6.759
50378SOL     OW51159  10.311   0.034   6.740
50378SOL    HW151160  10.248  -0.038   6.709
50378SOL    HW251161  10.404  -0.002   6.740
50379SOL     OW51162  10.080   1.330   5.887
50379SOL    HW151163  10.034   1.243   5.904
50379SOL    HW251164  10.171   1.327   5.928
50380SOL     OW51165   9.928   1.567   6.870
50380SOL    HW151166   9.923   1.649   6.927
50380SOL    HW251167  10.017   1.564   6.825
50381SOL     OW51168  10.662   0.052   5.754
50381SOL    HW151169  10.697   0.011   5.670
50381SOL    HW251170  10.572   0.014   5.774
50382SOL     OW51171  10.610   0.453   6.277
50382SOL    HW151172  10.551   0.533   6.281
50382SOL    HW251173  10.625   0.418   6.370
50383SOL     OW51174  10.903   0.221   6.468
50383SOL    HW151175  10.819   0.220   6.522
50383SOL    HW251176  10.905   0.304   6.412
50384SOL     OW51177   9.349   1.077   5.886
50384SOL    HW151178   9.448   1.066   5.877
50384SOL    HW251179   9.309   0.991   5.918
50385SOL     OW51180  10.185   1.646   5.923
50385SOL    HW151181  10.108   1.611   5.869
50385SOL    HW251182  10.153   1.717   5.985
50386SOL     OW51183   9.540   0.628   7.561
50386SOL    HW151184   9.447   0.626   7.598
50386SOL    HW251185   9.541   0.589   7.469
50387SOL     OW51186   9.535   0.275   8.444
50387SOL    HW151187   9.570   0.258   8.536
50387SOL    HW251188   9.447   0.230   8.432
50388SOL     OW51189   9.329   0.368   8.095
50388SOL    HW151190   9.247   0.411   8.134
50388SOL    HW251191   9.301   0.295   8.032
50389SOL     OW51192   9.879   1.275   8.613
50389SOL    HW151193   9.786   1.268   8.576
50389SOL    HW251194   9.890   1.364   8.657
50390SOL     OW51195  10.865   1.511   8.151
50390SOL    HW151196  10.808   1.495   8.232
50390SOL    HW251197  10.806   1.521   8.071
50391SOL     OW51198  10.445   0.703   8.165
50391SOL    HW151199  10.502   0.781   8.140
50391SOL    HW251200  10.385   0.729   8.241
50392SOL     OW51201  11.065   0.607   7.679
50392SOL    HW151202  11.053   0.594   7.580
50392SOL    HW251203  11.035   0.526   7.728
50393SOL     OW51204  10.078   1.144   8.471
50393SOL    HW151205  10.000   1.161   8.531
50393SOL    HW251206  10.112   1.231   8.435
50394SOL     OW51207  10.160   0.798   9.271
50394SOL    HW151208  10.156   0.874   9.336
50394SOL    HW251209  10.182   0.834   9.180
50395SOL     OW51210   9.995   1.012   8.113
50395SOL    HW151211  10.064   0.996   8.183
50395SOL    HW251212   9.922   1.069   8.151
50396SOL     OW51213   9.996   1.161   9.251
50396SOL    HW151214  10.056   1.240   9.265
50396SOL    HW251215   9.910   1.192   9.210
50397SOL     OW51216   9.645   1.435   8.509
50397SOL    HW151217   9.567   1.404   8.456
50397SOL    HW251218   9.703   1.493   8.452
50398SOL     OW51219  10.770   1.505   8.787
50398SOL    HW151220  10.794   1.599   8.813
50398SOL    HW251221  10.754   1.451   8.869
50399SOL     OW51222   9.748   0.392   8.947
50399SOL    HW151223   9.830   0.336   8.956
50399SOL    HW251224   9.667   0.334   8.951
50400SOL     OW51225  10.913   0.447   8.185
50400SOL    HW151226  10.839   0.493   8.135
50400SOL    HW251227  10.964   0.515   8.238
50401SOL     OW51228   9.541   1.713   7.931
50401SOL    HW151229   9.575   1.790   7.985
50401SOL    HW251230   9.585   1.713   7.841
50402SOL     OW51231  10.437   1.341   9.138
50402SOL    HW151232  10.484   1.341   9.226
50402SOL    HW251233  10.389   1.254   9.127
50403SOL     OW51234   9.540   1.434   7.986
50403SOL    HW151235   9.514   1.530   7.986
50403SOL    HW251236   9.469   1.380   8.031
50404SOL     OW51237   9.550   1.091   8.334
50404SOL    HW151238   9.564   1.007   8.386
50404SOL    HW251239   9.495   1.155   8.389
50405SOL     OW51240   9.930   1.786   8.887
50405SOL    HW151241   9.838   1.769   8.922
50405SOL    HW251242   9.958   1.878   8.913
50406SOL     OW51243   9.916   0.964   7.571
50406SOL    HW151244   9.923   1.048   7.517
50406SOL    HW251245   9.962   0.977   7.659
50407SOL     OW51246  10.904   0.114   8.928
50407SOL    HW151247  10.886   0.181   8.856
50407SOL    HW251248  10.901   0.160   9.017
50408SOL     OW51249   9.432   0.643   8.011
50408SOL    HW151250   9.387   0.555   8.028
50408SOL    HW251251   9.431   0.697   8.095
50409SOL     OW51252  11.152   1.767   7.807
50409SOL    HW151253  11.206   1.738   7.887
50409SOL    HW251254  11.182   1.857   7.778
50410SOL     OW51255   9.337   1.596   7.565
50410SOL    HW151256   9.318   1.500   7.586
50410SOL    HW251257   9.304   1.654   7.640
50411SOL     OW51258  10.999   0.922   8.060
50411SOL    HW151259  11.094   0.893   8.068
50411SOL    HW251260  10.991   0.987   7.985
50412SOL     OW51261  10.951   1.108   7.880
50412SOL    HW151262  11.037   1.110   7.828
50412SOL    HW251263  10.965   1.155   7.968
50413SOL     OW51264   9.423   0.737   9.045
50413SOL    HW151265   9.511   0.724   9.090
50413SOL    HW251266   9.410   0.834   9.023
50414SOL     OW51267   9.923   1.365   8.174
50414SOL    HW151268   9.874   1.278   8.183
50414SOL    HW251269   9.900   1.408   8.087
50415SOL     OW51270  10.603   1.228   8.871
50415SOL    HW151271  10.640   1.155   8.813
50415SOL    HW251272  10.655   1.233   8.956
50416SOL     OW51273  10.119   0.004   7.950
50416SOL    HW151274  10.159   0.095   7.941
50416SOL    HW251275  10.019   0.012   7.956
50417SOL     OW51276   9.507   0.976   8.712
50417SOL    HW151277   9.596   0.931   8.698
50417SOL    HW251278   9.434   0.911   8.693
50418SOL     OW51279  10.835   0.999   7.638
50418SOL    HW151280  10.772   0.923   7.651
50418SOL    HW251281  10.883   1.017   7.724
50419SOL     OW51282  10.497   1.792   9.064
50419SOL    HW151283  10.521   1.852   8.988
50419SOL    HW251284  10.504   1.697   9.034
50420SOL     OW51285   9.627   0.251   9.249
50420SOL    HW151286   9.698   0.322   9.255
50420SOL    HW251287   9.539   0.290   9.277
50421SOL     OW51288  10.776   1.417   8.401
50421SOL    HW151289  10.717   1.423   8.481
50421SOL    HW251290  10.761   1.329   8.355
50422SOL     OW51291  10.977   1.714   8.020
50422SOL    HW151292  10.936   1.691   7.932
50422SOL    HW251293  10.959   1.640   8.085
50423SOL     OW51294   9.908   0.729   7.718
50423SOL    HW151295   9.932   0.798   7.650
50423SOL    HW251296   9.830   0.762   7.772
50424SOL     OW51297  10.591   0.345   8.392
50424SOL    HW151298  10.505   0.295   8.379
50424SOL    HW251299  10.653   0.291   8.448
50425SOL     OW51300  10.886   1.662   7.755
50425SOL    HW151301  10.975   1.708   7.758
50425SOL    HW251302  10.865   1.638   7.660
50426SOL     OW51303  10.117   0.605   8.913
50426SOL    HW151304  10.070   0.602   9.002
50426SOL    HW251305  10.066   0.550   8.847
50427SOL     OW51306  10.704   0.469   9.122
50427SOL    HW151307  10.684   0.512   9.210
50427SOL    HW251308  10.782   0.407   9.131
50428SOL     OW51309  10.283   0.890   9.020
50428SOL    HW151310  10.329   0.806   8.991
50428SOL    HW251311  10.227   0.924   8.945
50429SOL     OW51312  10.301   0.410   8.690
50429SOL    HW151313  10.224   0.444   8.744
50429SOL    HW251314  10.267   0.359   8.611
50430SOL     OW51315  10.351   0.701   7.877
50430SOL    HW151316  10.377   0.697   7.973
50430SOL    HW251317  10.266   0.650   7.863
50431SOL     OW51318   9.386   0.811   8.237
50431SOL    HW151319   9.485   0.799   8.246
50431SOL    HW251320   9.362   0.906   8.258
50432SOL     OW51321   9.440   1.821   9.019
50432SOL    HW151322   9.430   1.806   9.118
50432SOL    HW251323   9.354   1.857   8.983
50433SOL     OW51324  10.175   0.348   7.643
50433SOL    HW151325  10.234   0.411   7.594
50433SOL    HW251326  10.194   0.254   7.614
50434SOL     OW51327  11.029   0.585   9.279
50434SOL    HW151328  11.003   0.674   9.243
50434SOL    HW251329  11.027   0.517   9.206
50435SOL     OW51330  10.672   1.144   7.993
50435SOL    HW151331  10.755   1.115   7.945
50435SOL    HW251332  10.623   1.211   7.937
50436SOL     OW51333   9.860   0.196   8.333
50436SOL    HW151334   9.855   0.191   8.433
50436SOL    HW251335   9.862   0.292   8.304
50437SOL     OW51336  10.318   1.456   7.925
50437SOL    HW151337  10.272   1.528   7.873
50437SOL    HW251338  10.314   1.476   8.023
50438SOL     OW51339   9.661   1.801   8.301
50438SOL    HW151340   9.711   1.715   8.307
50438SOL    HW251341   9.726   1.878   8.298
50439SOL     OW51342  11.105   1.066   8.321
50439SOL    HW151343  11.043   1.051   8.245
50439SOL    HW251344  11.053   1.077   8.406
50440SOL     OW51345  10.537   1.550   8.954
50440SOL    HW151346  10.543   1.473   9.018
50440SOL    HW251347  10.485   1.524   8.874
50441SOL     OW51348   9.631   0.943   7.690
50441SOL    HW151349   9.713   0.982   7.648
50441SOL    HW251350   9.604   0.861   7.641
50442SOL     OW51351  10.768   0.735   8.176
50442SOL    HW151352  10.763   0.670   8.251
50442SOL    HW251353  10.848   0.794   8.189
50443SOL     OW51354   9.771   1.266   9.175
50443SOL    HW151355   9.721   1.267   9.089
50443SOL    HW251356   9.708   1.248   9.251
50444SOL     OW51357  10.421   1.776   7.685
50444SOL    HW151358  10.361   1.714   7.735
50444SOL    HW251359  10.452   1.732   7.600
50445SOL     OW51360   9.512   0.285   8.946
50445SOL    HW151361   9.432   0.345   8.933
50445SOL    HW251362   9.502   0.236   9.032
50446SOL     OW51363  10.942   1.377   7.529
50446SOL    HW151364  10.910   1.471   7.519
50446SOL    HW251365  10.866   1.314   7.517
50447SOL     OW51366   9.774   1.743   7.771
50447SOL    HW151367   9.807   1.782   7.857
50447SOL    HW251368   9.850   1.736   7.706
50448SOL     OW51369  10.710   0.107   7.874
50448SOL    HW151370  10.686   0.070   7.784
50448SOL    HW251371  10.809   0.123   7.878
50449SOL     OW51372   9.559   1.785   8.689
50449SOL    HW151373   9.616   1.720   8.739
50449SOL    HW251374   9.543   1.752   8.596
50450SOL     OW51375  10.250   1.698   8.352
50450SOL    HW151376  10.330   1.641   8.373
50450SOL    HW251377  10.201   1.658   8.275
50451SOL     OW51378   9.692   0.700   7.928
50451SOL    HW151379   9.737   0.610   7.925
50451SOL    HW251380   9.598   0.689   7.961
50452SOL     OW51381  10.857   0.222   9.177
50452SOL    HW151382  10.852   0.259   9.269
50452SOL    HW251383  10.785   0.153   9.165
50453SOL     OW51384   9.924   0.122   7.565
50453SOL    HW151385  10.022   0.100   7.572
50453SOL    HW251386   9.893   0.105   7.472
50454SOL     OW51387  10.091   0.264   9.197
50454SOL    HW151388  10.158   0.203   9.240
50454SOL    HW251389  10.018   0.283   9.262
50455SOL     OW51390  10.198   1.514   8.643
50455SOL    HW151391  10.175   1.489   8.549
50455SOL    HW251392  10.259   1.445   8.682
50456SOL     OW51393  10.661   0.590   8.881
50456SOL    HW151394  10.689   0.547   8.966
50456SOL    HW251395  10.686   0.686   8.882
50457SOL     OW51396  10.113   1.402   8.372
50457SOL    HW151397  10.203   1.416   8.330
50457SOL    HW251398  10.042   1.404   8.301
50458SOL     OW51399  10.232   0.503   8.347
50458SOL    HW151400  10.207   0.494   8.251
50458SOL    HW251401  10.280   0.421   8.378
50459SOL     OW51402   9.849   0.064   7.960
50459SOL    HW151403   9.768   0.065   8.018
50459SOL    HW251404   9.852   0.147   7.905
50460SOL     OW51405  10.744   1.188   7.489
50460SOL    HW151406  10.776   1.112   7.546
50460SOL    HW251407  10.652   1.215   7.519
50461SOL     OW51408   9.607   0.035   7.619
50461SOL    HW151409   9.656   0.119   7.598
50461SOL    HW251410   9.669  -0.030   7.664
50462SOL     OW51411  10.245   0.236   7.928
50462SOL    HW151412  10.197   0.277   7.850
50462SOL    HW251413  10.344   0.234   7.909
50463SOL     OW51414  10.386   0.683   8.912
50463SOL    HW151415  10.306   0.622   8.915
50463SOL    HW251416  10.467   0.630   8.888
50464SOL     OW51417  10.537   1.570   8.241
50464SOL    HW151418  10.558   1.644   8.176
50464SOL    HW251419  10.605   1.570   8.314
50465SOL     OW51420   9.769   1.152   8.189
50465SOL    HW151421   9.698   1.125   8.254
50465SOL    HW251422   9.743   1.124   8.096
50466SOL     OW51423  10.581   1.797   8.039
50466SOL    HW151424  10.625   1.861   7.975
50466SOL    HW251425  10.531   1.849   8.109
50467SOL     OW51426  10.342   0.549   7.464
50467SOL    HW151427  10.301   0.631   7.425
50467SOL    HW251428  10.406   0.575   7.537
50468SOL     OW51429   9.388   0.556   8.834
50468SOL    HW151430   9.480   0.555   8.793
50468SOL    HW251431   9.382   0.630   8.901
50469SOL     OW51432   9.871   0.222   8.595
50469SOL    HW151433   9.909   0.138   8.632
50469SOL    HW251434   9.783   0.241   8.639
50470SOL     OW51435  10.176   0.454   8.090
50470SOL    HW151436  10.144   0.526   8.028
50470SOL    HW251437  10.200   0.373   8.037
50471SOL     OW51438  10.327   0.039   8.201
50471SOL    HW151439  10.255   0.044   8.132
50471SOL    HW251440  10.303  -0.030   8.270
50472SOL     OW51441  10.739   1.173   8.315
50472SOL    HW151442  10.684   1.089   8.308
50472SOL    HW251443  10.765   1.202   8.223
50473SOL     OW51444  10.776   0.590   8.440
50473SOL    HW151445  10.746   0.495   8.447
50473SOL    HW251446  10.849   0.606   8.506
50474SOL     OW51447  11.167   0.833   7.825
50474SOL    HW151448  11.209   0.769   7.889
50474SOL    HW251449  11.129   0.782   7.747
50475SOL     OW51450   9.798   1.385   7.622
50475SOL    HW151451   9.711   1.370   7.669
50475SOL    HW251452   9.781   1.411   7.527
50476SOL     OW51453  10.974   1.280   8.105
50476SOL    HW151454  11.073   1.288   8.119
50476SOL    HW251455  10.929   1.364   8.136
50477SOL     OW51456  10.700   0.575   7.526
50477SOL    HW151457  10.646   0.554   7.607
50477SOL    HW251458  10.791   0.534   7.535
50478SOL     OW51459   9.837   0.256   7.776
50478SOL    HW151460   9.864   0.197   7.701
50478SOL    HW251461   9.837   0.351   7.745
50479SOL     OW51462  11.064   1.223   9.036
50479SOL    HW151463  11.155   1.184   9.023
50479SOL    HW251464  11.072   1.319   9.060
50480SOL     OW51465  10.374   1.347   8.788
50480SOL    HW151466  10.294   1.324   8.843
50480SOL    HW251467  10.457   1.321   8.837
50481SOL     OW51468  10.902   1.629   9.073
50481SOL    HW151469  10.929   1.663   8.983
50481SOL    HW251470  10.981   1.591   9.119
50482SOL     OW51471  10.421   1.195   8.548
50482SOL    HW151472  10.381   1.239   8.629
50482SOL    HW251473  10.380   1.232   8.465
50483SOL     OW51474  10.948   1.099   8.527
50483SOL    HW151475  10.953   1.180   8.586
50483SOL    HW251476  10.862   1.101   8.476
50484SOL     OW51477  10.225   0.089   8.850
50484SOL    HW151478  10.250   0.069   8.755
50484SOL    HW251479  10.297   0.145   8.892
50485SOL     OW51480  10.290   1.116   9.167
50485SOL    HW151481  10.191   1.122   9.177
50485SOL    HW251482  10.313   1.036   9.111
50486SOL     OW51483  10.015   1.050   7.816
50486SOL    HW151484  10.001   1.057   7.915
50486SOL    HW251485  10.099   0.999   7.798
50487SOL     OW51486   9.720   0.813   8.699
50487SOL    HW151487   9.806   0.825   8.749
50487SOL    HW251488   9.678   0.726   8.726
50488SOL     OW51489  10.584   0.386   8.710
50488SOL    HW151490  10.605   0.460   8.774
50488SOL    HW251491  10.495   0.403   8.667
50489SOL     OW51492   9.374   1.564   8.779
50489SOL    HW151493   9.328   1.646   8.745
50489SOL    HW251494   9.472   1.583   8.788
50490SOL     OW51495   9.677   1.100   7.949
50490SOL    HW151496   9.670   1.183   7.893
50490SOL    HW251497   9.681   1.020   7.889
50491SOL     OW51498   9.876   0.537   8.313
50491SOL    HW151499   9.888   0.603   8.239
50491SOL    HW251500   9.922   0.571   8.396
50492SOL     OW51501  10.562   1.348   7.836
50492SOL    HW151502  10.612   1.425   7.876
50492SOL    HW251503  10.467   1.350   7.868
50493SOL     OW51504  10.582   1.445   8.590
50493SOL    HW151505  10.629   1.458   8.677
50493SOL    HW251506  10.516   1.371   8.599
50494SOL     OW51507  10.892   0.639   7.920
50494SOL    HW151508  10.861   0.700   7.993
50494SOL    HW251509  10.942   0.691   7.851
50495SOL     OW51510   9.664   1.510   8.777
50495SOL    HW151511   9.643   1.466   8.690
50495SOL    HW251512   9.761   1.536   8.780
50496SOL     OW51513   9.712   0.751   9.046
50496SOL    HW151514   9.780   0.806   8.999
50496SOL    HW251515   9.752   0.663   9.073
50497SOL     OW51516  10.897   0.779   9.118
50497SOL    HW151517  10.805   0.817   9.113
50497SOL    HW251518  10.957   0.826   9.053
50498SOL     OW51519  10.323   0.105   9.218
50498SOL    HW151520  10.329   0.190   9.166
50498SOL    HW251521  10.355   0.029   9.161
50499SOL     OW51522   9.814   0.050   9.188
50499SOL    HW151523   9.772  -0.007   9.118
50499SOL    HW251524   9.748   0.119   9.220
50500SOL     OW51525   9.883   0.870   8.477
50500SOL    HW151526   9.927   0.959   8.468
50500SOL    HW251527   9.820   0.870   8.554
50501SOL     OW51528  10.670   0.862   8.493
50501SOL    HW151529  10.595   0.862   8.427
50501SOL    HW251530  10.707   0.770   8.502
50502SOL     OW51531  10.519   0.525   7.723
50502SOL    HW151532  10.532   0.441   7.777
50502SOL    HW251533  10.490   0.599   7.783
50503SOL     OW51534   9.617   0.213   8.679
50503SOL    HW151535   9.594   0.250   8.769
50503SOL    HW251536   9.587   0.118   8.673
50504SOL     OW51537   9.347   1.310   8.730
50504SOL    HW151538   9.400   1.261   8.798
50504SOL    HW251539   9.369   1.408   8.735
50505SOL     OW51540  10.042   0.634   8.512
50505SOL    HW151541  10.101   0.608   8.436
50505SOL    HW251542  10.014   0.730   8.501
50506SOL     OW51543  11.038   0.935   9.302
50506SOL    HW151544  10.992   0.928   9.213
50506SOL    HW251545  10.976   0.979   9.368
50507SOL     OW51546   9.617   0.063   8.066
50507SOL    HW151547   9.606   0.157   8.099
50507SOL    HW251548   9.612   0.000   8.143
50508SOL     OW51549  10.932   0.367   7.822
50508SOL    HW151550  10.934   0.291   7.886
50508SOL    HW251551  10.884   0.444   7.862
50509SOL     OW51552  10.333   0.766   8.414
50509SOL    HW151553  10.348   0.787   8.510
50509SOL    HW251554  10.303   0.671   8.405
50510SOL     OW51555  10.290   1.573   9.148
50510SOL    HW151556  10.270   1.617   9.060
50510SOL    HW251557  10.329   1.482   9.132
50511SOL     OW51558  11.169   1.518   9.053
50511SOL    HW151559  11.183   1.545   8.958
50511SOL    HW251560  11.252   1.540   9.106
50512SOL     OW51561   9.660   0.898   9.252
50512SOL    HW151562   9.736   0.942   9.300
50512SOL    HW251563   9.695   0.851   9.170
50513SOL     OW51564  10.850   0.274   7.573
50513SOL    HW151565  10.789   0.199   7.596
50513SOL    HW251566  10.872   0.326   7.656
50514SOL     OW51567  10.613   0.838   7.490
50514SOL    HW151568  10.647   0.745   7.505
50514SOL    HW251569  10.631   0.865   7.395
50515SOL     OW51570  10.378   1.333   8.297
50515SOL    HW151571  10.385   1.249   8.242
50515SOL    HW251572  10.440   1.402   8.261
50516SOL     OW51573   9.629   0.810   8.397
50516SOL    HW151574   9.722   0.846   8.402
50516SOL    HW251575   9.623   0.725   8.449
50517SOL     OW51576   9.649   0.509   8.454
50517SOL    HW151577   9.597   0.426   8.437
50517SOL    HW251578   9.726   0.514   8.390
50518SOL     OW51579  10.448   0.380   9.126
50518SOL    HW151580  10.403   0.443   9.190
50518SOL    HW251581  10.541   0.411   9.109
50519SOL     OW51582  10.470   0.207   8.925
50519SOL    HW151583  10.470   0.271   9.002
50519SOL    HW251584  10.498   0.255   8.842
50520SOL     OW51585   9.318   1.326   7.648
50520SOL    HW151586   9.225   1.347   7.617
50520SOL    HW251587   9.328   1.227   7.661
50521SOL     OW51588   9.398   1.801   8.375
50521SOL    HW151589   9.356   1.715   8.348
50521SOL    HW251590   9.492   1.804   8.341
50522SOL     OW51591   9.814   1.568   8.358
50522SOL    HW151592   9.880   1.642   8.367
50522SOL    HW251593   9.858   1.489   8.316
50523SOL     OW51594  10.312   0.796   8.686
50523SOL    HW151595  10.353   0.764   8.772
50523SOL    HW251596  10.216   0.769   8.683
50524SOL     OW51597   9.350   0.544   8.562
50524SOL    HW151598   9.435   0.511   8.521
50524SOL    HW251599   9.363   0.559   8.660
50525SOL     OW51600   9.499   0.520   9.170
50525SOL    HW151601   9.558   0.480   9.100
50525SOL    HW251602   9.441   0.591   9.129
50526SOL     OW51603  10.679   0.950   9.108
50526SOL    HW151604  10.718   1.039   9.128
50526SOL    HW251605  10.689   0.930   9.011
50527SOL     OW51606  10.125   0.572   7.773
50527SOL    HW151607  10.132   0.483   7.727
50527SOL    HW251608  10.031   0.606   7.765
50528SOL     OW51609  10.967   0.604   8.654
50528SOL    HW151610  10.929   0.535   8.716
50528SOL    HW251611  11.049   0.568   8.610
50529SOL     OW51612   9.562   1.564   9.192
50529SOL    HW151613   9.532   1.621   9.268
50529SOL    HW251614   9.555   1.467   9.218
50530SOL     OW51615   9.981   0.464   8.717
50530SOL    HW151616   9.947   0.375   8.687
50530SOL    HW251617  10.007   0.518   8.637
50531SOL     OW51618  10.240   1.678   8.913
50531SOL    HW151619  10.216   1.660   8.818
50531SOL    HW251620  10.270   1.772   8.923
50532SOL     OW51621   9.783   0.500   7.639
50532SOL    HW151622   9.844   0.580   7.643
50532SOL    HW251623   9.688   0.531   7.646
50533SOL     OW51624   9.469   1.137   8.914
50533SOL    HW151625   9.491   1.076   8.990
50533SOL    HW251626   9.479   1.088   8.828
50534SOL     OW51627  10.657   1.059   8.682
50534SOL    HW151628  10.681   0.996   8.608
50534SOL    HW251629  10.567   1.099   8.664
50535SOL     OW51630  10.612   0.855   7.757
50535SOL    HW151631  10.526   0.824   7.799
50535SOL    HW251632  10.608   0.841   7.658
50536SOL     OW51633  11.069   1.747   8.602
50536SOL    HW151634  11.130   1.777   8.529
50536SOL    HW251635  11.031   1.658   8.580
50537SOL     OW51636  10.562   1.731   8.576
50537SOL    HW151637  10.646   1.736   8.522
50537SOL    HW251638  10.539   1.635   8.594
50538SOL     OW51639   9.393   1.258   8.470
50538SOL    HW151640   9.388   1.257   8.570
50538SOL    HW251641   9.310   1.217   8.432
50539SOL     OW51642   9.998   1.662   9.164
50539SOL    HW151643   9.942   1.743   9.173
50539SOL    HW251644  10.050   1.666   9.078
50540SOL     OW51645  11.036   0.135   7.971
50540SOL    HW151646  11.109   0.118   7.904
50540SOL    HW251647  11.005   0.048   8.009
50541SOL     OW51648  10.698   1.573   7.925
50541SOL    HW151649  10.765   1.585   7.851
50541SOL    HW251650  10.658   1.662   7.948
50542SOL     OW51651   9.440   1.794   9.299
50542SOL    HW151652   9.399   1.720   9.352
50542SOL    HW251653   9.504   1.845   9.357
50543SOL     OW51654  10.590   0.927   8.120
50543SOL    HW151655  10.650   0.846   8.122
50543SOL    HW251656  10.630   0.996   8.060
50544SOL     OW51657  10.140   1.273   8.870
50544SOL    HW151658  10.135   1.306   8.965
50544SOL    HW251659  10.054   1.292   8.824
50545SOL     OW51660   9.982   1.616   7.602
50545SOL    HW151661   9.991   1.626   7.503
50545SOL    HW251662   9.942   1.527   7.623
50546SOL     OW51663  10.960   1.720   8.842
50546SOL    HW151664  11.013   1.730   8.758
50546SOL    HW251665  10.933   1.810   8.876
50547SOL     OW51666  11.151   0.175   8.411
50547SOL    HW151667  11.190   0.090   8.375
50547SOL    HW251668  11.053   0.177   8.392
50548SOL     OW51669   9.573   0.326   8.168
50548SOL    HW151670   9.494   0.377   8.134
50548SOL    HW251671   9.564   0.311   8.266
50549SOL     OW51672  10.504   1.612   7.479
50549SOL    HW151673  10.510   1.519   7.516
50549SOL    HW251674  10.445   1.612   7.399
50550SOL     OW51675  10.132   1.002   8.820
50550SOL    HW151676  10.172   1.001   8.728
50550SOL    HW251677  10.142   1.094   8.860
50551SOL     OW51678  10.226   0.910   7.739
50551SOL    HW151679  10.289   0.948   7.671
50551SOL    HW251680  10.266   0.827   7.778
50552SOL     OW51681  10.814   1.607   7.492
50552SOL    HW151682  10.722   1.644   7.499
50552SOL    HW251683  10.852   1.627   7.402
50553SOL     OW51684   9.682   1.288   8.938
50553SOL    HW151685   9.669   1.381   8.904
50553SOL    HW251686   9.598   1.236   8.925
50554SOL     OW51687  10.924   1.292   8.737
50554SOL    HW151688  10.984   1.295   8.817
50554SOL    HW251689  10.849   1.356   8.750
50555SOL     OW51690  10.349   1.098   8.144
50555SOL    HW151691  10.279   1.051   8.198
50555SOL    HW251692  10.408   1.030   8.101
50556SOL     OW51693  10.324   0.236   8.419
50556SOL    HW151694  10.316   0.200   8.326
50556SOL    HW251695  10.322   0.160   8.484
50557SOL     OW51696   9.900   1.487   7.939
50557SOL    HW151697   9.942   1.429   7.869
50557SOL    HW251698   9.856   1.566   7.895
50558SOL     OW51699  11.019   0.385   8.829
50558SOL    HW151700  11.092   0.454   8.833
50558SOL    HW251701  11.047   0.310   8.770
50559SOL     OW51702   9.565   1.348   7.738
50559SOL    HW151703   9.469   1.349   7.711
50559SOL    HW251704   9.577   1.401   7.822
50560SOL     OW51705   9.415   1.013   9.174
50560SOL    HW151706   9.338   0.980   9.228
50560SOL    HW251707   9.500   0.983   9.216
50561SOL     OW51708   9.982   0.203   8.937
50561SOL    HW151709  10.072   0.187   8.897
50561SOL    HW251710   9.990   0.208   9.036
50562SOL     OW51711   9.385   0.345   7.481
50562SOL    HW151712   9.293   0.317   7.452
50562SOL    HW251713   9.416   0.422   7.425
50563SOL     OW51714  10.750   0.856   8.846
50563SOL    HW151715  10.693   0.908   8.783
50563SOL    HW251716  10.846   0.868   8.822
50564SOL     OW51717   9.382   0.166   7.766
50564SOL    HW151718   9.365   0.249   7.712
50564SOL    HW251719   9.472   0.129   7.744
50565SOL     OW51720  10.493   1.335   7.567
50565SOL    HW151721  10.394   1.324   7.569
50565SOL    HW251722  10.527   1.350   7.660
50566SOL     OW51723   9.923   0.842   8.879
50566SOL    HW151724   9.979   0.923   8.862
50566SOL    HW251725   9.982   0.762   8.882
50567SOL     OW51726  10.803   1.767   8.407
50567SOL    HW151727  10.836   1.831   8.338
50567SOL    HW251728  10.869   1.761   8.482
50568SOL     OW51729  10.026   0.565   9.156
50568SOL    HW151730  10.045   0.630   9.230
50568SOL    HW251731  10.086   0.485   9.165
50569SOL     OW51732  10.760   1.220   9.081
50569SOL    HW151733  10.751   1.210   9.180
50569SOL    HW251734  10.856   1.213   9.055
50570SOL     OW51735   9.700   1.741   9.008
50570SOL    HW151736   9.609   1.782   9.006
50570SOL    HW251737   9.693   1.647   9.040
50571SOL     OW51738  10.984   0.883   8.702
50571SOL    HW151739  10.957   0.794   8.665
50571SOL    HW251740  10.985   0.951   8.629
50572SOL     OW51741  10.535   0.325   7.897
50572SOL    HW151742  10.600   0.251   7.886
50572SOL    HW251743  10.555   0.375   7.981
50573SOL     OW51744   9.904   0.745   8.100
50573SOL    HW151745   9.954   0.830   8.081
50573SOL    HW251746   9.816   0.747   8.052
50574SOL     OW51747  11.087   0.342   9.090
50574SOL    HW151748  11.070   0.373   8.996
50574SOL    HW251749  11.003   0.305   9.128
50575SOL     OW51750  11.040   0.934   8.965
50575SOL    HW151751  11.078   1.025   8.980
50575SOL    HW251752  11.032   0.917   8.866
50576SOL     OW51753  10.169   1.374   7.464
50576SOL    HW151754  10.123   1.389   7.552
50576SOL    HW251755  10.213   1.459   7.434
50577SOL     OW51756   9.971   1.790   8.401
50577SOL    HW151757   9.925   1.878   8.388
50577SOL    HW251758  10.070   1.802   8.394
50578SOL     OW51759  10.169   0.956   8.309
50578SOL    HW151760  10.223   0.887   8.357
50578SOL    HW251761  10.137   1.025   8.375
50579SOL     OW51762  10.393   0.984   7.535
50579SOL    HW151763  10.370   1.037   7.453
50579SOL    HW251764  10.474   0.928   7.516
50580SOL     OW51765  11.171   1.569   8.299
50580SOL    HW151766  11.100   1.557   8.229
50580SOL    HW251767  11.172   1.490   8.359
50581SOL     OW51768   9.531   1.314   9.292
50581SOL    HW151769   9.466   1.241   9.271
50581SOL    HW251770   9.535   1.328   9.390
50582SOL     OW51771   9.389   1.240   8.101
50582SOL    HW151772   9.388   1.193   8.189
50582SOL    HW251773   9.471   1.212   8.050
50583SOL     OW51774   9.982   1.391   9.072
50583SOL    HW151775   9.904   1.341   9.110
50583SOL    HW251776   9.979   1.486   9.103
50584SOL     OW51777  11.134   0.192   8.675
50584SOL    HW151778  11.130   0.102   8.719
50584SOL    HW251779  11.137   0.181   8.576
50585SOL     OW51780   9.738   0.424   7.968
50585SOL    HW151781   9.768   0.352   7.906
50585SOL    HW251782   9.699   0.384   8.051
50586SOL     OW51783  11.015   1.487   8.552
50586SOL    HW151784  10.922   1.462   8.525
50586SOL    HW251785  11.041   1.437   8.634
50587SOL     OW51786   9.627   0.547   8.728
50587SOL    HW151787   9.665   0.488   8.800
50587SOL    HW251788   9.667   0.521   8.640
50588SOL     OW51789  10.122   1.586   8.135
50588SOL    HW151790  10.154   1.596   8.041
50588SOL    HW251791  10.043   1.524   8.137
50589SOL     OW51792  10.734   0.214   8.560
50589SOL    HW151793  10.786   0.149   8.615
50589SOL    HW251794  10.685   0.277   8.621
50590SOL     OW51795  10.311   0.034   8.602
50590SOL    HW151796  10.248  -0.038   8.571
50590SOL    HW251797  10.404  -0.002   8.602
50591SOL     OW51798  10.080   1.330   7.749
50591SOL    HW151799  10.034   1.243   7.766
50591SOL    HW251800  10.171   1.327   7.790
50592SOL     OW51801   9.928   1.567   8.732
50592SOL    HW151802   9.923   1.649   8.789
50592SOL    HW251803  10.017   1.564   8.687
50593SOL     OW51804  10.662   0.052   7.616
50593SOL    HW151805  10.697   0.011   7.532
50593SOL    HW251806  10.572   0.014   7.636
50594SOL     OW51807  10.610   0.453   8.139
50594SOL    HW151808  10.551   0.533   8.143
50594SOL    HW251809  10.625   0.418   8.232
50595SOL     OW51810  10.903   0.221   8.330
50595SOL    HW151811  10.819   0.220   8.384
50595SOL    HW251812  10.905   0.304   8.274
50596SOL     OW51813   9.349   1.077   7.748
50596SOL    HW151814   9.448   1.066   7.739
50596SOL    HW251815   9.309   0.991   7.780
50597SOL     OW51816  10.185   1.646   7.785
50597SOL    HW151817  10.108   1.611   7.731
50597SOL    HW251818  10.153   1.717   7.847
50598SOL     OW51819   9.540   0.628   9.423
50598SOL    HW151820   9.447   0.626   9.460
50598SOL    HW251821   9.541   0.589   9.331
50599SOL     OW51822   9.535   0.275  10.306
50599SOL    HW151823   9.570   0.258  10.398
50599SOL    HW251824   9.447   0.230  10.294
50600SOL     OW51825   9.329   0.368   9.957
50600SOL    HW151826   9.247   0.411   9.996
50600SOL    HW251827   9.301   0.295   9.894
50601SOL     OW51828   9.879   1.275  10.475
50601SOL    HW151829   9.786   1.268  10.438
50601SOL    HW251830   9.890   1.364  10.519
50602SOL     OW51831  10.865   1.511  10.013
50602SOL    HW151832  10.808   1.495  10.094
50602SOL    HW251833  10.806   1.521   9.933
50603SOL     OW51834  10.445   0.703  10.027
50603SOL    HW151835  10.502   0.781  10.002
50603SOL    HW251836  10.385   0.729  10.103
50604SOL     OW51837  11.065   0.607   9.541
50604SOL    HW151838  11.053   0.594   9.442
50604SOL    HW251839  11.035   0.526   9.590
50605SOL     OW51840  10.078   1.144  10.333
50605SOL    HW151841  10.000   1.161  10.393
50605SOL    HW251842  10.112   1.231  10.297
50606SOL     OW51843  10.160   0.798  11.133
50606SOL    HW151844  10.156   0.874  11.198
50606SOL    HW251845  10.182   0.834  11.042
50607SOL     OW51846   9.995   1.012   9.975
50607SOL    HW151847  10.064   0.996  10.045
50607SOL    HW251848   9.922   1.069  10.013
50608SOL     OW51849   9.996   1.161  11.113
50608SOL    HW151850  10.056   1.240  11.127
50608SOL    HW251851   9.910   1.192  11.072
50609SOL     OW51852   9.645   1.435  10.371
50609SOL    HW151853   9.567   1.404  10.318
50609SOL    HW251854   9.703   1.493  10.314
50610SOL     OW51855  10.770   1.505  10.649
50610SOL    HW151856  10.794   1.599  10.675
50610SOL    HW251857  10.754   1.451  10.731
50611SOL     OW51858   9.748   0.392  10.809
50611SOL    HW151859   9.830   0.336  10.818
50611SOL    HW251860   9.667   0.334  10.813
50612SOL     OW51861  10.913   0.447  10.047
50612SOL    HW151862  10.839   0.493   9.997
50612SOL    HW251863  10.964   0.515  10.100
50613SOL     OW51864   9.541   1.713   9.793
50613SOL    HW151865   9.575   1.790   9.847
50613SOL    HW251866   9.585   1.713   9.703
50614SOL     OW51867  10.437   1.341  11.000
50614SOL    HW151868  10.484   1.341  11.088
50614SOL    HW251869  10.389   1.254  10.989
50615SOL     OW51870   9.540   1.434   9.848
50615SOL    HW151871   9.514   1.530   9.848
50615SOL    HW251872   9.469   1.380   9.893
50616SOL     OW51873   9.550   1.091  10.196
50616SOL    HW151874   9.564   1.007  10.248
50616SOL    HW251875   9.495   1.155  10.251
50617SOL     OW51876   9.930   1.786  10.749
50617SOL    HW151877   9.838   1.769  10.784
50617SOL    HW251878   9.958   1.878  10.775
50618SOL     OW51879   9.916   0.964   9.433
50618SOL    HW151880   9.923   1.048   9.379
50618SOL    HW251881   9.962   0.977   9.521
50619SOL     OW51882  10.904   0.114  10.790
50619SOL    HW151883  10.886   0.181  10.718
50619SOL    HW251884  10.901   0.160  10.879
50620SOL     OW51885   9.432   0.643   9.873
50620SOL    HW151886   9.387   0.555   9.890
50620SOL    HW251887   9.431   0.697   9.957
50621SOL     OW51888  11.152   1.767   9.669
50621SOL    HW151889  11.206   1.738   9.749
50621SOL    HW251890  11.182   1.857   9.640
50622SOL     OW51891   9.337   1.596   9.427
50622SOL    HW151892   9.318   1.500   9.448
50622SOL    HW251893   9.304   1.654   9.502
50623SOL     OW51894  10.999   0.922   9.922
50623SOL    HW151895  11.094   0.893   9.930
50623SOL    HW251896  10.991   0.987   9.847
50624SOL     OW51897  10.951   1.108   9.742
50624SOL    HW151898  11.037   1.110   9.690
50624SOL    HW251899  10.965   1.155   9.830
50625SOL     OW51900   9.423   0.737  10.907
50625SOL    HW151901   9.511   0.724  10.952
50625SOL    HW251902   9.410   0.834  10.885
50626SOL     OW51903   9.923   1.365  10.036
50626SOL    HW151904   9.874   1.278  10.045
50626SOL    HW251905   9.900   1.408   9.949
50627SOL     OW51906  10.603   1.228  10.733
50627SOL    HW151907  10.640   1.155  10.675
50627SOL    HW251908  10.655   1.233  10.818
50628SOL     OW51909  10.119   0.004   9.812
50628SOL    HW151910  10.159   0.095   9.803
50628SOL    HW251911  10.019   0.012   9.818
50629SOL     OW51912   9.507   0.976  10.574
50629SOL    HW151913   9.596   0.931  10.560
50629SOL    HW251914   9.434   0.911  10.555
50630SOL     OW51915  10.835   0.999   9.500
50630SOL    HW151916  10.772   0.923   9.513
50630SOL    HW251917  10.883   1.017   9.586
50631SOL     OW51918  10.497   1.792  10.926
50631SOL    HW151919  10.521   1.852  10.850
50631SOL    HW251920  10.504   1.697  10.896
50632SOL     OW51921   9.627   0.251  11.111
50632SOL    HW151922   9.698   0.322  11.117
50632SOL    HW251923   9.539   0.290  11.139
50633SOL     OW51924  10.776   1.417  10.263
50633SOL    HW151925  10.717   1.423  10.343
50633SOL    HW251926  10.761   1.329  10.217
50634SOL     OW51927  10.977   1.714   9.882
50634SOL    HW151928  10.936   1.691   9.794
50634SOL    HW251929  10.959   1.640   9.947
50635SOL     OW51930   9.908   0.729   9.580
50635SOL    HW151931   9.932   0.798   9.512
50635SOL    HW251932   9.830   0.762   9.634
50636SOL     OW51933  10.591   0.345  10.254
50636SOL    HW151934  10.505   0.295  10.241
50636SOL    HW251935  10.653   0.291  10.310
50637SOL     OW51936  10.886   1.662   9.617
50637SOL    HW151937  10.975   1.708   9.620
50637SOL    HW251938  10.865   1.638   9.522
50638SOL     OW51939  10.117   0.605  10.775
50638SOL    HW151940  10.070   0.602  10.864
50638SOL    HW251941  10.066   0.550  10.709
50639SOL     OW51942  10.704   0.469  10.984
50639SOL    HW151943  10.684   0.512  11.072
50639SOL    HW251944  10.782   0.407  10.993
50640SOL     OW51945  10.283   0.890  10.882
50640SOL    HW151946  10.329   0.806  10.853
50640SOL    HW251947  10.227   0.924  10.807
50641SOL     OW51948  10.301   0.410  10.552
50641SOL    HW151949  10.224   0.444  10.606
50641SOL    HW251950  10.267   0.359  10.473
50642SOL     OW51951  10.351   0.701   9.739
50642SOL    HW151952  10.377   0.697   9.835
50642SOL    HW251953  10.266   0.650   9.725
50643SOL     OW51954   9.386   0.811  10.099
50643SOL    HW151955   9.485   0.799  10.108
50643SOL    HW251956   9.362   0.906  10.120
50644SOL     OW51957   9.440   1.821  10.881
50644SOL    HW151958   9.430   1.806  10.980
50644SOL    HW251959   9.354   1.857  10.845
50645SOL     OW51960  10.175   0.348   9.505
50645SOL    HW151961  10.234   0.411   9.456
50645SOL    HW251962  10.194   0.254   9.476
50646SOL     OW51963  11.029   0.585  11.141
50646SOL    HW151964  11.003   0.674  11.105
50646SOL    HW251965  11.027   0.517  11.068
50647SOL     OW51966  10.672   1.144   9.855
50647SOL    HW151967  10.755   1.115   9.807
50647SOL    HW251968  10.623   1.211   9.799
50648SOL     OW51969   9.860   0.196  10.195
50648SOL    HW151970   9.855   0.191  10.295
50648SOL    HW251971   9.862   0.292  10.166
50649SOL     OW51972  10.318   1.456   9.787
50649SOL    HW151973  10.272   1.528   9.735
50649SOL    HW251974  10.314   1.476   9.885
50650SOL     OW51975   9.661   1.801  10.163
50650SOL    HW151976   9.711   1.715  10.169
50650SOL    HW251977   9.726   1.878  10.160
50651SOL     OW51978  11.105   1.066  10.183
50651SOL    HW151979  11.043   1.051  10.107
50651SOL    HW251980  11.053   1.077  10.268
50652SOL     OW51981  10.537   1.550  10.816
50652SOL    HW151982  10.543   1.473  10.880
50652SOL    HW251983  10.485   1.524  10.736
50653SOL     OW51984   9.631   0.943   9.552
50653SOL    HW151985   9.713   0.982   9.510
50653SOL    HW251986   9.604   0.861   9.503
50654SOL     OW51987  10.768   0.735  10.038
50654SOL    HW151988  10.763   0.670  10.113
50654SOL    HW251989  10.848   0.794  10.051
50655SOL     OW51990   9.771   1.266  11.037
50655SOL    HW151991   9.721   1.267  10.951
50655SOL    HW251992   9.708   1.248  11.113
50656SOL     OW51993  10.421   1.776   9.547
50656SOL    HW151994  10.361   1.714   9.597
50656SOL    HW251995  10.452   1.732   9.462
50657SOL     OW51996   9.512   0.285  10.808
50657SOL    HW151997   9.432   0.345  10.795
50657SOL    HW251998   9.502   0.236  10.894
50658SOL     OW51999  10.942   1.377   9.391
50658SOL    HW152000  10.910   1.471   9.381
50658SOL    HW252001  10.866   1.314   9.379
50659SOL     OW52002   9.774   1.743   9.633
50659SOL    HW152003   9.807   1.782   9.719
50659SOL    HW252004   9.850   1.736   9.568
50660SOL     OW52005  10.710   0.107   9.736
50660SOL    HW152006  10.686   0.070   9.646
50660SOL    HW252007  10.809   0.123   9.740
50661SOL     OW52008   9.559   1.785  10.551
50661SOL    HW152009   9.616   1.720  10.601
50661SOL    HW252010   9.543   1.752  10.458
50662SOL     OW52011  10.250   1.698  10.214
50662SOL    HW152012  10.330   1.641  10.235
50662SOL    HW252013  10.201   1.658  10.137
50663SOL     OW52014   9.692   0.700   9.790
50663SOL    HW152015   9.737   0.610   9.787
50663SOL    HW252016   9.598   0.689   9.823
50664SOL     OW52017  10.857   0.222  11.039
50664SOL    HW152018  10.852   0.259  11.131
50664SOL    HW252019  10.785   0.153  11.027
50665SOL     OW52020   9.924   0.122   9.427
50665SOL    HW152021  10.022   0.100   9.434
50665SOL    HW252022   9.893   0.105   9.334
50666SOL     OW52023  10.091   0.264  11.059
50666SOL    HW152024  10.158   0.203  11.102
50666SOL    HW252025  10.018   0.283  11.124
50667SOL     OW52026  10.198   1.514  10.505
50667SOL    HW152027  10.175   1.489  10.411
50667SOL    HW252028  10.259   1.445  10.544
50668SOL     OW52029  10.661   0.590  10.743
50668SOL    HW152030  10.689   0.547  10.828
50668SOL    HW252031  10.686   0.686  10.744
50669SOL     OW52032  10.113   1.402  10.234
50669SOL    HW152033  10.203   1.416  10.192
50669SOL    HW252034  10.042   1.404  10.163
50670SOL     OW52035  10.232   0.503  10.209
50670SOL    HW152036  10.207   0.494  10.113
50670SOL    HW252037  10.280   0.421  10.240
50671SOL     OW52038   9.849   0.064   9.822
50671SOL    HW152039   9.768   0.065   9.880
50671SOL    HW252040   9.852   0.147   9.767
50672SOL     OW52041  10.744   1.188   9.351
50672SOL    HW152042  10.776   1.112   9.408
50672SOL    HW252043  10.652   1.215   9.381
50673SOL     OW52044   9.607   0.035   9.481
50673SOL    HW152045   9.656   0.119   9.460
50673SOL    HW252046   9.669  -0.030   9.526
50674SOL     OW52047  10.245   0.236   9.790
50674SOL    HW152048  10.197   0.277   9.712
50674SOL    HW252049  10.344   0.234   9.771
50675SOL     OW52050  10.386   0.683  10.774
50675SOL    HW152051  10.306   0.622  10.777
50675SOL    HW252052  10.467   0.630  10.750
50676SOL     OW52053  10.537   1.570  10.103
50676SOL    HW152054  10.558   1.644  10.038
50676SOL    HW252055  10.605   1.570  10.176
50677SOL     OW52056   9.769   1.152  10.051
50677SOL    HW152057   9.698   1.125  10.116
50677SOL    HW252058   9.743   1.124   9.958
50678SOL     OW52059  10.581   1.797   9.901
50678SOL    HW152060  10.625   1.861   9.837
50678SOL    HW252061  10.531   1.849   9.971
50679SOL     OW52062  10.342   0.549   9.326
50679SOL    HW152063  10.301   0.631   9.287
50679SOL    HW252064  10.406   0.575   9.399
50680SOL     OW52065   9.388   0.556  10.696
50680SOL    HW152066   9.480   0.555  10.655
50680SOL    HW252067   9.382   0.630  10.763
50681SOL     OW52068   9.871   0.222  10.457
50681SOL    HW152069   9.909   0.138  10.494
50681SOL    HW252070   9.783   0.241  10.501
50682SOL     OW52071  10.176   0.454   9.952
50682SOL    HW152072  10.144   0.526   9.890
50682SOL    HW252073  10.200   0.373   9.899
50683SOL     OW52074  10.327   0.039  10.063
50683SOL    HW152075  10.255   0.044   9.994
50683SOL    HW252076  10.303  -0.030  10.132
50684SOL     OW52077  10.739   1.173  10.177
50684SOL    HW152078  10.684   1.089  10.170
50684SOL    HW252079  10.765   1.202  10.085
50685SOL     OW52080  10.776   0.590  10.302
50685SOL    HW152081  10.746   0.495  10.309
50685SOL    HW252082  10.849   0.606  10.368
50686SOL     OW52083  11.167   0.833   9.687
50686SOL    HW152084  11.209   0.769   9.751
50686SOL    HW252085  11.129   0.782   9.609
50687SOL     OW52086   9.798   1.385   9.484
50687SOL    HW152087   9.711   1.370   9.531
50687SOL    HW252088   9.781   1.411   9.389
50688SOL     OW52089  10.974   1.280   9.967
50688SOL    HW152090  11.073   1.288   9.981
50688SOL    HW252091  10.929   1.364   9.998
50689SOL     OW52092  10.700   0.575   9.388
50689SOL    HW152093  10.646   0.554   9.469
50689SOL    HW252094  10.791   0.534   9.397
50690SOL     OW52095   9.837   0.256   9.638
50690SOL    HW152096   9.864   0.197   9.563
50690SOL    HW252097   9.837   0.351   9.607
50691SOL     OW52098  11.064   1.223  10.898
50691SOL    HW152099  11.155   1.184  10.885
50691SOL    HW252100  11.072   1.319  10.922
50692SOL     OW52101  10.374   1.347  10.650
50692SOL    HW152102  10.294   1.324  10.705
50692SOL    HW252103  10.457   1.321  10.699
50693SOL     OW52104  10.902   1.629  10.935
50693SOL    HW152105  10.929   1.663  10.845
50693SOL    HW252106  10.981   1.591  10.981
50694SOL     OW52107  10.421   1.195  10.410
50694SOL    HW152108  10.381   1.239  10.491
50694SOL    HW252109  10.380   1.232  10.327
50695SOL     OW52110  10.948   1.099  10.389
50695SOL    HW152111  10.953   1.180  10.448
50695SOL    HW252112  10.862   1.101  10.338
50696SOL     OW52113  10.225   0.089  10.712
50696SOL    HW152114  10.250   0.069  10.617
50696SOL    HW252115  10.297   0.145  10.754
50697SOL     OW52116  10.290   1.116  11.029
50697SOL    HW152117  10.191   1.122  11.039
50697SOL    HW252118  10.313   1.036  10.973
50698SOL     OW52119  10.015   1.050   9.678
50698SOL    HW152120  10.001   1.057   9.777
50698SOL    HW252121  10.099   0.999   9.660
50699SOL     OW52122   9.720   0.813  10.561
50699SOL    HW152123   9.806   0.825  10.611
50699SOL    HW252124   9.678   0.726  10.588
50700SOL     OW52125  10.584   0.386  10.572
50700SOL    HW152126  10.605   0.460  10.636
50700SOL    HW252127  10.495   0.403  10.529
50701SOL     OW52128   9.374   1.564  10.641
50701SOL    HW152129   9.328   1.646  10.607
50701SOL    HW252130   9.472   1.583  10.650
50702SOL     OW52131   9.677   1.100   9.811
50702SOL    HW152132   9.670   1.183   9.755
50702SOL    HW252133   9.681   1.020   9.751
50703SOL     OW52134   9.876   0.537  10.175
50703SOL    HW152135   9.888   0.603  10.101
50703SOL    HW252136   9.922   0.571  10.258
50704SOL     OW52137  10.562   1.348   9.698
50704SOL    HW152138  10.612   1.425   9.738
50704SOL    HW252139  10.467   1.350   9.730
50705SOL     OW52140  10.582   1.445  10.452
50705SOL    HW152141  10.629   1.458  10.539
50705SOL    HW252142  10.516   1.371  10.461
50706SOL     OW52143  10.892   0.639   9.782
50706SOL    HW152144  10.861   0.700   9.855
50706SOL    HW252145  10.942   0.691   9.713
50707SOL     OW52146   9.664   1.510  10.639
50707SOL    HW152147   9.643   1.466  10.552
50707SOL    HW252148   9.761   1.536  10.642
50708SOL     OW52149   9.712   0.751  10.908
50708SOL    HW152150   9.780   0.806  10.861
50708SOL    HW252151   9.752   0.663  10.935
50709SOL     OW52152  10.897   0.779  10.980
50709SOL    HW152153  10.805   0.817  10.975
50709SOL    HW252154  10.957   0.826  10.915
50710SOL     OW52155  10.323   0.105  11.080
50710SOL    HW152156  10.329   0.190  11.028
50710SOL    HW252157  10.355   0.029  11.023
50711SOL     OW52158   9.814   0.050  11.050
50711SOL    HW152159   9.772  -0.007  10.980
50711SOL    HW252160   9.748   0.119  11.082
50712SOL     OW52161   9.883   0.870  10.339
50712SOL    HW152162   9.927   0.959  10.330
50712SOL    HW252163   9.820   0.870  10.416
50713SOL     OW52164  10.670   0.862  10.355
50713SOL    HW152165  10.595   0.862  10.289
50713SOL    HW252166  10.707   0.770  10.364
50714SOL     OW52167  10.519   0.525   9.585
50714SOL    HW152168  10.532   0.441   9.639
50714SOL    HW252169  10.490   0.599   9.645
50715SOL     OW52170   9.617   0.213  10.541
50715SOL    HW152171   9.594   0.250  10.631
50715SOL    HW252172   9.587   0.118  10.535
50716SOL     OW52173   9.347   1.310  10.592
50716SOL    HW152174   9.400   1.261  10.660
50716SOL    HW252175   9.369   1.408  10.597
50717SOL     OW52176  10.042   0.634  10.374
50717SOL    HW152177  10.101   0.608  10.298
50717SOL    HW252178  10.014   0.730  10.363
50718SOL     OW52179  11.038   0.935  11.164
50718SOL    HW152180  10.992   0.928  11.075
50718SOL    HW252181  10.976   0.979  11.230
50719SOL     OW52182   9.617   0.063   9.928
50719SOL    HW152183   9.606   0.157   9.961
50719SOL    HW252184   9.612   0.000  10.005
50720SOL     OW52185  10.932   0.367   9.684
50720SOL    HW152186  10.934   0.291   9.748
50720SOL    HW252187  10.884   0.444   9.724
50721SOL     OW52188  10.333   0.766  10.276
50721SOL    HW152189  10.348   0.787  10.372
50721SOL    HW252190  10.303   0.671  10.267
50722SOL     OW52191  10.290   1.573  11.010
50722SOL    HW152192  10.270   1.617  10.922
50722SOL    HW252193  10.329   1.482  10.994
50723SOL     OW52194  11.169   1.518  10.915
50723SOL    HW152195  11.183   1.545  10.820
50723SOL    HW252196  11.252   1.540  10.968
50724SOL     OW52197   9.660   0.898  11.114
50724SOL    HW152198   9.736   0.942  11.162
50724SOL    HW252199   9.695   0.851  11.032
50725SOL     OW52200  10.850   0.274   9.435
50725SOL    HW152201  10.789   0.199   9.458
50725SOL    HW252202  10.872   0.326   9.518
50726SOL     OW52203  10.613   0.838   9.352
50726SOL    HW152204  10.647   0.745   9.367
50726SOL    HW252205  10.631   0.865   9.257
50727SOL     OW52206  10.378   1.333  10.159
50727SOL    HW152207  10.385   1.249  10.104
50727SOL    HW252208  10.440   1.402  10.123
50728SOL     OW52209   9.629   0.810  10.259
50728SOL    HW152210   9.722   0.846  10.264
50728SOL    HW252211   9.623   0.725  10.311
50729SOL     OW52212   9.649   0.509  10.316
50729SOL    HW152213   9.597   0.426  10.299
50729SOL    HW252214   9.726   0.514  10.252
50730SOL     OW52215  10.448   0.380  10.988
50730SOL    HW152216  10.403   0.443  11.052
50730SOL    HW252217  10.541   0.411  10.971
50731SOL     OW52218  10.470   0.207  10.787
50731SOL    HW152219  10.470   0.271  10.864
50731SOL    HW252220  10.498   0.255  10.704
50732SOL     OW52221   9.318   1.326   9.510
50732SOL    HW152222   9.225   1.347   9.479
50732SOL    HW252223   9.328   1.227   9.523
50733SOL     OW52224   9.398   1.801  10.237
50733SOL    HW152225   9.356   1.715  10.210
50733SOL    HW252226   9.492   1.804  10.203
50734SOL     OW52227   9.814   1.568  10.220
50734SOL    HW152228   9.880   1.642  10.229
50734SOL    HW252229   9.858   1.489  10.178
50735SOL     OW52230  10.312   0.796  10.548
50735SOL    HW152231  10.353   0.764  10.634
50735SOL    HW252232  10.216   0.769  10.545
50736SOL     OW52233   9.350   0.544  10.424
50736SOL    HW152234   9.435   0.511  10.383
50736SOL    HW252235   9.363   0.559  10.522
50737SOL     OW52236   9.499   0.520  11.032
50737SOL    HW152237   9.558   0.480  10.962
50737SOL    HW252238   9.441   0.591  10.991
50738SOL     OW52239  10.679   0.950  10.970
50738SOL    HW152240  10.718   1.039  10.990
50738SOL    HW252241  10.689   0.930  10.873
50739SOL     OW52242  10.125   0.572   9.635
50739SOL    HW152243  10.132   0.483   9.589
50739SOL    HW252244  10.031   0.606   9.627
50740SOL     OW52245  10.967   0.604  10.516
50740SOL    HW152246  10.929   0.535  10.578
50740SOL    HW252247  11.049   0.568  10.472
50741SOL     OW52248   9.562   1.564  11.054
50741SOL    HW152249   9.532   1.621  11.130
50741SOL    HW252250   9.555   1.467  11.080
50742SOL     OW52251   9.981   0.464  10.579
50742SOL    HW152252   9.947   0.375  10.549
50742SOL    HW252253  10.007   0.518  10.499
50743SOL     OW52254  10.240   1.678  10.775
50743SOL    HW152255  10.216   1.660  10.680
50743SOL    HW252256  10.270   1.772  10.785
50744SOL     OW52257   9.783   0.500   9.501
50744SOL    HW152258   9.844   0.580   9.505
50744SOL    HW252259   9.688   0.531   9.508
50745SOL     OW52260   9.469   1.137  10.776
50745SOL    HW152261   9.491   1.076  10.852
50745SOL    HW252262   9.479   1.088  10.690
50746SOL     OW52263  10.657   1.059  10.544
50746SOL    HW152264  10.681   0.996  10.470
50746SOL    HW252265  10.567   1.099  10.526
50747SOL     OW52266  10.612   0.855   9.619
50747SOL    HW152267  10.526   0.824   9.661
50747SOL    HW252268  10.608   0.841   9.520
50748SOL     OW52269  11.069   1.747  10.464
50748SOL    HW152270  11.130   1.777  10.391
50748SOL    HW252271  11.031   1.658  10.442
50749SOL     OW52272  10.562   1.731  10.438
50749SOL    HW152273  10.646   1.736  10.384
50749SOL    HW252274  10.539   1.635  10.456
50750SOL     OW52275   9.393   1.258  10.332
50750SOL    HW152276   9.388   1.257  10.432
50750SOL    HW252277   9.310   1.217  10.294
50751SOL     OW52278   9.998   1.662  11.026
50751SOL    HW152279   9.942   1.743  11.035
50751SOL    HW252280  10.050   1.666  10.940
50752SOL     OW52281  11.036   0.135   9.833
50752SOL    HW152282  11.109   0.118   9.766
50752SOL    HW252283  11.005   0.048   9.871
50753SOL     OW52284  10.698   1.573   9.787
50753SOL    HW152285  10.765   1.585   9.713
50753SOL    HW252286  10.658   1.662   9.810
50754SOL     OW52287   9.440   1.794  11.161
50754SOL    HW152288   9.399   1.720  11.214
50754SOL    HW252289   9.504   1.845  11.219
50755SOL     OW52290  10.590   0.927   9.982
50755SOL    HW152291  10.650   0.846   9.984
50755SOL    HW252292  10.630   0.996   9.922
50756SOL     OW52293  10.140   1.273  10.732
50756SOL    HW152294  10.135   1.306  10.827
50756SOL    HW252295  10.054   1.292  10.686
50757SOL     OW52296   9.982   1.616   9.464
50757SOL    HW152297   9.991   1.626   9.365
50757SOL    HW252298   9.942   1.527   9.485
50758SOL     OW52299  10.960   1.720  10.704
50758SOL    HW152300  11.013   1.730  10.620
50758SOL    HW252301  10.933   1.810  10.738
50759SOL     OW52302  11.151   0.175  10.273
50759SOL    HW152303  11.190   0.090  10.237
50759SOL    HW252304  11.053   0.177  10.254
50760SOL     OW52305   9.573   0.326  10.030
50760SOL    HW152306   9.494   0.377   9.996
50760SOL    HW252307   9.564   0.311  10.128
50761SOL     OW52308  10.504   1.612   9.341
50761SOL    HW152309  10.510   1.519   9.378
50761SOL    HW252310  10.445   1.612   9.261
50762SOL     OW52311  10.132   1.002  10.682
50762SOL    HW152312  10.172   1.001  10.590
50762SOL    HW252313  10.142   1.094  10.722
50763SOL     OW52314  10.226   0.910   9.601
50763SOL    HW152315  10.289   0.948   9.533
50763SOL    HW252316  10.266   0.827   9.640
50764SOL     OW52317  10.814   1.607   9.354
50764SOL    HW152318  10.722   1.644   9.361
50764SOL    HW252319  10.852   1.627   9.264
50765SOL     OW52320   9.682   1.288  10.800
50765SOL    HW152321   9.669   1.381  10.766
50765SOL    HW252322   9.598   1.236  10.787
50766SOL     OW52323  10.924   1.292  10.599
50766SOL    HW152324  10.984   1.295  10.679
50766SOL    HW252325  10.849   1.356  10.612
50767SOL     OW52326  10.349   1.098  10.006
50767SOL    HW152327  10.279   1.051  10.060
50767SOL    HW252328  10.408   1.030   9.963
50768SOL     OW52329  10.324   0.236  10.281
50768SOL    HW152330  10.316   0.200  10.188
50768SOL    HW252331  10.322   0.160  10.346
50769SOL     OW52332   9.900   1.487   9.801
50769SOL    HW152333   9.942   1.429   9.731
50769SOL    HW252334   9.856   1.566   9.757
50770SOL     OW52335  11.019   0.385  10.691
50770SOL    HW152336  11.092   0.454  10.695
50770SOL    HW252337  11.047   0.310  10.632
50771SOL     OW52338   9.565   1.348   9.600
50771SOL    HW152339   9.469   1.349   9.573
50771SOL    HW252340   9.577   1.401   9.684
50772SOL     OW52341   9.415   1.013  11.036
50772SOL    HW152342   9.338   0.980  11.090
50772SOL    HW252343   9.500   0.983  11.078
50773SOL     OW52344   9.982   0.203  10.799
50773SOL    HW152345  10.072   0.187  10.759
50773SOL    HW252346   9.990   0.208  10.898
50774SOL     OW52347   9.385   0.345   9.343
50774SOL    HW152348   9.293   0.317   9.314
50774SOL    HW252349   9.416   0.422   9.287
50775SOL     OW52350  10.750   0.856  10.708
50775SOL    HW152351  10.693   0.908  10.645
50775SOL    HW252352  10.846   0.868  10.684
50776SOL     OW52353   9.382   0.166   9.628
50776SOL    HW152354   9.365   0.249   9.574
50776SOL    HW252355   9.472   0.129   9.606
50777SOL     OW52356  10.493   1.335   9.429
50777SOL    HW152357  10.394   1.324   9.431
50777SOL    HW252358  10.527   1.350   9.522
50778SOL     OW52359   9.923   0.842  10.741
50778SOL    HW152360   9.979   0.923  10.724
50778SOL    HW252361   9.982   0.762  10.744
50779SOL     OW52362  10.803   1.767  10.269
50779SOL    HW152363  10.836   1.831  10.200
50779SOL    HW252364  10.869   1.761  10.344
50780SOL     OW52365  10.026   0.565  11.018
50780SOL    HW152366  10.045   0.630  11.092
50780SOL    HW252367  10.086   0.485  11.027
50781SOL     OW52368  10.760   1.220  10.943
50781SOL    HW152369  10.751   1.210  11.042
50781SOL    HW252370  10.856   1.213  10.917
50782SOL     OW52371   9.700   1.741  10.870
50782SOL    HW152372   9.609   1.782  10.868
50782SOL    HW252373   9.693   1.647  10.902
50783SOL     OW52374  10.984   0.883  10.564
50783SOL    HW152375  10.957   0.794  10.527
50783SOL    HW252376  10.985   0.951  10.491
50784SOL     OW52377  10.535   0.325   9.759
50784SOL    HW152378  10.600   0.251   9.748
50784SOL    HW252379  10.555   0.375   9.843
50785SOL     OW52380   9.904   0.745   9.962
50785SOL    HW152381   9.954   0.830   9.943
50785SOL    HW252382   9.816   0.747   9.914
50786SOL     OW52383  11.087   0.342  10.952
50786SOL    HW152384  11.070   0.373  10.858
50786SOL    HW252385  11.003   0.305  10.990
50787SOL     OW52386  11.040   0.934  10.827
50787SOL    HW152387  11.078   1.025  10.842
50787SOL    HW252388  11.032   0.917  10.728
50788SOL     OW52389  10.169   1.374   9.326
50788SOL    HW152390  10.123   1.389   9.414
50788SOL    HW252391  10.213   1.459   9.296
50789SOL     OW52392   9.971   1.790  10.263
50789SOL    HW152393   9.925   1.878  10.250
50789SOL    HW252394  10.070   1.802  10.256
50790SOL     OW52395  10.169   0.956  10.171
50790SOL    HW152396  10.223   0.887  10.219
50790SOL    HW252397  10.137   1.025  10.237
50791SOL     OW52398  10.393   0.984   9.397
50791SOL    HW152399  10.370   1.037   9.315
50791SOL    HW252400  10.474   0.928   9.378
50792SOL     OW52401  11.171   1.569  10.161
50792SOL    HW152402  11.100   1.557  10.091
50792SOL    HW252403  11.172   1.490  10.221
50793SOL     OW52404   9.531   1.314  11.154
50793SOL    HW152405   9.466   1.241  11.133
50793SOL    HW252406   9.535   1.328  11.252
50794SOL     OW52407   9.389   1.240   9.963
50794SOL    HW152408   9.388   1.193  10.051
50794SOL    HW252409   9.471   1.212   9.912
50795SOL     OW52410   9.982   1.391  10.934
50795SOL    HW152411   9.904   1.341  10.972
50795SOL    HW252412   9.979   1.486  10.965
50796SOL     OW52413  11.134   0.192  10.537
50796SOL    HW152414  11.130   0.102  10.581
50796SOL    HW252415  11.137   0.181  10.438
50797SOL     OW52416   9.738   0.424   9.830
50797SOL    HW152417   9.768   0.352   9.768
50797SOL    HW252418   9.699   0.384   9.913
50798SOL     OW52419  11.015   1.487  10.414
50798SOL    HW152420  10.922   1.462  10.387
50798SOL    HW252421  11.041   1.437  10.496
50799SOL     OW52422   9.627   0.547  10.590
50799SOL    HW152423   9.665   0.488  10.662
50799SOL    HW252424   9.667   0.521  10.502
50800SOL     OW52425  10.122   1.586   9.997
50800SOL    HW152426  10.154   1.596   9.903
50800SOL    HW252427  10.043   1.524   9.999
50801SOL     OW52428  10.734   0.214  10.422
50801SOL    HW152429  10.786   0.149  10.477
50801SOL    HW252430  10.685   0.277  10.483
50802SOL     OW52431  10.311   0.034  10.464
50802SOL    HW152432  10.248  -0.038  10.433
50802SOL    HW252433  10.404  -0.002  10.464
50803SOL     OW52434  10.080   1.330   9.611
50803SOL    HW152435  10.034   1.243   9.628
50803SOL    HW252436  10.171   1.327   9.652
50804SOL     OW52437   9.928   1.567  10.594
50804SOL    HW152438   9.923   1.649  10.651
50804SOL    HW252439  10.017   1.564  10.549
50805SOL     OW52440  10.662   0.052   9.478
50805SOL    HW152441  10.697   0.011   9.394
50805SOL    HW252442  10.572   0.014   9.498
50806SOL     OW52443  10.610   0.453  10.001
50806SOL    HW152444  10.551   0.533  10.005
50806SOL    HW252445  10.625   0.418  10.094
50807SOL     OW52446  10.903   0.221  10.192
50807SOL    HW152447  10.819   0.220  10.246
50807SOL    HW252448  10.905   0.304  10.136
50808SOL     OW52449   9.349   1.077   9.610
50808SOL    HW152450   9.448   1.066   9.601
50808SOL    HW252451   9.309   0.991   9.642
50809SOL     OW52452  10.185   1.646   9.647
50809SOL    HW152453  10.108   1.611   9.593
50809SOL    HW252454  10.153   1.717   9.709
50810SOL     OW52455   9.540   0.628  11.285
50810SOL    HW152456   9.447   0.626  11.322
50810SOL    HW252457   9.541   0.589  11.193
50811SOL     OW52458   9.535   0.275  12.168
50811SOL    HW152459   9.570   0.258  12.260
50811SOL    HW252460   9.447   0.230  12.156
50812SOL     OW52461   9.329   0.368  11.819
50812SOL    HW152462   9.247   0.411  11.858
50812SOL    HW252463   9.301   0.295  11.756
50813SOL     OW52464   9.879   1.275  12.337
50813SOL    HW152465   9.786   1.268  12.300
50813SOL    HW252466   9.890   1.364  12.381
50814SOL     OW52467  10.865   1.511  11.875
50814SOL    HW152468  10.808   1.495  11.956
50814SOL    HW252469  10.806   1.521  11.795
50815SOL     OW52470  10.445   0.703  11.889
50815SOL    HW152471  10.502   0.781  11.864
50815SOL    HW252472  10.385   0.729  11.965
50816SOL     OW52473  11.065   0.607  11.403
50816SOL    HW152474  11.053   0.594  11.304
50816SOL    HW252475  11.035   0.526  11.452
50817SOL     OW52476  10.078   1.144  12.195
50817SOL    HW152477  10.000   1.161  12.255
50817SOL    HW252478  10.112   1.231  12.159
50818SOL     OW52479   9.995   1.012  11.837
50818SOL    HW152480  10.064   0.996  11.907
50818SOL    HW252481   9.922   1.069  11.875
50819SOL     OW52482   9.645   1.435  12.233
50819SOL    HW152483   9.567   1.404  12.180
50819SOL    HW252484   9.703   1.493  12.176
50820SOL     OW52485  10.770   1.505  12.511
50820SOL    HW152486  10.794   1.599  12.537
50820SOL    HW252487  10.754   1.451  12.593
50821SOL     OW52488   9.748   0.392  12.671
50821SOL    HW152489   9.830   0.336  12.680
50821SOL    HW252490   9.667   0.334  12.675
50822SOL     OW52491  10.913   0.447  11.909
50822SOL    HW152492  10.839   0.493  11.859
50822SOL    HW252493  10.964   0.515  11.962
50823SOL     OW52494   9.541   1.713  11.655
50823SOL    HW152495   9.575   1.790  11.709
50823SOL    HW252496   9.585   1.713  11.565
50824SOL     OW52497   9.540   1.434  11.710
50824SOL    HW152498   9.514   1.530  11.710
50824SOL    HW252499   9.469   1.380  11.755
50825SOL     OW52500   9.550   1.091  12.058
50825SOL    HW152501   9.564   1.007  12.110
50825SOL    HW252502   9.495   1.155  12.113
50826SOL     OW52503   9.930   1.786  12.611
50826SOL    HW152504   9.838   1.769  12.646
50826SOL    HW252505   9.958   1.878  12.637
50827SOL     OW52506   9.916   0.964  11.295
50827SOL    HW152507   9.923   1.048  11.241
50827SOL    HW252508   9.962   0.977  11.383
50828SOL     OW52509  10.904   0.114  12.652
50828SOL    HW152510  10.886   0.181  12.580
50828SOL    HW252511  10.901   0.160  12.741
50829SOL     OW52512   9.432   0.643  11.735
50829SOL    HW152513   9.387   0.555  11.752
50829SOL    HW252514   9.431   0.697  11.819
50830SOL     OW52515  11.152   1.767  11.531
50830SOL    HW152516  11.206   1.738  11.611
50830SOL    HW252517  11.182   1.857  11.502
50831SOL     OW52518   9.337   1.596  11.289
50831SOL    HW152519   9.318   1.500  11.310
50831SOL    HW252520   9.304   1.654  11.364
50832SOL     OW52521  10.999   0.922  11.784
50832SOL    HW152522  11.094   0.893  11.792
50832SOL    HW252523  10.991   0.987  11.709
50833SOL     OW52524  10.951   1.108  11.604
50833SOL    HW152525  11.037   1.110  11.552
50833SOL    HW252526  10.965   1.155  11.692
50834SOL     OW52527   9.923   1.365  11.898
50834SOL    HW152528   9.874   1.278  11.907
50834SOL    HW252529   9.900   1.408  11.811
50835SOL     OW52530  10.119   0.004  11.674
50835SOL    HW152531  10.159   0.095  11.665
50835SOL    HW252532  10.019   0.012  11.680
50836SOL     OW52533   9.507   0.976  12.436
50836SOL    HW152534   9.596   0.931  12.422
50836SOL    HW252535   9.434   0.911  12.417
50837SOL     OW52536  10.835   0.999  11.362
50837SOL    HW152537  10.772   0.923  11.375
50837SOL    HW252538  10.883   1.017  11.448
50838SOL     OW52539   9.627   0.251  12.973
50838SOL    HW152540   9.698   0.322  12.979
50838SOL    HW252541   9.539   0.290  13.001
50839SOL     OW52542  10.776   1.417  12.125
50839SOL    HW152543  10.717   1.423  12.205
50839SOL    HW252544  10.761   1.329  12.079
50840SOL     OW52545  10.977   1.714  11.744
50840SOL    HW152546  10.936   1.691  11.656
50840SOL    HW252547  10.959   1.640  11.809
50841SOL     OW52548   9.908   0.729  11.442
50841SOL    HW152549   9.932   0.798  11.374
50841SOL    HW252550   9.830   0.762  11.496
50842SOL     OW52551  10.591   0.345  12.116
50842SOL    HW152552  10.505   0.295  12.103
50842SOL    HW252553  10.653   0.291  12.172
50843SOL     OW52554  10.886   1.662  11.479
50843SOL    HW152555  10.975   1.708  11.482
50843SOL    HW252556  10.865   1.638  11.384
50844SOL     OW52557  10.117   0.605  12.637
50844SOL    HW152558  10.070   0.602  12.726
50844SOL    HW252559  10.066   0.550  12.571
50845SOL     OW52560  10.301   0.410  12.414
50845SOL    HW152561  10.224   0.444  12.468
50845SOL    HW252562  10.267   0.359  12.335
50846SOL     OW52563  10.351   0.701  11.601
50846SOL    HW152564  10.377   0.697  11.697
50846SOL    HW252565  10.266   0.650  11.587
50847SOL     OW52566   9.386   0.811  11.961
50847SOL    HW152567   9.485   0.799  11.970
50847SOL    HW252568   9.362   0.906  11.982
50848SOL     OW52569   9.440   1.821  12.743
50848SOL    HW152570   9.430   1.806  12.842
50848SOL    HW252571   9.354   1.857  12.707
50849SOL     OW52572  10.175   0.348  11.367
50849SOL    HW152573  10.234   0.411  11.318
50849SOL    HW252574  10.194   0.254  11.338
50850SOL     OW52575  10.672   1.144  11.717
50850SOL    HW152576  10.755   1.115  11.669
50850SOL    HW252577  10.623   1.211  11.661
50851SOL     OW52578   9.860   0.196  12.057
50851SOL    HW152579   9.855   0.191  12.157
50851SOL    HW252580   9.862   0.292  12.028
50852SOL     OW52581  10.318   1.456  11.649
50852SOL    HW152582  10.272   1.528  11.597
50852SOL    HW252583  10.314   1.476  11.747
50853SOL     OW52584   9.661   1.801  12.025
50853SOL    HW152585   9.711   1.715  12.031
50853SOL    HW252586   9.726   1.878  12.022
50854SOL     OW52587  11.105   1.066  12.045
50854SOL    HW152588  11.043   1.051  11.969
50854SOL    HW252589  11.053   1.077  12.130
50855SOL     OW52590   9.631   0.943  11.414
50855SOL    HW152591   9.713   0.982  11.372
50855SOL    HW252592   9.604   0.861  11.365
50856SOL     OW52593  10.768   0.735  11.900
50856SOL    HW152594  10.763   0.670  11.975
50856SOL    HW252595  10.848   0.794  11.913
50857SOL     OW52596  10.421   1.776  11.409
50857SOL    HW152597  10.361   1.714  11.459
50857SOL    HW252598  10.452   1.732  11.324
50858SOL     OW52599   9.512   0.285  12.670
50858SOL    HW152600   9.432   0.345  12.657
50858SOL    HW252601   9.502   0.236  12.756
50859SOL     OW52602  10.942   1.377  11.253
50859SOL    HW152603  10.910   1.471  11.243
50859SOL    HW252604  10.866   1.314  11.241
50860SOL     OW52605   9.774   1.743  11.495
50860SOL    HW152606   9.807   1.782  11.581
50860SOL    HW252607   9.850   1.736  11.430
50861SOL     OW52608  10.710   0.107  11.598
50861SOL    HW152609  10.686   0.070  11.508
50861SOL    HW252610  10.809   0.123  11.602
50862SOL     OW52611   9.559   1.785  12.413
50862SOL    HW152612   9.616   1.720  12.463
50862SOL    HW252613   9.543   1.752  12.320
50863SOL     OW52614  10.250   1.698  12.076
50863SOL    HW152615  10.330   1.641  12.097
50863SOL    HW252616  10.201   1.658  11.999
50864SOL     OW52617   9.692   0.700  11.652
50864SOL    HW152618   9.737   0.610  11.649
50864SOL    HW252619   9.598   0.689  11.685
50865SOL     OW52620   9.924   0.122  11.289
50865SOL    HW152621  10.022   0.100  11.296
50865SOL    HW252622   9.893   0.105  11.196
50866SOL     OW52623  10.198   1.514  12.367
50866SOL    HW152624  10.175   1.489  12.273
50866SOL    HW252625  10.259   1.445  12.406
50867SOL     OW52626  10.113   1.402  12.096
50867SOL    HW152627  10.203   1.416  12.054
50867SOL    HW252628  10.042   1.404  12.025
50868SOL     OW52629  10.232   0.503  12.071
50868SOL    HW152630  10.207   0.494  11.975
50868SOL    HW252631  10.280   0.421  12.102
50869SOL     OW52632   9.849   0.064  11.684
50869SOL    HW152633   9.768   0.065  11.742
50869SOL    HW252634   9.852   0.147  11.629
50870SOL     OW52635  10.744   1.188  11.213
50870SOL    HW152636  10.776   1.112  11.270
50870SOL    HW252637  10.652   1.215  11.243
50871SOL     OW52638   9.607   0.035  11.343
50871SOL    HW152639   9.656   0.119  11.322
50871SOL    HW252640   9.669  -0.030  11.388
50872SOL     OW52641  10.245   0.236  11.652
50872SOL    HW152642  10.197   0.277  11.574
50872SOL    HW252643  10.344   0.234  11.633
50873SOL     OW52644  10.537   1.570  11.965
50873SOL    HW152645  10.558   1.644  11.900
50873SOL    HW252646  10.605   1.570  12.038
50874SOL     OW52647   9.769   1.152  11.913
50874SOL    HW152648   9.698   1.125  11.978
50874SOL    HW252649   9.743   1.124  11.820
50875SOL     OW52650  10.581   1.797  11.763
50875SOL    HW152651  10.625   1.861  11.699
50875SOL    HW252652  10.531   1.849  11.833
50876SOL     OW52653  10.342   0.549  11.188
50876SOL    HW152654  10.301   0.631  11.149
50876SOL    HW252655  10.406   0.575  11.261
50877SOL     OW52656   9.388   0.556  12.558
50877SOL    HW152657   9.480   0.555  12.517
50877SOL    HW252658   9.382   0.630  12.625
50878SOL     OW52659   9.871   0.222  12.319
50878SOL    HW152660   9.909   0.138  12.356
50878SOL    HW252661   9.783   0.241  12.363
50879SOL     OW52662  10.176   0.454  11.814
50879SOL    HW152663  10.144   0.526  11.752
50879SOL    HW252664  10.200   0.373  11.761
50880SOL     OW52665  10.327   0.039  11.925
50880SOL    HW152666  10.255   0.044  11.856
50880SOL    HW252667  10.303  -0.030  11.994
50881SOL     OW52668  10.739   1.173  12.039
50881SOL    HW152669  10.684   1.089  12.032
50881SOL    HW252670  10.765   1.202  11.947
50882SOL     OW52671  10.776   0.590  12.164
50882SOL    HW152672  10.746   0.495  12.171
50882SOL    HW252673  10.849   0.606  12.230
50883SOL     OW52674  11.167   0.833  11.549
50883SOL    HW152675  11.209   0.769  11.613
50883SOL    HW252676  11.129   0.782  11.471
50884SOL     OW52677   9.798   1.385  11.346
50884SOL    HW152678   9.711   1.370  11.393
50884SOL    HW252679   9.781   1.411  11.251
50885SOL     OW52680  10.974   1.280  11.829
50885SOL    HW152681  11.073   1.288  11.843
50885SOL    HW252682  10.929   1.364  11.860
50886SOL     OW52683  10.700   0.575  11.250
50886SOL    HW152684  10.646   0.554  11.331
50886SOL    HW252685  10.791   0.534  11.259
50887SOL     OW52686   9.837   0.256  11.500
50887SOL    HW152687   9.864   0.197  11.425
50887SOL    HW252688   9.837   0.351  11.469
50888SOL     OW52689  10.374   1.347  12.512
50888SOL    HW152690  10.294   1.324  12.567
50888SOL    HW252691  10.457   1.321  12.561
50889SOL     OW52692  10.421   1.195  12.272
50889SOL    HW152693  10.381   1.239  12.353
50889SOL    HW252694  10.380   1.232  12.189
50890SOL     OW52695  10.948   1.099  12.251
50890SOL    HW152696  10.953   1.180  12.310
50890SOL    HW252697  10.862   1.101  12.200
50891SOL     OW52698  10.225   0.089  12.574
50891SOL    HW152699  10.250   0.069  12.479
50891SOL    HW252700  10.297   0.145  12.616
50892SOL     OW52701  10.015   1.050  11.540
50892SOL    HW152702  10.001   1.057  11.639
50892SOL    HW252703  10.099   0.999  11.522
50893SOL     OW52704   9.720   0.813  12.423
50893SOL    HW152705   9.806   0.825  12.473
50893SOL    HW252706   9.678   0.726  12.450
50894SOL     OW52707  10.584   0.386  12.434
50894SOL    HW152708  10.605   0.460  12.498
50894SOL    HW252709  10.495   0.403  12.391
50895SOL     OW52710   9.374   1.564  12.503
50895SOL    HW152711   9.328   1.646  12.469
50895SOL    HW252712   9.472   1.583  12.512
50896SOL     OW52713   9.677   1.100  11.673
50896SOL    HW152714   9.670   1.183  11.617
50896SOL    HW252715   9.681   1.020  11.613
50897SOL     OW52716   9.876   0.537  12.037
50897SOL    HW152717   9.888   0.603  11.963
50897SOL    HW252718   9.922   0.571  12.120
50898SOL     OW52719  10.562   1.348  11.560
50898SOL    HW152720  10.612   1.425  11.600
50898SOL    HW252721  10.467   1.350  11.592
50899SOL     OW52722  10.582   1.445  12.314
50899SOL    HW152723  10.629   1.458  12.401
50899SOL    HW252724  10.516   1.371  12.323
50900SOL     OW52725  10.892   0.639  11.644
50900SOL    HW152726  10.861   0.700  11.717
50900SOL    HW252727  10.942   0.691  11.575
50901SOL     OW52728   9.664   1.510  12.501
50901SOL    HW152729   9.643   1.466  12.414
50901SOL    HW252730   9.761   1.536  12.504
50902SOL     OW52731   9.712   0.751  12.770
50902SOL    HW152732   9.780   0.806  12.723
50902SOL    HW252733   9.752   0.663  12.797
50903SOL     OW52734  10.897   0.779  12.842
50903SOL    HW152735  10.805   0.817  12.837
50903SOL    HW252736  10.957   0.826  12.777
50904SOL     OW52737   9.883   0.870  12.201
50904SOL    HW152738   9.927   0.959  12.192
50904SOL    HW252739   9.820   0.870  12.278
50905SOL     OW52740  10.670   0.862  12.217
50905SOL    HW152741  10.595   0.862  12.151
50905SOL    HW252742  10.707   0.770  12.226
50906SOL     OW52743  10.519   0.525  11.447
50906SOL    HW152744  10.532   0.441  11.501
50906SOL    HW252745  10.490   0.599  11.507
50907SOL     OW52746   9.617   0.213  12.403
50907SOL    HW152747   9.594   0.250  12.493
50907SOL    HW252748   9.587   0.118  12.397
50908SOL     OW52749   9.347   1.310  12.454
50908SOL    HW152750   9.400   1.261  12.522
50908SOL    HW252751   9.369   1.408  12.459
50909SOL     OW52752  10.042   0.634  12.236
50909SOL    HW152753  10.101   0.608  12.160
50909SOL    HW252754  10.014   0.730  12.225
50910SOL     OW52755   9.617   0.063  11.790
50910SOL    HW152756   9.606   0.157  11.823
50910SOL    HW252757   9.612   0.000  11.867
50911SOL     OW52758  10.932   0.367  11.546
50911SOL    HW152759  10.934   0.291  11.610
50911SOL    HW252760  10.884   0.444  11.586
50912SOL     OW52761  10.333   0.766  12.138
50912SOL    HW152762  10.348   0.787  12.234
50912SOL    HW252763  10.303   0.671  12.129
50913SOL     OW52764  10.290   1.573  12.872
50913SOL    HW152765  10.270   1.617  12.784
50913SOL    HW252766  10.329   1.482  12.856
50914SOL     OW52767  10.850   0.274  11.297
50914SOL    HW152768  10.789   0.199  11.320
50914SOL    HW252769  10.872   0.326  11.380
50915SOL     OW52770  10.613   0.838  11.214
50915SOL    HW152771  10.647   0.745  11.229
50915SOL    HW252772  10.631   0.865  11.119
50916SOL     OW52773  10.378   1.333  12.021
50916SOL    HW152774  10.385   1.249  11.966
50916SOL    HW252775  10.440   1.402  11.985
50917SOL     OW52776   9.629   0.810  12.121
50917SOL    HW152777   9.722   0.846  12.126
50917SOL    HW252778   9.623   0.725  12.173
50918SOL     OW52779   9.649   0.509  12.178
50918SOL    HW152780   9.597   0.426  12.161
50918SOL    HW252781   9.726   0.514  12.114
50919SOL     OW52782  10.448   0.380  12.850
50919SOL    HW152783  10.403   0.443  12.914
50919SOL    HW252784  10.541   0.411  12.833
50920SOL     OW52785  10.470   0.207  12.649
50920SOL    HW152786  10.470   0.271  12.726
50920SOL    HW252787  10.498   0.255  12.566
50921SOL     OW52788   9.318   1.326  11.372
50921SOL    HW152789   9.225   1.347  11.341
50921SOL    HW252790   9.328   1.227  11.385
50922SOL     OW52791   9.398   1.801  12.099
50922SOL    HW152792   9.356   1.715  12.072
50922SOL    HW252793   9.492   1.804  12.065
50923SOL     OW52794   9.814   1.568  12.082
50923SOL    HW152795   9.880   1.642  12.091
50923SOL    HW252796   9.858   1.489  12.040
50924SOL     OW52797  10.312   0.796  12.410
50924SOL    HW152798  10.353   0.764  12.496
50924SOL    HW252799  10.216   0.769  12.407
50925SOL     OW52800   9.350   0.544  12.286
50925SOL    HW152801   9.435   0.511  12.245
50925SOL    HW252802   9.363   0.559  12.384
50926SOL     OW52803  10.125   0.572  11.497
50926SOL    HW152804  10.132   0.483  11.451
50926SOL    HW252805  10.031   0.606  11.489
50927SOL     OW52806  10.967   0.604  12.378
50927SOL    HW152807  10.929   0.535  12.440
50927SOL    HW252808  11.049   0.568  12.334
50928SOL     OW52809   9.981   0.464  12.441
50928SOL    HW152810   9.947   0.375  12.411
50928SOL    HW252811  10.007   0.518  12.361
50929SOL     OW52812  10.240   1.678  12.637
50929SOL    HW152813  10.216   1.660  12.542
50929SOL    HW252814  10.270   1.772  12.647
50930SOL     OW52815   9.783   0.500  11.363
50930SOL    HW152816   9.844   0.580  11.367
50930SOL    HW252817   9.688   0.531  11.370
50931SOL     OW52818   9.469   1.137  12.638
50931SOL    HW152819   9.491   1.076  12.714
50931SOL    HW252820   9.479   1.088  12.552
50932SOL     OW52821  10.657   1.059  12.406
50932SOL    HW152822  10.681   0.996  12.332
50932SOL    HW252823  10.567   1.099  12.388
50933SOL     OW52824  10.612   0.855  11.481
50933SOL    HW152825  10.526   0.824  11.523
50933SOL    HW252826  10.608   0.841  11.382
50934SOL     OW52827  11.069   1.747  12.326
50934SOL    HW152828  11.130   1.777  12.253
50934SOL    HW252829  11.031   1.658  12.304
50935SOL     OW52830  10.562   1.731  12.300
50935SOL    HW152831  10.646   1.736  12.246
50935SOL    HW252832  10.539   1.635  12.318
50936SOL     OW52833   9.393   1.258  12.194
50936SOL    HW152834   9.388   1.257  12.294
50936SOL    HW252835   9.310   1.217  12.156
50937SOL     OW52836  11.036   0.135  11.695
50937SOL    HW152837  11.109   0.118  11.628
50937SOL    HW252838  11.005   0.048  11.733
50938SOL     OW52839  10.698   1.573  11.649
50938SOL    HW152840  10.765   1.585  11.575
50938SOL    HW252841  10.658   1.662  11.672
50939SOL     OW52842  10.590   0.927  11.844
50939SOL    HW152843  10.650   0.846  11.846
50939SOL    HW252844  10.630   0.996  11.784
50940SOL     OW52845   9.982   1.616  11.326
50940SOL    HW152846   9.991   1.626  11.227
50940SOL    HW252847   9.942   1.527  11.347
50941SOL     OW52848  10.960   1.720  12.566
50941SOL    HW152849  11.013   1.730  12.482
50941SOL    HW252850  10.933   1.810  12.600
50942SOL     OW52851  11.151   0.175  12.135
50942SOL    HW152852  11.190   0.090  12.099
50942SOL    HW252853  11.053   0.177  12.116
50943SOL     OW52854   9.573   0.326  11.892
50943SOL    HW152855   9.494   0.377  11.858
50943SOL    HW252856   9.564   0.311  11.990
50944SOL     OW52857  10.504   1.612  11.203
50944SOL    HW152858  10.510   1.519  11.240
50944SOL    HW252859  10.445   1.612  11.123
50945SOL     OW52860  10.132   1.002  12.544
50945SOL    HW152861  10.172   1.001  12.452
50945SOL    HW252862  10.142   1.094  12.584
50946SOL     OW52863  10.226   0.910  11.463
50946SOL    HW152864  10.289   0.948  11.395
50946SOL    HW252865  10.266   0.827  11.502
50947SOL     OW52866  10.814   1.607  11.216
50947SOL    HW152867  10.722   1.644  11.223
50947SOL    HW252868  10.852   1.627  11.126
50948SOL     OW52869   9.682   1.288  12.662
50948SOL    HW152870   9.669   1.381  12.628
50948SOL    HW252871   9.598   1.236  12.649
50949SOL     OW52872  10.924   1.292  12.461
50949SOL    HW152873  10.984   1.295  12.541
50949SOL    HW252874  10.849   1.356  12.474
50950SOL     OW52875  10.349   1.098  11.868
50950SOL    HW152876  10.279   1.051  11.922
50950SOL    HW252877  10.408   1.030  11.825
50951SOL     OW52878  10.324   0.236  12.143
50951SOL    HW152879  10.316   0.200  12.050
50951SOL    HW252880  10.322   0.160  12.208
50952SOL     OW52881   9.900   1.487  11.663
50952SOL    HW152882   9.942   1.429  11.593
50952SOL    HW252883   9.856   1.566  11.619
50953SOL     OW52884  11.019   0.385  12.553
50953SOL    HW152885  11.092   0.454  12.557
50953SOL    HW252886  11.047   0.310  12.494
50954SOL     OW52887   9.565   1.348  11.462
50954SOL    HW152888   9.469   1.349  11.435
50954SOL    HW252889   9.577   1.401  11.546
50955SOL     OW52890   9.385   0.345  11.205
50955SOL    HW152891   9.293   0.317  11.176
50955SOL    HW252892   9.416   0.422  11.149
50956SOL     OW52893  10.750   0.856  12.570
50956SOL    HW152894  10.693   0.908  12.507
50956SOL    HW252895  10.846   0.868  12.546
50957SOL     OW52896   9.382   0.166  11.490
50957SOL    HW152897   9.365   0.249  11.436
50957SOL    HW252898   9.472   0.129  11.468
50958SOL     OW52899  10.493   1.335  11.291
50958SOL    HW152900  10.394   1.324  11.293
50958SOL    HW252901  10.527   1.350  11.384
50959SOL     OW52902   9.923   0.842  12.603
50959SOL    HW152903   9.979   0.923  12.586
50959SOL    HW252904   9.982   0.762  12.606
50960SOL     OW52905  10.803   1.767  12.131
50960SOL    HW152906  10.836   1.831  12.062
50960SOL    HW252907  10.869   1.761  12.206
50961SOL     OW52908   9.700   1.741  12.732
50961SOL    HW152909   9.609   1.782  12.730
50961SOL    HW252910   9.693   1.647  12.764
50962SOL     OW52911  10.984   0.883  12.426
50962SOL    HW152912  10.957   0.794  12.389
50962SOL    HW252913  10.985   0.951  12.353
50963SOL     OW52914  10.535   0.325  11.621
50963SOL    HW152915  10.600   0.251  11.610
50963SOL    HW252916  10.555   0.375  11.705
50964SOL     OW52917   9.904   0.745  11.824
50964SOL    HW152918   9.954   0.830  11.805
50964SOL    HW252919   9.816   0.747  11.776
50965SOL     OW52920  11.087   0.342  12.814
50965SOL    HW152921  11.070   0.373  12.720
50965SOL    HW252922  11.003   0.305  12.852
50966SOL     OW52923  11.040   0.934  12.689
50966SOL    HW152924  11.078   1.025  12.704
50966SOL    HW252925  11.032   0.917  12.590
50967SOL     OW52926  10.169   1.374  11.188
50967SOL    HW152927  10.123   1.389  11.276
50967SOL    HW252928  10.213   1.459  11.158
50968SOL     OW52929   9.971   1.790  12.125
50968SOL    HW152930   9.925   1.878  12.112
50968SOL    HW252931  10.070   1.802  12.118
50969SOL     OW52932  10.169   0.956  12.033
50969SOL    HW152933  10.223   0.887  12.081
50969SOL    HW252934  10.137   1.025  12.099
50970SOL     OW52935  10.393   0.984  11.259
50970SOL    HW152936  10.370   1.037  11.177
50970SOL    HW252937  10.474   0.928  11.240
50971SOL     OW52938  11.171   1.569  12.023
50971SOL    HW152939  11.100   1.557  11.953
50971SOL    HW252940  11.172   1.490  12.083
50972SOL     OW52941   9.389   1.240  11.825
50972SOL    HW152942   9.388   1.193  11.913
50972SOL    HW252943   9.471   1.212  11.774
50973SOL     OW52944  11.134   0.192  12.399
50973SOL    HW152945  11.130   0.102  12.443
50973SOL    HW252946  11.137   0.181  12.300
50974SOL     OW52947   9.738   0.424  11.692
50974SOL    HW152948   9.768   0.352  11.630
50974SOL    HW252949   9.699   0.384  11.775
50975SOL     OW52950  11.015   1.487  12.276
50975SOL    HW152951  10.922   1.462  12.249
50975SOL    HW252952  11.041   1.437  12.358
50976SOL     OW52953   9.627   0.547  12.452
50976SOL    HW152954   9.665   0.488  12.524
50976SOL    HW252955   9.667   0.521  12.364
50977SOL     OW52956  10.122   1.586  11.859
50977SOL    HW152957  10.154   1.596  11.765
50977SOL    HW252958  10.043   1.524  11.861
50978SOL     OW52959  10.734   0.214  12.284
50978SOL    HW152960  10.786   0.149  12.339
50978SOL    HW252961  10.685   0.277  12.345
50979SOL     OW52962  10.311   0.034  12.326
50979SOL    HW152963  10.248  -0.038  12.295
50979SOL    HW252964  10.404  -0.002  12.326
50980SOL     OW52965  10.080   1.330  11.473
50980SOL    HW152966  10.034   1.243  11.490
50980SOL    HW252967  10.171   1.327  11.514
50981SOL     OW52968   9.928   1.567  12.456
50981SOL    HW152969   9.923   1.649  12.513
50981SOL    HW252970  10.017   1.564  12.411
50982SOL     OW52971  10.662   0.052  11.340
50982SOL    HW152972  10.697   0.011  11.256
50982SOL    HW252973  10.572   0.014  11.360
50983SOL     OW52974  10.610   0.453  11.863
50983SOL    HW152975  10.551   0.533  11.867
50983SOL    HW252976  10.625   0.418  11.956
50984SOL     OW52977  10.903   0.221  12.054
50984SOL    HW152978  10.819   0.220  12.108
50984SOL    HW252979  10.905   0.304  11.998
50985SOL     OW52980   9.349   1.077  11.472
50985SOL    HW152981   9.448   1.066  11.463
50985SOL    HW252982   9.309   0.991  11.504
50986SOL     OW52983  10.185   1.646  11.509
50986SOL    HW152984  10.108   1.611  11.455
50986SOL    HW252985  10.153   1.717  11.571
50987SOL     OW52986   9.540   2.490   0.113
50987SOL    HW152987   9.447   2.488   0.150
50987SOL    HW252988   9.541   2.451   0.021
50988SOL     OW52989   9.535   2.137   0.996
50988SOL    HW152990   9.570   2.120   1.088
50988SOL    HW252991   9.447   2.092   0.984
50989SOL     OW52992   9.329   2.230   0.647
50989SOL    HW152993   9.247   2.273   0.686
50989SOL    HW252994   9.301   2.157   0.584
50990SOL     OW52995   9.879   3.137   1.165
50990SOL    HW152996   9.786   3.130   1.128
50990SOL    HW252997   9.890   3.226   1.209
50991SOL     OW52998  10.865   3.373   0.703
50991SOL    HW152999  10.808   3.357   0.784
50991SOL    HW253000  10.806   3.383   0.623
50992SOL     OW53001  10.445   2.565   0.717
50992SOL    HW153002  10.502   2.643   0.692
50992SOL    HW253003  10.385   2.591   0.793
50993SOL     OW53004  11.065   2.469   0.231
50993SOL    HW153005  11.053   2.456   0.132
50993SOL    HW253006  11.035   2.388   0.280
50994SOL     OW53007  10.078   3.006   1.023
50994SOL    HW153008  10.000   3.023   1.083
50994SOL    HW253009  10.112   3.093   0.987
50995SOL     OW53010  10.160   2.660   1.823
50995SOL    HW153011  10.156   2.736   1.888
50995SOL    HW253012  10.182   2.696   1.732
50996SOL     OW53013   9.995   2.874   0.665
50996SOL    HW153014  10.064   2.858   0.735
50996SOL    HW253015   9.922   2.931   0.703
50997SOL     OW53016   9.996   3.023   1.803
50997SOL    HW153017  10.056   3.102   1.817
50997SOL    HW253018   9.910   3.054   1.762
50998SOL     OW53019   9.645   3.297   1.061
50998SOL    HW153020   9.567   3.266   1.008
50998SOL    HW253021   9.703   3.355   1.004
50999SOL     OW53022  10.770   3.367   1.339
50999SOL    HW153023  10.794   3.461   1.365
50999SOL    HW253024  10.754   3.313   1.421
51000SOL     OW53025   9.748   2.254   1.499
51000SOL    HW153026   9.830   2.198   1.508
51000SOL    HW253027   9.667   2.196   1.503
51001SOL     OW53028  10.913   2.309   0.737
51001SOL    HW153029  10.839   2.355   0.687
51001SOL    HW253030  10.964   2.377   0.790
51002SOL     OW53031   9.541   3.575   0.483
51002SOL    HW153032   9.575   3.652   0.537
51002SOL    HW253033   9.585   3.575   0.393
51003SOL     OW53034  10.437   3.203   1.690
51003SOL    HW153035  10.484   3.203   1.778
51003SOL    HW253036  10.389   3.116   1.679
51004SOL     OW53037   9.540   3.296   0.538
51004SOL    HW153038   9.514   3.392   0.538
51004SOL    HW253039   9.469   3.242   0.583
51005SOL     OW53040   9.550   2.953   0.886
51005SOL    HW153041   9.564   2.869   0.938
51005SOL    HW253042   9.495   3.017   0.941
51006SOL     OW53043   9.930   3.648   1.439
51006SOL    HW153044   9.838   3.631   1.474
51006SOL    HW253045   9.958   3.740   1.465
51007SOL     OW53046   9.916   2.826   0.123
51007SOL    HW153047   9.923   2.910   0.069
51007SOL    HW253048   9.962   2.839   0.211
51008SOL     OW53049  10.904   1.976   1.480
51008SOL    HW153050  10.886   2.043   1.408
51008SOL    HW253051  10.901   2.022   1.569
51009SOL     OW53052   9.432   2.505   0.563
51009SOL    HW153053   9.387   2.417   0.580
51009SOL    HW253054   9.431   2.559   0.647
51010SOL     OW53055  11.152   3.629   0.359
51010SOL    HW153056  11.206   3.600   0.439
51010SOL    HW253057  11.182   3.719   0.330
51011SOL     OW53058   9.337   3.458   0.117
51011SOL    HW153059   9.318   3.362   0.138
51011SOL    HW253060   9.304   3.516   0.192
51012SOL     OW53061  10.999   2.784   0.612
51012SOL    HW153062  11.094   2.755   0.620
51012SOL    HW253063  10.991   2.849   0.537
51013SOL     OW53064  10.951   2.970   0.432
51013SOL    HW153065  11.037   2.972   0.380
51013SOL    HW253066  10.965   3.017   0.520
51014SOL     OW53067   9.423   2.599   1.597
51014SOL    HW153068   9.511   2.586   1.642
51014SOL    HW253069   9.410   2.696   1.575
51015SOL     OW53070   9.923   3.227   0.726
51015SOL    HW153071   9.874   3.140   0.735
51015SOL    HW253072   9.900   3.270   0.639
51016SOL     OW53073  10.603   3.090   1.423
51016SOL    HW153074  10.640   3.017   1.365
51016SOL    HW253075  10.655   3.095   1.508
51017SOL     OW53076  10.119   1.866   0.502
51017SOL    HW153077  10.159   1.957   0.493
51017SOL    HW253078  10.019   1.874   0.508
51018SOL     OW53079   9.507   2.838   1.264
51018SOL    HW153080   9.596   2.793   1.250
51018SOL    HW253081   9.434   2.773   1.245
51019SOL     OW53082  10.835   2.861   0.190
51019SOL    HW153083  10.772   2.785   0.203
51019SOL    HW253084  10.883   2.879   0.276
51020SOL     OW53085  10.497   3.654   1.616
51020SOL    HW153086  10.521   3.714   1.540
51020SOL    HW253087  10.504   3.559   1.586
51021SOL     OW53088   9.627   2.113   1.801
51021SOL    HW153089   9.698   2.184   1.807
51021SOL    HW253090   9.539   2.152   1.829
51022SOL     OW53091  10.776   3.279   0.953
51022SOL    HW153092  10.717   3.285   1.033
51022SOL    HW253093  10.761   3.191   0.907
51023SOL     OW53094  10.977   3.576   0.572
51023SOL    HW153095  10.936   3.553   0.484
51023SOL    HW253096  10.959   3.502   0.637
51024SOL     OW53097   9.908   2.591   0.270
51024SOL    HW153098   9.932   2.660   0.202
51024SOL    HW253099   9.830   2.624   0.324
51025SOL     OW53100  10.591   2.207   0.944
51025SOL    HW153101  10.505   2.157   0.931
51025SOL    HW253102  10.653   2.153   1.000
51026SOL     OW53103  10.886   3.524   0.307
51026SOL    HW153104  10.975   3.570   0.310
51026SOL    HW253105  10.865   3.500   0.212
51027SOL     OW53106  10.117   2.467   1.465
51027SOL    HW153107  10.070   2.464   1.554
51027SOL    HW253108  10.066   2.412   1.399
51028SOL     OW53109  10.704   2.331   1.674
51028SOL    HW153110  10.684   2.374   1.762
51028SOL    HW253111  10.782   2.269   1.683
51029SOL     OW53112  10.283   2.752   1.572
51029SOL    HW153113  10.329   2.668   1.543
51029SOL    HW253114  10.227   2.786   1.497
51030SOL     OW53115  10.301   2.272   1.242
51030SOL    HW153116  10.224   2.306   1.296
51030SOL    HW253117  10.267   2.221   1.163
51031SOL     OW53118  10.351   2.563   0.429
51031SOL    HW153119  10.377   2.559   0.525
51031SOL    HW253120  10.266   2.512   0.415
51032SOL     OW53121   9.386   2.673   0.789
51032SOL    HW153122   9.485   2.661   0.798
51032SOL    HW253123   9.362   2.768   0.810
51033SOL     OW53124   9.440   3.683   1.571
51033SOL    HW153125   9.430   3.668   1.670
51033SOL    HW253126   9.354   3.719   1.535
51034SOL     OW53127  10.175   2.210   0.195
51034SOL    HW153128  10.234   2.273   0.146
51034SOL    HW253129  10.194   2.116   0.166
51035SOL     OW53130  11.029   2.447   1.831
51035SOL    HW153131  11.003   2.536   1.795
51035SOL    HW253132  11.027   2.379   1.758
51036SOL     OW53133  10.672   3.006   0.545
51036SOL    HW153134  10.755   2.977   0.497
51036SOL    HW253135  10.623   3.073   0.489
51037SOL     OW53136   9.860   2.058   0.885
51037SOL    HW153137   9.855   2.053   0.985
51037SOL    HW253138   9.862   2.154   0.856
51038SOL     OW53139  10.318   3.318   0.477
51038SOL    HW153140  10.272   3.390   0.425
51038SOL    HW253141  10.314   3.338   0.575
51039SOL     OW53142   9.661   3.663   0.853
51039SOL    HW153143   9.711   3.577   0.859
51039SOL    HW253144   9.726   3.740   0.850
51040SOL     OW53145  11.105   2.928   0.873
51040SOL    HW153146  11.043   2.913   0.797
51040SOL    HW253147  11.053   2.939   0.958
51041SOL     OW53148  10.537   3.412   1.506
51041SOL    HW153149  10.543   3.335   1.570
51041SOL    HW253150  10.485   3.386   1.426
51042SOL     OW53151   9.631   2.805   0.242
51042SOL    HW153152   9.713   2.844   0.200
51042SOL    HW253153   9.604   2.723   0.193
51043SOL     OW53154  10.768   2.597   0.728
51043SOL    HW153155  10.763   2.532   0.803
51043SOL    HW253156  10.848   2.656   0.741
51044SOL     OW53157   9.771   3.128   1.727
51044SOL    HW153158   9.721   3.129   1.641
51044SOL    HW253159   9.708   3.110   1.803
51045SOL     OW53160  10.421   3.638   0.237
51045SOL    HW153161  10.361   3.576   0.287
51045SOL    HW253162  10.452   3.594   0.152
51046SOL     OW53163   9.512   2.147   1.498
51046SOL    HW153164   9.432   2.207   1.485
51046SOL    HW253165   9.502   2.098   1.584
51047SOL     OW53166  10.942   3.239   0.081
51047SOL    HW153167  10.910   3.333   0.071
51047SOL    HW253168  10.866   3.176   0.069
51048SOL     OW53169   9.774   3.605   0.323
51048SOL    HW153170   9.807   3.644   0.409
51048SOL    HW253171   9.850   3.598   0.258
51049SOL     OW53172  10.710   1.969   0.426
51049SOL    HW153173  10.686   1.932   0.336
51049SOL    HW253174  10.809   1.985   0.430
51050SOL     OW53175   9.559   3.647   1.241
51050SOL    HW153176   9.616   3.582   1.291
51050SOL    HW253177   9.543   3.614   1.148
51051SOL     OW53178  10.250   3.560   0.904
51051SOL    HW153179  10.330   3.503   0.925
51051SOL    HW253180  10.201   3.520   0.827
51052SOL     OW53181   9.692   2.562   0.480
51052SOL    HW153182   9.737   2.472   0.477
51052SOL    HW253183   9.598   2.551   0.513
51053SOL     OW53184  10.857   2.084   1.729
51053SOL    HW153185  10.852   2.121   1.821
51053SOL    HW253186  10.785   2.015   1.717
51054SOL     OW53187   9.924   1.984   0.117
51054SOL    HW153188  10.022   1.962   0.124
51054SOL    HW253189   9.893   1.967   0.024
51055SOL     OW53190  10.091   2.126   1.749
51055SOL    HW153191  10.158   2.065   1.792
51055SOL    HW253192  10.018   2.145   1.814
51056SOL     OW53193  10.198   3.376   1.195
51056SOL    HW153194  10.175   3.351   1.101
51056SOL    HW253195  10.259   3.307   1.234
51057SOL     OW53196  10.661   2.452   1.433
51057SOL    HW153197  10.689   2.409   1.518
51057SOL    HW253198  10.686   2.548   1.434
51058SOL     OW53199  10.113   3.264   0.924
51058SOL    HW153200  10.203   3.278   0.882
51058SOL    HW253201  10.042   3.266   0.853
51059SOL     OW53202  10.232   2.365   0.899
51059SOL    HW153203  10.207   2.356   0.803
51059SOL    HW253204  10.280   2.283   0.930
51060SOL     OW53205   9.849   1.926   0.512
51060SOL    HW153206   9.768   1.927   0.570
51060SOL    HW253207   9.852   2.009   0.457
51061SOL     OW53208  10.744   3.050   0.041
51061SOL    HW153209  10.776   2.974   0.098
51061SOL    HW253210  10.652   3.077   0.071
51062SOL     OW53211   9.607   1.897   0.171
51062SOL    HW153212   9.656   1.981   0.150
51062SOL    HW253213   9.669   1.832   0.216
51063SOL     OW53214  10.245   2.098   0.480
51063SOL    HW153215  10.197   2.139   0.402
51063SOL    HW253216  10.344   2.096   0.461
51064SOL     OW53217  10.386   2.545   1.464
51064SOL    HW153218  10.306   2.484   1.467
51064SOL    HW253219  10.467   2.492   1.440
51065SOL     OW53220  10.537   3.432   0.793
51065SOL    HW153221  10.558   3.506   0.728
51065SOL    HW253222  10.605   3.432   0.866
51066SOL     OW53223   9.769   3.014   0.741
51066SOL    HW153224   9.698   2.987   0.806
51066SOL    HW253225   9.743   2.986   0.648
51067SOL     OW53226  10.581   3.659   0.591
51067SOL    HW153227  10.625   3.723   0.527
51067SOL    HW253228  10.531   3.711   0.661
51068SOL     OW53229  10.342   2.411   0.016
51068SOL    HW153230  10.301   2.493  -0.023
51068SOL    HW253231  10.406   2.437   0.089
51069SOL     OW53232   9.388   2.418   1.386
51069SOL    HW153233   9.480   2.417   1.345
51069SOL    HW253234   9.382   2.492   1.453
51070SOL     OW53235   9.871   2.084   1.147
51070SOL    HW153236   9.909   2.000   1.184
51070SOL    HW253237   9.783   2.103   1.191
51071SOL     OW53238  10.176   2.316   0.642
51071SOL    HW153239  10.144   2.388   0.580
51071SOL    HW253240  10.200   2.235   0.589
51072SOL     OW53241  10.327   1.901   0.753
51072SOL    HW153242  10.255   1.906   0.684
51072SOL    HW253243  10.303   1.832   0.822
51073SOL     OW53244  10.739   3.035   0.867
51073SOL    HW153245  10.684   2.951   0.860
51073SOL    HW253246  10.765   3.064   0.775
51074SOL     OW53247  10.776   2.452   0.992
51074SOL    HW153248  10.746   2.357   0.999
51074SOL    HW253249  10.849   2.468   1.058
51075SOL     OW53250  11.167   2.695   0.377
51075SOL    HW153251  11.209   2.631   0.441
51075SOL    HW253252  11.129   2.644   0.299
51076SOL     OW53253   9.798   3.247   0.174
51076SOL    HW153254   9.711   3.232   0.221
51076SOL    HW253255   9.781   3.273   0.079
51077SOL     OW53256  10.974   3.142   0.657
51077SOL    HW153257  11.073   3.150   0.671
51077SOL    HW253258  10.929   3.226   0.688
51078SOL     OW53259  10.700   2.437   0.078
51078SOL    HW153260  10.646   2.416   0.159
51078SOL    HW253261  10.791   2.396   0.087
51079SOL     OW53262   9.837   2.118   0.328
51079SOL    HW153263   9.864   2.059   0.253
51079SOL    HW253264   9.837   2.213   0.297
51080SOL     OW53265  11.064   3.085   1.588
51080SOL    HW153266  11.155   3.046   1.575
51080SOL    HW253267  11.072   3.181   1.612
51081SOL     OW53268  10.374   3.209   1.340
51081SOL    HW153269  10.294   3.186   1.395
51081SOL    HW253270  10.457   3.183   1.389
51082SOL     OW53271  10.902   3.491   1.625
51082SOL    HW153272  10.929   3.525   1.535
51082SOL    HW253273  10.981   3.453   1.671
51083SOL     OW53274  10.421   3.057   1.100
51083SOL    HW153275  10.381   3.101   1.181
51083SOL    HW253276  10.380   3.094   1.017
51084SOL     OW53277  10.948   2.961   1.079
51084SOL    HW153278  10.953   3.042   1.138
51084SOL    HW253279  10.862   2.963   1.028
51085SOL     OW53280  10.225   1.951   1.402
51085SOL    HW153281  10.250   1.931   1.307
51085SOL    HW253282  10.297   2.007   1.444
51086SOL     OW53283  10.290   2.978   1.719
51086SOL    HW153284  10.191   2.984   1.729
51086SOL    HW253285  10.313   2.898   1.663
51087SOL     OW53286  10.015   2.912   0.368
51087SOL    HW153287  10.001   2.919   0.467
51087SOL    HW253288  10.099   2.861   0.350
51088SOL     OW53289   9.720   2.675   1.251
51088SOL    HW153290   9.806   2.687   1.301
51088SOL    HW253291   9.678   2.588   1.278
51089SOL     OW53292  10.584   2.248   1.262
51089SOL    HW153293  10.605   2.322   1.326
51089SOL    HW253294  10.495   2.265   1.219
51090SOL     OW53295   9.374   3.426   1.331
51090SOL    HW153296   9.328   3.508   1.297
51090SOL    HW253297   9.472   3.445   1.340
51091SOL     OW53298   9.677   2.962   0.501
51091SOL    HW153299   9.670   3.045   0.445
51091SOL    HW253300   9.681   2.882   0.441
51092SOL     OW53301   9.876   2.399   0.865
51092SOL    HW153302   9.888   2.465   0.791
51092SOL    HW253303   9.922   2.433   0.948
51093SOL     OW53304  10.562   3.210   0.388
51093SOL    HW153305  10.612   3.287   0.428
51093SOL    HW253306  10.467   3.212   0.420
51094SOL     OW53307  10.582   3.307   1.142
51094SOL    HW153308  10.629   3.320   1.229
51094SOL    HW253309  10.516   3.233   1.151
51095SOL     OW53310  10.892   2.501   0.472
51095SOL    HW153311  10.861   2.562   0.545
51095SOL    HW253312  10.942   2.553   0.403
51096SOL     OW53313   9.664   3.372   1.329
51096SOL    HW153314   9.643   3.328   1.242
51096SOL    HW253315   9.761   3.398   1.332
51097SOL     OW53316   9.712   2.613   1.598
51097SOL    HW153317   9.780   2.668   1.551
51097SOL    HW253318   9.752   2.525   1.625
51098SOL     OW53319  10.897   2.641   1.670
51098SOL    HW153320  10.805   2.679   1.665
51098SOL    HW253321  10.957   2.688   1.605
51099SOL     OW53322  10.323   1.967   1.770
51099SOL    HW153323  10.329   2.052   1.718
51099SOL    HW253324  10.355   1.891   1.713
51100SOL     OW53325   9.814   1.912   1.740
51100SOL    HW153326   9.772   1.855   1.670
51100SOL    HW253327   9.748   1.981   1.772
51101SOL     OW53328   9.883   2.732   1.029
51101SOL    HW153329   9.927   2.821   1.020
51101SOL    HW253330   9.820   2.732   1.106
51102SOL     OW53331  10.670   2.724   1.045
51102SOL    HW153332  10.595   2.724   0.979
51102SOL    HW253333  10.707   2.632   1.054
51103SOL     OW53334  10.519   2.387   0.275
51103SOL    HW153335  10.532   2.303   0.329
51103SOL    HW253336  10.490   2.461   0.335
51104SOL     OW53337   9.617   2.075   1.231
51104SOL    HW153338   9.594   2.112   1.321
51104SOL    HW253339   9.587   1.980   1.225
51105SOL     OW53340   9.347   3.172   1.282
51105SOL    HW153341   9.400   3.123   1.350
51105SOL    HW253342   9.369   3.270   1.287
51106SOL     OW53343  10.042   2.496   1.064
51106SOL    HW153344  10.101   2.470   0.988
51106SOL    HW253345  10.014   2.592   1.053
51107SOL     OW53346  11.038   2.797   1.854
51107SOL    HW153347  10.992   2.790   1.765
51107SOL    HW253348  10.976   2.841   1.920
51108SOL     OW53349   9.617   1.925   0.618
51108SOL    HW153350   9.606   2.019   0.651
51108SOL    HW253351   9.612   1.862   0.695
51109SOL     OW53352  10.932   2.229   0.374
51109SOL    HW153353  10.934   2.153   0.438
51109SOL    HW253354  10.884   2.306   0.414
51110SOL     OW53355  10.333   2.628   0.966
51110SOL    HW153356  10.348   2.649   1.062
51110SOL    HW253357  10.303   2.533   0.957
51111SOL     OW53358  10.290   3.435   1.700
51111SOL    HW153359  10.270   3.479   1.612
51111SOL    HW253360  10.329   3.344   1.684
51112SOL     OW53361  11.169   3.380   1.605
51112SOL    HW153362  11.183   3.407   1.510
51112SOL    HW253363  11.252   3.402   1.658
51113SOL     OW53364   9.660   2.760   1.804
51113SOL    HW153365   9.736   2.804   1.852
51113SOL    HW253366   9.695   2.713   1.722
51114SOL     OW53367  10.850   2.136   0.125
51114SOL    HW153368  10.789   2.061   0.148
51114SOL    HW253369  10.872   2.188   0.208
51115SOL     OW53370  10.613   2.700   0.042
51115SOL    HW153371  10.647   2.607   0.057
51115SOL    HW253372  10.631   2.727  -0.053
51116SOL     OW53373  10.378   3.195   0.849
51116SOL    HW153374  10.385   3.111   0.794
51116SOL    HW253375  10.440   3.264   0.813
51117SOL     OW53376   9.629   2.672   0.949
51117SOL    HW153377   9.722   2.708   0.954
51117SOL    HW253378   9.623   2.587   1.001
51118SOL     OW53379   9.649   2.371   1.006
51118SOL    HW153380   9.597   2.288   0.989
51118SOL    HW253381   9.726   2.376   0.942
51119SOL     OW53382  10.448   2.242   1.678
51119SOL    HW153383  10.403   2.305   1.742
51119SOL    HW253384  10.541   2.273   1.661
51120SOL     OW53385  10.470   2.069   1.477
51120SOL    HW153386  10.470   2.133   1.554
51120SOL    HW253387  10.498   2.117   1.394
51121SOL     OW53388   9.318   3.188   0.200
51121SOL    HW153389   9.225   3.209   0.169
51121SOL    HW253390   9.328   3.089   0.213
51122SOL     OW53391   9.398   3.663   0.927
51122SOL    HW153392   9.356   3.577   0.900
51122SOL    HW253393   9.492   3.666   0.893
51123SOL     OW53394   9.814   3.430   0.910
51123SOL    HW153395   9.880   3.504   0.919
51123SOL    HW253396   9.858   3.351   0.868
51124SOL     OW53397  10.312   2.658   1.238
51124SOL    HW153398  10.353   2.626   1.324
51124SOL    HW253399  10.216   2.631   1.235
51125SOL     OW53400   9.350   2.406   1.114
51125SOL    HW153401   9.435   2.373   1.073
51125SOL    HW253402   9.363   2.421   1.212
51126SOL     OW53403   9.499   2.382   1.722
51126SOL    HW153404   9.558   2.342   1.652
51126SOL    HW253405   9.441   2.453   1.681
51127SOL     OW53406  10.679   2.812   1.660
51127SOL    HW153407  10.718   2.901   1.680
51127SOL    HW253408  10.689   2.792   1.563
51128SOL     OW53409  10.125   2.434   0.325
51128SOL    HW153410  10.132   2.345   0.279
51128SOL    HW253411  10.031   2.468   0.317
51129SOL     OW53412  10.967   2.466   1.206
51129SOL    HW153413  10.929   2.397   1.268
51129SOL    HW253414  11.049   2.430   1.162
51130SOL     OW53415   9.562   3.426   1.744
51130SOL    HW153416   9.532   3.483   1.820
51130SOL    HW253417   9.555   3.329   1.770
51131SOL     OW53418   9.981   2.326   1.269
51131SOL    HW153419   9.947   2.237   1.239
51131SOL    HW253420  10.007   2.380   1.189
51132SOL     OW53421  10.240   3.540   1.465
51132SOL    HW153422  10.216   3.522   1.370
51132SOL    HW253423  10.270   3.634   1.475
51133SOL     OW53424   9.783   2.362   0.191
51133SOL    HW153425   9.844   2.442   0.195
51133SOL    HW253426   9.688   2.393   0.198
51134SOL     OW53427   9.469   2.999   1.466
51134SOL    HW153428   9.491   2.938   1.542
51134SOL    HW253429   9.479   2.950   1.380
51135SOL     OW53430  10.657   2.921   1.234
51135SOL    HW153431  10.681   2.858   1.160
51135SOL    HW253432  10.567   2.961   1.216
51136SOL     OW53433  10.612   2.717   0.309
51136SOL    HW153434  10.526   2.686   0.351
51136SOL    HW253435  10.608   2.703   0.210
51137SOL     OW53436  11.069   3.609   1.154
51137SOL    HW153437  11.130   3.639   1.081
51137SOL    HW253438  11.031   3.520   1.132
51138SOL     OW53439  10.562   3.593   1.128
51138SOL    HW153440  10.646   3.598   1.074
51138SOL    HW253441  10.539   3.497   1.146
51139SOL     OW53442   9.393   3.120   1.022
51139SOL    HW153443   9.388   3.119   1.122
51139SOL    HW253444   9.310   3.079   0.984
51140SOL     OW53445   9.998   3.524   1.716
51140SOL    HW153446   9.942   3.605   1.725
51140SOL    HW253447  10.050   3.528   1.630
51141SOL     OW53448  10.213   1.948   0.133
51141SOL    HW153449  10.264   1.949   0.047
51141SOL    HW253450  10.269   1.906   0.204
51142SOL     OW53451  11.036   1.997   0.523
51142SOL    HW153452  11.109   1.980   0.456
51142SOL    HW253453  11.005   1.910   0.561
51143SOL     OW53454  10.698   3.435   0.477
51143SOL    HW153455  10.765   3.447   0.403
51143SOL    HW253456  10.658   3.524   0.500
51144SOL     OW53457   9.440   3.656   1.851
51144SOL    HW153458   9.399   3.582   1.904
51144SOL    HW253459   9.504   3.707   1.909
51145SOL     OW53460  10.590   2.789   0.672
51145SOL    HW153461  10.650   2.708   0.674
51145SOL    HW253462  10.630   2.858   0.612
51146SOL     OW53463  10.140   3.135   1.422
51146SOL    HW153464  10.135   3.168   1.517
51146SOL    HW253465  10.054   3.154   1.376
51147SOL     OW53466   9.982   3.478   0.154
51147SOL    HW153467   9.991   3.488   0.055
51147SOL    HW253468   9.942   3.389   0.175
51148SOL     OW53469  10.960   3.582   1.394
51148SOL    HW153470  11.013   3.592   1.310
51148SOL    HW253471  10.933   3.672   1.428
51149SOL     OW53472  11.151   2.037   0.963
51149SOL    HW153473  11.190   1.952   0.927
51149SOL    HW253474  11.053   2.039   0.944
51150SOL     OW53475   9.573   2.188   0.720
51150SOL    HW153476   9.494   2.239   0.686
51150SOL    HW253477   9.564   2.173   0.818
51151SOL     OW53478  10.504   3.474   0.031
51151SOL    HW153479  10.510   3.381   0.068
51151SOL    HW253480  10.445   3.474  -0.049
51152SOL     OW53481  10.132   2.864   1.372
51152SOL    HW153482  10.172   2.863   1.280
51152SOL    HW253483  10.142   2.956   1.412
51153SOL     OW53484  10.226   2.772   0.291
51153SOL    HW153485  10.289   2.810   0.223
51153SOL    HW253486  10.266   2.689   0.330
51154SOL     OW53487  10.814   3.469   0.044
51154SOL    HW153488  10.722   3.506   0.051
51154SOL    HW253489  10.852   3.489  -0.046
51155SOL     OW53490   9.682   3.150   1.490
51155SOL    HW153491   9.669   3.243   1.456
51155SOL    HW253492   9.598   3.098   1.477
51156SOL     OW53493  10.924   3.154   1.289
51156SOL    HW153494  10.984   3.157   1.369
51156SOL    HW253495  10.849   3.218   1.302
51157SOL     OW53496  10.349   2.960   0.696
51157SOL    HW153497  10.279   2.913   0.750
51157SOL    HW253498  10.408   2.892   0.653
51158SOL     OW53499  10.324   2.098   0.971
51158SOL    HW153500  10.316   2.062   0.878
51158SOL    HW253501  10.322   2.022   1.036
51159SOL     OW53502   9.900   3.349   0.491
51159SOL    HW153503   9.942   3.291   0.421
51159SOL    HW253504   9.856   3.428   0.447
51160SOL     OW53505  11.019   2.247   1.381
51160SOL    HW153506  11.092   2.316   1.385
51160SOL    HW253507  11.047   2.172   1.322
51161SOL     OW53508   9.565   3.210   0.290
51161SOL    HW153509   9.469   3.211   0.263
51161SOL    HW253510   9.577   3.263   0.374
51162SOL     OW53511   9.415   2.875   1.726
51162SOL    HW153512   9.338   2.842   1.780
51162SOL    HW253513   9.500   2.845   1.768
51163SOL     OW53514   9.982   2.065   1.489
51163SOL    HW153515  10.072   2.049   1.449
51163SOL    HW253516   9.990   2.070   1.588
51164SOL     OW53517  10.750   2.718   1.398
51164SOL    HW153518  10.693   2.770   1.335
51164SOL    HW253519  10.846   2.730   1.374
51165SOL     OW53520   9.382   2.028   0.318
51165SOL    HW153521   9.365   2.111   0.264
51165SOL    HW253522   9.472   1.991   0.296
51166SOL     OW53523  10.493   3.197   0.119
51166SOL    HW153524  10.394   3.186   0.121
51166SOL    HW253525  10.527   3.212   0.212
51167SOL     OW53526   9.923   2.704   1.431
51167SOL    HW153527   9.979   2.785   1.414
51167SOL    HW253528   9.982   2.624   1.434
51168SOL     OW53529  10.803   3.629   0.959
51168SOL    HW153530  10.836   3.693   0.890
51168SOL    HW253531  10.869   3.623   1.034
51169SOL     OW53532  10.026   2.427   1.708
51169SOL    HW153533  10.045   2.492   1.782
51169SOL    HW253534  10.086   2.347   1.717
51170SOL     OW53535  10.760   3.082   1.633
51170SOL    HW153536  10.751   3.072   1.732
51170SOL    HW253537  10.856   3.075   1.607
51171SOL     OW53538   9.700   3.603   1.560
51171SOL    HW153539   9.609   3.644   1.558
51171SOL    HW253540   9.693   3.509   1.592
51172SOL     OW53541  10.984   2.745   1.254
51172SOL    HW153542  10.957   2.656   1.217
51172SOL    HW253543  10.985   2.813   1.181
51173SOL     OW53544  10.535   2.187   0.449
51173SOL    HW153545  10.600   2.113   0.438
51173SOL    HW253546  10.555   2.237   0.533
51174SOL     OW53547   9.904   2.607   0.652
51174SOL    HW153548   9.954   2.692   0.633
51174SOL    HW253549   9.816   2.609   0.604
51175SOL     OW53550  11.087   2.204   1.642
51175SOL    HW153551  11.070   2.235   1.548
51175SOL    HW253552  11.003   2.167   1.680
51176SOL     OW53553  11.040   2.796   1.517
51176SOL    HW153554  11.078   2.887   1.532
51176SOL    HW253555  11.032   2.779   1.418
51177SOL     OW53556  10.169   3.236   0.016
51177SOL    HW153557  10.123   3.251   0.104
51177SOL    HW253558  10.213   3.321  -0.014
51178SOL     OW53559   9.971   3.652   0.953
51178SOL    HW153560   9.925   3.740   0.940
51178SOL    HW253561  10.070   3.664   0.946
51179SOL     OW53562  10.169   2.818   0.861
51179SOL    HW153563  10.223   2.749   0.909
51179SOL    HW253564  10.137   2.887   0.927
51180SOL     OW53565  10.393   2.846   0.087
51180SOL    HW153566  10.370   2.899   0.005
51180SOL    HW253567  10.474   2.790   0.068
51181SOL     OW53568  11.171   3.431   0.851
51181SOL    HW153569  11.100   3.419   0.781
51181SOL    HW253570  11.172   3.352   0.911
51182SOL     OW53571   9.531   3.176   1.844
51182SOL    HW153572   9.466   3.103   1.823
51182SOL    HW253573   9.535   3.190   1.942
51183SOL     OW53574   9.389   3.102   0.653
51183SOL    HW153575   9.388   3.055   0.741
51183SOL    HW253576   9.471   3.074   0.602
51184SOL     OW53577   9.982   3.253   1.624
51184SOL    HW153578   9.904   3.203   1.662
51184SOL    HW253579   9.979   3.348   1.655
51185SOL     OW53580  11.134   2.054   1.227
51185SOL    HW153581  11.130   1.964   1.271
51185SOL    HW253582  11.137   2.043   1.128
51186SOL     OW53583   9.738   2.286   0.520
51186SOL    HW153584   9.768   2.214   0.458
51186SOL    HW253585   9.699   2.246   0.603
51187SOL     OW53586  11.015   3.349   1.104
51187SOL    HW153587  10.922   3.324   1.077
51187SOL    HW253588  11.041   3.299   1.186
51188SOL     OW53589   9.627   2.409   1.280
51188SOL    HW153590   9.665   2.350   1.352
51188SOL    HW253591   9.667   2.383   1.192
51189SOL     OW53592  10.122   3.448   0.687
51189SOL    HW153593  10.154   3.458   0.593
51189SOL    HW253594  10.043   3.386   0.689
51190SOL     OW53595  10.734   2.076   1.112
51190SOL    HW153596  10.786   2.011   1.167
51190SOL    HW253597  10.685   2.139   1.173
51191SOL     OW53598  10.311   1.896   1.154
51191SOL    HW153599  10.248   1.824   1.123
51191SOL    HW253600  10.404   1.860   1.154
51192SOL     OW53601  10.080   3.192   0.301
51192SOL    HW153602  10.034   3.105   0.318
51192SOL    HW253603  10.171   3.189   0.342
51193SOL     OW53604   9.928   3.429   1.284
51193SOL    HW153605   9.923   3.511   1.341
51193SOL    HW253606  10.017   3.426   1.239
51194SOL     OW53607  10.662   1.914   0.168
51194SOL    HW153608  10.697   1.873   0.084
51194SOL    HW253609  10.572   1.876   0.188
51195SOL     OW53610  10.610   2.315   0.691
51195SOL    HW153611  10.551   2.395   0.695
51195SOL    HW253612  10.625   2.280   0.784
51196SOL     OW53613  10.903   2.083   0.882
51196SOL    HW153614  10.819   2.082   0.936
51196SOL    HW253615  10.905   2.166   0.826
51197SOL     OW53616   9.349   2.939   0.300
51197SOL    HW153617   9.448   2.928   0.291
51197SOL    HW253618   9.309   2.853   0.332
51198SOL     OW53619  10.185   3.508   0.337
51198SOL    HW153620  10.108   3.473   0.283
51198SOL    HW253621  10.153   3.579   0.399
51199SOL     OW53622   9.540   2.490   1.975
51199SOL    HW153623   9.447   2.488   2.012
51199SOL    HW253624   9.541   2.451   1.883
51200SOL     OW53625   9.535   2.137   2.858
51200SOL    HW153626   9.570   2.120   2.950
51200SOL    HW253627   9.447   2.092   2.846
51201SOL     OW53628   9.329   2.230   2.509
51201SOL    HW153629   9.247   2.273   2.548
51201SOL    HW253630   9.301   2.157   2.446
51202SOL     OW53631   9.879   3.137   3.027
51202SOL    HW153632   9.786   3.130   2.990
51202SOL    HW253633   9.890   3.226   3.071
51203SOL     OW53634  10.865   3.373   2.565
51203SOL    HW153635  10.808   3.357   2.646
51203SOL    HW253636  10.806   3.383   2.485
51204SOL     OW53637  10.445   2.565   2.579
51204SOL    HW153638  10.502   2.643   2.554
51204SOL    HW253639  10.385   2.591   2.655
51205SOL     OW53640  11.065   2.469   2.093
51205SOL    HW153641  11.053   2.456   1.994
51205SOL    HW253642  11.035   2.388   2.142
51206SOL     OW53643  10.078   3.006   2.885
51206SOL    HW153644  10.000   3.023   2.945
51206SOL    HW253645  10.112   3.093   2.849
51207SOL     OW53646  10.160   2.660   3.685
51207SOL    HW153647  10.156   2.736   3.750
51207SOL    HW253648  10.182   2.696   3.594
51208SOL     OW53649   9.995   2.874   2.527
51208SOL    HW153650  10.064   2.858   2.597
51208SOL    HW253651   9.922   2.931   2.565
51209SOL     OW53652   9.996   3.023   3.665
51209SOL    HW153653  10.056   3.102   3.679
51209SOL    HW253654   9.910   3.054   3.624
51210SOL     OW53655   9.645   3.297   2.923
51210SOL    HW153656   9.567   3.266   2.870
51210SOL    HW253657   9.703   3.355   2.866
51211SOL     OW53658  10.770   3.367   3.201
51211SOL    HW153659  10.794   3.461   3.227
51211SOL    HW253660  10.754   3.313   3.283
51212SOL     OW53661   9.748   2.254   3.361
51212SOL    HW153662   9.830   2.198   3.370
51212SOL    HW253663   9.667   2.196   3.365
51213SOL     OW53664  10.913   2.309   2.599
51213SOL    HW153665  10.839   2.355   2.549
51213SOL    HW253666  10.964   2.377   2.652
51214SOL     OW53667   9.541   3.575   2.345
51214SOL    HW153668   9.575   3.652   2.399
51214SOL    HW253669   9.585   3.575   2.255
51215SOL     OW53670  10.437   3.203   3.552
51215SOL    HW153671  10.484   3.203   3.640
51215SOL    HW253672  10.389   3.116   3.541
51216SOL     OW53673   9.540   3.296   2.400
51216SOL    HW153674   9.514   3.392   2.400
51216SOL    HW253675   9.469   3.242   2.445
51217SOL     OW53676   9.550   2.953   2.748
51217SOL    HW153677   9.564   2.869   2.800
51217SOL    HW253678   9.495   3.017   2.803
51218SOL     OW53679   9.930   3.648   3.301
51218SOL    HW153680   9.838   3.631   3.336
51218SOL    HW253681   9.958   3.740   3.327
51219SOL     OW53682   9.916   2.826   1.985
51219SOL    HW153683   9.923   2.910   1.931
51219SOL    HW253684   9.962   2.839   2.073
51220SOL     OW53685  10.904   1.976   3.342
51220SOL    HW153686  10.886   2.043   3.270
51220SOL    HW253687  10.901   2.022   3.431
51221SOL     OW53688   9.432   2.505   2.425
51221SOL    HW153689   9.387   2.417   2.442
51221SOL    HW253690   9.431   2.559   2.509
51222SOL     OW53691  11.152   3.629   2.221
51222SOL    HW153692  11.206   3.600   2.301
51222SOL    HW253693  11.182   3.719   2.192
51223SOL     OW53694   9.337   3.458   1.979
51223SOL    HW153695   9.318   3.362   2.000
51223SOL    HW253696   9.304   3.516   2.054
51224SOL     OW53697  10.999   2.784   2.474
51224SOL    HW153698  11.094   2.755   2.482
51224SOL    HW253699  10.991   2.849   2.399
51225SOL     OW53700  10.951   2.970   2.294
51225SOL    HW153701  11.037   2.972   2.242
51225SOL    HW253702  10.965   3.017   2.382
51226SOL     OW53703   9.423   2.599   3.459
51226SOL    HW153704   9.511   2.586   3.504
51226SOL    HW253705   9.410   2.696   3.437
51227SOL     OW53706   9.923   3.227   2.588
51227SOL    HW153707   9.874   3.140   2.597
51227SOL    HW253708   9.900   3.270   2.501
51228SOL     OW53709  10.603   3.090   3.285
51228SOL    HW153710  10.640   3.017   3.227
51228SOL    HW253711  10.655   3.095   3.370
51229SOL     OW53712  10.119   1.866   2.364
51229SOL    HW153713  10.159   1.957   2.355
51229SOL    HW253714  10.019   1.874   2.370
51230SOL     OW53715   9.507   2.838   3.126
51230SOL    HW153716   9.596   2.793   3.112
51230SOL    HW253717   9.434   2.773   3.107
51231SOL     OW53718  10.835   2.861   2.052
51231SOL    HW153719  10.772   2.785   2.065
51231SOL    HW253720  10.883   2.879   2.138
51232SOL     OW53721  10.497   3.654   3.478
51232SOL    HW153722  10.521   3.714   3.402
51232SOL    HW253723  10.504   3.559   3.448
51233SOL     OW53724   9.627   2.113   3.663
51233SOL    HW153725   9.698   2.184   3.669
51233SOL    HW253726   9.539   2.152   3.691
51234SOL     OW53727  10.776   3.279   2.815
51234SOL    HW153728  10.717   3.285   2.895
51234SOL    HW253729  10.761   3.191   2.769
51235SOL     OW53730  10.977   3.576   2.434
51235SOL    HW153731  10.936   3.553   2.346
51235SOL    HW253732  10.959   3.502   2.499
51236SOL     OW53733   9.908   2.591   2.132
51236SOL    HW153734   9.932   2.660   2.064
51236SOL    HW253735   9.830   2.624   2.186
51237SOL     OW53736  10.591   2.207   2.806
51237SOL    HW153737  10.505   2.157   2.793
51237SOL    HW253738  10.653   2.153   2.862
51238SOL     OW53739  10.886   3.524   2.169
51238SOL    HW153740  10.975   3.570   2.172
51238SOL    HW253741  10.865   3.500   2.074
51239SOL     OW53742  10.117   2.467   3.327
51239SOL    HW153743  10.070   2.464   3.416
51239SOL    HW253744  10.066   2.412   3.261
51240SOL     OW53745  10.704   2.331   3.536
51240SOL    HW153746  10.684   2.374   3.624
51240SOL    HW253747  10.782   2.269   3.545
51241SOL     OW53748  10.283   2.752   3.434
51241SOL    HW153749  10.329   2.668   3.405
51241SOL    HW253750  10.227   2.786   3.359
51242SOL     OW53751  10.301   2.272   3.104
51242SOL    HW153752  10.224   2.306   3.158
51242SOL    HW253753  10.267   2.221   3.025
51243SOL     OW53754  10.351   2.563   2.291
51243SOL    HW153755  10.377   2.559   2.387
51243SOL    HW253756  10.266   2.512   2.277
51244SOL     OW53757   9.386   2.673   2.651
51244SOL    HW153758   9.485   2.661   2.660
51244SOL    HW253759   9.362   2.768   2.672
51245SOL     OW53760   9.440   3.683   3.433
51245SOL    HW153761   9.430   3.668   3.532
51245SOL    HW253762   9.354   3.719   3.397
51246SOL     OW53763  10.175   2.210   2.057
51246SOL    HW153764  10.234   2.273   2.008
51246SOL    HW253765  10.194   2.116   2.028
51247SOL     OW53766  11.029   2.447   3.693
51247SOL    HW153767  11.003   2.536   3.657
51247SOL    HW253768  11.027   2.379   3.620
51248SOL     OW53769  10.672   3.006   2.407
51248SOL    HW153770  10.755   2.977   2.359
51248SOL    HW253771  10.623   3.073   2.351
51249SOL     OW53772   9.860   2.058   2.747
51249SOL    HW153773   9.855   2.053   2.847
51249SOL    HW253774   9.862   2.154   2.718
51250SOL     OW53775  10.318   3.318   2.339
51250SOL    HW153776  10.272   3.390   2.287
51250SOL    HW253777  10.314   3.338   2.437
51251SOL     OW53778   9.661   3.663   2.715
51251SOL    HW153779   9.711   3.577   2.721
51251SOL    HW253780   9.726   3.740   2.712
51252SOL     OW53781  11.105   2.928   2.735
51252SOL    HW153782  11.043   2.913   2.659
51252SOL    HW253783  11.053   2.939   2.820
51253SOL     OW53784  10.537   3.412   3.368
51253SOL    HW153785  10.543   3.335   3.432
51253SOL    HW253786  10.485   3.386   3.288
51254SOL     OW53787   9.631   2.805   2.104
51254SOL    HW153788   9.713   2.844   2.062
51254SOL    HW253789   9.604   2.723   2.055
51255SOL     OW53790  10.768   2.597   2.590
51255SOL    HW153791  10.763   2.532   2.665
51255SOL    HW253792  10.848   2.656   2.603
51256SOL     OW53793   9.771   3.128   3.589
51256SOL    HW153794   9.721   3.129   3.503
51256SOL    HW253795   9.708   3.110   3.665
51257SOL     OW53796  10.421   3.638   2.099
51257SOL    HW153797  10.361   3.576   2.149
51257SOL    HW253798  10.452   3.594   2.014
51258SOL     OW53799   9.512   2.147   3.360
51258SOL    HW153800   9.432   2.207   3.347
51258SOL    HW253801   9.502   2.098   3.446
51259SOL     OW53802  10.942   3.239   1.943
51259SOL    HW153803  10.910   3.333   1.933
51259SOL    HW253804  10.866   3.176   1.931
51260SOL     OW53805   9.774   3.605   2.185
51260SOL    HW153806   9.807   3.644   2.271
51260SOL    HW253807   9.850   3.598   2.120
51261SOL     OW53808  10.710   1.969   2.288
51261SOL    HW153809  10.686   1.932   2.198
51261SOL    HW253810  10.809   1.985   2.292
51262SOL     OW53811   9.559   3.647   3.103
51262SOL    HW153812   9.616   3.582   3.153
51262SOL    HW253813   9.543   3.614   3.010
51263SOL     OW53814  10.250   3.560   2.766
51263SOL    HW153815  10.330   3.503   2.787
51263SOL    HW253816  10.201   3.520   2.689
51264SOL     OW53817   9.692   2.562   2.342
51264SOL    HW153818   9.737   2.472   2.339
51264SOL    HW253819   9.598   2.551   2.375
51265SOL     OW53820  10.857   2.084   3.591
51265SOL    HW153821  10.852   2.121   3.683
51265SOL    HW253822  10.785   2.015   3.579
51266SOL     OW53823   9.924   1.984   1.979
51266SOL    HW153824  10.022   1.962   1.986
51266SOL    HW253825   9.893   1.967   1.886
51267SOL     OW53826  10.091   2.126   3.611
51267SOL    HW153827  10.158   2.065   3.654
51267SOL    HW253828  10.018   2.145   3.676
51268SOL     OW53829  10.198   3.376   3.057
51268SOL    HW153830  10.175   3.351   2.963
51268SOL    HW253831  10.259   3.307   3.096
51269SOL     OW53832  10.661   2.452   3.295
51269SOL    HW153833  10.689   2.409   3.380
51269SOL    HW253834  10.686   2.548   3.296
51270SOL     OW53835  10.113   3.264   2.786
51270SOL    HW153836  10.203   3.278   2.744
51270SOL    HW253837  10.042   3.266   2.715
51271SOL     OW53838  10.232   2.365   2.761
51271SOL    HW153839  10.207   2.356   2.665
51271SOL    HW253840  10.280   2.283   2.792
51272SOL     OW53841   9.849   1.926   2.374
51272SOL    HW153842   9.768   1.927   2.432
51272SOL    HW253843   9.852   2.009   2.319
51273SOL     OW53844  10.744   3.050   1.903
51273SOL    HW153845  10.776   2.974   1.960
51273SOL    HW253846  10.652   3.077   1.933
51274SOL     OW53847   9.607   1.897   2.033
51274SOL    HW153848   9.656   1.981   2.012
51274SOL    HW253849   9.669   1.832   2.078
51275SOL     OW53850  10.245   2.098   2.342
51275SOL    HW153851  10.197   2.139   2.264
51275SOL    HW253852  10.344   2.096   2.323
51276SOL     OW53853  10.386   2.545   3.326
51276SOL    HW153854  10.306   2.484   3.329
51276SOL    HW253855  10.467   2.492   3.302
51277SOL     OW53856  10.537   3.432   2.655
51277SOL    HW153857  10.558   3.506   2.590
51277SOL    HW253858  10.605   3.432   2.728
51278SOL     OW53859   9.769   3.014   2.603
51278SOL    HW153860   9.698   2.987   2.668
51278SOL    HW253861   9.743   2.986   2.510
51279SOL     OW53862  10.581   3.659   2.453
51279SOL    HW153863  10.625   3.723   2.389
51279SOL    HW253864  10.531   3.711   2.523
51280SOL     OW53865  10.342   2.411   1.878
51280SOL    HW153866  10.301   2.493   1.839
51280SOL    HW253867  10.406   2.437   1.951
51281SOL     OW53868   9.388   2.418   3.248
51281SOL    HW153869   9.480   2.417   3.207
51281SOL    HW253870   9.382   2.492   3.315
51282SOL     OW53871   9.871   2.084   3.009
51282SOL    HW153872   9.909   2.000   3.046
51282SOL    HW253873   9.783   2.103   3.053
51283SOL     OW53874  10.176   2.316   2.504
51283SOL    HW153875  10.144   2.388   2.442
51283SOL    HW253876  10.200   2.235   2.451
51284SOL     OW53877  10.327   1.901   2.615
51284SOL    HW153878  10.255   1.906   2.546
51284SOL    HW253879  10.303   1.832   2.684
51285SOL     OW53880  10.739   3.035   2.729
51285SOL    HW153881  10.684   2.951   2.722
51285SOL    HW253882  10.765   3.064   2.637
51286SOL     OW53883  10.776   2.452   2.854
51286SOL    HW153884  10.746   2.357   2.861
51286SOL    HW253885  10.849   2.468   2.920
51287SOL     OW53886  11.167   2.695   2.239
51287SOL    HW153887  11.209   2.631   2.303
51287SOL    HW253888  11.129   2.644   2.161
51288SOL     OW53889   9.798   3.247   2.036
51288SOL    HW153890   9.711   3.232   2.083
51288SOL    HW253891   9.781   3.273   1.941
51289SOL     OW53892  10.974   3.142   2.519
51289SOL    HW153893  11.073   3.150   2.533
51289SOL    HW253894  10.929   3.226   2.550
51290SOL     OW53895  10.700   2.437   1.940
51290SOL    HW153896  10.646   2.416   2.021
51290SOL    HW253897  10.791   2.396   1.949
51291SOL     OW53898   9.837   2.118   2.190
51291SOL    HW153899   9.864   2.059   2.115
51291SOL    HW253900   9.837   2.213   2.159
51292SOL     OW53901  11.064   3.085   3.450
51292SOL    HW153902  11.155   3.046   3.437
51292SOL    HW253903  11.072   3.181   3.474
51293SOL     OW53904  10.374   3.209   3.202
51293SOL    HW153905  10.294   3.186   3.257
51293SOL    HW253906  10.457   3.183   3.251
51294SOL     OW53907  10.902   3.491   3.487
51294SOL    HW153908  10.929   3.525   3.397
51294SOL    HW253909  10.981   3.453   3.533
51295SOL     OW53910  10.421   3.057   2.962
51295SOL    HW153911  10.381   3.101   3.043
51295SOL    HW253912  10.380   3.094   2.879
51296SOL     OW53913  10.948   2.961   2.941
51296SOL    HW153914  10.953   3.042   3.000
51296SOL    HW253915  10.862   2.963   2.890
51297SOL     OW53916  10.225   1.951   3.264
51297SOL    HW153917  10.250   1.931   3.169
51297SOL    HW253918  10.297   2.007   3.306
51298SOL     OW53919  10.290   2.978   3.581
51298SOL    HW153920  10.191   2.984   3.591
51298SOL    HW253921  10.313   2.898   3.525
51299SOL     OW53922  10.015   2.912   2.230
51299SOL    HW153923  10.001   2.919   2.329
51299SOL    HW253924  10.099   2.861   2.212
51300SOL     OW53925   9.720   2.675   3.113
51300SOL    HW153926   9.806   2.687   3.163
51300SOL    HW253927   9.678   2.588   3.140
51301SOL     OW53928  10.584   2.248   3.124
51301SOL    HW153929  10.605   2.322   3.188
51301SOL    HW253930  10.495   2.265   3.081
51302SOL     OW53931   9.374   3.426   3.193
51302SOL    HW153932   9.328   3.508   3.159
51302SOL    HW253933   9.472   3.445   3.202
51303SOL     OW53934   9.677   2.962   2.363
51303SOL    HW153935   9.670   3.045   2.307
51303SOL    HW253936   9.681   2.882   2.303
51304SOL     OW53937   9.876   2.399   2.727
51304SOL    HW153938   9.888   2.465   2.653
51304SOL    HW253939   9.922   2.433   2.810
51305SOL     OW53940  10.562   3.210   2.250
51305SOL    HW153941  10.612   3.287   2.290
51305SOL    HW253942  10.467   3.212   2.282
51306SOL     OW53943  10.582   3.307   3.004
51306SOL    HW153944  10.629   3.320   3.091
51306SOL    HW253945  10.516   3.233   3.013
51307SOL     OW53946  10.892   2.501   2.334
51307SOL    HW153947  10.861   2.562   2.407
51307SOL    HW253948  10.942   2.553   2.265
51308SOL     OW53949   9.664   3.372   3.191
51308SOL    HW153950   9.643   3.328   3.104
51308SOL    HW253951   9.761   3.398   3.194
51309SOL     OW53952   9.712   2.613   3.460
51309SOL    HW153953   9.780   2.668   3.413
51309SOL    HW253954   9.752   2.525   3.487
51310SOL     OW53955  10.897   2.641   3.532
51310SOL    HW153956  10.805   2.679   3.527
51310SOL    HW253957  10.957   2.688   3.467
51311SOL     OW53958  10.323   1.967   3.632
51311SOL    HW153959  10.329   2.052   3.580
51311SOL    HW253960  10.355   1.891   3.575
51312SOL     OW53961   9.814   1.912   3.602
51312SOL    HW153962   9.772   1.855   3.532
51312SOL    HW253963   9.748   1.981   3.634
51313SOL     OW53964   9.883   2.732   2.891
51313SOL    HW153965   9.927   2.821   2.882
51313SOL    HW253966   9.820   2.732   2.968
51314SOL     OW53967  10.670   2.724   2.907
51314SOL    HW153968  10.595   2.724   2.841
51314SOL    HW253969  10.707   2.632   2.916
51315SOL     OW53970  10.519   2.387   2.137
51315SOL    HW153971  10.532   2.303   2.191
51315SOL    HW253972  10.490   2.461   2.197
51316SOL     OW53973   9.617   2.075   3.093
51316SOL    HW153974   9.594   2.112   3.183
51316SOL    HW253975   9.587   1.980   3.087
51317SOL     OW53976   9.347   3.172   3.144
51317SOL    HW153977   9.400   3.123   3.212
51317SOL    HW253978   9.369   3.270   3.149
51318SOL     OW53979  10.042   2.496   2.926
51318SOL    HW153980  10.101   2.470   2.850
51318SOL    HW253981  10.014   2.592   2.915
51319SOL     OW53982  11.038   2.797   3.716
51319SOL    HW153983  10.992   2.790   3.627
51319SOL    HW253984  10.976   2.841   3.782
51320SOL     OW53985   9.617   1.925   2.480
51320SOL    HW153986   9.606   2.019   2.513
51320SOL    HW253987   9.612   1.862   2.557
51321SOL     OW53988  10.932   2.229   2.236
51321SOL    HW153989  10.934   2.153   2.300
51321SOL    HW253990  10.884   2.306   2.276
51322SOL     OW53991  10.333   2.628   2.828
51322SOL    HW153992  10.348   2.649   2.924
51322SOL    HW253993  10.303   2.533   2.819
51323SOL     OW53994  10.290   3.435   3.562
51323SOL    HW153995  10.270   3.479   3.474
51323SOL    HW253996  10.329   3.344   3.546
51324SOL     OW53997  11.169   3.380   3.467
51324SOL    HW153998  11.183   3.407   3.372
51324SOL    HW253999  11.252   3.402   3.520
51325SOL     OW54000   9.660   2.760   3.666
51325SOL    HW154001   9.736   2.804   3.714
51325SOL    HW254002   9.695   2.713   3.584
51326SOL     OW54003  10.850   2.136   1.987
51326SOL    HW154004  10.789   2.061   2.010
51326SOL    HW254005  10.872   2.188   2.070
51327SOL     OW54006  10.613   2.700   1.904
51327SOL    HW154007  10.647   2.607   1.919
51327SOL    HW254008  10.631   2.727   1.809
51328SOL     OW54009  10.378   3.195   2.711
51328SOL    HW154010  10.385   3.111   2.656
51328SOL    HW254011  10.440   3.264   2.675
51329SOL     OW54012   9.629   2.672   2.811
51329SOL    HW154013   9.722   2.708   2.816
51329SOL    HW254014   9.623   2.587   2.863
51330SOL     OW54015   9.649   2.371   2.868
51330SOL    HW154016   9.597   2.288   2.851
51330SOL    HW254017   9.726   2.376   2.804
51331SOL     OW54018  10.448   2.242   3.540
51331SOL    HW154019  10.403   2.305   3.604
51331SOL    HW254020  10.541   2.273   3.523
51332SOL     OW54021  10.470   2.069   3.339
51332SOL    HW154022  10.470   2.133   3.416
51332SOL    HW254023  10.498   2.117   3.256
51333SOL     OW54024   9.318   3.188   2.062
51333SOL    HW154025   9.225   3.209   2.031
51333SOL    HW254026   9.328   3.089   2.075
51334SOL     OW54027   9.398   3.663   2.789
51334SOL    HW154028   9.356   3.577   2.762
51334SOL    HW254029   9.492   3.666   2.755
51335SOL     OW54030   9.814   3.430   2.772
51335SOL    HW154031   9.880   3.504   2.781
51335SOL    HW254032   9.858   3.351   2.730
51336SOL     OW54033  10.312   2.658   3.100
51336SOL    HW154034  10.353   2.626   3.186
51336SOL    HW254035  10.216   2.631   3.097
51337SOL     OW54036   9.350   2.406   2.976
51337SOL    HW154037   9.435   2.373   2.935
51337SOL    HW254038   9.363   2.421   3.074
51338SOL     OW54039   9.499   2.382   3.584
51338SOL    HW154040   9.558   2.342   3.514
51338SOL    HW254041   9.441   2.453   3.543
51339SOL     OW54042  10.679   2.812   3.522
51339SOL    HW154043  10.718   2.901   3.542
51339SOL    HW254044  10.689   2.792   3.425
51340SOL     OW54045  10.125   2.434   2.187
51340SOL    HW154046  10.132   2.345   2.141
51340SOL    HW254047  10.031   2.468   2.179
51341SOL     OW54048  10.967   2.466   3.068
51341SOL    HW154049  10.929   2.397   3.130
51341SOL    HW254050  11.049   2.430   3.024
51342SOL     OW54051   9.562   3.426   3.606
51342SOL    HW154052   9.532   3.483   3.682
51342SOL    HW254053   9.555   3.329   3.632
51343SOL     OW54054   9.981   2.326   3.131
51343SOL    HW154055   9.947   2.237   3.101
51343SOL    HW254056  10.007   2.380   3.051
51344SOL     OW54057  10.240   3.540   3.327
51344SOL    HW154058  10.216   3.522   3.232
51344SOL    HW254059  10.270   3.634   3.337
51345SOL     OW54060   9.783   2.362   2.053
51345SOL    HW154061   9.844   2.442   2.057
51345SOL    HW254062   9.688   2.393   2.060
51346SOL     OW54063   9.469   2.999   3.328
51346SOL    HW154064   9.491   2.938   3.404
51346SOL    HW254065   9.479   2.950   3.242
51347SOL     OW54066  10.657   2.921   3.096
51347SOL    HW154067  10.681   2.858   3.022
51347SOL    HW254068  10.567   2.961   3.078
51348SOL     OW54069  10.612   2.717   2.171
51348SOL    HW154070  10.526   2.686   2.213
51348SOL    HW254071  10.608   2.703   2.072
51349SOL     OW54072  11.069   3.609   3.016
51349SOL    HW154073  11.130   3.639   2.943
51349SOL    HW254074  11.031   3.520   2.994
51350SOL     OW54075  10.562   3.593   2.990
51350SOL    HW154076  10.646   3.598   2.936
51350SOL    HW254077  10.539   3.497   3.008
51351SOL     OW54078   9.393   3.120   2.884
51351SOL    HW154079   9.388   3.119   2.984
51351SOL    HW254080   9.310   3.079   2.846
51352SOL     OW54081   9.998   3.524   3.578
51352SOL    HW154082   9.942   3.605   3.587
51352SOL    HW254083  10.050   3.528   3.492
51353SOL     OW54084  11.036   1.997   2.385
51353SOL    HW154085  11.109   1.980   2.318
51353SOL    HW254086  11.005   1.910   2.423
51354SOL     OW54087  10.698   3.435   2.339
51354SOL    HW154088  10.765   3.447   2.265
51354SOL    HW254089  10.658   3.524   2.362
51355SOL     OW54090   9.440   3.656   3.713
51355SOL    HW154091   9.399   3.582   3.766
51355SOL    HW254092   9.504   3.707   3.771
51356SOL     OW54093  10.590   2.789   2.534
51356SOL    HW154094  10.650   2.708   2.536
51356SOL    HW254095  10.630   2.858   2.474
51357SOL     OW54096  10.140   3.135   3.284
51357SOL    HW154097  10.135   3.168   3.379
51357SOL    HW254098  10.054   3.154   3.238
51358SOL     OW54099   9.982   3.478   2.016
51358SOL    HW154100   9.991   3.488   1.917
51358SOL    HW254101   9.942   3.389   2.037
51359SOL     OW54102  10.960   3.582   3.256
51359SOL    HW154103  11.013   3.592   3.172
51359SOL    HW254104  10.933   3.672   3.290
51360SOL     OW54105  11.151   2.037   2.825
51360SOL    HW154106  11.190   1.952   2.789
51360SOL    HW254107  11.053   2.039   2.806
51361SOL     OW54108   9.573   2.188   2.582
51361SOL    HW154109   9.494   2.239   2.548
51361SOL    HW254110   9.564   2.173   2.680
51362SOL     OW54111  10.504   3.474   1.893
51362SOL    HW154112  10.510   3.381   1.930
51362SOL    HW254113  10.445   3.474   1.813
51363SOL     OW54114  10.132   2.864   3.234
51363SOL    HW154115  10.172   2.863   3.142
51363SOL    HW254116  10.142   2.956   3.274
51364SOL     OW54117  10.226   2.772   2.153
51364SOL    HW154118  10.289   2.810   2.085
51364SOL    HW254119  10.266   2.689   2.192
51365SOL     OW54120  10.814   3.469   1.906
51365SOL    HW154121  10.722   3.506   1.913
51365SOL    HW254122  10.852   3.489   1.816
51366SOL     OW54123   9.682   3.150   3.352
51366SOL    HW154124   9.669   3.243   3.318
51366SOL    HW254125   9.598   3.098   3.339
51367SOL     OW54126  10.924   3.154   3.151
51367SOL    HW154127  10.984   3.157   3.231
51367SOL    HW254128  10.849   3.218   3.164
51368SOL     OW54129  10.349   2.960   2.558
51368SOL    HW154130  10.279   2.913   2.612
51368SOL    HW254131  10.408   2.892   2.515
51369SOL     OW54132  10.324   2.098   2.833
51369SOL    HW154133  10.316   2.062   2.740
51369SOL    HW254134  10.322   2.022   2.898
51370SOL     OW54135   9.900   3.349   2.353
51370SOL    HW154136   9.942   3.291   2.283
51370SOL    HW254137   9.856   3.428   2.309
51371SOL     OW54138  11.019   2.247   3.243
51371SOL    HW154139  11.092   2.316   3.247
51371SOL    HW254140  11.047   2.172   3.184
51372SOL     OW54141   9.565   3.210   2.152
51372SOL    HW154142   9.469   3.211   2.125
51372SOL    HW254143   9.577   3.263   2.236
51373SOL     OW54144   9.415   2.875   3.588
51373SOL    HW154145   9.338   2.842   3.642
51373SOL    HW254146   9.500   2.845   3.630
51374SOL     OW54147   9.982   2.065   3.351
51374SOL    HW154148  10.072   2.049   3.311
51374SOL    HW254149   9.990   2.070   3.450
51375SOL     OW54150   9.385   2.207   1.895
51375SOL    HW154151   9.293   2.179   1.866
51375SOL    HW254152   9.416   2.284   1.839
51376SOL     OW54153  10.750   2.718   3.260
51376SOL    HW154154  10.693   2.770   3.197
51376SOL    HW254155  10.846   2.730   3.236
51377SOL     OW54156   9.382   2.028   2.180
51377SOL    HW154157   9.365   2.111   2.126
51377SOL    HW254158   9.472   1.991   2.158
51378SOL     OW54159  10.493   3.197   1.981
51378SOL    HW154160  10.394   3.186   1.983
51378SOL    HW254161  10.527   3.212   2.074
51379SOL     OW54162   9.923   2.704   3.293
51379SOL    HW154163   9.979   2.785   3.276
51379SOL    HW254164   9.982   2.624   3.296
51380SOL     OW54165  10.803   3.629   2.821
51380SOL    HW154166  10.836   3.693   2.752
51380SOL    HW254167  10.869   3.623   2.896
51381SOL     OW54168  10.026   2.427   3.570
51381SOL    HW154169  10.045   2.492   3.644
51381SOL    HW254170  10.086   2.347   3.579
51382SOL     OW54171  10.760   3.082   3.495
51382SOL    HW154172  10.751   3.072   3.594
51382SOL    HW254173  10.856   3.075   3.469
51383SOL     OW54174   9.700   3.603   3.422
51383SOL    HW154175   9.609   3.644   3.420
51383SOL    HW254176   9.693   3.509   3.454
51384SOL     OW54177  10.984   2.745   3.116
51384SOL    HW154178  10.957   2.656   3.079
51384SOL    HW254179  10.985   2.813   3.043
51385SOL     OW54180  10.535   2.187   2.311
51385SOL    HW154181  10.600   2.113   2.300
51385SOL    HW254182  10.555   2.237   2.395
51386SOL     OW54183   9.904   2.607   2.514
51386SOL    HW154184   9.954   2.692   2.495
51386SOL    HW254185   9.816   2.609   2.466
51387SOL     OW54186  11.087   2.204   3.504
51387SOL    HW154187  11.070   2.235   3.410
51387SOL    HW254188  11.003   2.167   3.542
51388SOL     OW54189  11.040   2.796   3.379
51388SOL    HW154190  11.078   2.887   3.394
51388SOL    HW254191  11.032   2.779   3.280
51389SOL     OW54192  10.169   3.236   1.878
51389SOL    HW154193  10.123   3.251   1.966
51389SOL    HW254194  10.213   3.321   1.848
51390SOL     OW54195   9.971   3.652   2.815
51390SOL    HW154196   9.925   3.740   2.802
51390SOL    HW254197  10.070   3.664   2.808
51391SOL     OW54198  10.169   2.818   2.723
51391SOL    HW154199  10.223   2.749   2.771
51391SOL    HW254200  10.137   2.887   2.789
51392SOL     OW54201  10.393   2.846   1.949
51392SOL    HW154202  10.370   2.899   1.867
51392SOL    HW254203  10.474   2.790   1.930
51393SOL     OW54204  11.171   3.431   2.713
51393SOL    HW154205  11.100   3.419   2.643
51393SOL    HW254206  11.172   3.352   2.773
51394SOL     OW54207   9.531   3.176   3.706
51394SOL    HW154208   9.466   3.103   3.685
51394SOL    HW254209   9.535   3.190   3.804
51395SOL     OW54210   9.389   3.102   2.515
51395SOL    HW154211   9.388   3.055   2.603
51395SOL    HW254212   9.471   3.074   2.464
51396SOL     OW54213   9.982   3.253   3.486
51396SOL    HW154214   9.904   3.203   3.524
51396SOL    HW254215   9.979   3.348   3.517
51397SOL     OW54216  11.134   2.054   3.089
51397SOL    HW154217  11.130   1.964   3.133
51397SOL    HW254218  11.137   2.043   2.990
51398SOL     OW54219   9.738   2.286   2.382
51398SOL    HW154220   9.768   2.214   2.320
51398SOL    HW254221   9.699   2.246   2.465
51399SOL     OW54222  11.015   3.349   2.966
51399SOL    HW154223  10.922   3.324   2.939
51399SOL    HW254224  11.041   3.299   3.048
51400SOL     OW54225   9.627   2.409   3.142
51400SOL    HW154226   9.665   2.350   3.214
51400SOL    HW254227   9.667   2.383   3.054
51401SOL     OW54228  10.122   3.448   2.549
51401SOL    HW154229  10.154   3.458   2.455
51401SOL    HW254230  10.043   3.386   2.551
51402SOL     OW54231  10.734   2.076   2.974
51402SOL    HW154232  10.786   2.011   3.029
51402SOL    HW254233  10.685   2.139   3.035
51403SOL     OW54234  10.311   1.896   3.016
51403SOL    HW154235  10.248   1.824   2.985
51403SOL    HW254236  10.404   1.860   3.016
51404SOL     OW54237  10.080   3.192   2.163
51404SOL    HW154238  10.034   3.105   2.180
51404SOL    HW254239  10.171   3.189   2.204
51405SOL     OW54240   9.928   3.429   3.146
51405SOL    HW154241   9.923   3.511   3.203
51405SOL    HW254242  10.017   3.426   3.101
51406SOL     OW54243  10.662   1.914   2.030
51406SOL    HW154244  10.697   1.873   1.946
51406SOL    HW254245  10.572   1.876   2.050
51407SOL     OW54246  10.610   2.315   2.553
51407SOL    HW154247  10.551   2.395   2.557
51407SOL    HW254248  10.625   2.280   2.646
51408SOL     OW54249  10.903   2.083   2.744
51408SOL    HW154250  10.819   2.082   2.798
51408SOL    HW254251  10.905   2.166   2.688
51409SOL     OW54252   9.349   2.939   2.162
51409SOL    HW154253   9.448   2.928   2.153
51409SOL    HW254254   9.309   2.853   2.194
51410SOL     OW54255  10.185   3.508   2.199
51410SOL    HW154256  10.108   3.473   2.145
51410SOL    HW254257  10.153   3.579   2.261
51411SOL     OW54258   9.540   2.490   3.837
51411SOL    HW154259   9.447   2.488   3.874
51411SOL    HW254260   9.541   2.451   3.745
51412SOL     OW54261   9.535   2.137   4.720
51412SOL    HW154262   9.570   2.120   4.812
51412SOL    HW254263   9.447   2.092   4.708
51413SOL     OW54264   9.329   2.230   4.371
51413SOL    HW154265   9.247   2.273   4.410
51413SOL    HW254266   9.301   2.157   4.308
51414SOL     OW54267   9.879   3.137   4.889
51414SOL    HW154268   9.786   3.130   4.852
51414SOL    HW254269   9.890   3.226   4.933
51415SOL     OW54270  10.865   3.373   4.427
51415SOL    HW154271  10.808   3.357   4.508
51415SOL    HW254272  10.806   3.383   4.347
51416SOL     OW54273  10.445   2.565   4.441
51416SOL    HW154274  10.502   2.643   4.416
51416SOL    HW254275  10.385   2.591   4.517
51417SOL     OW54276  11.065   2.469   3.955
51417SOL    HW154277  11.053   2.456   3.856
51417SOL    HW254278  11.035   2.388   4.004
51418SOL     OW54279  10.078   3.006   4.747
51418SOL    HW154280  10.000   3.023   4.807
51418SOL    HW254281  10.112   3.093   4.711
51419SOL     OW54282  10.160   2.660   5.547
51419SOL    HW154283  10.156   2.736   5.612
51419SOL    HW254284  10.182   2.696   5.456
51420SOL     OW54285   9.995   2.874   4.389
51420SOL    HW154286  10.064   2.858   4.459
51420SOL    HW254287   9.922   2.931   4.427
51421SOL     OW54288   9.996   3.023   5.527
51421SOL    HW154289  10.056   3.102   5.541
51421SOL    HW254290   9.910   3.054   5.486
51422SOL     OW54291   9.645   3.297   4.785
51422SOL    HW154292   9.567   3.266   4.732
51422SOL    HW254293   9.703   3.355   4.728
51423SOL     OW54294  10.770   3.367   5.063
51423SOL    HW154295  10.794   3.461   5.089
51423SOL    HW254296  10.754   3.313   5.145
51424SOL     OW54297   9.748   2.254   5.223
51424SOL    HW154298   9.830   2.198   5.232
51424SOL    HW254299   9.667   2.196   5.227
51425SOL     OW54300  10.913   2.309   4.461
51425SOL    HW154301  10.839   2.355   4.411
51425SOL    HW254302  10.964   2.377   4.514
51426SOL     OW54303   9.541   3.575   4.207
51426SOL    HW154304   9.575   3.652   4.261
51426SOL    HW254305   9.585   3.575   4.117
51427SOL     OW54306  10.437   3.203   5.414
51427SOL    HW154307  10.484   3.203   5.502
51427SOL    HW254308  10.389   3.116   5.403
51428SOL     OW54309   9.540   3.296   4.262
51428SOL    HW154310   9.514   3.392   4.262
51428SOL    HW254311   9.469   3.242   4.307
51429SOL     OW54312   9.550   2.953   4.610
51429SOL    HW154313   9.564   2.869   4.662
51429SOL    HW254314   9.495   3.017   4.665
51430SOL     OW54315   9.930   3.648   5.163
51430SOL    HW154316   9.838   3.631   5.198
51430SOL    HW254317   9.958   3.740   5.189
51431SOL     OW54318   9.916   2.826   3.847
51431SOL    HW154319   9.923   2.910   3.793
51431SOL    HW254320   9.962   2.839   3.935
51432SOL     OW54321  10.904   1.976   5.204
51432SOL    HW154322  10.886   2.043   5.132
51432SOL    HW254323  10.901   2.022   5.293
51433SOL     OW54324   9.432   2.505   4.287
51433SOL    HW154325   9.387   2.417   4.304
51433SOL    HW254326   9.431   2.559   4.371
51434SOL     OW54327  11.152   3.629   4.083
51434SOL    HW154328  11.206   3.600   4.163
51434SOL    HW254329  11.182   3.719   4.054
51435SOL     OW54330   9.337   3.458   3.841
51435SOL    HW154331   9.318   3.362   3.862
51435SOL    HW254332   9.304   3.516   3.916
51436SOL     OW54333  10.999   2.784   4.336
51436SOL    HW154334  11.094   2.755   4.344
51436SOL    HW254335  10.991   2.849   4.261
51437SOL     OW54336  10.951   2.970   4.156
51437SOL    HW154337  11.037   2.972   4.104
51437SOL    HW254338  10.965   3.017   4.244
51438SOL     OW54339   9.423   2.599   5.321
51438SOL    HW154340   9.511   2.586   5.366
51438SOL    HW254341   9.410   2.696   5.299
51439SOL     OW54342   9.923   3.227   4.450
51439SOL    HW154343   9.874   3.140   4.459
51439SOL    HW254344   9.900   3.270   4.363
51440SOL     OW54345  10.603   3.090   5.147
51440SOL    HW154346  10.640   3.017   5.089
51440SOL    HW254347  10.655   3.095   5.232
51441SOL     OW54348  10.119   1.866   4.226
51441SOL    HW154349  10.159   1.957   4.217
51441SOL    HW254350  10.019   1.874   4.232
51442SOL     OW54351   9.507   2.838   4.988
51442SOL    HW154352   9.596   2.793   4.974
51442SOL    HW254353   9.434   2.773   4.969
51443SOL     OW54354  10.835   2.861   3.914
51443SOL    HW154355  10.772   2.785   3.927
51443SOL    HW254356  10.883   2.879   4.000
51444SOL     OW54357  10.497   3.654   5.340
51444SOL    HW154358  10.521   3.714   5.264
51444SOL    HW254359  10.504   3.559   5.310
51445SOL     OW54360   9.627   2.113   5.525
51445SOL    HW154361   9.698   2.184   5.531
51445SOL    HW254362   9.539   2.152   5.553
51446SOL     OW54363  10.776   3.279   4.677
51446SOL    HW154364  10.717   3.285   4.757
51446SOL    HW254365  10.761   3.191   4.631
51447SOL     OW54366  10.977   3.576   4.296
51447SOL    HW154367  10.936   3.553   4.208
51447SOL    HW254368  10.959   3.502   4.361
51448SOL     OW54369   9.908   2.591   3.994
51448SOL    HW154370   9.932   2.660   3.926
51448SOL    HW254371   9.830   2.624   4.048
51449SOL     OW54372  10.591   2.207   4.668
51449SOL    HW154373  10.505   2.157   4.655
51449SOL    HW254374  10.653   2.153   4.724
51450SOL     OW54375  10.886   3.524   4.031
51450SOL    HW154376  10.975   3.570   4.034
51450SOL    HW254377  10.865   3.500   3.936
51451SOL     OW54378  10.117   2.467   5.189
51451SOL    HW154379  10.070   2.464   5.278
51451SOL    HW254380  10.066   2.412   5.123
51452SOL     OW54381  10.704   2.331   5.398
51452SOL    HW154382  10.684   2.374   5.486
51452SOL    HW254383  10.782   2.269   5.407
51453SOL     OW54384  10.283   2.752   5.296
51453SOL    HW154385  10.329   2.668   5.267
51453SOL    HW254386  10.227   2.786   5.221
51454SOL     OW54387  10.301   2.272   4.966
51454SOL    HW154388  10.224   2.306   5.020
51454SOL    HW254389  10.267   2.221   4.887
51455SOL     OW54390  10.351   2.563   4.153
51455SOL    HW154391  10.377   2.559   4.249
51455SOL    HW254392  10.266   2.512   4.139
51456SOL     OW54393   9.386   2.673   4.513
51456SOL    HW154394   9.485   2.661   4.522
51456SOL    HW254395   9.362   2.768   4.534
51457SOL     OW54396   9.440   3.683   5.295
51457SOL    HW154397   9.430   3.668   5.394
51457SOL    HW254398   9.354   3.719   5.259
51458SOL     OW54399  10.175   2.210   3.919
51458SOL    HW154400  10.234   2.273   3.870
51458SOL    HW254401  10.194   2.116   3.890
51459SOL     OW54402  11.029   2.447   5.555
51459SOL    HW154403  11.003   2.536   5.519
51459SOL    HW254404  11.027   2.379   5.482
51460SOL     OW54405  10.672   3.006   4.269
51460SOL    HW154406  10.755   2.977   4.221
51460SOL    HW254407  10.623   3.073   4.213
51461SOL     OW54408   9.860   2.058   4.609
51461SOL    HW154409   9.855   2.053   4.709
51461SOL    HW254410   9.862   2.154   4.580
51462SOL     OW54411  10.318   3.318   4.201
51462SOL    HW154412  10.272   3.390   4.149
51462SOL    HW254413  10.314   3.338   4.299
51463SOL     OW54414   9.661   3.663   4.577
51463SOL    HW154415   9.711   3.577   4.583
51463SOL    HW254416   9.726   3.740   4.574
51464SOL     OW54417  11.105   2.928   4.597
51464SOL    HW154418  11.043   2.913   4.521
51464SOL    HW254419  11.053   2.939   4.682
51465SOL     OW54420  10.537   3.412   5.230
51465SOL    HW154421  10.543   3.335   5.294
51465SOL    HW254422  10.485   3.386   5.150
51466SOL     OW54423   9.631   2.805   3.966
51466SOL    HW154424   9.713   2.844   3.924
51466SOL    HW254425   9.604   2.723   3.917
51467SOL     OW54426  10.768   2.597   4.452
51467SOL    HW154427  10.763   2.532   4.527
51467SOL    HW254428  10.848   2.656   4.465
51468SOL     OW54429   9.771   3.128   5.451
51468SOL    HW154430   9.721   3.129   5.365
51468SOL    HW254431   9.708   3.110   5.527
51469SOL     OW54432  10.421   3.638   3.961
51469SOL    HW154433  10.361   3.576   4.011
51469SOL    HW254434  10.452   3.594   3.876
51470SOL     OW54435   9.512   2.147   5.222
51470SOL    HW154436   9.432   2.207   5.209
51470SOL    HW254437   9.502   2.098   5.308
51471SOL     OW54438  10.942   3.239   3.805
51471SOL    HW154439  10.910   3.333   3.795
51471SOL    HW254440  10.866   3.176   3.793
51472SOL     OW54441   9.774   3.605   4.047
51472SOL    HW154442   9.807   3.644   4.133
51472SOL    HW254443   9.850   3.598   3.982
51473SOL     OW54444  10.710   1.969   4.150
51473SOL    HW154445  10.686   1.932   4.060
51473SOL    HW254446  10.809   1.985   4.154
51474SOL     OW54447   9.559   3.647   4.965
51474SOL    HW154448   9.616   3.582   5.015
51474SOL    HW254449   9.543   3.614   4.872
51475SOL     OW54450  10.250   3.560   4.628
51475SOL    HW154451  10.330   3.503   4.649
51475SOL    HW254452  10.201   3.520   4.551
51476SOL     OW54453   9.692   2.562   4.204
51476SOL    HW154454   9.737   2.472   4.201
51476SOL    HW254455   9.598   2.551   4.237
51477SOL     OW54456  10.857   2.084   5.453
51477SOL    HW154457  10.852   2.121   5.545
51477SOL    HW254458  10.785   2.015   5.441
51478SOL     OW54459   9.924   1.984   3.841
51478SOL    HW154460  10.022   1.962   3.848
51478SOL    HW254461   9.893   1.967   3.748
51479SOL     OW54462  10.091   2.126   5.473
51479SOL    HW154463  10.158   2.065   5.516
51479SOL    HW254464  10.018   2.145   5.538
51480SOL     OW54465  10.198   3.376   4.919
51480SOL    HW154466  10.175   3.351   4.825
51480SOL    HW254467  10.259   3.307   4.958
51481SOL     OW54468  10.661   2.452   5.157
51481SOL    HW154469  10.689   2.409   5.242
51481SOL    HW254470  10.686   2.548   5.158
51482SOL     OW54471  10.113   3.264   4.648
51482SOL    HW154472  10.203   3.278   4.606
51482SOL    HW254473  10.042   3.266   4.577
51483SOL     OW54474  10.232   2.365   4.623
51483SOL    HW154475  10.207   2.356   4.527
51483SOL    HW254476  10.280   2.283   4.654
51484SOL     OW54477   9.849   1.926   4.236
51484SOL    HW154478   9.768   1.927   4.294
51484SOL    HW254479   9.852   2.009   4.181
51485SOL     OW54480  10.744   3.050   3.765
51485SOL    HW154481  10.776   2.974   3.822
51485SOL    HW254482  10.652   3.077   3.795
51486SOL     OW54483   9.607   1.897   3.895
51486SOL    HW154484   9.656   1.981   3.874
51486SOL    HW254485   9.669   1.832   3.940
51487SOL     OW54486  10.245   2.098   4.204
51487SOL    HW154487  10.197   2.139   4.126
51487SOL    HW254488  10.344   2.096   4.185
51488SOL     OW54489  10.386   2.545   5.188
51488SOL    HW154490  10.306   2.484   5.191
51488SOL    HW254491  10.467   2.492   5.164
51489SOL     OW54492  10.537   3.432   4.517
51489SOL    HW154493  10.558   3.506   4.452
51489SOL    HW254494  10.605   3.432   4.590
51490SOL     OW54495   9.769   3.014   4.465
51490SOL    HW154496   9.698   2.987   4.530
51490SOL    HW254497   9.743   2.986   4.372
51491SOL     OW54498  10.581   3.659   4.315
51491SOL    HW154499  10.625   3.723   4.251
51491SOL    HW254500  10.531   3.711   4.385
51492SOL     OW54501  10.342   2.411   3.740
51492SOL    HW154502  10.301   2.493   3.701
51492SOL    HW254503  10.406   2.437   3.813
51493SOL     OW54504   9.388   2.418   5.110
51493SOL    HW154505   9.480   2.417   5.069
51493SOL    HW254506   9.382   2.492   5.177
51494SOL     OW54507   9.871   2.084   4.871
51494SOL    HW154508   9.909   2.000   4.908
51494SOL    HW254509   9.783   2.103   4.915
51495SOL     OW54510  10.176   2.316   4.366
51495SOL    HW154511  10.144   2.388   4.304
51495SOL    HW254512  10.200   2.235   4.313
51496SOL     OW54513  10.327   1.901   4.477
51496SOL    HW154514  10.255   1.906   4.408
51496SOL    HW254515  10.303   1.832   4.546
51497SOL     OW54516  10.739   3.035   4.591
51497SOL    HW154517  10.684   2.951   4.584
51497SOL    HW254518  10.765   3.064   4.499
51498SOL     OW54519  10.776   2.452   4.716
51498SOL    HW154520  10.746   2.357   4.723
51498SOL    HW254521  10.849   2.468   4.782
51499SOL     OW54522  11.167   2.695   4.101
51499SOL    HW154523  11.209   2.631   4.165
51499SOL    HW254524  11.129   2.644   4.023
51500SOL     OW54525   9.798   3.247   3.898
51500SOL    HW154526   9.711   3.232   3.945
51500SOL    HW254527   9.781   3.273   3.803
51501SOL     OW54528  10.974   3.142   4.381
51501SOL    HW154529  11.073   3.150   4.395
51501SOL    HW254530  10.929   3.226   4.412
51502SOL     OW54531  10.700   2.437   3.802
51502SOL    HW154532  10.646   2.416   3.883
51502SOL    HW254533  10.791   2.396   3.811
51503SOL     OW54534   9.837   2.118   4.052
51503SOL    HW154535   9.864   2.059   3.977
51503SOL    HW254536   9.837   2.213   4.021
51504SOL     OW54537  11.064   3.085   5.312
51504SOL    HW154538  11.155   3.046   5.299
51504SOL    HW254539  11.072   3.181   5.336
51505SOL     OW54540  10.374   3.209   5.064
51505SOL    HW154541  10.294   3.186   5.119
51505SOL    HW254542  10.457   3.183   5.113
51506SOL     OW54543  10.902   3.491   5.349
51506SOL    HW154544  10.929   3.525   5.259
51506SOL    HW254545  10.981   3.453   5.395
51507SOL     OW54546  10.421   3.057   4.824
51507SOL    HW154547  10.381   3.101   4.905
51507SOL    HW254548  10.380   3.094   4.741
51508SOL     OW54549  10.948   2.961   4.803
51508SOL    HW154550  10.953   3.042   4.862
51508SOL    HW254551  10.862   2.963   4.752
51509SOL     OW54552  10.225   1.951   5.126
51509SOL    HW154553  10.250   1.931   5.031
51509SOL    HW254554  10.297   2.007   5.168
51510SOL     OW54555  10.290   2.978   5.443
51510SOL    HW154556  10.191   2.984   5.453
51510SOL    HW254557  10.313   2.898   5.387
51511SOL     OW54558  10.015   2.912   4.092
51511SOL    HW154559  10.001   2.919   4.191
51511SOL    HW254560  10.099   2.861   4.074
51512SOL     OW54561   9.720   2.675   4.975
51512SOL    HW154562   9.806   2.687   5.025
51512SOL    HW254563   9.678   2.588   5.002
51513SOL     OW54564  10.584   2.248   4.986
51513SOL    HW154565  10.605   2.322   5.050
51513SOL    HW254566  10.495   2.265   4.943
51514SOL     OW54567   9.374   3.426   5.055
51514SOL    HW154568   9.328   3.508   5.021
51514SOL    HW254569   9.472   3.445   5.064
51515SOL     OW54570   9.677   2.962   4.225
51515SOL    HW154571   9.670   3.045   4.169
51515SOL    HW254572   9.681   2.882   4.165
51516SOL     OW54573   9.876   2.399   4.589
51516SOL    HW154574   9.888   2.465   4.515
51516SOL    HW254575   9.922   2.433   4.672
51517SOL     OW54576  10.562   3.210   4.112
51517SOL    HW154577  10.612   3.287   4.152
51517SOL    HW254578  10.467   3.212   4.144
51518SOL     OW54579  10.582   3.307   4.866
51518SOL    HW154580  10.629   3.320   4.953
51518SOL    HW254581  10.516   3.233   4.875
51519SOL     OW54582  10.892   2.501   4.196
51519SOL    HW154583  10.861   2.562   4.269
51519SOL    HW254584  10.942   2.553   4.127
51520SOL     OW54585   9.664   3.372   5.053
51520SOL    HW154586   9.643   3.328   4.966
51520SOL    HW254587   9.761   3.398   5.056
51521SOL     OW54588   9.712   2.613   5.322
51521SOL    HW154589   9.780   2.668   5.275
51521SOL    HW254590   9.752   2.525   5.349
51522SOL     OW54591  10.897   2.641   5.394
51522SOL    HW154592  10.805   2.679   5.389
51522SOL    HW254593  10.957   2.688   5.329
51523SOL     OW54594  10.323   1.967   5.494
51523SOL    HW154595  10.329   2.052   5.442
51523SOL    HW254596  10.355   1.891   5.437
51524SOL     OW54597   9.814   1.912   5.464
51524SOL    HW154598   9.772   1.855   5.394
51524SOL    HW254599   9.748   1.981   5.496
51525SOL     OW54600   9.883   2.732   4.753
51525SOL    HW154601   9.927   2.821   4.744
51525SOL    HW254602   9.820   2.732   4.830
51526SOL     OW54603  10.670   2.724   4.769
51526SOL    HW154604  10.595   2.724   4.703
51526SOL    HW254605  10.707   2.632   4.778
51527SOL     OW54606  10.519   2.387   3.999
51527SOL    HW154607  10.532   2.303   4.053
51527SOL    HW254608  10.490   2.461   4.059
51528SOL     OW54609   9.617   2.075   4.955
51528SOL    HW154610   9.594   2.112   5.045
51528SOL    HW254611   9.587   1.980   4.949
51529SOL     OW54612   9.347   3.172   5.006
51529SOL    HW154613   9.400   3.123   5.074
51529SOL    HW254614   9.369   3.270   5.011
51530SOL     OW54615  10.042   2.496   4.788
51530SOL    HW154616  10.101   2.470   4.712
51530SOL    HW254617  10.014   2.592   4.777
51531SOL     OW54618  11.038   2.797   5.578
51531SOL    HW154619  10.992   2.790   5.489
51531SOL    HW254620  10.976   2.841   5.644
51532SOL     OW54621   9.617   1.925   4.342
51532SOL    HW154622   9.606   2.019   4.375
51532SOL    HW254623   9.612   1.862   4.419
51533SOL     OW54624  10.932   2.229   4.098
51533SOL    HW154625  10.934   2.153   4.162
51533SOL    HW254626  10.884   2.306   4.138
51534SOL     OW54627  10.333   2.628   4.690
51534SOL    HW154628  10.348   2.649   4.786
51534SOL    HW254629  10.303   2.533   4.681
51535SOL     OW54630  10.290   3.435   5.424
51535SOL    HW154631  10.270   3.479   5.336
51535SOL    HW254632  10.329   3.344   5.408
51536SOL     OW54633  11.169   3.380   5.329
51536SOL    HW154634  11.183   3.407   5.234
51536SOL    HW254635  11.252   3.402   5.382
51537SOL     OW54636   9.660   2.760   5.528
51537SOL    HW154637   9.736   2.804   5.576
51537SOL    HW254638   9.695   2.713   5.446
51538SOL     OW54639  10.850   2.136   3.849
51538SOL    HW154640  10.789   2.061   3.872
51538SOL    HW254641  10.872   2.188   3.932
51539SOL     OW54642  10.613   2.700   3.766
51539SOL    HW154643  10.647   2.607   3.781
51539SOL    HW254644  10.631   2.727   3.671
51540SOL     OW54645  10.378   3.195   4.573
51540SOL    HW154646  10.385   3.111   4.518
51540SOL    HW254647  10.440   3.264   4.537
51541SOL     OW54648   9.629   2.672   4.673
51541SOL    HW154649   9.722   2.708   4.678
51541SOL    HW254650   9.623   2.587   4.725
51542SOL     OW54651   9.649   2.371   4.730
51542SOL    HW154652   9.597   2.288   4.713
51542SOL    HW254653   9.726   2.376   4.666
51543SOL     OW54654  10.448   2.242   5.402
51543SOL    HW154655  10.403   2.305   5.466
51543SOL    HW254656  10.541   2.273   5.385
51544SOL     OW54657  10.470   2.069   5.201
51544SOL    HW154658  10.470   2.133   5.278
51544SOL    HW254659  10.498   2.117   5.118
51545SOL     OW54660   9.318   3.188   3.924
51545SOL    HW154661   9.225   3.209   3.893
51545SOL    HW254662   9.328   3.089   3.937
51546SOL     OW54663   9.398   3.663   4.651
51546SOL    HW154664   9.356   3.577   4.624
51546SOL    HW254665   9.492   3.666   4.617
51547SOL     OW54666   9.814   3.430   4.634
51547SOL    HW154667   9.880   3.504   4.643
51547SOL    HW254668   9.858   3.351   4.592
51548SOL     OW54669  10.312   2.658   4.962
51548SOL    HW154670  10.353   2.626   5.048
51548SOL    HW254671  10.216   2.631   4.959
51549SOL     OW54672   9.350   2.406   4.838
51549SOL    HW154673   9.435   2.373   4.797
51549SOL    HW254674   9.363   2.421   4.936
51550SOL     OW54675   9.499   2.382   5.446
51550SOL    HW154676   9.558   2.342   5.376
51550SOL    HW254677   9.441   2.453   5.405
51551SOL     OW54678  10.679   2.812   5.384
51551SOL    HW154679  10.718   2.901   5.404
51551SOL    HW254680  10.689   2.792   5.287
51552SOL     OW54681  10.125   2.434   4.049
51552SOL    HW154682  10.132   2.345   4.003
51552SOL    HW254683  10.031   2.468   4.041
51553SOL     OW54684  10.967   2.466   4.930
51553SOL    HW154685  10.929   2.397   4.992
51553SOL    HW254686  11.049   2.430   4.886
51554SOL     OW54687   9.562   3.426   5.468
51554SOL    HW154688   9.532   3.483   5.544
51554SOL    HW254689   9.555   3.329   5.494
51555SOL     OW54690   9.981   2.326   4.993
51555SOL    HW154691   9.947   2.237   4.963
51555SOL    HW254692  10.007   2.380   4.913
51556SOL     OW54693  10.240   3.540   5.189
51556SOL    HW154694  10.216   3.522   5.094
51556SOL    HW254695  10.270   3.634   5.199
51557SOL     OW54696   9.783   2.362   3.915
51557SOL    HW154697   9.844   2.442   3.919
51557SOL    HW254698   9.688   2.393   3.922
51558SOL     OW54699   9.469   2.999   5.190
51558SOL    HW154700   9.491   2.938   5.266
51558SOL    HW254701   9.479   2.950   5.104
51559SOL     OW54702  10.657   2.921   4.958
51559SOL    HW154703  10.681   2.858   4.884
51559SOL    HW254704  10.567   2.961   4.940
51560SOL     OW54705  10.612   2.717   4.033
51560SOL    HW154706  10.526   2.686   4.075
51560SOL    HW254707  10.608   2.703   3.934
51561SOL     OW54708  11.069   3.609   4.878
51561SOL    HW154709  11.130   3.639   4.805
51561SOL    HW254710  11.031   3.520   4.856
51562SOL     OW54711  10.562   3.593   4.852
51562SOL    HW154712  10.646   3.598   4.798
51562SOL    HW254713  10.539   3.497   4.870
51563SOL     OW54714   9.393   3.120   4.746
51563SOL    HW154715   9.388   3.119   4.846
51563SOL    HW254716   9.310   3.079   4.708
51564SOL     OW54717   9.998   3.524   5.440
51564SOL    HW154718   9.942   3.605   5.449
51564SOL    HW254719  10.050   3.528   5.354
51565SOL     OW54720  11.036   1.997   4.247
51565SOL    HW154721  11.109   1.980   4.180
51565SOL    HW254722  11.005   1.910   4.285
51566SOL     OW54723  10.698   3.435   4.201
51566SOL    HW154724  10.765   3.447   4.127
51566SOL    HW254725  10.658   3.524   4.224
51567SOL     OW54726   9.440   3.656   5.575
51567SOL    HW154727   9.399   3.582   5.628
51567SOL    HW254728   9.504   3.707   5.633
51568SOL     OW54729  10.590   2.789   4.396
51568SOL    HW154730  10.650   2.708   4.398
51568SOL    HW254731  10.630   2.858   4.336
51569SOL     OW54732  10.140   3.135   5.146
51569SOL    HW154733  10.135   3.168   5.241
51569SOL    HW254734  10.054   3.154   5.100
51570SOL     OW54735   9.982   3.478   3.878
51570SOL    HW154736   9.991   3.488   3.779
51570SOL    HW254737   9.942   3.389   3.899
51571SOL     OW54738  10.960   3.582   5.118
51571SOL    HW154739  11.013   3.592   5.034
51571SOL    HW254740  10.933   3.672   5.152
51572SOL     OW54741  11.151   2.037   4.687
51572SOL    HW154742  11.190   1.952   4.651
51572SOL    HW254743  11.053   2.039   4.668
51573SOL     OW54744   9.573   2.188   4.444
51573SOL    HW154745   9.494   2.239   4.410
51573SOL    HW254746   9.564   2.173   4.542
51574SOL     OW54747  10.504   3.474   3.755
51574SOL    HW154748  10.510   3.381   3.792
51574SOL    HW254749  10.445   3.474   3.675
51575SOL     OW54750  10.132   2.864   5.096
51575SOL    HW154751  10.172   2.863   5.004
51575SOL    HW254752  10.142   2.956   5.136
51576SOL     OW54753  10.226   2.772   4.015
51576SOL    HW154754  10.289   2.810   3.947
51576SOL    HW254755  10.266   2.689   4.054
51577SOL     OW54756  10.814   3.469   3.768
51577SOL    HW154757  10.722   3.506   3.775
51577SOL    HW254758  10.852   3.489   3.678
51578SOL     OW54759   9.682   3.150   5.214
51578SOL    HW154760   9.669   3.243   5.180
51578SOL    HW254761   9.598   3.098   5.201
51579SOL     OW54762  10.924   3.154   5.013
51579SOL    HW154763  10.984   3.157   5.093
51579SOL    HW254764  10.849   3.218   5.026
51580SOL     OW54765  10.349   2.960   4.420
51580SOL    HW154766  10.279   2.913   4.474
51580SOL    HW254767  10.408   2.892   4.377
51581SOL     OW54768  10.324   2.098   4.695
51581SOL    HW154769  10.316   2.062   4.602
51581SOL    HW254770  10.322   2.022   4.760
51582SOL     OW54771   9.900   3.349   4.215
51582SOL    HW154772   9.942   3.291   4.145
51582SOL    HW254773   9.856   3.428   4.171
51583SOL     OW54774  11.019   2.247   5.105
51583SOL    HW154775  11.092   2.316   5.109
51583SOL    HW254776  11.047   2.172   5.046
51584SOL     OW54777   9.565   3.210   4.014
51584SOL    HW154778   9.469   3.211   3.987
51584SOL    HW254779   9.577   3.263   4.098
51585SOL     OW54780   9.415   2.875   5.450
51585SOL    HW154781   9.338   2.842   5.504
51585SOL    HW254782   9.500   2.845   5.492
51586SOL     OW54783   9.982   2.065   5.213
51586SOL    HW154784  10.072   2.049   5.173
51586SOL    HW254785   9.990   2.070   5.312
51587SOL     OW54786   9.385   2.207   3.757
51587SOL    HW154787   9.293   2.179   3.728
51587SOL    HW254788   9.416   2.284   3.701
51588SOL     OW54789  10.750   2.718   5.122
51588SOL    HW154790  10.693   2.770   5.059
51588SOL    HW254791  10.846   2.730   5.098
51589SOL     OW54792   9.382   2.028   4.042
51589SOL    HW154793   9.365   2.111   3.988
51589SOL    HW254794   9.472   1.991   4.020
51590SOL     OW54795  10.493   3.197   3.843
51590SOL    HW154796  10.394   3.186   3.845
51590SOL    HW254797  10.527   3.212   3.936
51591SOL     OW54798   9.923   2.704   5.155
51591SOL    HW154799   9.979   2.785   5.138
51591SOL    HW254800   9.982   2.624   5.158
51592SOL     OW54801  10.803   3.629   4.683
51592SOL    HW154802  10.836   3.693   4.614
51592SOL    HW254803  10.869   3.623   4.758
51593SOL     OW54804  10.026   2.427   5.432
51593SOL    HW154805  10.045   2.492   5.506
51593SOL    HW254806  10.086   2.347   5.441
51594SOL     OW54807  10.760   3.082   5.357
51594SOL    HW154808  10.751   3.072   5.456
51594SOL    HW254809  10.856   3.075   5.331
51595SOL     OW54810   9.700   3.603   5.284
51595SOL    HW154811   9.609   3.644   5.282
51595SOL    HW254812   9.693   3.509   5.316
51596SOL     OW54813  10.984   2.745   4.978
51596SOL    HW154814  10.957   2.656   4.941
51596SOL    HW254815  10.985   2.813   4.905
51597SOL     OW54816  10.535   2.187   4.173
51597SOL    HW154817  10.600   2.113   4.162
51597SOL    HW254818  10.555   2.237   4.257
51598SOL     OW54819   9.904   2.607   4.376
51598SOL    HW154820   9.954   2.692   4.357
51598SOL    HW254821   9.816   2.609   4.328
51599SOL     OW54822  11.087   2.204   5.366
51599SOL    HW154823  11.070   2.235   5.272
51599SOL    HW254824  11.003   2.167   5.404
51600SOL     OW54825  11.040   2.796   5.241
51600SOL    HW154826  11.078   2.887   5.256
51600SOL    HW254827  11.032   2.779   5.142
51601SOL     OW54828  10.169   3.236   3.740
51601SOL    HW154829  10.123   3.251   3.828
51601SOL    HW254830  10.213   3.321   3.710
51602SOL     OW54831   9.971   3.652   4.677
51602SOL    HW154832   9.925   3.740   4.664
51602SOL    HW254833  10.070   3.664   4.670
51603SOL     OW54834  10.169   2.818   4.585
51603SOL    HW154835  10.223   2.749   4.633
51603SOL    HW254836  10.137   2.887   4.651
51604SOL     OW54837  10.393   2.846   3.811
51604SOL    HW154838  10.370   2.899   3.729
51604SOL    HW254839  10.474   2.790   3.792
51605SOL     OW54840  11.171   3.431   4.575
51605SOL    HW154841  11.100   3.419   4.505
51605SOL    HW254842  11.172   3.352   4.635
51606SOL     OW54843   9.531   3.176   5.568
51606SOL    HW154844   9.466   3.103   5.547
51606SOL    HW254845   9.535   3.190   5.666
51607SOL     OW54846   9.389   3.102   4.377
51607SOL    HW154847   9.388   3.055   4.465
51607SOL    HW254848   9.471   3.074   4.326
51608SOL     OW54849   9.982   3.253   5.348
51608SOL    HW154850   9.904   3.203   5.386
51608SOL    HW254851   9.979   3.348   5.379
51609SOL     OW54852  11.134   2.054   4.951
51609SOL    HW154853  11.130   1.964   4.995
51609SOL    HW254854  11.137   2.043   4.852
51610SOL     OW54855   9.738   2.286   4.244
51610SOL    HW154856   9.768   2.214   4.182
51610SOL    HW254857   9.699   2.246   4.327
51611SOL     OW54858  11.015   3.349   4.828
51611SOL    HW154859  10.922   3.324   4.801
51611SOL    HW254860  11.041   3.299   4.910
51612SOL     OW54861   9.627   2.409   5.004
51612SOL    HW154862   9.665   2.350   5.076
51612SOL    HW254863   9.667   2.383   4.916
51613SOL     OW54864  10.122   3.448   4.411
51613SOL    HW154865  10.154   3.458   4.317
51613SOL    HW254866  10.043   3.386   4.413
51614SOL     OW54867  10.734   2.076   4.836
51614SOL    HW154868  10.786   2.011   4.891
51614SOL    HW254869  10.685   2.139   4.897
51615SOL     OW54870  10.311   1.896   4.878
51615SOL    HW154871  10.248   1.824   4.847
51615SOL    HW254872  10.404   1.860   4.878
51616SOL     OW54873  10.080   3.192   4.025
51616SOL    HW154874  10.034   3.105   4.042
51616SOL    HW254875  10.171   3.189   4.066
51617SOL     OW54876   9.928   3.429   5.008
51617SOL    HW154877   9.923   3.511   5.065
51617SOL    HW254878  10.017   3.426   4.963
51618SOL     OW54879  10.662   1.914   3.892
51618SOL    HW154880  10.697   1.873   3.808
51618SOL    HW254881  10.572   1.876   3.912
51619SOL     OW54882  10.610   2.315   4.415
51619SOL    HW154883  10.551   2.395   4.419
51619SOL    HW254884  10.625   2.280   4.508
51620SOL     OW54885  10.903   2.083   4.606
51620SOL    HW154886  10.819   2.082   4.660
51620SOL    HW254887  10.905   2.166   4.550
51621SOL     OW54888   9.349   2.939   4.024
51621SOL    HW154889   9.448   2.928   4.015
51621SOL    HW254890   9.309   2.853   4.056
51622SOL     OW54891  10.185   3.508   4.061
51622SOL    HW154892  10.108   3.473   4.007
51622SOL    HW254893  10.153   3.579   4.123
51623SOL     OW54894   9.540   2.490   5.699
51623SOL    HW154895   9.447   2.488   5.736
51623SOL    HW254896   9.541   2.451   5.607
51624SOL     OW54897   9.535   2.137   6.582
51624SOL    HW154898   9.570   2.120   6.674
51624SOL    HW254899   9.447   2.092   6.570
51625SOL     OW54900   9.329   2.230   6.233
51625SOL    HW154901   9.247   2.273   6.272
51625SOL    HW254902   9.301   2.157   6.170
51626SOL     OW54903   9.879   3.137   6.751
51626SOL    HW154904   9.786   3.130   6.714
51626SOL    HW254905   9.890   3.226   6.795
51627SOL     OW54906  10.865   3.373   6.289
51627SOL    HW154907  10.808   3.357   6.370
51627SOL    HW254908  10.806   3.383   6.209
51628SOL     OW54909  10.445   2.565   6.303
51628SOL    HW154910  10.502   2.643   6.278
51628SOL    HW254911  10.385   2.591   6.379
51629SOL     OW54912  11.065   2.469   5.817
51629SOL    HW154913  11.053   2.456   5.718
51629SOL    HW254914  11.035   2.388   5.866
51630SOL     OW54915  10.078   3.006   6.609
51630SOL    HW154916  10.000   3.023   6.669
51630SOL    HW254917  10.112   3.093   6.573
51631SOL     OW54918  10.160   2.660   7.409
51631SOL    HW154919  10.156   2.736   7.474
51631SOL    HW254920  10.182   2.696   7.318
51632SOL     OW54921   9.995   2.874   6.251
51632SOL    HW154922  10.064   2.858   6.321
51632SOL    HW254923   9.922   2.931   6.289
51633SOL     OW54924   9.996   3.023   7.389
51633SOL    HW154925  10.056   3.102   7.403
51633SOL    HW254926   9.910   3.054   7.348
51634SOL     OW54927   9.645   3.297   6.647
51634SOL    HW154928   9.567   3.266   6.594
51634SOL    HW254929   9.703   3.355   6.590
51635SOL     OW54930  10.770   3.367   6.925
51635SOL    HW154931  10.794   3.461   6.951
51635SOL    HW254932  10.754   3.313   7.007
51636SOL     OW54933   9.748   2.254   7.085
51636SOL    HW154934   9.830   2.198   7.094
51636SOL    HW254935   9.667   2.196   7.089
51637SOL     OW54936  10.913   2.309   6.323
51637SOL    HW154937  10.839   2.355   6.273
51637SOL    HW254938  10.964   2.377   6.376
51638SOL     OW54939   9.541   3.575   6.069
51638SOL    HW154940   9.575   3.652   6.123
51638SOL    HW254941   9.585   3.575   5.979
51639SOL     OW54942  10.437   3.203   7.276
51639SOL    HW154943  10.484   3.203   7.364
51639SOL    HW254944  10.389   3.116   7.265
51640SOL     OW54945   9.540   3.296   6.124
51640SOL    HW154946   9.514   3.392   6.124
51640SOL    HW254947   9.469   3.242   6.169
51641SOL     OW54948   9.550   2.953   6.472
51641SOL    HW154949   9.564   2.869   6.524
51641SOL    HW254950   9.495   3.017   6.527
51642SOL     OW54951   9.930   3.648   7.025
51642SOL    HW154952   9.838   3.631   7.060
51642SOL    HW254953   9.958   3.740   7.051
51643SOL     OW54954   9.916   2.826   5.709
51643SOL    HW154955   9.923   2.910   5.655
51643SOL    HW254956   9.962   2.839   5.797
51644SOL     OW54957  10.904   1.976   7.066
51644SOL    HW154958  10.886   2.043   6.994
51644SOL    HW254959  10.901   2.022   7.155
51645SOL     OW54960   9.432   2.505   6.149
51645SOL    HW154961   9.387   2.417   6.166
51645SOL    HW254962   9.431   2.559   6.233
51646SOL     OW54963  11.152   3.629   5.945
51646SOL    HW154964  11.206   3.600   6.025
51646SOL    HW254965  11.182   3.719   5.916
51647SOL     OW54966   9.337   3.458   5.703
51647SOL    HW154967   9.318   3.362   5.724
51647SOL    HW254968   9.304   3.516   5.778
51648SOL     OW54969  10.999   2.784   6.198
51648SOL    HW154970  11.094   2.755   6.206
51648SOL    HW254971  10.991   2.849   6.123
51649SOL     OW54972  10.951   2.970   6.018
51649SOL    HW154973  11.037   2.972   5.966
51649SOL    HW254974  10.965   3.017   6.106
51650SOL     OW54975   9.423   2.599   7.183
51650SOL    HW154976   9.511   2.586   7.228
51650SOL    HW254977   9.410   2.696   7.161
51651SOL     OW54978   9.923   3.227   6.312
51651SOL    HW154979   9.874   3.140   6.321
51651SOL    HW254980   9.900   3.270   6.225
51652SOL     OW54981  10.603   3.090   7.009
51652SOL    HW154982  10.640   3.017   6.951
51652SOL    HW254983  10.655   3.095   7.094
51653SOL     OW54984  10.119   1.866   6.088
51653SOL    HW154985  10.159   1.957   6.079
51653SOL    HW254986  10.019   1.874   6.094
51654SOL     OW54987   9.507   2.838   6.850
51654SOL    HW154988   9.596   2.793   6.836
51654SOL    HW254989   9.434   2.773   6.831
51655SOL     OW54990  10.835   2.861   5.776
51655SOL    HW154991  10.772   2.785   5.789
51655SOL    HW254992  10.883   2.879   5.862
51656SOL     OW54993  10.497   3.654   7.202
51656SOL    HW154994  10.521   3.714   7.126
51656SOL    HW254995  10.504   3.559   7.172
51657SOL     OW54996   9.627   2.113   7.387
51657SOL    HW154997   9.698   2.184   7.393
51657SOL    HW254998   9.539   2.152   7.415
51658SOL     OW54999  10.776   3.279   6.539
51658SOL    HW155000  10.717   3.285   6.619
51658SOL    HW255001  10.761   3.191   6.493
51659SOL     OW55002  10.977   3.576   6.158
51659SOL    HW155003  10.936   3.553   6.070
51659SOL    HW255004  10.959   3.502   6.223
51660SOL     OW55005   9.908   2.591   5.856
51660SOL    HW155006   9.932   2.660   5.788
51660SOL    HW255007   9.830   2.624   5.910
51661SOL     OW55008  10.591   2.207   6.530
51661SOL    HW155009  10.505   2.157   6.517
51661SOL    HW255010  10.653   2.153   6.586
51662SOL     OW55011  10.886   3.524   5.893
51662SOL    HW155012  10.975   3.570   5.896
51662SOL    HW255013  10.865   3.500   5.798
51663SOL     OW55014  10.117   2.467   7.051
51663SOL    HW155015  10.070   2.464   7.140
51663SOL    HW255016  10.066   2.412   6.985
51664SOL     OW55017  10.704   2.331   7.260
51664SOL    HW155018  10.684   2.374   7.348
51664SOL    HW255019  10.782   2.269   7.269
51665SOL     OW55020  10.283   2.752   7.158
51665SOL    HW155021  10.329   2.668   7.129
51665SOL    HW255022  10.227   2.786   7.083
51666SOL     OW55023  10.301   2.272   6.828
51666SOL    HW155024  10.224   2.306   6.882
51666SOL    HW255025  10.267   2.221   6.749
51667SOL     OW55026  10.351   2.563   6.015
51667SOL    HW155027  10.377   2.559   6.111
51667SOL    HW255028  10.266   2.512   6.001
51668SOL     OW55029   9.386   2.673   6.375
51668SOL    HW155030   9.485   2.661   6.384
51668SOL    HW255031   9.362   2.768   6.396
51669SOL     OW55032   9.440   3.683   7.157
51669SOL    HW155033   9.430   3.668   7.256
51669SOL    HW255034   9.354   3.719   7.121
51670SOL     OW55035  10.175   2.210   5.781
51670SOL    HW155036  10.234   2.273   5.732
51670SOL    HW255037  10.194   2.116   5.752
51671SOL     OW55038  11.029   2.447   7.417
51671SOL    HW155039  11.003   2.536   7.381
51671SOL    HW255040  11.027   2.379   7.344
51672SOL     OW55041  10.672   3.006   6.131
51672SOL    HW155042  10.755   2.977   6.083
51672SOL    HW255043  10.623   3.073   6.075
51673SOL     OW55044   9.860   2.058   6.471
51673SOL    HW155045   9.855   2.053   6.571
51673SOL    HW255046   9.862   2.154   6.442
51674SOL     OW55047  10.318   3.318   6.063
51674SOL    HW155048  10.272   3.390   6.011
51674SOL    HW255049  10.314   3.338   6.161
51675SOL     OW55050   9.661   3.663   6.439
51675SOL    HW155051   9.711   3.577   6.445
51675SOL    HW255052   9.726   3.740   6.436
51676SOL     OW55053  11.105   2.928   6.459
51676SOL    HW155054  11.043   2.913   6.383
51676SOL    HW255055  11.053   2.939   6.544
51677SOL     OW55056  10.537   3.412   7.092
51677SOL    HW155057  10.543   3.335   7.156
51677SOL    HW255058  10.485   3.386   7.012
51678SOL     OW55059   9.631   2.805   5.828
51678SOL    HW155060   9.713   2.844   5.786
51678SOL    HW255061   9.604   2.723   5.779
51679SOL     OW55062  10.768   2.597   6.314
51679SOL    HW155063  10.763   2.532   6.389
51679SOL    HW255064  10.848   2.656   6.327
51680SOL     OW55065   9.771   3.128   7.313
51680SOL    HW155066   9.721   3.129   7.227
51680SOL    HW255067   9.708   3.110   7.389
51681SOL     OW55068  10.421   3.638   5.823
51681SOL    HW155069  10.361   3.576   5.873
51681SOL    HW255070  10.452   3.594   5.738
51682SOL     OW55071   9.512   2.147   7.084
51682SOL    HW155072   9.432   2.207   7.071
51682SOL    HW255073   9.502   2.098   7.170
51683SOL     OW55074  10.942   3.239   5.667
51683SOL    HW155075  10.910   3.333   5.657
51683SOL    HW255076  10.866   3.176   5.655
51684SOL     OW55077   9.774   3.605   5.909
51684SOL    HW155078   9.807   3.644   5.995
51684SOL    HW255079   9.850   3.598   5.844
51685SOL     OW55080  10.710   1.969   6.012
51685SOL    HW155081  10.686   1.932   5.922
51685SOL    HW255082  10.809   1.985   6.016
51686SOL     OW55083   9.559   3.647   6.827
51686SOL    HW155084   9.616   3.582   6.877
51686SOL    HW255085   9.543   3.614   6.734
51687SOL     OW55086  10.250   3.560   6.490
51687SOL    HW155087  10.330   3.503   6.511
51687SOL    HW255088  10.201   3.520   6.413
51688SOL     OW55089   9.692   2.562   6.066
51688SOL    HW155090   9.737   2.472   6.063
51688SOL    HW255091   9.598   2.551   6.099
51689SOL     OW55092  10.857   2.084   7.315
51689SOL    HW155093  10.852   2.121   7.407
51689SOL    HW255094  10.785   2.015   7.303
51690SOL     OW55095   9.924   1.984   5.703
51690SOL    HW155096  10.022   1.962   5.710
51690SOL    HW255097   9.893   1.967   5.610
51691SOL     OW55098  10.091   2.126   7.335
51691SOL    HW155099  10.158   2.065   7.378
51691SOL    HW255100  10.018   2.145   7.400
51692SOL     OW55101  10.198   3.376   6.781
51692SOL    HW155102  10.175   3.351   6.687
51692SOL    HW255103  10.259   3.307   6.820
51693SOL     OW55104  10.661   2.452   7.019
51693SOL    HW155105  10.689   2.409   7.104
51693SOL    HW255106  10.686   2.548   7.020
51694SOL     OW55107  10.113   3.264   6.510
51694SOL    HW155108  10.203   3.278   6.468
51694SOL    HW255109  10.042   3.266   6.439
51695SOL     OW55110  10.232   2.365   6.485
51695SOL    HW155111  10.207   2.356   6.389
51695SOL    HW255112  10.280   2.283   6.516
51696SOL     OW55113   9.849   1.926   6.098
51696SOL    HW155114   9.768   1.927   6.156
51696SOL    HW255115   9.852   2.009   6.043
51697SOL     OW55116  10.744   3.050   5.627
51697SOL    HW155117  10.776   2.974   5.684
51697SOL    HW255118  10.652   3.077   5.657
51698SOL     OW55119   9.607   1.897   5.757
51698SOL    HW155120   9.656   1.981   5.736
51698SOL    HW255121   9.669   1.832   5.802
51699SOL     OW55122  10.245   2.098   6.066
51699SOL    HW155123  10.197   2.139   5.988
51699SOL    HW255124  10.344   2.096   6.047
51700SOL     OW55125  10.386   2.545   7.050
51700SOL    HW155126  10.306   2.484   7.053
51700SOL    HW255127  10.467   2.492   7.026
51701SOL     OW55128  10.537   3.432   6.379
51701SOL    HW155129  10.558   3.506   6.314
51701SOL    HW255130  10.605   3.432   6.452
51702SOL     OW55131   9.769   3.014   6.327
51702SOL    HW155132   9.698   2.987   6.392
51702SOL    HW255133   9.743   2.986   6.234
51703SOL     OW55134  10.581   3.659   6.177
51703SOL    HW155135  10.625   3.723   6.113
51703SOL    HW255136  10.531   3.711   6.247
51704SOL     OW55137  10.342   2.411   5.602
51704SOL    HW155138  10.301   2.493   5.563
51704SOL    HW255139  10.406   2.437   5.675
51705SOL     OW55140   9.388   2.418   6.972
51705SOL    HW155141   9.480   2.417   6.931
51705SOL    HW255142   9.382   2.492   7.039
51706SOL     OW55143   9.871   2.084   6.733
51706SOL    HW155144   9.909   2.000   6.770
51706SOL    HW255145   9.783   2.103   6.777
51707SOL     OW55146  10.176   2.316   6.228
51707SOL    HW155147  10.144   2.388   6.166
51707SOL    HW255148  10.200   2.235   6.175
51708SOL     OW55149  10.327   1.901   6.339
51708SOL    HW155150  10.255   1.906   6.270
51708SOL    HW255151  10.303   1.832   6.408
51709SOL     OW55152  10.739   3.035   6.453
51709SOL    HW155153  10.684   2.951   6.446
51709SOL    HW255154  10.765   3.064   6.361
51710SOL     OW55155  10.776   2.452   6.578
51710SOL    HW155156  10.746   2.357   6.585
51710SOL    HW255157  10.849   2.468   6.644
51711SOL     OW55158  11.167   2.695   5.963
51711SOL    HW155159  11.209   2.631   6.027
51711SOL    HW255160  11.129   2.644   5.885
51712SOL     OW55161   9.798   3.247   5.760
51712SOL    HW155162   9.711   3.232   5.807
51712SOL    HW255163   9.781   3.273   5.665
51713SOL     OW55164  10.974   3.142   6.243
51713SOL    HW155165  11.073   3.150   6.257
51713SOL    HW255166  10.929   3.226   6.274
51714SOL     OW55167  10.700   2.437   5.664
51714SOL    HW155168  10.646   2.416   5.745
51714SOL    HW255169  10.791   2.396   5.673
51715SOL     OW55170   9.837   2.118   5.914
51715SOL    HW155171   9.864   2.059   5.839
51715SOL    HW255172   9.837   2.213   5.883
51716SOL     OW55173  11.064   3.085   7.174
51716SOL    HW155174  11.155   3.046   7.161
51716SOL    HW255175  11.072   3.181   7.198
51717SOL     OW55176  10.374   3.209   6.926
51717SOL    HW155177  10.294   3.186   6.981
51717SOL    HW255178  10.457   3.183   6.975
51718SOL     OW55179  10.902   3.491   7.211
51718SOL    HW155180  10.929   3.525   7.121
51718SOL    HW255181  10.981   3.453   7.257
51719SOL     OW55182  10.421   3.057   6.686
51719SOL    HW155183  10.381   3.101   6.767
51719SOL    HW255184  10.380   3.094   6.603
51720SOL     OW55185  10.948   2.961   6.665
51720SOL    HW155186  10.953   3.042   6.724
51720SOL    HW255187  10.862   2.963   6.614
51721SOL     OW55188  10.225   1.951   6.988
51721SOL    HW155189  10.250   1.931   6.893
51721SOL    HW255190  10.297   2.007   7.030
51722SOL     OW55191  10.290   2.978   7.305
51722SOL    HW155192  10.191   2.984   7.315
51722SOL    HW255193  10.313   2.898   7.249
51723SOL     OW55194  10.015   2.912   5.954
51723SOL    HW155195  10.001   2.919   6.053
51723SOL    HW255196  10.099   2.861   5.936
51724SOL     OW55197   9.720   2.675   6.837
51724SOL    HW155198   9.806   2.687   6.887
51724SOL    HW255199   9.678   2.588   6.864
51725SOL     OW55200  10.584   2.248   6.848
51725SOL    HW155201  10.605   2.322   6.912
51725SOL    HW255202  10.495   2.265   6.805
51726SOL     OW55203   9.374   3.426   6.917
51726SOL    HW155204   9.328   3.508   6.883
51726SOL    HW255205   9.472   3.445   6.926
51727SOL     OW55206   9.677   2.962   6.087
51727SOL    HW155207   9.670   3.045   6.031
51727SOL    HW255208   9.681   2.882   6.027
51728SOL     OW55209   9.876   2.399   6.451
51728SOL    HW155210   9.888   2.465   6.377
51728SOL    HW255211   9.922   2.433   6.534
51729SOL     OW55212  10.562   3.210   5.974
51729SOL    HW155213  10.612   3.287   6.014
51729SOL    HW255214  10.467   3.212   6.006
51730SOL     OW55215  10.582   3.307   6.728
51730SOL    HW155216  10.629   3.320   6.815
51730SOL    HW255217  10.516   3.233   6.737
51731SOL     OW55218  10.892   2.501   6.058
51731SOL    HW155219  10.861   2.562   6.131
51731SOL    HW255220  10.942   2.553   5.989
51732SOL     OW55221   9.664   3.372   6.915
51732SOL    HW155222   9.643   3.328   6.828
51732SOL    HW255223   9.761   3.398   6.918
51733SOL     OW55224   9.712   2.613   7.184
51733SOL    HW155225   9.780   2.668   7.137
51733SOL    HW255226   9.752   2.525   7.211
51734SOL     OW55227  10.897   2.641   7.256
51734SOL    HW155228  10.805   2.679   7.251
51734SOL    HW255229  10.957   2.688   7.191
51735SOL     OW55230  10.323   1.967   7.356
51735SOL    HW155231  10.329   2.052   7.304
51735SOL    HW255232  10.355   1.891   7.299
51736SOL     OW55233   9.814   1.912   7.326
51736SOL    HW155234   9.772   1.855   7.256
51736SOL    HW255235   9.748   1.981   7.358
51737SOL     OW55236   9.883   2.732   6.615
51737SOL    HW155237   9.927   2.821   6.606
51737SOL    HW255238   9.820   2.732   6.692
51738SOL     OW55239  10.670   2.724   6.631
51738SOL    HW155240  10.595   2.724   6.565
51738SOL    HW255241  10.707   2.632   6.640
51739SOL     OW55242  10.519   2.387   5.861
51739SOL    HW155243  10.532   2.303   5.915
51739SOL    HW255244  10.490   2.461   5.921
51740SOL     OW55245   9.617   2.075   6.817
51740SOL    HW155246   9.594   2.112   6.907
51740SOL    HW255247   9.587   1.980   6.811
51741SOL     OW55248   9.347   3.172   6.868
51741SOL    HW155249   9.400   3.123   6.936
51741SOL    HW255250   9.369   3.270   6.873
51742SOL     OW55251  10.042   2.496   6.650
51742SOL    HW155252  10.101   2.470   6.574
51742SOL    HW255253  10.014   2.592   6.639
51743SOL     OW55254  11.038   2.797   7.440
51743SOL    HW155255  10.992   2.790   7.351
51743SOL    HW255256  10.976   2.841   7.506
51744SOL     OW55257   9.617   1.925   6.204
51744SOL    HW155258   9.606   2.019   6.237
51744SOL    HW255259   9.612   1.862   6.281
51745SOL     OW55260  10.932   2.229   5.960
51745SOL    HW155261  10.934   2.153   6.024
51745SOL    HW255262  10.884   2.306   6.000
51746SOL     OW55263  10.333   2.628   6.552
51746SOL    HW155264  10.348   2.649   6.648
51746SOL    HW255265  10.303   2.533   6.543
51747SOL     OW55266  10.290   3.435   7.286
51747SOL    HW155267  10.270   3.479   7.198
51747SOL    HW255268  10.329   3.344   7.270
51748SOL     OW55269  11.169   3.380   7.191
51748SOL    HW155270  11.183   3.407   7.096
51748SOL    HW255271  11.252   3.402   7.244
51749SOL     OW55272   9.660   2.760   7.390
51749SOL    HW155273   9.736   2.804   7.438
51749SOL    HW255274   9.695   2.713   7.308
51750SOL     OW55275  10.850   2.136   5.711
51750SOL    HW155276  10.789   2.061   5.734
51750SOL    HW255277  10.872   2.188   5.794
51751SOL     OW55278  10.613   2.700   5.628
51751SOL    HW155279  10.647   2.607   5.643
51751SOL    HW255280  10.631   2.727   5.533
51752SOL     OW55281  10.378   3.195   6.435
51752SOL    HW155282  10.385   3.111   6.380
51752SOL    HW255283  10.440   3.264   6.399
51753SOL     OW55284   9.629   2.672   6.535
51753SOL    HW155285   9.722   2.708   6.540
51753SOL    HW255286   9.623   2.587   6.587
51754SOL     OW55287   9.649   2.371   6.592
51754SOL    HW155288   9.597   2.288   6.575
51754SOL    HW255289   9.726   2.376   6.528
51755SOL     OW55290  10.448   2.242   7.264
51755SOL    HW155291  10.403   2.305   7.328
51755SOL    HW255292  10.541   2.273   7.247
51756SOL     OW55293  10.470   2.069   7.063
51756SOL    HW155294  10.470   2.133   7.140
51756SOL    HW255295  10.498   2.117   6.980
51757SOL     OW55296   9.318   3.188   5.786
51757SOL    HW155297   9.225   3.209   5.755
51757SOL    HW255298   9.328   3.089   5.799
51758SOL     OW55299   9.398   3.663   6.513
51758SOL    HW155300   9.356   3.577   6.486
51758SOL    HW255301   9.492   3.666   6.479
51759SOL     OW55302   9.814   3.430   6.496
51759SOL    HW155303   9.880   3.504   6.505
51759SOL    HW255304   9.858   3.351   6.454
51760SOL     OW55305  10.312   2.658   6.824
51760SOL    HW155306  10.353   2.626   6.910
51760SOL    HW255307  10.216   2.631   6.821
51761SOL     OW55308   9.350   2.406   6.700
51761SOL    HW155309   9.435   2.373   6.659
51761SOL    HW255310   9.363   2.421   6.798
51762SOL     OW55311   9.499   2.382   7.308
51762SOL    HW155312   9.558   2.342   7.238
51762SOL    HW255313   9.441   2.453   7.267
51763SOL     OW55314  10.679   2.812   7.246
51763SOL    HW155315  10.718   2.901   7.266
51763SOL    HW255316  10.689   2.792   7.149
51764SOL     OW55317  10.125   2.434   5.911
51764SOL    HW155318  10.132   2.345   5.865
51764SOL    HW255319  10.031   2.468   5.903
51765SOL     OW55320  10.967   2.466   6.792
51765SOL    HW155321  10.929   2.397   6.854
51765SOL    HW255322  11.049   2.430   6.748
51766SOL     OW55323   9.562   3.426   7.330
51766SOL    HW155324   9.532   3.483   7.406
51766SOL    HW255325   9.555   3.329   7.356
51767SOL     OW55326   9.981   2.326   6.855
51767SOL    HW155327   9.947   2.237   6.825
51767SOL    HW255328  10.007   2.380   6.775
51768SOL     OW55329  10.240   3.540   7.051
51768SOL    HW155330  10.216   3.522   6.956
51768SOL    HW255331  10.270   3.634   7.061
51769SOL     OW55332   9.783   2.362   5.777
51769SOL    HW155333   9.844   2.442   5.781
51769SOL    HW255334   9.688   2.393   5.784
51770SOL     OW55335   9.469   2.999   7.052
51770SOL    HW155336   9.491   2.938   7.128
51770SOL    HW255337   9.479   2.950   6.966
51771SOL     OW55338  10.657   2.921   6.820
51771SOL    HW155339  10.681   2.858   6.746
51771SOL    HW255340  10.567   2.961   6.802
51772SOL     OW55341  10.612   2.717   5.895
51772SOL    HW155342  10.526   2.686   5.937
51772SOL    HW255343  10.608   2.703   5.796
51773SOL     OW55344  11.069   3.609   6.740
51773SOL    HW155345  11.130   3.639   6.667
51773SOL    HW255346  11.031   3.520   6.718
51774SOL     OW55347  10.562   3.593   6.714
51774SOL    HW155348  10.646   3.598   6.660
51774SOL    HW255349  10.539   3.497   6.732
51775SOL     OW55350   9.393   3.120   6.608
51775SOL    HW155351   9.388   3.119   6.708
51775SOL    HW255352   9.310   3.079   6.570
51776SOL     OW55353   9.998   3.524   7.302
51776SOL    HW155354   9.942   3.605   7.311
51776SOL    HW255355  10.050   3.528   7.216
51777SOL     OW55356  11.036   1.997   6.109
51777SOL    HW155357  11.109   1.980   6.042
51777SOL    HW255358  11.005   1.910   6.147
51778SOL     OW55359  10.698   3.435   6.063
51778SOL    HW155360  10.765   3.447   5.989
51778SOL    HW255361  10.658   3.524   6.086
51779SOL     OW55362   9.440   3.656   7.437
51779SOL    HW155363   9.399   3.582   7.490
51779SOL    HW255364   9.504   3.707   7.495
51780SOL     OW55365  10.590   2.789   6.258
51780SOL    HW155366  10.650   2.708   6.260
51780SOL    HW255367  10.630   2.858   6.198
51781SOL     OW55368  10.140   3.135   7.008
51781SOL    HW155369  10.135   3.168   7.103
51781SOL    HW255370  10.054   3.154   6.962
51782SOL     OW55371   9.982   3.478   5.740
51782SOL    HW155372   9.991   3.488   5.641
51782SOL    HW255373   9.942   3.389   5.761
51783SOL     OW55374  10.960   3.582   6.980
51783SOL    HW155375  11.013   3.592   6.896
51783SOL    HW255376  10.933   3.672   7.014
51784SOL     OW55377  11.151   2.037   6.549
51784SOL    HW155378  11.190   1.952   6.513
51784SOL    HW255379  11.053   2.039   6.530
51785SOL     OW55380   9.573   2.188   6.306
51785SOL    HW155381   9.494   2.239   6.272
51785SOL    HW255382   9.564   2.173   6.404
51786SOL     OW55383  10.504   3.474   5.617
51786SOL    HW155384  10.510   3.381   5.654
51786SOL    HW255385  10.445   3.474   5.537
51787SOL     OW55386  10.132   2.864   6.958
51787SOL    HW155387  10.172   2.863   6.866
51787SOL    HW255388  10.142   2.956   6.998
51788SOL     OW55389  10.226   2.772   5.877
51788SOL    HW155390  10.289   2.810   5.809
51788SOL    HW255391  10.266   2.689   5.916
51789SOL     OW55392  10.814   3.469   5.630
51789SOL    HW155393  10.722   3.506   5.637
51789SOL    HW255394  10.852   3.489   5.540
51790SOL     OW55395   9.682   3.150   7.076
51790SOL    HW155396   9.669   3.243   7.042
51790SOL    HW255397   9.598   3.098   7.063
51791SOL     OW55398  10.924   3.154   6.875
51791SOL    HW155399  10.984   3.157   6.955
51791SOL    HW255400  10.849   3.218   6.888
51792SOL     OW55401  10.349   2.960   6.282
51792SOL    HW155402  10.279   2.913   6.336
51792SOL    HW255403  10.408   2.892   6.239
51793SOL     OW55404  10.324   2.098   6.557
51793SOL    HW155405  10.316   2.062   6.464
51793SOL    HW255406  10.322   2.022   6.622
51794SOL     OW55407   9.900   3.349   6.077
51794SOL    HW155408   9.942   3.291   6.007
51794SOL    HW255409   9.856   3.428   6.033
51795SOL     OW55410  11.019   2.247   6.967
51795SOL    HW155411  11.092   2.316   6.971
51795SOL    HW255412  11.047   2.172   6.908
51796SOL     OW55413   9.565   3.210   5.876
51796SOL    HW155414   9.469   3.211   5.849
51796SOL    HW255415   9.577   3.263   5.960
51797SOL     OW55416   9.415   2.875   7.312
51797SOL    HW155417   9.338   2.842   7.366
51797SOL    HW255418   9.500   2.845   7.354
51798SOL     OW55419   9.982   2.065   7.075
51798SOL    HW155420  10.072   2.049   7.035
51798SOL    HW255421   9.990   2.070   7.174
51799SOL     OW55422   9.385   2.207   5.619
51799SOL    HW155423   9.293   2.179   5.590
51799SOL    HW255424   9.416   2.284   5.563
51800SOL     OW55425  10.750   2.718   6.984
51800SOL    HW155426  10.693   2.770   6.921
51800SOL    HW255427  10.846   2.730   6.960
51801SOL     OW55428   9.382   2.028   5.904
51801SOL    HW155429   9.365   2.111   5.850
51801SOL    HW255430   9.472   1.991   5.882
51802SOL     OW55431  10.493   3.197   5.705
51802SOL    HW155432  10.394   3.186   5.707
51802SOL    HW255433  10.527   3.212   5.798
51803SOL     OW55434   9.923   2.704   7.017
51803SOL    HW155435   9.979   2.785   7.000
51803SOL    HW255436   9.982   2.624   7.020
51804SOL     OW55437  10.803   3.629   6.545
51804SOL    HW155438  10.836   3.693   6.476
51804SOL    HW255439  10.869   3.623   6.620
51805SOL     OW55440  10.026   2.427   7.294
51805SOL    HW155441  10.045   2.492   7.368
51805SOL    HW255442  10.086   2.347   7.303
51806SOL     OW55443  10.760   3.082   7.219
51806SOL    HW155444  10.751   3.072   7.318
51806SOL    HW255445  10.856   3.075   7.193
51807SOL     OW55446   9.700   3.603   7.146
51807SOL    HW155447   9.609   3.644   7.144
51807SOL    HW255448   9.693   3.509   7.178
51808SOL     OW55449  10.984   2.745   6.840
51808SOL    HW155450  10.957   2.656   6.803
51808SOL    HW255451  10.985   2.813   6.767
51809SOL     OW55452  10.535   2.187   6.035
51809SOL    HW155453  10.600   2.113   6.024
51809SOL    HW255454  10.555   2.237   6.119
51810SOL     OW55455   9.904   2.607   6.238
51810SOL    HW155456   9.954   2.692   6.219
51810SOL    HW255457   9.816   2.609   6.190
51811SOL     OW55458  11.087   2.204   7.228
51811SOL    HW155459  11.070   2.235   7.134
51811SOL    HW255460  11.003   2.167   7.266
51812SOL     OW55461  11.040   2.796   7.103
51812SOL    HW155462  11.078   2.887   7.118
51812SOL    HW255463  11.032   2.779   7.004
51813SOL     OW55464  10.169   3.236   5.602
51813SOL    HW155465  10.123   3.251   5.690
51813SOL    HW255466  10.213   3.321   5.572
51814SOL     OW55467   9.971   3.652   6.539
51814SOL    HW155468   9.925   3.740   6.526
51814SOL    HW255469  10.070   3.664   6.532
51815SOL     OW55470  10.169   2.818   6.447
51815SOL    HW155471  10.223   2.749   6.495
51815SOL    HW255472  10.137   2.887   6.513
51816SOL     OW55473  10.393   2.846   5.673
51816SOL    HW155474  10.370   2.899   5.591
51816SOL    HW255475  10.474   2.790   5.654
51817SOL     OW55476  11.171   3.431   6.437
51817SOL    HW155477  11.100   3.419   6.367
51817SOL    HW255478  11.172   3.352   6.497
51818SOL     OW55479   9.531   3.176   7.430
51818SOL    HW155480   9.466   3.103   7.409
51818SOL    HW255481   9.535   3.190   7.528
51819SOL     OW55482   9.389   3.102   6.239
51819SOL    HW155483   9.388   3.055   6.327
51819SOL    HW255484   9.471   3.074   6.188
51820SOL     OW55485   9.982   3.253   7.210
51820SOL    HW155486   9.904   3.203   7.248
51820SOL    HW255487   9.979   3.348   7.241
51821SOL     OW55488  11.134   2.054   6.813
51821SOL    HW155489  11.130   1.964   6.857
51821SOL    HW255490  11.137   2.043   6.714
51822SOL     OW55491   9.738   2.286   6.106
51822SOL    HW155492   9.768   2.214   6.044
51822SOL    HW255493   9.699   2.246   6.189
51823SOL     OW55494  11.015   3.349   6.690
51823SOL    HW155495  10.922   3.324   6.663
51823SOL    HW255496  11.041   3.299   6.772
51824SOL     OW55497   9.627   2.409   6.866
51824SOL    HW155498   9.665   2.350   6.938
51824SOL    HW255499   9.667   2.383   6.778
51825SOL     OW55500  10.122   3.448   6.273
51825SOL    HW155501  10.154   3.458   6.179
51825SOL    HW255502  10.043   3.386   6.275
51826SOL     OW55503  10.734   2.076   6.698
51826SOL    HW155504  10.786   2.011   6.753
51826SOL    HW255505  10.685   2.139   6.759
51827SOL     OW55506  10.311   1.896   6.740
51827SOL    HW155507  10.248   1.824   6.709
51827SOL    HW255508  10.404   1.860   6.740
51828SOL     OW55509  10.080   3.192   5.887
51828SOL    HW155510  10.034   3.105   5.904
51828SOL    HW255511  10.171   3.189   5.928
51829SOL     OW55512   9.928   3.429   6.870
51829SOL    HW155513   9.923   3.511   6.927
51829SOL    HW255514  10.017   3.426   6.825
51830SOL     OW55515  10.662   1.914   5.754
51830SOL    HW155516  10.697   1.873   5.670
51830SOL    HW255517  10.572   1.876   5.774
51831SOL     OW55518  10.610   2.315   6.277
51831SOL    HW155519  10.551   2.395   6.281
51831SOL    HW255520  10.625   2.280   6.370
51832SOL     OW55521  10.903   2.083   6.468
51832SOL    HW155522  10.819   2.082   6.522
51832SOL    HW255523  10.905   2.166   6.412
51833SOL     OW55524   9.349   2.939   5.886
51833SOL    HW155525   9.448   2.928   5.877
51833SOL    HW255526   9.309   2.853   5.918
51834SOL     OW55527  10.185   3.508   5.923
51834SOL    HW155528  10.108   3.473   5.869
51834SOL    HW255529  10.153   3.579   5.985
51835SOL     OW55530   9.540   2.490   7.561
51835SOL    HW155531   9.447   2.488   7.598
51835SOL    HW255532   9.541   2.451   7.469
51836SOL     OW55533   9.535   2.137   8.444
51836SOL    HW155534   9.570   2.120   8.536
51836SOL    HW255535   9.447   2.092   8.432
51837SOL     OW55536   9.329   2.230   8.095
51837SOL    HW155537   9.247   2.273   8.134
51837SOL    HW255538   9.301   2.157   8.032
51838SOL     OW55539   9.879   3.137   8.613
51838SOL    HW155540   9.786   3.130   8.576
51838SOL    HW255541   9.890   3.226   8.657
51839SOL     OW55542  10.865   3.373   8.151
51839SOL    HW155543  10.808   3.357   8.232
51839SOL    HW255544  10.806   3.383   8.071
51840SOL     OW55545  10.445   2.565   8.165
51840SOL    HW155546  10.502   2.643   8.140
51840SOL    HW255547  10.385   2.591   8.241
51841SOL     OW55548  11.065   2.469   7.679
51841SOL    HW155549  11.053   2.456   7.580
51841SOL    HW255550  11.035   2.388   7.728
51842SOL     OW55551  10.078   3.006   8.471
51842SOL    HW155552  10.000   3.023   8.531
51842SOL    HW255553  10.112   3.093   8.435
51843SOL     OW55554  10.160   2.660   9.271
51843SOL    HW155555  10.156   2.736   9.336
51843SOL    HW255556  10.182   2.696   9.180
51844SOL     OW55557   9.995   2.874   8.113
51844SOL    HW155558  10.064   2.858   8.183
51844SOL    HW255559   9.922   2.931   8.151
51845SOL     OW55560   9.996   3.023   9.251
51845SOL    HW155561  10.056   3.102   9.265
51845SOL    HW255562   9.910   3.054   9.210
51846SOL     OW55563   9.645   3.297   8.509
51846SOL    HW155564   9.567   3.266   8.456
51846SOL    HW255565   9.703   3.355   8.452
51847SOL     OW55566  10.770   3.367   8.787
51847SOL    HW155567  10.794   3.461   8.813
51847SOL    HW255568  10.754   3.313   8.869
51848SOL     OW55569   9.748   2.254   8.947
51848SOL    HW155570   9.830   2.198   8.956
51848SOL    HW255571   9.667   2.196   8.951
51849SOL     OW55572  10.913   2.309   8.185
51849SOL    HW155573  10.839   2.355   8.135
51849SOL    HW255574  10.964   2.377   8.238
51850SOL     OW55575   9.541   3.575   7.931
51850SOL    HW155576   9.575   3.652   7.985
51850SOL    HW255577   9.585   3.575   7.841
51851SOL     OW55578  10.437   3.203   9.138
51851SOL    HW155579  10.484   3.203   9.226
51851SOL    HW255580  10.389   3.116   9.127
51852SOL     OW55581   9.540   3.296   7.986
51852SOL    HW155582   9.514   3.392   7.986
51852SOL    HW255583   9.469   3.242   8.031
51853SOL     OW55584   9.550   2.953   8.334
51853SOL    HW155585   9.564   2.869   8.386
51853SOL    HW255586   9.495   3.017   8.389
51854SOL     OW55587   9.930   3.648   8.887
51854SOL    HW155588   9.838   3.631   8.922
51854SOL    HW255589   9.958   3.740   8.913
51855SOL     OW55590   9.916   2.826   7.571
51855SOL    HW155591   9.923   2.910   7.517
51855SOL    HW255592   9.962   2.839   7.659
51856SOL     OW55593  10.904   1.976   8.928
51856SOL    HW155594  10.886   2.043   8.856
51856SOL    HW255595  10.901   2.022   9.017
51857SOL     OW55596   9.432   2.505   8.011
51857SOL    HW155597   9.387   2.417   8.028
51857SOL    HW255598   9.431   2.559   8.095
51858SOL     OW55599  11.152   3.629   7.807
51858SOL    HW155600  11.206   3.600   7.887
51858SOL    HW255601  11.182   3.719   7.778
51859SOL     OW55602   9.337   3.458   7.565
51859SOL    HW155603   9.318   3.362   7.586
51859SOL    HW255604   9.304   3.516   7.640
51860SOL     OW55605  10.999   2.784   8.060
51860SOL    HW155606  11.094   2.755   8.068
51860SOL    HW255607  10.991   2.849   7.985
51861SOL     OW55608  10.951   2.970   7.880
51861SOL    HW155609  11.037   2.972   7.828
51861SOL    HW255610  10.965   3.017   7.968
51862SOL     OW55611   9.423   2.599   9.045
51862SOL    HW155612   9.511   2.586   9.090
51862SOL    HW255613   9.410   2.696   9.023
51863SOL     OW55614   9.923   3.227   8.174
51863SOL    HW155615   9.874   3.140   8.183
51863SOL    HW255616   9.900   3.270   8.087
51864SOL     OW55617  10.603   3.090   8.871
51864SOL    HW155618  10.640   3.017   8.813
51864SOL    HW255619  10.655   3.095   8.956
51865SOL     OW55620  10.119   1.866   7.950
51865SOL    HW155621  10.159   1.957   7.941
51865SOL    HW255622  10.019   1.874   7.956
51866SOL     OW55623   9.507   2.838   8.712
51866SOL    HW155624   9.596   2.793   8.698
51866SOL    HW255625   9.434   2.773   8.693
51867SOL     OW55626  10.835   2.861   7.638
51867SOL    HW155627  10.772   2.785   7.651
51867SOL    HW255628  10.883   2.879   7.724
51868SOL     OW55629  10.497   3.654   9.064
51868SOL    HW155630  10.521   3.714   8.988
51868SOL    HW255631  10.504   3.559   9.034
51869SOL     OW55632   9.627   2.113   9.249
51869SOL    HW155633   9.698   2.184   9.255
51869SOL    HW255634   9.539   2.152   9.277
51870SOL     OW55635  10.776   3.279   8.401
51870SOL    HW155636  10.717   3.285   8.481
51870SOL    HW255637  10.761   3.191   8.355
51871SOL     OW55638  10.977   3.576   8.020
51871SOL    HW155639  10.936   3.553   7.932
51871SOL    HW255640  10.959   3.502   8.085
51872SOL     OW55641   9.908   2.591   7.718
51872SOL    HW155642   9.932   2.660   7.650
51872SOL    HW255643   9.830   2.624   7.772
51873SOL     OW55644  10.591   2.207   8.392
51873SOL    HW155645  10.505   2.157   8.379
51873SOL    HW255646  10.653   2.153   8.448
51874SOL     OW55647  10.886   3.524   7.755
51874SOL    HW155648  10.975   3.570   7.758
51874SOL    HW255649  10.865   3.500   7.660
51875SOL     OW55650  10.117   2.467   8.913
51875SOL    HW155651  10.070   2.464   9.002
51875SOL    HW255652  10.066   2.412   8.847
51876SOL     OW55653  10.704   2.331   9.122
51876SOL    HW155654  10.684   2.374   9.210
51876SOL    HW255655  10.782   2.269   9.131
51877SOL     OW55656  10.283   2.752   9.020
51877SOL    HW155657  10.329   2.668   8.991
51877SOL    HW255658  10.227   2.786   8.945
51878SOL     OW55659  10.301   2.272   8.690
51878SOL    HW155660  10.224   2.306   8.744
51878SOL    HW255661  10.267   2.221   8.611
51879SOL     OW55662  10.351   2.563   7.877
51879SOL    HW155663  10.377   2.559   7.973
51879SOL    HW255664  10.266   2.512   7.863
51880SOL     OW55665   9.386   2.673   8.237
51880SOL    HW155666   9.485   2.661   8.246
51880SOL    HW255667   9.362   2.768   8.258
51881SOL     OW55668   9.440   3.683   9.019
51881SOL    HW155669   9.430   3.668   9.118
51881SOL    HW255670   9.354   3.719   8.983
51882SOL     OW55671  10.175   2.210   7.643
51882SOL    HW155672  10.234   2.273   7.594
51882SOL    HW255673  10.194   2.116   7.614
51883SOL     OW55674  11.029   2.447   9.279
51883SOL    HW155675  11.003   2.536   9.243
51883SOL    HW255676  11.027   2.379   9.206
51884SOL     OW55677  10.672   3.006   7.993
51884SOL    HW155678  10.755   2.977   7.945
51884SOL    HW255679  10.623   3.073   7.937
51885SOL     OW55680   9.860   2.058   8.333
51885SOL    HW155681   9.855   2.053   8.433
51885SOL    HW255682   9.862   2.154   8.304
51886SOL     OW55683  10.318   3.318   7.925
51886SOL    HW155684  10.272   3.390   7.873
51886SOL    HW255685  10.314   3.338   8.023
51887SOL     OW55686   9.661   3.663   8.301
51887SOL    HW155687   9.711   3.577   8.307
51887SOL    HW255688   9.726   3.740   8.298
51888SOL     OW55689  11.105   2.928   8.321
51888SOL    HW155690  11.043   2.913   8.245
51888SOL    HW255691  11.053   2.939   8.406
51889SOL     OW55692  10.537   3.412   8.954
51889SOL    HW155693  10.543   3.335   9.018
51889SOL    HW255694  10.485   3.386   8.874
51890SOL     OW55695   9.631   2.805   7.690
51890SOL    HW155696   9.713   2.844   7.648
51890SOL    HW255697   9.604   2.723   7.641
51891SOL     OW55698  10.768   2.597   8.176
51891SOL    HW155699  10.763   2.532   8.251
51891SOL    HW255700  10.848   2.656   8.189
51892SOL     OW55701   9.771   3.128   9.175
51892SOL    HW155702   9.721   3.129   9.089
51892SOL    HW255703   9.708   3.110   9.251
51893SOL     OW55704  10.421   3.638   7.685
51893SOL    HW155705  10.361   3.576   7.735
51893SOL    HW255706  10.452   3.594   7.600
51894SOL     OW55707   9.512   2.147   8.946
51894SOL    HW155708   9.432   2.207   8.933
51894SOL    HW255709   9.502   2.098   9.032
51895SOL     OW55710  10.942   3.239   7.529
51895SOL    HW155711  10.910   3.333   7.519
51895SOL    HW255712  10.866   3.176   7.517
51896SOL     OW55713   9.774   3.605   7.771
51896SOL    HW155714   9.807   3.644   7.857
51896SOL    HW255715   9.850   3.598   7.706
51897SOL     OW55716  10.710   1.969   7.874
51897SOL    HW155717  10.686   1.932   7.784
51897SOL    HW255718  10.809   1.985   7.878
51898SOL     OW55719   9.559   3.647   8.689
51898SOL    HW155720   9.616   3.582   8.739
51898SOL    HW255721   9.543   3.614   8.596
51899SOL     OW55722  10.250   3.560   8.352
51899SOL    HW155723  10.330   3.503   8.373
51899SOL    HW255724  10.201   3.520   8.275
51900SOL     OW55725   9.692   2.562   7.928
51900SOL    HW155726   9.737   2.472   7.925
51900SOL    HW255727   9.598   2.551   7.961
51901SOL     OW55728  10.857   2.084   9.177
51901SOL    HW155729  10.852   2.121   9.269
51901SOL    HW255730  10.785   2.015   9.165
51902SOL     OW55731   9.924   1.984   7.565
51902SOL    HW155732  10.022   1.962   7.572
51902SOL    HW255733   9.893   1.967   7.472
51903SOL     OW55734  10.091   2.126   9.197
51903SOL    HW155735  10.158   2.065   9.240
51903SOL    HW255736  10.018   2.145   9.262
51904SOL     OW55737  10.198   3.376   8.643
51904SOL    HW155738  10.175   3.351   8.549
51904SOL    HW255739  10.259   3.307   8.682
51905SOL     OW55740  10.661   2.452   8.881
51905SOL    HW155741  10.689   2.409   8.966
51905SOL    HW255742  10.686   2.548   8.882
51906SOL     OW55743  10.113   3.264   8.372
51906SOL    HW155744  10.203   3.278   8.330
51906SOL    HW255745  10.042   3.266   8.301
51907SOL     OW55746  10.232   2.365   8.347
51907SOL    HW155747  10.207   2.356   8.251
51907SOL    HW255748  10.280   2.283   8.378
51908SOL     OW55749   9.849   1.926   7.960
51908SOL    HW155750   9.768   1.927   8.018
51908SOL    HW255751   9.852   2.009   7.905
51909SOL     OW55752  10.744   3.050   7.489
51909SOL    HW155753  10.776   2.974   7.546
51909SOL    HW255754  10.652   3.077   7.519
51910SOL     OW55755   9.607   1.897   7.619
51910SOL    HW155756   9.656   1.981   7.598
51910SOL    HW255757   9.669   1.832   7.664
51911SOL     OW55758  10.245   2.098   7.928
51911SOL    HW155759  10.197   2.139   7.850
51911SOL    HW255760  10.344   2.096   7.909
51912SOL     OW55761  10.386   2.545   8.912
51912SOL    HW155762  10.306   2.484   8.915
51912SOL    HW255763  10.467   2.492   8.888
51913SOL     OW55764  10.537   3.432   8.241
51913SOL    HW155765  10.558   3.506   8.176
51913SOL    HW255766  10.605   3.432   8.314
51914SOL     OW55767   9.769   3.014   8.189
51914SOL    HW155768   9.698   2.987   8.254
51914SOL    HW255769   9.743   2.986   8.096
51915SOL     OW55770  10.581   3.659   8.039
51915SOL    HW155771  10.625   3.723   7.975
51915SOL    HW255772  10.531   3.711   8.109
51916SOL     OW55773  10.342   2.411   7.464
51916SOL    HW155774  10.301   2.493   7.425
51916SOL    HW255775  10.406   2.437   7.537
51917SOL     OW55776   9.388   2.418   8.834
51917SOL    HW155777   9.480   2.417   8.793
51917SOL    HW255778   9.382   2.492   8.901
51918SOL     OW55779   9.871   2.084   8.595
51918SOL    HW155780   9.909   2.000   8.632
51918SOL    HW255781   9.783   2.103   8.639
51919SOL     OW55782  10.176   2.316   8.090
51919SOL    HW155783  10.144   2.388   8.028
51919SOL    HW255784  10.200   2.235   8.037
51920SOL     OW55785  10.327   1.901   8.201
51920SOL    HW155786  10.255   1.906   8.132
51920SOL    HW255787  10.303   1.832   8.270
51921SOL     OW55788  10.739   3.035   8.315
51921SOL    HW155789  10.684   2.951   8.308
51921SOL    HW255790  10.765   3.064   8.223
51922SOL     OW55791  10.776   2.452   8.440
51922SOL    HW155792  10.746   2.357   8.447
51922SOL    HW255793  10.849   2.468   8.506
51923SOL     OW55794  11.167   2.695   7.825
51923SOL    HW155795  11.209   2.631   7.889
51923SOL    HW255796  11.129   2.644   7.747
51924SOL     OW55797   9.798   3.247   7.622
51924SOL    HW155798   9.711   3.232   7.669
51924SOL    HW255799   9.781   3.273   7.527
51925SOL     OW55800  10.974   3.142   8.105
51925SOL    HW155801  11.073   3.150   8.119
51925SOL    HW255802  10.929   3.226   8.136
51926SOL     OW55803  10.700   2.437   7.526
51926SOL    HW155804  10.646   2.416   7.607
51926SOL    HW255805  10.791   2.396   7.535
51927SOL     OW55806   9.837   2.118   7.776
51927SOL    HW155807   9.864   2.059   7.701
51927SOL    HW255808   9.837   2.213   7.745
51928SOL     OW55809  11.064   3.085   9.036
51928SOL    HW155810  11.155   3.046   9.023
51928SOL    HW255811  11.072   3.181   9.060
51929SOL     OW55812  10.374   3.209   8.788
51929SOL    HW155813  10.294   3.186   8.843
51929SOL    HW255814  10.457   3.183   8.837
51930SOL     OW55815  10.902   3.491   9.073
51930SOL    HW155816  10.929   3.525   8.983
51930SOL    HW255817  10.981   3.453   9.119
51931SOL     OW55818  10.421   3.057   8.548
51931SOL    HW155819  10.381   3.101   8.629
51931SOL    HW255820  10.380   3.094   8.465
51932SOL     OW55821  10.948   2.961   8.527
51932SOL    HW155822  10.953   3.042   8.586
51932SOL    HW255823  10.862   2.963   8.476
51933SOL     OW55824  10.225   1.951   8.850
51933SOL    HW155825  10.250   1.931   8.755
51933SOL    HW255826  10.297   2.007   8.892
51934SOL     OW55827  10.290   2.978   9.167
51934SOL    HW155828  10.191   2.984   9.177
51934SOL    HW255829  10.313   2.898   9.111
51935SOL     OW55830  10.015   2.912   7.816
51935SOL    HW155831  10.001   2.919   7.915
51935SOL    HW255832  10.099   2.861   7.798
51936SOL     OW55833   9.720   2.675   8.699
51936SOL    HW155834   9.806   2.687   8.749
51936SOL    HW255835   9.678   2.588   8.726
51937SOL     OW55836  10.584   2.248   8.710
51937SOL    HW155837  10.605   2.322   8.774
51937SOL    HW255838  10.495   2.265   8.667
51938SOL     OW55839   9.374   3.426   8.779
51938SOL    HW155840   9.328   3.508   8.745
51938SOL    HW255841   9.472   3.445   8.788
51939SOL     OW55842   9.677   2.962   7.949
51939SOL    HW155843   9.670   3.045   7.893
51939SOL    HW255844   9.681   2.882   7.889
51940SOL     OW55845   9.876   2.399   8.313
51940SOL    HW155846   9.888   2.465   8.239
51940SOL    HW255847   9.922   2.433   8.396
51941SOL     OW55848  10.562   3.210   7.836
51941SOL    HW155849  10.612   3.287   7.876
51941SOL    HW255850  10.467   3.212   7.868
51942SOL     OW55851  10.582   3.307   8.590
51942SOL    HW155852  10.629   3.320   8.677
51942SOL    HW255853  10.516   3.233   8.599
51943SOL     OW55854  10.892   2.501   7.920
51943SOL    HW155855  10.861   2.562   7.993
51943SOL    HW255856  10.942   2.553   7.851
51944SOL     OW55857   9.664   3.372   8.777
51944SOL    HW155858   9.643   3.328   8.690
51944SOL    HW255859   9.761   3.398   8.780
51945SOL     OW55860   9.712   2.613   9.046
51945SOL    HW155861   9.780   2.668   8.999
51945SOL    HW255862   9.752   2.525   9.073
51946SOL     OW55863  10.897   2.641   9.118
51946SOL    HW155864  10.805   2.679   9.113
51946SOL    HW255865  10.957   2.688   9.053
51947SOL     OW55866  10.323   1.967   9.218
51947SOL    HW155867  10.329   2.052   9.166
51947SOL    HW255868  10.355   1.891   9.161
51948SOL     OW55869   9.814   1.912   9.188
51948SOL    HW155870   9.772   1.855   9.118
51948SOL    HW255871   9.748   1.981   9.220
51949SOL     OW55872   9.883   2.732   8.477
51949SOL    HW155873   9.927   2.821   8.468
51949SOL    HW255874   9.820   2.732   8.554
51950SOL     OW55875  10.670   2.724   8.493
51950SOL    HW155876  10.595   2.724   8.427
51950SOL    HW255877  10.707   2.632   8.502
51951SOL     OW55878  10.519   2.387   7.723
51951SOL    HW155879  10.532   2.303   7.777
51951SOL    HW255880  10.490   2.461   7.783
51952SOL     OW55881   9.617   2.075   8.679
51952SOL    HW155882   9.594   2.112   8.769
51952SOL    HW255883   9.587   1.980   8.673
51953SOL     OW55884   9.347   3.172   8.730
51953SOL    HW155885   9.400   3.123   8.798
51953SOL    HW255886   9.369   3.270   8.735
51954SOL     OW55887  10.042   2.496   8.512
51954SOL    HW155888  10.101   2.470   8.436
51954SOL    HW255889  10.014   2.592   8.501
51955SOL     OW55890  11.038   2.797   9.302
51955SOL    HW155891  10.992   2.790   9.213
51955SOL    HW255892  10.976   2.841   9.368
51956SOL     OW55893   9.617   1.925   8.066
51956SOL    HW155894   9.606   2.019   8.099
51956SOL    HW255895   9.612   1.862   8.143
51957SOL     OW55896  10.932   2.229   7.822
51957SOL    HW155897  10.934   2.153   7.886
51957SOL    HW255898  10.884   2.306   7.862
51958SOL     OW55899  10.333   2.628   8.414
51958SOL    HW155900  10.348   2.649   8.510
51958SOL    HW255901  10.303   2.533   8.405
51959SOL     OW55902  10.290   3.435   9.148
51959SOL    HW155903  10.270   3.479   9.060
51959SOL    HW255904  10.329   3.344   9.132
51960SOL     OW55905  11.169   3.380   9.053
51960SOL    HW155906  11.183   3.407   8.958
51960SOL    HW255907  11.252   3.402   9.106
51961SOL     OW55908   9.660   2.760   9.252
51961SOL    HW155909   9.736   2.804   9.300
51961SOL    HW255910   9.695   2.713   9.170
51962SOL     OW55911  10.850   2.136   7.573
51962SOL    HW155912  10.789   2.061   7.596
51962SOL    HW255913  10.872   2.188   7.656
51963SOL     OW55914  10.613   2.700   7.490
51963SOL    HW155915  10.647   2.607   7.505
51963SOL    HW255916  10.631   2.727   7.395
51964SOL     OW55917  10.378   3.195   8.297
51964SOL    HW155918  10.385   3.111   8.242
51964SOL    HW255919  10.440   3.264   8.261
51965SOL     OW55920   9.629   2.672   8.397
51965SOL    HW155921   9.722   2.708   8.402
51965SOL    HW255922   9.623   2.587   8.449
51966SOL     OW55923   9.649   2.371   8.454
51966SOL    HW155924   9.597   2.288   8.437
51966SOL    HW255925   9.726   2.376   8.390
51967SOL     OW55926  10.448   2.242   9.126
51967SOL    HW155927  10.403   2.305   9.190
51967SOL    HW255928  10.541   2.273   9.109
51968SOL     OW55929  10.470   2.069   8.925
51968SOL    HW155930  10.470   2.133   9.002
51968SOL    HW255931  10.498   2.117   8.842
51969SOL     OW55932   9.318   3.188   7.648
51969SOL    HW155933   9.225   3.209   7.617
51969SOL    HW255934   9.328   3.089   7.661
51970SOL     OW55935   9.398   3.663   8.375
51970SOL    HW155936   9.356   3.577   8.348
51970SOL    HW255937   9.492   3.666   8.341
51971SOL     OW55938   9.814   3.430   8.358
51971SOL    HW155939   9.880   3.504   8.367
51971SOL    HW255940   9.858   3.351   8.316
51972SOL     OW55941  10.312   2.658   8.686
51972SOL    HW155942  10.353   2.626   8.772
51972SOL    HW255943  10.216   2.631   8.683
51973SOL     OW55944   9.350   2.406   8.562
51973SOL    HW155945   9.435   2.373   8.521
51973SOL    HW255946   9.363   2.421   8.660
51974SOL     OW55947   9.499   2.382   9.170
51974SOL    HW155948   9.558   2.342   9.100
51974SOL    HW255949   9.441   2.453   9.129
51975SOL     OW55950  10.679   2.812   9.108
51975SOL    HW155951  10.718   2.901   9.128
51975SOL    HW255952  10.689   2.792   9.011
51976SOL     OW55953  10.125   2.434   7.773
51976SOL    HW155954  10.132   2.345   7.727
51976SOL    HW255955  10.031   2.468   7.765
51977SOL     OW55956  10.967   2.466   8.654
51977SOL    HW155957  10.929   2.397   8.716
51977SOL    HW255958  11.049   2.430   8.610
51978SOL     OW55959   9.562   3.426   9.192
51978SOL    HW155960   9.532   3.483   9.268
51978SOL    HW255961   9.555   3.329   9.218
51979SOL     OW55962   9.981   2.326   8.717
51979SOL    HW155963   9.947   2.237   8.687
51979SOL    HW255964  10.007   2.380   8.637
51980SOL     OW55965  10.240   3.540   8.913
51980SOL    HW155966  10.216   3.522   8.818
51980SOL    HW255967  10.270   3.634   8.923
51981SOL     OW55968   9.783   2.362   7.639
51981SOL    HW155969   9.844   2.442   7.643
51981SOL    HW255970   9.688   2.393   7.646
51982SOL     OW55971   9.469   2.999   8.914
51982SOL    HW155972   9.491   2.938   8.990
51982SOL    HW255973   9.479   2.950   8.828
51983SOL     OW55974  10.657   2.921   8.682
51983SOL    HW155975  10.681   2.858   8.608
51983SOL    HW255976  10.567   2.961   8.664
51984SOL     OW55977  10.612   2.717   7.757
51984SOL    HW155978  10.526   2.686   7.799
51984SOL    HW255979  10.608   2.703   7.658
51985SOL     OW55980  11.069   3.609   8.602
51985SOL    HW155981  11.130   3.639   8.529
51985SOL    HW255982  11.031   3.520   8.580
51986SOL     OW55983  10.562   3.593   8.576
51986SOL    HW155984  10.646   3.598   8.522
51986SOL    HW255985  10.539   3.497   8.594
51987SOL     OW55986   9.393   3.120   8.470
51987SOL    HW155987   9.388   3.119   8.570
51987SOL    HW255988   9.310   3.079   8.432
51988SOL     OW55989   9.998   3.524   9.164
51988SOL    HW155990   9.942   3.605   9.173
51988SOL    HW255991  10.050   3.528   9.078
51989SOL     OW55992  11.036   1.997   7.971
51989SOL    HW155993  11.109   1.980   7.904
51989SOL    HW255994  11.005   1.910   8.009
51990SOL     OW55995  10.698   3.435   7.925
51990SOL    HW155996  10.765   3.447   7.851
51990SOL    HW255997  10.658   3.524   7.948
51991SOL     OW55998   9.440   3.656   9.299
51991SOL    HW155999   9.399   3.582   9.352
51991SOL    HW256000   9.504   3.707   9.357
51992SOL     OW56001  10.590   2.789   8.120
51992SOL    HW156002  10.650   2.708   8.122
51992SOL    HW256003  10.630   2.858   8.060
51993SOL     OW56004  10.140   3.135   8.870
51993SOL    HW156005  10.135   3.168   8.965
51993SOL    HW256006  10.054   3.154   8.824
51994SOL     OW56007   9.982   3.478   7.602
51994SOL    HW156008   9.991   3.488   7.503
51994SOL    HW256009   9.942   3.389   7.623
51995SOL     OW56010  10.960   3.582   8.842
51995SOL    HW156011  11.013   3.592   8.758
51995SOL    HW256012  10.933   3.672   8.876
51996SOL     OW56013  11.151   2.037   8.411
51996SOL    HW156014  11.190   1.952   8.375
51996SOL    HW256015  11.053   2.039   8.392
51997SOL     OW56016   9.573   2.188   8.168
51997SOL    HW156017   9.494   2.239   8.134
51997SOL    HW256018   9.564   2.173   8.266
51998SOL     OW56019  10.504   3.474   7.479
51998SOL    HW156020  10.510   3.381   7.516
51998SOL    HW256021  10.445   3.474   7.399
51999SOL     OW56022  10.132   2.864   8.820
51999SOL    HW156023  10.172   2.863   8.728
51999SOL    HW256024  10.142   2.956   8.860
52000SOL     OW56025  10.226   2.772   7.739
52000SOL    HW156026  10.289   2.810   7.671
52000SOL    HW256027  10.266   2.689   7.778
52001SOL     OW56028  10.814   3.469   7.492
52001SOL    HW156029  10.722   3.506   7.499
52001SOL    HW256030  10.852   3.489   7.402
52002SOL     OW56031   9.682   3.150   8.938
52002SOL    HW156032   9.669   3.243   8.904
52002SOL    HW256033   9.598   3.098   8.925
52003SOL     OW56034  10.924   3.154   8.737
52003SOL    HW156035  10.984   3.157   8.817
52003SOL    HW256036  10.849   3.218   8.750
52004SOL     OW56037  10.349   2.960   8.144
52004SOL    HW156038  10.279   2.913   8.198
52004SOL    HW256039  10.408   2.892   8.101
52005SOL     OW56040  10.324   2.098   8.419
52005SOL    HW156041  10.316   2.062   8.326
52005SOL    HW256042  10.322   2.022   8.484
52006SOL     OW56043   9.900   3.349   7.939
52006SOL    HW156044   9.942   3.291   7.869
52006SOL    HW256045   9.856   3.428   7.895
52007SOL     OW56046  11.019   2.247   8.829
52007SOL    HW156047  11.092   2.316   8.833
52007SOL    HW256048  11.047   2.172   8.770
52008SOL     OW56049   9.565   3.210   7.738
52008SOL    HW156050   9.469   3.211   7.711
52008SOL    HW256051   9.577   3.263   7.822
52009SOL     OW56052   9.415   2.875   9.174
52009SOL    HW156053   9.338   2.842   9.228
52009SOL    HW256054   9.500   2.845   9.216
52010SOL     OW56055   9.982   2.065   8.937
52010SOL    HW156056  10.072   2.049   8.897
52010SOL    HW256057   9.990   2.070   9.036
52011SOL     OW56058   9.385   2.207   7.481
52011SOL    HW156059   9.293   2.179   7.452
52011SOL    HW256060   9.416   2.284   7.425
52012SOL     OW56061  10.750   2.718   8.846
52012SOL    HW156062  10.693   2.770   8.783
52012SOL    HW256063  10.846   2.730   8.822
52013SOL     OW56064   9.382   2.028   7.766
52013SOL    HW156065   9.365   2.111   7.712
52013SOL    HW256066   9.472   1.991   7.744
52014SOL     OW56067  10.493   3.197   7.567
52014SOL    HW156068  10.394   3.186   7.569
52014SOL    HW256069  10.527   3.212   7.660
52015SOL     OW56070   9.923   2.704   8.879
52015SOL    HW156071   9.979   2.785   8.862
52015SOL    HW256072   9.982   2.624   8.882
52016SOL     OW56073  10.803   3.629   8.407
52016SOL    HW156074  10.836   3.693   8.338
52016SOL    HW256075  10.869   3.623   8.482
52017SOL     OW56076  10.026   2.427   9.156
52017SOL    HW156077  10.045   2.492   9.230
52017SOL    HW256078  10.086   2.347   9.165
52018SOL     OW56079  10.760   3.082   9.081
52018SOL    HW156080  10.751   3.072   9.180
52018SOL    HW256081  10.856   3.075   9.055
52019SOL     OW56082   9.700   3.603   9.008
52019SOL    HW156083   9.609   3.644   9.006
52019SOL    HW256084   9.693   3.509   9.040
52020SOL     OW56085  10.984   2.745   8.702
52020SOL    HW156086  10.957   2.656   8.665
52020SOL    HW256087  10.985   2.813   8.629
52021SOL     OW56088  10.535   2.187   7.897
52021SOL    HW156089  10.600   2.113   7.886
52021SOL    HW256090  10.555   2.237   7.981
52022SOL     OW56091   9.904   2.607   8.100
52022SOL    HW156092   9.954   2.692   8.081
52022SOL    HW256093   9.816   2.609   8.052
52023SOL     OW56094  11.087   2.204   9.090
52023SOL    HW156095  11.070   2.235   8.996
52023SOL    HW256096  11.003   2.167   9.128
52024SOL     OW56097  11.040   2.796   8.965
52024SOL    HW156098  11.078   2.887   8.980
52024SOL    HW256099  11.032   2.779   8.866
52025SOL     OW56100  10.169   3.236   7.464
52025SOL    HW156101  10.123   3.251   7.552
52025SOL    HW256102  10.213   3.321   7.434
52026SOL     OW56103   9.971   3.652   8.401
52026SOL    HW156104   9.925   3.740   8.388
52026SOL    HW256105  10.070   3.664   8.394
52027SOL     OW56106  10.169   2.818   8.309
52027SOL    HW156107  10.223   2.749   8.357
52027SOL    HW256108  10.137   2.887   8.375
52028SOL     OW56109  10.393   2.846   7.535
52028SOL    HW156110  10.370   2.899   7.453
52028SOL    HW256111  10.474   2.790   7.516
52029SOL     OW56112  11.171   3.431   8.299
52029SOL    HW156113  11.100   3.419   8.229
52029SOL    HW256114  11.172   3.352   8.359
52030SOL     OW56115   9.531   3.176   9.292
52030SOL    HW156116   9.466   3.103   9.271
52030SOL    HW256117   9.535   3.190   9.390
52031SOL     OW56118   9.389   3.102   8.101
52031SOL    HW156119   9.388   3.055   8.189
52031SOL    HW256120   9.471   3.074   8.050
52032SOL     OW56121   9.982   3.253   9.072
52032SOL    HW156122   9.904   3.203   9.110
52032SOL    HW256123   9.979   3.348   9.103
52033SOL     OW56124  11.134   2.054   8.675
52033SOL    HW156125  11.130   1.964   8.719
52033SOL    HW256126  11.137   2.043   8.576
52034SOL     OW56127   9.738   2.286   7.968
52034SOL    HW156128   9.768   2.214   7.906
52034SOL    HW256129   9.699   2.246   8.051
52035SOL     OW56130  11.015   3.349   8.552
52035SOL    HW156131  10.922   3.324   8.525
52035SOL    HW256132  11.041   3.299   8.634
52036SOL     OW56133   9.627   2.409   8.728
52036SOL    HW156134   9.665   2.350   8.800
52036SOL    HW256135   9.667   2.383   8.640
52037SOL     OW56136  10.122   3.448   8.135
52037SOL    HW156137  10.154   3.458   8.041
52037SOL    HW256138  10.043   3.386   8.137
52038SOL     OW56139  10.734   2.076   8.560
52038SOL    HW156140  10.786   2.011   8.615
52038SOL    HW256141  10.685   2.139   8.621
52039SOL     OW56142  10.311   1.896   8.602
52039SOL    HW156143  10.248   1.824   8.571
52039SOL    HW256144  10.404   1.860   8.602
52040SOL     OW56145  10.080   3.192   7.749
52040SOL    HW156146  10.034   3.105   7.766
52040SOL    HW256147  10.171   3.189   7.790
52041SOL     OW56148   9.928   3.429   8.732
52041SOL    HW156149   9.923   3.511   8.789
52041SOL    HW256150  10.017   3.426   8.687
52042SOL     OW56151  10.662   1.914   7.616
52042SOL    HW156152  10.697   1.873   7.532
52042SOL    HW256153  10.572   1.876   7.636
52043SOL     OW56154  10.610   2.315   8.139
52043SOL    HW156155  10.551   2.395   8.143
52043SOL    HW256156  10.625   2.280   8.232
52044SOL     OW56157  10.903   2.083   8.330
52044SOL    HW156158  10.819   2.082   8.384
52044SOL    HW256159  10.905   2.166   8.274
52045SOL     OW56160   9.349   2.939   7.748
52045SOL    HW156161   9.448   2.928   7.739
52045SOL    HW256162   9.309   2.853   7.780
52046SOL     OW56163  10.185   3.508   7.785
52046SOL    HW156164  10.108   3.473   7.731
52046SOL    HW256165  10.153   3.579   7.847
52047SOL     OW56166   9.540   2.490   9.423
52047SOL    HW156167   9.447   2.488   9.460
52047SOL    HW256168   9.541   2.451   9.331
52048SOL     OW56169   9.535   2.137  10.306
52048SOL    HW156170   9.570   2.120  10.398
52048SOL    HW256171   9.447   2.092  10.294
52049SOL     OW56172   9.329   2.230   9.957
52049SOL    HW156173   9.247   2.273   9.996
52049SOL    HW256174   9.301   2.157   9.894
52050SOL     OW56175   9.879   3.137  10.475
52050SOL    HW156176   9.786   3.130  10.438
52050SOL    HW256177   9.890   3.226  10.519
52051SOL     OW56178  10.865   3.373  10.013
52051SOL    HW156179  10.808   3.357  10.094
52051SOL    HW256180  10.806   3.383   9.933
52052SOL     OW56181  10.445   2.565  10.027
52052SOL    HW156182  10.502   2.643  10.002
52052SOL    HW256183  10.385   2.591  10.103
52053SOL     OW56184  11.065   2.469   9.541
52053SOL    HW156185  11.053   2.456   9.442
52053SOL    HW256186  11.035   2.388   9.590
52054SOL     OW56187  10.078   3.006  10.333
52054SOL    HW156188  10.000   3.023  10.393
52054SOL    HW256189  10.112   3.093  10.297
52055SOL     OW56190  10.160   2.660  11.133
52055SOL    HW156191  10.156   2.736  11.198
52055SOL    HW256192  10.182   2.696  11.042
52056SOL     OW56193   9.995   2.874   9.975
52056SOL    HW156194  10.064   2.858  10.045
52056SOL    HW256195   9.922   2.931  10.013
52057SOL     OW56196   9.996   3.023  11.113
52057SOL    HW156197  10.056   3.102  11.127
52057SOL    HW256198   9.910   3.054  11.072
52058SOL     OW56199   9.645   3.297  10.371
52058SOL    HW156200   9.567   3.266  10.318
52058SOL    HW256201   9.703   3.355  10.314
52059SOL     OW56202  10.770   3.367  10.649
52059SOL    HW156203  10.794   3.461  10.675
52059SOL    HW256204  10.754   3.313  10.731
52060SOL     OW56205   9.748   2.254  10.809
52060SOL    HW156206   9.830   2.198  10.818
52060SOL    HW256207   9.667   2.196  10.813
52061SOL     OW56208  10.913   2.309  10.047
52061SOL    HW156209  10.839   2.355   9.997
52061SOL    HW256210  10.964   2.377  10.100
52062SOL     OW56211   9.541   3.575   9.793
52062SOL    HW156212   9.575   3.652   9.847
52062SOL    HW256213   9.585   3.575   9.703
52063SOL     OW56214  10.437   3.203  11.000
52063SOL    HW156215  10.484   3.203  11.088
52063SOL    HW256216  10.389   3.116  10.989
52064SOL     OW56217   9.540   3.296   9.848
52064SOL    HW156218   9.514   3.392   9.848
52064SOL    HW256219   9.469   3.242   9.893
52065SOL     OW56220   9.550   2.953  10.196
52065SOL    HW156221   9.564   2.869  10.248
52065SOL    HW256222   9.495   3.017  10.251
52066SOL     OW56223   9.930   3.648  10.749
52066SOL    HW156224   9.838   3.631  10.784
52066SOL    HW256225   9.958   3.740  10.775
52067SOL     OW56226   9.916   2.826   9.433
52067SOL    HW156227   9.923   2.910   9.379
52067SOL    HW256228   9.962   2.839   9.521
52068SOL     OW56229  10.904   1.976  10.790
52068SOL    HW156230  10.886   2.043  10.718
52068SOL    HW256231  10.901   2.022  10.879
52069SOL     OW56232   9.432   2.505   9.873
52069SOL    HW156233   9.387   2.417   9.890
52069SOL    HW256234   9.431   2.559   9.957
52070SOL     OW56235  11.152   3.629   9.669
52070SOL    HW156236  11.206   3.600   9.749
52070SOL    HW256237  11.182   3.719   9.640
52071SOL     OW56238   9.337   3.458   9.427
52071SOL    HW156239   9.318   3.362   9.448
52071SOL    HW256240   9.304   3.516   9.502
52072SOL     OW56241  10.999   2.784   9.922
52072SOL    HW156242  11.094   2.755   9.930
52072SOL    HW256243  10.991   2.849   9.847
52073SOL     OW56244  10.951   2.970   9.742
52073SOL    HW156245  11.037   2.972   9.690
52073SOL    HW256246  10.965   3.017   9.830
52074SOL     OW56247   9.423   2.599  10.907
52074SOL    HW156248   9.511   2.586  10.952
52074SOL    HW256249   9.410   2.696  10.885
52075SOL     OW56250   9.923   3.227  10.036
52075SOL    HW156251   9.874   3.140  10.045
52075SOL    HW256252   9.900   3.270   9.949
52076SOL     OW56253  10.603   3.090  10.733
52076SOL    HW156254  10.640   3.017  10.675
52076SOL    HW256255  10.655   3.095  10.818
52077SOL     OW56256  10.119   1.866   9.812
52077SOL    HW156257  10.159   1.957   9.803
52077SOL    HW256258  10.019   1.874   9.818
52078SOL     OW56259   9.507   2.838  10.574
52078SOL    HW156260   9.596   2.793  10.560
52078SOL    HW256261   9.434   2.773  10.555
52079SOL     OW56262  10.835   2.861   9.500
52079SOL    HW156263  10.772   2.785   9.513
52079SOL    HW256264  10.883   2.879   9.586
52080SOL     OW56265  10.497   3.654  10.926
52080SOL    HW156266  10.521   3.714  10.850
52080SOL    HW256267  10.504   3.559  10.896
52081SOL     OW56268   9.627   2.113  11.111
52081SOL    HW156269   9.698   2.184  11.117
52081SOL    HW256270   9.539   2.152  11.139
52082SOL     OW56271  10.776   3.279  10.263
52082SOL    HW156272  10.717   3.285  10.343
52082SOL    HW256273  10.761   3.191  10.217
52083SOL     OW56274  10.977   3.576   9.882
52083SOL    HW156275  10.936   3.553   9.794
52083SOL    HW256276  10.959   3.502   9.947
52084SOL     OW56277   9.908   2.591   9.580
52084SOL    HW156278   9.932   2.660   9.512
52084SOL    HW256279   9.830   2.624   9.634
52085SOL     OW56280  10.591   2.207  10.254
52085SOL    HW156281  10.505   2.157  10.241
52085SOL    HW256282  10.653   2.153  10.310
52086SOL     OW56283  10.886   3.524   9.617
52086SOL    HW156284  10.975   3.570   9.620
52086SOL    HW256285  10.865   3.500   9.522
52087SOL     OW56286  10.117   2.467  10.775
52087SOL    HW156287  10.070   2.464  10.864
52087SOL    HW256288  10.066   2.412  10.709
52088SOL     OW56289  10.704   2.331  10.984
52088SOL    HW156290  10.684   2.374  11.072
52088SOL    HW256291  10.782   2.269  10.993
52089SOL     OW56292  10.283   2.752  10.882
52089SOL    HW156293  10.329   2.668  10.853
52089SOL    HW256294  10.227   2.786  10.807
52090SOL     OW56295  10.301   2.272  10.552
52090SOL    HW156296  10.224   2.306  10.606
52090SOL    HW256297  10.267   2.221  10.473
52091SOL     OW56298  10.351   2.563   9.739
52091SOL    HW156299  10.377   2.559   9.835
52091SOL    HW256300  10.266   2.512   9.725
52092SOL     OW56301   9.386   2.673  10.099
52092SOL    HW156302   9.485   2.661  10.108
52092SOL    HW256303   9.362   2.768  10.120
52093SOL     OW56304   9.440   3.683  10.881
52093SOL    HW156305   9.430   3.668  10.980
52093SOL    HW256306   9.354   3.719  10.845
52094SOL     OW56307  10.175   2.210   9.505
52094SOL    HW156308  10.234   2.273   9.456
52094SOL    HW256309  10.194   2.116   9.476
52095SOL     OW56310  11.029   2.447  11.141
52095SOL    HW156311  11.003   2.536  11.105
52095SOL    HW256312  11.027   2.379  11.068
52096SOL     OW56313  10.672   3.006   9.855
52096SOL    HW156314  10.755   2.977   9.807
52096SOL    HW256315  10.623   3.073   9.799
52097SOL     OW56316   9.860   2.058  10.195
52097SOL    HW156317   9.855   2.053  10.295
52097SOL    HW256318   9.862   2.154  10.166
52098SOL     OW56319  10.318   3.318   9.787
52098SOL    HW156320  10.272   3.390   9.735
52098SOL    HW256321  10.314   3.338   9.885
52099SOL     OW56322   9.661   3.663  10.163
52099SOL    HW156323   9.711   3.577  10.169
52099SOL    HW256324   9.726   3.740  10.160
52100SOL     OW56325  11.105   2.928  10.183
52100SOL    HW156326  11.043   2.913  10.107
52100SOL    HW256327  11.053   2.939  10.268
52101SOL     OW56328  10.537   3.412  10.816
52101SOL    HW156329  10.543   3.335  10.880
52101SOL    HW256330  10.485   3.386  10.736
52102SOL     OW56331   9.631   2.805   9.552
52102SOL    HW156332   9.713   2.844   9.510
52102SOL    HW256333   9.604   2.723   9.503
52103SOL     OW56334  10.768   2.597  10.038
52103SOL    HW156335  10.763   2.532  10.113
52103SOL    HW256336  10.848   2.656  10.051
52104SOL     OW56337   9.771   3.128  11.037
52104SOL    HW156338   9.721   3.129  10.951
52104SOL    HW256339   9.708   3.110  11.113
52105SOL     OW56340  10.421   3.638   9.547
52105SOL    HW156341  10.361   3.576   9.597
52105SOL    HW256342  10.452   3.594   9.462
52106SOL     OW56343   9.512   2.147  10.808
52106SOL    HW156344   9.432   2.207  10.795
52106SOL    HW256345   9.502   2.098  10.894
52107SOL     OW56346  10.942   3.239   9.391
52107SOL    HW156347  10.910   3.333   9.381
52107SOL    HW256348  10.866   3.176   9.379
52108SOL     OW56349   9.774   3.605   9.633
52108SOL    HW156350   9.807   3.644   9.719
52108SOL    HW256351   9.850   3.598   9.568
52109SOL     OW56352  10.710   1.969   9.736
52109SOL    HW156353  10.686   1.932   9.646
52109SOL    HW256354  10.809   1.985   9.740
52110SOL     OW56355   9.559   3.647  10.551
52110SOL    HW156356   9.616   3.582  10.601
52110SOL    HW256357   9.543   3.614  10.458
52111SOL     OW56358  10.250   3.560  10.214
52111SOL    HW156359  10.330   3.503  10.235
52111SOL    HW256360  10.201   3.520  10.137
52112SOL     OW56361   9.692   2.562   9.790
52112SOL    HW156362   9.737   2.472   9.787
52112SOL    HW256363   9.598   2.551   9.823
52113SOL     OW56364  10.857   2.084  11.039
52113SOL    HW156365  10.852   2.121  11.131
52113SOL    HW256366  10.785   2.015  11.027
52114SOL     OW56367   9.924   1.984   9.427
52114SOL    HW156368  10.022   1.962   9.434
52114SOL    HW256369   9.893   1.967   9.334
52115SOL     OW56370  10.091   2.126  11.059
52115SOL    HW156371  10.158   2.065  11.102
52115SOL    HW256372  10.018   2.145  11.124
52116SOL     OW56373  10.198   3.376  10.505
52116SOL    HW156374  10.175   3.351  10.411
52116SOL    HW256375  10.259   3.307  10.544
52117SOL     OW56376  10.661   2.452  10.743
52117SOL    HW156377  10.689   2.409  10.828
52117SOL    HW256378  10.686   2.548  10.744
52118SOL     OW56379  10.113   3.264  10.234
52118SOL    HW156380  10.203   3.278  10.192
52118SOL    HW256381  10.042   3.266  10.163
52119SOL     OW56382  10.232   2.365  10.209
52119SOL    HW156383  10.207   2.356  10.113
52119SOL    HW256384  10.280   2.283  10.240
52120SOL     OW56385   9.849   1.926   9.822
52120SOL    HW156386   9.768   1.927   9.880
52120SOL    HW256387   9.852   2.009   9.767
52121SOL     OW56388  10.744   3.050   9.351
52121SOL    HW156389  10.776   2.974   9.408
52121SOL    HW256390  10.652   3.077   9.381
52122SOL     OW56391   9.607   1.897   9.481
52122SOL    HW156392   9.656   1.981   9.460
52122SOL    HW256393   9.669   1.832   9.526
52123SOL     OW56394  10.245   2.098   9.790
52123SOL    HW156395  10.197   2.139   9.712
52123SOL    HW256396  10.344   2.096   9.771
52124SOL     OW56397  10.386   2.545  10.774
52124SOL    HW156398  10.306   2.484  10.777
52124SOL    HW256399  10.467   2.492  10.750
52125SOL     OW56400  10.537   3.432  10.103
52125SOL    HW156401  10.558   3.506  10.038
52125SOL    HW256402  10.605   3.432  10.176
52126SOL     OW56403   9.769   3.014  10.051
52126SOL    HW156404   9.698   2.987  10.116
52126SOL    HW256405   9.743   2.986   9.958
52127SOL     OW56406  10.581   3.659   9.901
52127SOL    HW156407  10.625   3.723   9.837
52127SOL    HW256408  10.531   3.711   9.971
52128SOL     OW56409  10.342   2.411   9.326
52128SOL    HW156410  10.301   2.493   9.287
52128SOL    HW256411  10.406   2.437   9.399
52129SOL     OW56412   9.388   2.418  10.696
52129SOL    HW156413   9.480   2.417  10.655
52129SOL    HW256414   9.382   2.492  10.763
52130SOL     OW56415   9.871   2.084  10.457
52130SOL    HW156416   9.909   2.000  10.494
52130SOL    HW256417   9.783   2.103  10.501
52131SOL     OW56418  10.176   2.316   9.952
52131SOL    HW156419  10.144   2.388   9.890
52131SOL    HW256420  10.200   2.235   9.899
52132SOL     OW56421  10.327   1.901  10.063
52132SOL    HW156422  10.255   1.906   9.994
52132SOL    HW256423  10.303   1.832  10.132
52133SOL     OW56424  10.739   3.035  10.177
52133SOL    HW156425  10.684   2.951  10.170
52133SOL    HW256426  10.765   3.064  10.085
52134SOL     OW56427  10.776   2.452  10.302
52134SOL    HW156428  10.746   2.357  10.309
52134SOL    HW256429  10.849   2.468  10.368
52135SOL     OW56430  11.167   2.695   9.687
52135SOL    HW156431  11.209   2.631   9.751
52135SOL    HW256432  11.129   2.644   9.609
52136SOL     OW56433   9.798   3.247   9.484
52136SOL    HW156434   9.711   3.232   9.531
52136SOL    HW256435   9.781   3.273   9.389
52137SOL     OW56436  10.974   3.142   9.967
52137SOL    HW156437  11.073   3.150   9.981
52137SOL    HW256438  10.929   3.226   9.998
52138SOL     OW56439  10.700   2.437   9.388
52138SOL    HW156440  10.646   2.416   9.469
52138SOL    HW256441  10.791   2.396   9.397
52139SOL     OW56442   9.837   2.118   9.638
52139SOL    HW156443   9.864   2.059   9.563
52139SOL    HW256444   9.837   2.213   9.607
52140SOL     OW56445  11.064   3.085  10.898
52140SOL    HW156446  11.155   3.046  10.885
52140SOL    HW256447  11.072   3.181  10.922
52141SOL     OW56448  10.374   3.209  10.650
52141SOL    HW156449  10.294   3.186  10.705
52141SOL    HW256450  10.457   3.183  10.699
52142SOL     OW56451  10.902   3.491  10.935
52142SOL    HW156452  10.929   3.525  10.845
52142SOL    HW256453  10.981   3.453  10.981
52143SOL     OW56454  10.421   3.057  10.410
52143SOL    HW156455  10.381   3.101  10.491
52143SOL    HW256456  10.380   3.094  10.327
52144SOL     OW56457  10.948   2.961  10.389
52144SOL    HW156458  10.953   3.042  10.448
52144SOL    HW256459  10.862   2.963  10.338
52145SOL     OW56460  10.225   1.951  10.712
52145SOL    HW156461  10.250   1.931  10.617
52145SOL    HW256462  10.297   2.007  10.754
52146SOL     OW56463  10.290   2.978  11.029
52146SOL    HW156464  10.191   2.984  11.039
52146SOL    HW256465  10.313   2.898  10.973
52147SOL     OW56466  10.015   2.912   9.678
52147SOL    HW156467  10.001   2.919   9.777
52147SOL    HW256468  10.099   2.861   9.660
52148SOL     OW56469   9.720   2.675  10.561
52148SOL    HW156470   9.806   2.687  10.611
52148SOL    HW256471   9.678   2.588  10.588
52149SOL     OW56472  10.584   2.248  10.572
52149SOL    HW156473  10.605   2.322  10.636
52149SOL    HW256474  10.495   2.265  10.529
52150SOL     OW56475   9.374   3.426  10.641
52150SOL    HW156476   9.328   3.508  10.607
52150SOL    HW256477   9.472   3.445  10.650
52151SOL     OW56478   9.677   2.962   9.811
52151SOL    HW156479   9.670   3.045   9.755
52151SOL    HW256480   9.681   2.882   9.751
52152SOL     OW56481   9.876   2.399  10.175
52152SOL    HW156482   9.888   2.465  10.101
52152SOL    HW256483   9.922   2.433  10.258
52153SOL     OW56484  10.562   3.210   9.698
52153SOL    HW156485  10.612   3.287   9.738
52153SOL    HW256486  10.467   3.212   9.730
52154SOL     OW56487  10.582   3.307  10.452
52154SOL    HW156488  10.629   3.320  10.539
52154SOL    HW256489  10.516   3.233  10.461
52155SOL     OW56490  10.892   2.501   9.782
52155SOL    HW156491  10.861   2.562   9.855
52155SOL    HW256492  10.942   2.553   9.713
52156SOL     OW56493   9.664   3.372  10.639
52156SOL    HW156494   9.643   3.328  10.552
52156SOL    HW256495   9.761   3.398  10.642
52157SOL     OW56496   9.712   2.613  10.908
52157SOL    HW156497   9.780   2.668  10.861
52157SOL    HW256498   9.752   2.525  10.935
52158SOL     OW56499  10.897   2.641  10.980
52158SOL    HW156500  10.805   2.679  10.975
52158SOL    HW256501  10.957   2.688  10.915
52159SOL     OW56502  10.323   1.967  11.080
52159SOL    HW156503  10.329   2.052  11.028
52159SOL    HW256504  10.355   1.891  11.023
52160SOL     OW56505   9.814   1.912  11.050
52160SOL    HW156506   9.772   1.855  10.980
52160SOL    HW256507   9.748   1.981  11.082
52161SOL     OW56508   9.883   2.732  10.339
52161SOL    HW156509   9.927   2.821  10.330
52161SOL    HW256510   9.820   2.732  10.416
52162SOL     OW56511  10.670   2.724  10.355
52162SOL    HW156512  10.595   2.724  10.289
52162SOL    HW256513  10.707   2.632  10.364
52163SOL     OW56514  10.519   2.387   9.585
52163SOL    HW156515  10.532   2.303   9.639
52163SOL    HW256516  10.490   2.461   9.645
52164SOL     OW56517   9.617   2.075  10.541
52164SOL    HW156518   9.594   2.112  10.631
52164SOL    HW256519   9.587   1.980  10.535
52165SOL     OW56520   9.347   3.172  10.592
52165SOL    HW156521   9.400   3.123  10.660
52165SOL    HW256522   9.369   3.270  10.597
52166SOL     OW56523  10.042   2.496  10.374
52166SOL    HW156524  10.101   2.470  10.298
52166SOL    HW256525  10.014   2.592  10.363
52167SOL     OW56526  11.038   2.797  11.164
52167SOL    HW156527  10.992   2.790  11.075
52167SOL    HW256528  10.976   2.841  11.230
52168SOL     OW56529   9.617   1.925   9.928
52168SOL    HW156530   9.606   2.019   9.961
52168SOL    HW256531   9.612   1.862  10.005
52169SOL     OW56532  10.932   2.229   9.684
52169SOL    HW156533  10.934   2.153   9.748
52169SOL    HW256534  10.884   2.306   9.724
52170SOL     OW56535  10.333   2.628  10.276
52170SOL    HW156536  10.348   2.649  10.372
52170SOL    HW256537  10.303   2.533  10.267
52171SOL     OW56538  10.290   3.435  11.010
52171SOL    HW156539  10.270   3.479  10.922
52171SOL    HW256540  10.329   3.344  10.994
52172SOL     OW56541  11.169   3.380  10.915
52172SOL    HW156542  11.183   3.407  10.820
52172SOL    HW256543  11.252   3.402  10.968
52173SOL     OW56544   9.660   2.760  11.114
52173SOL    HW156545   9.736   2.804  11.162
52173SOL    HW256546   9.695   2.713  11.032
52174SOL     OW56547  10.850   2.136   9.435
52174SOL    HW156548  10.789   2.061   9.458
52174SOL    HW256549  10.872   2.188   9.518
52175SOL     OW56550  10.613   2.700   9.352
52175SOL    HW156551  10.647   2.607   9.367
52175SOL    HW256552  10.631   2.727   9.257
52176SOL     OW56553  10.378   3.195  10.159
52176SOL    HW156554  10.385   3.111  10.104
52176SOL    HW256555  10.440   3.264  10.123
52177SOL     OW56556   9.629   2.672  10.259
52177SOL    HW156557   9.722   2.708  10.264
52177SOL    HW256558   9.623   2.587  10.311
52178SOL     OW56559   9.649   2.371  10.316
52178SOL    HW156560   9.597   2.288  10.299
52178SOL    HW256561   9.726   2.376  10.252
52179SOL     OW56562  10.448   2.242  10.988
52179SOL    HW156563  10.403   2.305  11.052
52179SOL    HW256564  10.541   2.273  10.971
52180SOL     OW56565  10.470   2.069  10.787
52180SOL    HW156566  10.470   2.133  10.864
52180SOL    HW256567  10.498   2.117  10.704
52181SOL     OW56568   9.318   3.188   9.510
52181SOL    HW156569   9.225   3.209   9.479
52181SOL    HW256570   9.328   3.089   9.523
52182SOL     OW56571   9.398   3.663  10.237
52182SOL    HW156572   9.356   3.577  10.210
52182SOL    HW256573   9.492   3.666  10.203
52183SOL     OW56574   9.814   3.430  10.220
52183SOL    HW156575   9.880   3.504  10.229
52183SOL    HW256576   9.858   3.351  10.178
52184SOL     OW56577  10.312   2.658  10.548
52184SOL    HW156578  10.353   2.626  10.634
52184SOL    HW256579  10.216   2.631  10.545
52185SOL     OW56580   9.350   2.406  10.424
52185SOL    HW156581   9.435   2.373  10.383
52185SOL    HW256582   9.363   2.421  10.522
52186SOL     OW56583   9.499   2.382  11.032
52186SOL    HW156584   9.558   2.342  10.962
52186SOL    HW256585   9.441   2.453  10.991
52187SOL     OW56586  10.679   2.812  10.970
52187SOL    HW156587  10.718   2.901  10.990
52187SOL    HW256588  10.689   2.792  10.873
52188SOL     OW56589  10.125   2.434   9.635
52188SOL    HW156590  10.132   2.345   9.589
52188SOL    HW256591  10.031   2.468   9.627
52189SOL     OW56592  10.967   2.466  10.516
52189SOL    HW156593  10.929   2.397  10.578
52189SOL    HW256594  11.049   2.430  10.472
52190SOL     OW56595   9.562   3.426  11.054
52190SOL    HW156596   9.532   3.483  11.130
52190SOL    HW256597   9.555   3.329  11.080
52191SOL     OW56598   9.981   2.326  10.579
52191SOL    HW156599   9.947   2.237  10.549
52191SOL    HW256600  10.007   2.380  10.499
52192SOL     OW56601  10.240   3.540  10.775
52192SOL    HW156602  10.216   3.522  10.680
52192SOL    HW256603  10.270   3.634  10.785
52193SOL     OW56604   9.783   2.362   9.501
52193SOL    HW156605   9.844   2.442   9.505
52193SOL    HW256606   9.688   2.393   9.508
52194SOL     OW56607   9.469   2.999  10.776
52194SOL    HW156608   9.491   2.938  10.852
52194SOL    HW256609   9.479   2.950  10.690
52195SOL     OW56610  10.657   2.921  10.544
52195SOL    HW156611  10.681   2.858  10.470
52195SOL    HW256612  10.567   2.961  10.526
52196SOL     OW56613  10.612   2.717   9.619
52196SOL    HW156614  10.526   2.686   9.661
52196SOL    HW256615  10.608   2.703   9.520
52197SOL     OW56616  11.069   3.609  10.464
52197SOL    HW156617  11.130   3.639  10.391
52197SOL    HW256618  11.031   3.520  10.442
52198SOL     OW56619  10.562   3.593  10.438
52198SOL    HW156620  10.646   3.598  10.384
52198SOL    HW256621  10.539   3.497  10.456
52199SOL     OW56622   9.393   3.120  10.332
52199SOL    HW156623   9.388   3.119  10.432
52199SOL    HW256624   9.310   3.079  10.294
52200SOL     OW56625   9.998   3.524  11.026
52200SOL    HW156626   9.942   3.605  11.035
52200SOL    HW256627  10.050   3.528  10.940
52201SOL     OW56628  11.036   1.997   9.833
52201SOL    HW156629  11.109   1.980   9.766
52201SOL    HW256630  11.005   1.910   9.871
52202SOL     OW56631  10.698   3.435   9.787
52202SOL    HW156632  10.765   3.447   9.713
52202SOL    HW256633  10.658   3.524   9.810
52203SOL     OW56634   9.440   3.656  11.161
52203SOL    HW156635   9.399   3.582  11.214
52203SOL    HW256636   9.504   3.707  11.219
52204SOL     OW56637  10.590   2.789   9.982
52204SOL    HW156638  10.650   2.708   9.984
52204SOL    HW256639  10.630   2.858   9.922
52205SOL     OW56640  10.140   3.135  10.732
52205SOL    HW156641  10.135   3.168  10.827
52205SOL    HW256642  10.054   3.154  10.686
52206SOL     OW56643   9.982   3.478   9.464
52206SOL    HW156644   9.991   3.488   9.365
52206SOL    HW256645   9.942   3.389   9.485
52207SOL     OW56646  10.960   3.582  10.704
52207SOL    HW156647  11.013   3.592  10.620
52207SOL    HW256648  10.933   3.672  10.738
52208SOL     OW56649  11.151   2.037  10.273
52208SOL    HW156650  11.190   1.952  10.237
52208SOL    HW256651  11.053   2.039  10.254
52209SOL     OW56652   9.573   2.188  10.030
52209SOL    HW156653   9.494   2.239   9.996
52209SOL    HW256654   9.564   2.173  10.128
52210SOL     OW56655  10.504   3.474   9.341
52210SOL    HW156656  10.510   3.381   9.378
52210SOL    HW256657  10.445   3.474   9.261
52211SOL     OW56658  10.132   2.864  10.682
52211SOL    HW156659  10.172   2.863  10.590
52211SOL    HW256660  10.142   2.956  10.722
52212SOL     OW56661  10.226   2.772   9.601
52212SOL    HW156662  10.289   2.810   9.533
52212SOL    HW256663  10.266   2.689   9.640
52213SOL     OW56664  10.814   3.469   9.354
52213SOL    HW156665  10.722   3.506   9.361
52213SOL    HW256666  10.852   3.489   9.264
52214SOL     OW56667   9.682   3.150  10.800
52214SOL    HW156668   9.669   3.243  10.766
52214SOL    HW256669   9.598   3.098  10.787
52215SOL     OW56670  10.924   3.154  10.599
52215SOL    HW156671  10.984   3.157  10.679
52215SOL    HW256672  10.849   3.218  10.612
52216SOL     OW56673  10.349   2.960  10.006
52216SOL    HW156674  10.279   2.913  10.060
52216SOL    HW256675  10.408   2.892   9.963
52217SOL     OW56676  10.324   2.098  10.281
52217SOL    HW156677  10.316   2.062  10.188
52217SOL    HW256678  10.322   2.022  10.346
52218SOL     OW56679   9.900   3.349   9.801
52218SOL    HW156680   9.942   3.291   9.731
52218SOL    HW256681   9.856   3.428   9.757
52219SOL     OW56682  11.019   2.247  10.691
52219SOL    HW156683  11.092   2.316  10.695
52219SOL    HW256684  11.047   2.172  10.632
52220SOL     OW56685   9.565   3.210   9.600
52220SOL    HW156686   9.469   3.211   9.573
52220SOL    HW256687   9.577   3.263   9.684
52221SOL     OW56688   9.415   2.875  11.036
52221SOL    HW156689   9.338   2.842  11.090
52221SOL    HW256690   9.500   2.845  11.078
52222SOL     OW56691   9.982   2.065  10.799
52222SOL    HW156692  10.072   2.049  10.759
52222SOL    HW256693   9.990   2.070  10.898
52223SOL     OW56694   9.385   2.207   9.343
52223SOL    HW156695   9.293   2.179   9.314
52223SOL    HW256696   9.416   2.284   9.287
52224SOL     OW56697  10.750   2.718  10.708
52224SOL    HW156698  10.693   2.770  10.645
52224SOL    HW256699  10.846   2.730  10.684
52225SOL     OW56700   9.382   2.028   9.628
52225SOL    HW156701   9.365   2.111   9.574
52225SOL    HW256702   9.472   1.991   9.606
52226SOL     OW56703  10.493   3.197   9.429
52226SOL    HW156704  10.394   3.186   9.431
52226SOL    HW256705  10.527   3.212   9.522
52227SOL     OW56706   9.923   2.704  10.741
52227SOL    HW156707   9.979   2.785  10.724
52227SOL    HW256708   9.982   2.624  10.744
52228SOL     OW56709  10.803   3.629  10.269
52228SOL    HW156710  10.836   3.693  10.200
52228SOL    HW256711  10.869   3.623  10.344
52229SOL     OW56712  10.026   2.427  11.018
52229SOL    HW156713  10.045   2.492  11.092
52229SOL    HW256714  10.086   2.347  11.027
52230SOL     OW56715  10.760   3.082  10.943
52230SOL    HW156716  10.751   3.072  11.042
52230SOL    HW256717  10.856   3.075  10.917
52231SOL     OW56718   9.700   3.603  10.870
52231SOL    HW156719   9.609   3.644  10.868
52231SOL    HW256720   9.693   3.509  10.902
52232SOL     OW56721  10.984   2.745  10.564
52232SOL    HW156722  10.957   2.656  10.527
52232SOL    HW256723  10.985   2.813  10.491
52233SOL     OW56724  10.535   2.187   9.759
52233SOL    HW156725  10.600   2.113   9.748
52233SOL    HW256726  10.555   2.237   9.843
52234SOL     OW56727   9.904   2.607   9.962
52234SOL    HW156728   9.954   2.692   9.943
52234SOL    HW256729   9.816   2.609   9.914
52235SOL     OW56730  11.087   2.204  10.952
52235SOL    HW156731  11.070   2.235  10.858
52235SOL    HW256732  11.003   2.167  10.990
52236SOL     OW56733  11.040   2.796  10.827
52236SOL    HW156734  11.078   2.887  10.842
52236SOL    HW256735  11.032   2.779  10.728
52237SOL     OW56736  10.169   3.236   9.326
52237SOL    HW156737  10.123   3.251   9.414
52237SOL    HW256738  10.213   3.321   9.296
52238SOL     OW56739   9.971   3.652  10.263
52238SOL    HW156740   9.925   3.740  10.250
52238SOL    HW256741  10.070   3.664  10.256
52239SOL     OW56742  10.169   2.818  10.171
52239SOL    HW156743  10.223   2.749  10.219
52239SOL    HW256744  10.137   2.887  10.237
52240SOL     OW56745  10.393   2.846   9.397
52240SOL    HW156746  10.370   2.899   9.315
52240SOL    HW256747  10.474   2.790   9.378
52241SOL     OW56748  11.171   3.431  10.161
52241SOL    HW156749  11.100   3.419  10.091
52241SOL    HW256750  11.172   3.352  10.221
52242SOL     OW56751   9.531   3.176  11.154
52242SOL    HW156752   9.466   3.103  11.133
52242SOL    HW256753   9.535   3.190  11.252
52243SOL     OW56754   9.389   3.102   9.963
52243SOL    HW156755   9.388   3.055  10.051
52243SOL    HW256756   9.471   3.074   9.912
52244SOL     OW56757   9.982   3.253  10.934
52244SOL    HW156758   9.904   3.203  10.972
52244SOL    HW256759   9.979   3.348  10.965
52245SOL     OW56760  11.134   2.054  10.537
52245SOL    HW156761  11.130   1.964  10.581
52245SOL    HW256762  11.137   2.043  10.438
52246SOL     OW56763   9.738   2.286   9.830
52246SOL    HW156764   9.768   2.214   9.768
52246SOL    HW256765   9.699   2.246   9.913
52247SOL     OW56766  11.015   3.349  10.414
52247SOL    HW156767  10.922   3.324  10.387
52247SOL    HW256768  11.041   3.299  10.496
52248SOL     OW56769   9.627   2.409  10.590
52248SOL    HW156770   9.665   2.350  10.662
52248SOL    HW256771   9.667   2.383  10.502
52249SOL     OW56772  10.122   3.448   9.997
52249SOL    HW156773  10.154   3.458   9.903
52249SOL    HW256774  10.043   3.386   9.999
52250SOL     OW56775  10.734   2.076  10.422
52250SOL    HW156776  10.786   2.011  10.477
52250SOL    HW256777  10.685   2.139  10.483
52251SOL     OW56778  10.311   1.896  10.464
52251SOL    HW156779  10.248   1.824  10.433
52251SOL    HW256780  10.404   1.860  10.464
52252SOL     OW56781  10.080   3.192   9.611
52252SOL    HW156782  10.034   3.105   9.628
52252SOL    HW256783  10.171   3.189   9.652
52253SOL     OW56784   9.928   3.429  10.594
52253SOL    HW156785   9.923   3.511  10.651
52253SOL    HW256786  10.017   3.426  10.549
52254SOL     OW56787  10.662   1.914   9.478
52254SOL    HW156788  10.697   1.873   9.394
52254SOL    HW256789  10.572   1.876   9.498
52255SOL     OW56790  10.610   2.315  10.001
52255SOL    HW156791  10.551   2.395  10.005
52255SOL    HW256792  10.625   2.280  10.094
52256SOL     OW56793  10.903   2.083  10.192
52256SOL    HW156794  10.819   2.082  10.246
52256SOL    HW256795  10.905   2.166  10.136
52257SOL     OW56796   9.349   2.939   9.610
52257SOL    HW156797   9.448   2.928   9.601
52257SOL    HW256798   9.309   2.853   9.642
52258SOL     OW56799  10.185   3.508   9.647
52258SOL    HW156800  10.108   3.473   9.593
52258SOL    HW256801  10.153   3.579   9.709
52259SOL     OW56802   9.540   2.490  11.285
52259SOL    HW156803   9.447   2.488  11.322
52259SOL    HW256804   9.541   2.451  11.193
52260SOL     OW56805   9.535   2.137  12.168
52260SOL    HW156806   9.570   2.120  12.260
52260SOL    HW256807   9.447   2.092  12.156
52261SOL     OW56808   9.329   2.230  11.819
52261SOL    HW156809   9.247   2.273  11.858
52261SOL    HW256810   9.301   2.157  11.756
52262SOL     OW56811   9.879   3.137  12.337
52262SOL    HW156812   9.786   3.130  12.300
52262SOL    HW256813   9.890   3.226  12.381
52263SOL     OW56814  10.865   3.373  11.875
52263SOL    HW156815  10.808   3.357  11.956
52263SOL    HW256816  10.806   3.383  11.795
52264SOL     OW56817  10.445   2.565  11.889
52264SOL    HW156818  10.502   2.643  11.864
52264SOL    HW256819  10.385   2.591  11.965
52265SOL     OW56820  11.065   2.469  11.403
52265SOL    HW156821  11.053   2.456  11.304
52265SOL    HW256822  11.035   2.388  11.452
52266SOL     OW56823  10.078   3.006  12.195
52266SOL    HW156824  10.000   3.023  12.255
52266SOL    HW256825  10.112   3.093  12.159
52267SOL     OW56826   9.995   2.874  11.837
52267SOL    HW156827  10.064   2.858  11.907
52267SOL    HW256828   9.922   2.931  11.875
52268SOL     OW56829   9.645   3.297  12.233
52268SOL    HW156830   9.567   3.266  12.180
52268SOL    HW256831   9.703   3.355  12.176
52269SOL     OW56832  10.770   3.367  12.511
52269SOL    HW156833  10.794   3.461  12.537
52269SOL    HW256834  10.754   3.313  12.593
52270SOL     OW56835   9.748   2.254  12.671
52270SOL    HW156836   9.830   2.198  12.680
52270SOL    HW256837   9.667   2.196  12.675
52271SOL     OW56838  10.913   2.309  11.909
52271SOL    HW156839  10.839   2.355  11.859
52271SOL    HW256840  10.964   2.377  11.962
52272SOL     OW56841   9.541   3.575  11.655
52272SOL    HW156842   9.575   3.652  11.709
52272SOL    HW256843   9.585   3.575  11.565
52273SOL     OW56844   9.540   3.296  11.710
52273SOL    HW156845   9.514   3.392  11.710
52273SOL    HW256846   9.469   3.242  11.755
52274SOL     OW56847   9.550   2.953  12.058
52274SOL    HW156848   9.564   2.869  12.110
52274SOL    HW256849   9.495   3.017  12.113
52275SOL     OW56850   9.930   3.648  12.611
52275SOL    HW156851   9.838   3.631  12.646
52275SOL    HW256852   9.958   3.740  12.637
52276SOL     OW56853   9.916   2.826  11.295
52276SOL    HW156854   9.923   2.910  11.241
52276SOL    HW256855   9.962   2.839  11.383
52277SOL     OW56856  10.904   1.976  12.652
52277SOL    HW156857  10.886   2.043  12.580
52277SOL    HW256858  10.901   2.022  12.741
52278SOL     OW56859   9.432   2.505  11.735
52278SOL    HW156860   9.387   2.417  11.752
52278SOL    HW256861   9.431   2.559  11.819
52279SOL     OW56862  11.152   3.629  11.531
52279SOL    HW156863  11.206   3.600  11.611
52279SOL    HW256864  11.182   3.719  11.502
52280SOL     OW56865   9.337   3.458  11.289
52280SOL    HW156866   9.318   3.362  11.310
52280SOL    HW256867   9.304   3.516  11.364
52281SOL     OW56868  10.999   2.784  11.784
52281SOL    HW156869  11.094   2.755  11.792
52281SOL    HW256870  10.991   2.849  11.709
52282SOL     OW56871  10.951   2.970  11.604
52282SOL    HW156872  11.037   2.972  11.552
52282SOL    HW256873  10.965   3.017  11.692
52283SOL     OW56874   9.923   3.227  11.898
52283SOL    HW156875   9.874   3.140  11.907
52283SOL    HW256876   9.900   3.270  11.811
52284SOL     OW56877  10.119   1.866  11.674
52284SOL    HW156878  10.159   1.957  11.665
52284SOL    HW256879  10.019   1.874  11.680
52285SOL     OW56880   9.507   2.838  12.436
52285SOL    HW156881   9.596   2.793  12.422
52285SOL    HW256882   9.434   2.773  12.417
52286SOL     OW56883  10.835   2.861  11.362
52286SOL    HW156884  10.772   2.785  11.375
52286SOL    HW256885  10.883   2.879  11.448
52287SOL     OW56886   9.627   2.113  12.973
52287SOL    HW156887   9.698   2.184  12.979
52287SOL    HW256888   9.539   2.152  13.001
52288SOL     OW56889  10.776   3.279  12.125
52288SOL    HW156890  10.717   3.285  12.205
52288SOL    HW256891  10.761   3.191  12.079
52289SOL     OW56892  10.977   3.576  11.744
52289SOL    HW156893  10.936   3.553  11.656
52289SOL    HW256894  10.959   3.502  11.809
52290SOL     OW56895   9.908   2.591  11.442
52290SOL    HW156896   9.932   2.660  11.374
52290SOL    HW256897   9.830   2.624  11.496
52291SOL     OW56898  10.591   2.207  12.116
52291SOL    HW156899  10.505   2.157  12.103
52291SOL    HW256900  10.653   2.153  12.172
52292SOL     OW56901  10.886   3.524  11.479
52292SOL    HW156902  10.975   3.570  11.482
52292SOL    HW256903  10.865   3.500  11.384
52293SOL     OW56904  10.117   2.467  12.637
52293SOL    HW156905  10.070   2.464  12.726
52293SOL    HW256906  10.066   2.412  12.571
52294SOL     OW56907  10.301   2.272  12.414
52294SOL    HW156908  10.224   2.306  12.468
52294SOL    HW256909  10.267   2.221  12.335
52295SOL     OW56910  10.351   2.563  11.601
52295SOL    HW156911  10.377   2.559  11.697
52295SOL    HW256912  10.266   2.512  11.587
52296SOL     OW56913   9.386   2.673  11.961
52296SOL    HW156914   9.485   2.661  11.970
52296SOL    HW256915   9.362   2.768  11.982
52297SOL     OW56916   9.440   3.683  12.743
52297SOL    HW156917   9.430   3.668  12.842
52297SOL    HW256918   9.354   3.719  12.707
52298SOL     OW56919  10.175   2.210  11.367
52298SOL    HW156920  10.234   2.273  11.318
52298SOL    HW256921  10.194   2.116  11.338
52299SOL     OW56922  10.672   3.006  11.717
52299SOL    HW156923  10.755   2.977  11.669
52299SOL    HW256924  10.623   3.073  11.661
52300SOL     OW56925   9.860   2.058  12.057
52300SOL    HW156926   9.855   2.053  12.157
52300SOL    HW256927   9.862   2.154  12.028
52301SOL     OW56928  10.318   3.318  11.649
52301SOL    HW156929  10.272   3.390  11.597
52301SOL    HW256930  10.314   3.338  11.747
52302SOL     OW56931   9.661   3.663  12.025
52302SOL    HW156932   9.711   3.577  12.031
52302SOL    HW256933   9.726   3.740  12.022
52303SOL     OW56934  11.105   2.928  12.045
52303SOL    HW156935  11.043   2.913  11.969
52303SOL    HW256936  11.053   2.939  12.130
52304SOL     OW56937   9.631   2.805  11.414
52304SOL    HW156938   9.713   2.844  11.372
52304SOL    HW256939   9.604   2.723  11.365
52305SOL     OW56940  10.768   2.597  11.900
52305SOL    HW156941  10.763   2.532  11.975
52305SOL    HW256942  10.848   2.656  11.913
52306SOL     OW56943  10.421   3.638  11.409
52306SOL    HW156944  10.361   3.576  11.459
52306SOL    HW256945  10.452   3.594  11.324
52307SOL     OW56946   9.512   2.147  12.670
52307SOL    HW156947   9.432   2.207  12.657
52307SOL    HW256948   9.502   2.098  12.756
52308SOL     OW56949  10.942   3.239  11.253
52308SOL    HW156950  10.910   3.333  11.243
52308SOL    HW256951  10.866   3.176  11.241
52309SOL     OW56952   9.774   3.605  11.495
52309SOL    HW156953   9.807   3.644  11.581
52309SOL    HW256954   9.850   3.598  11.430
52310SOL     OW56955  10.710   1.969  11.598
52310SOL    HW156956  10.686   1.932  11.508
52310SOL    HW256957  10.809   1.985  11.602
52311SOL     OW56958   9.559   3.647  12.413
52311SOL    HW156959   9.616   3.582  12.463
52311SOL    HW256960   9.543   3.614  12.320
52312SOL     OW56961  10.250   3.560  12.076
52312SOL    HW156962  10.330   3.503  12.097
52312SOL    HW256963  10.201   3.520  11.999
52313SOL     OW56964   9.692   2.562  11.652
52313SOL    HW156965   9.737   2.472  11.649
52313SOL    HW256966   9.598   2.551  11.685
52314SOL     OW56967   9.924   1.984  11.289
52314SOL    HW156968  10.022   1.962  11.296
52314SOL    HW256969   9.893   1.967  11.196
52315SOL     OW56970  10.198   3.376  12.367
52315SOL    HW156971  10.175   3.351  12.273
52315SOL    HW256972  10.259   3.307  12.406
52316SOL     OW56973  10.113   3.264  12.096
52316SOL    HW156974  10.203   3.278  12.054
52316SOL    HW256975  10.042   3.266  12.025
52317SOL     OW56976  10.232   2.365  12.071
52317SOL    HW156977  10.207   2.356  11.975
52317SOL    HW256978  10.280   2.283  12.102
52318SOL     OW56979   9.849   1.926  11.684
52318SOL    HW156980   9.768   1.927  11.742
52318SOL    HW256981   9.852   2.009  11.629
52319SOL     OW56982  10.744   3.050  11.213
52319SOL    HW156983  10.776   2.974  11.270
52319SOL    HW256984  10.652   3.077  11.243
52320SOL     OW56985   9.607   1.897  11.343
52320SOL    HW156986   9.656   1.981  11.322
52320SOL    HW256987   9.669   1.832  11.388
52321SOL     OW56988  10.245   2.098  11.652
52321SOL    HW156989  10.197   2.139  11.574
52321SOL    HW256990  10.344   2.096  11.633
52322SOL     OW56991  10.537   3.432  11.965
52322SOL    HW156992  10.558   3.506  11.900
52322SOL    HW256993  10.605   3.432  12.038
52323SOL     OW56994   9.769   3.014  11.913
52323SOL    HW156995   9.698   2.987  11.978
52323SOL    HW256996   9.743   2.986  11.820
52324SOL     OW56997  10.581   3.659  11.763
52324SOL    HW156998  10.625   3.723  11.699
52324SOL    HW256999  10.531   3.711  11.833
52325SOL     OW57000  10.342   2.411  11.188
52325SOL    HW157001  10.301   2.493  11.149
52325SOL    HW257002  10.406   2.437  11.261
52326SOL     OW57003   9.388   2.418  12.558
52326SOL    HW157004   9.480   2.417  12.517
52326SOL    HW257005   9.382   2.492  12.625
52327SOL     OW57006   9.871   2.084  12.319
52327SOL    HW157007   9.909   2.000  12.356
52327SOL    HW257008   9.783   2.103  12.363
52328SOL     OW57009  10.176   2.316  11.814
52328SOL    HW157010  10.144   2.388  11.752
52328SOL    HW257011  10.200   2.235  11.761
52329SOL     OW57012  10.327   1.901  11.925
52329SOL    HW157013  10.255   1.906  11.856
52329SOL    HW257014  10.303   1.832  11.994
52330SOL     OW57015  10.739   3.035  12.039
52330SOL    HW157016  10.684   2.951  12.032
52330SOL    HW257017  10.765   3.064  11.947
52331SOL     OW57018  10.776   2.452  12.164
52331SOL    HW157019  10.746   2.357  12.171
52331SOL    HW257020  10.849   2.468  12.230
52332SOL     OW57021  11.167   2.695  11.549
52332SOL    HW157022  11.209   2.631  11.613
52332SOL    HW257023  11.129   2.644  11.471
52333SOL     OW57024   9.798   3.247  11.346
52333SOL    HW157025   9.711   3.232  11.393
52333SOL    HW257026   9.781   3.273  11.251
52334SOL     OW57027  10.974   3.142  11.829
52334SOL    HW157028  11.073   3.150  11.843
52334SOL    HW257029  10.929   3.226  11.860
52335SOL     OW57030  10.700   2.437  11.250
52335SOL    HW157031  10.646   2.416  11.331
52335SOL    HW257032  10.791   2.396  11.259
52336SOL     OW57033   9.837   2.118  11.500
52336SOL    HW157034   9.864   2.059  11.425
52336SOL    HW257035   9.837   2.213  11.469
52337SOL     OW57036  10.374   3.209  12.512
52337SOL    HW157037  10.294   3.186  12.567
52337SOL    HW257038  10.457   3.183  12.561
52338SOL     OW57039  10.421   3.057  12.272
52338SOL    HW157040  10.381   3.101  12.353
52338SOL    HW257041  10.380   3.094  12.189
52339SOL     OW57042  10.948   2.961  12.251
52339SOL    HW157043  10.953   3.042  12.310
52339SOL    HW257044  10.862   2.963  12.200
52340SOL     OW57045  10.225   1.951  12.574
52340SOL    HW157046  10.250   1.931  12.479
52340SOL    HW257047  10.297   2.007  12.616
52341SOL     OW57048  10.015   2.912  11.540
52341SOL    HW157049  10.001   2.919  11.639
52341SOL    HW257050  10.099   2.861  11.522
52342SOL     OW57051   9.720   2.675  12.423
52342SOL    HW157052   9.806   2.687  12.473
52342SOL    HW257053   9.678   2.588  12.450
52343SOL     OW57054  10.584   2.248  12.434
52343SOL    HW157055  10.605   2.322  12.498
52343SOL    HW257056  10.495   2.265  12.391
52344SOL     OW57057   9.374   3.426  12.503
52344SOL    HW157058   9.328   3.508  12.469
52344SOL    HW257059   9.472   3.445  12.512
52345SOL     OW57060   9.677   2.962  11.673
52345SOL    HW157061   9.670   3.045  11.617
52345SOL    HW257062   9.681   2.882  11.613
52346SOL     OW57063   9.876   2.399  12.037
52346SOL    HW157064   9.888   2.465  11.963
52346SOL    HW257065   9.922   2.433  12.120
52347SOL     OW57066  10.562   3.210  11.560
52347SOL    HW157067  10.612   3.287  11.600
52347SOL    HW257068  10.467   3.212  11.592
52348SOL     OW57069  10.582   3.307  12.314
52348SOL    HW157070  10.629   3.320  12.401
52348SOL    HW257071  10.516   3.233  12.323
52349SOL     OW57072  10.892   2.501  11.644
52349SOL    HW157073  10.861   2.562  11.717
52349SOL    HW257074  10.942   2.553  11.575
52350SOL     OW57075   9.664   3.372  12.501
52350SOL    HW157076   9.643   3.328  12.414
52350SOL    HW257077   9.761   3.398  12.504
52351SOL     OW57078   9.712   2.613  12.770
52351SOL    HW157079   9.780   2.668  12.723
52351SOL    HW257080   9.752   2.525  12.797
52352SOL     OW57081  10.897   2.641  12.842
52352SOL    HW157082  10.805   2.679  12.837
52352SOL    HW257083  10.957   2.688  12.777
52353SOL     OW57084   9.883   2.732  12.201
52353SOL    HW157085   9.927   2.821  12.192
52353SOL    HW257086   9.820   2.732  12.278
52354SOL     OW57087  10.670   2.724  12.217
52354SOL    HW157088  10.595   2.724  12.151
52354SOL    HW257089  10.707   2.632  12.226
52355SOL     OW57090  10.519   2.387  11.447
52355SOL    HW157091  10.532   2.303  11.501
52355SOL    HW257092  10.490   2.461  11.507
52356SOL     OW57093   9.617   2.075  12.403
52356SOL    HW157094   9.594   2.112  12.493
52356SOL    HW257095   9.587   1.980  12.397
52357SOL     OW57096   9.347   3.172  12.454
52357SOL    HW157097   9.400   3.123  12.522
52357SOL    HW257098   9.369   3.270  12.459
52358SOL     OW57099  10.042   2.496  12.236
52358SOL    HW157100  10.101   2.470  12.160
52358SOL    HW257101  10.014   2.592  12.225
52359SOL     OW57102   9.617   1.925  11.790
52359SOL    HW157103   9.606   2.019  11.823
52359SOL    HW257104   9.612   1.862  11.867
52360SOL     OW57105  10.932   2.229  11.546
52360SOL    HW157106  10.934   2.153  11.610
52360SOL    HW257107  10.884   2.306  11.586
52361SOL     OW57108  10.333   2.628  12.138
52361SOL    HW157109  10.348   2.649  12.234
52361SOL    HW257110  10.303   2.533  12.129
52362SOL     OW57111  10.290   3.435  12.872
52362SOL    HW157112  10.270   3.479  12.784
52362SOL    HW257113  10.329   3.344  12.856
52363SOL     OW57114  10.850   2.136  11.297
52363SOL    HW157115  10.789   2.061  11.320
52363SOL    HW257116  10.872   2.188  11.380
52364SOL     OW57117  10.613   2.700  11.214
52364SOL    HW157118  10.647   2.607  11.229
52364SOL    HW257119  10.631   2.727  11.119
52365SOL     OW57120  10.378   3.195  12.021
52365SOL    HW157121  10.385   3.111  11.966
52365SOL    HW257122  10.440   3.264  11.985
52366SOL     OW57123   9.629   2.672  12.121
52366SOL    HW157124   9.722   2.708  12.126
52366SOL    HW257125   9.623   2.587  12.173
52367SOL     OW57126   9.649   2.371  12.178
52367SOL    HW157127   9.597   2.288  12.161
52367SOL    HW257128   9.726   2.376  12.114
52368SOL     OW57129  10.448   2.242  12.850
52368SOL    HW157130  10.403   2.305  12.914
52368SOL    HW257131  10.541   2.273  12.833
52369SOL     OW57132  10.470   2.069  12.649
52369SOL    HW157133  10.470   2.133  12.726
52369SOL    HW257134  10.498   2.117  12.566
52370SOL     OW57135   9.318   3.188  11.372
52370SOL    HW157136   9.225   3.209  11.341
52370SOL    HW257137   9.328   3.089  11.385
52371SOL     OW57138   9.398   3.663  12.099
52371SOL    HW157139   9.356   3.577  12.072
52371SOL    HW257140   9.492   3.666  12.065
52372SOL     OW57141   9.814   3.430  12.082
52372SOL    HW157142   9.880   3.504  12.091
52372SOL    HW257143   9.858   3.351  12.040
52373SOL     OW57144  10.312   2.658  12.410
52373SOL    HW157145  10.353   2.626  12.496
52373SOL    HW257146  10.216   2.631  12.407
52374SOL     OW57147   9.350   2.406  12.286
52374SOL    HW157148   9.435   2.373  12.245
52374SOL    HW257149   9.363   2.421  12.384
52375SOL     OW57150  10.125   2.434  11.497
52375SOL    HW157151  10.132   2.345  11.451
52375SOL    HW257152  10.031   2.468  11.489
52376SOL     OW57153  10.967   2.466  12.378
52376SOL    HW157154  10.929   2.397  12.440
52376SOL    HW257155  11.049   2.430  12.334
52377SOL     OW57156   9.981   2.326  12.441
52377SOL    HW157157   9.947   2.237  12.411
52377SOL    HW257158  10.007   2.380  12.361
52378SOL     OW57159  10.240   3.540  12.637
52378SOL    HW157160  10.216   3.522  12.542
52378SOL    HW257161  10.270   3.634  12.647
52379SOL     OW57162   9.783   2.362  11.363
52379SOL    HW157163   9.844   2.442  11.367
52379SOL    HW257164   9.688   2.393  11.370
52380SOL     OW57165   9.469   2.999  12.638
52380SOL    HW157166   9.491   2.938  12.714
52380SOL    HW257167   9.479   2.950  12.552
52381SOL     OW57168  10.657   2.921  12.406
52381SOL    HW157169  10.681   2.858  12.332
52381SOL    HW257170  10.567   2.961  12.388
52382SOL     OW57171  10.612   2.717  11.481
52382SOL    HW157172  10.526   2.686  11.523
52382SOL    HW257173  10.608   2.703  11.382
52383SOL     OW57174  11.069   3.609  12.326
52383SOL    HW157175  11.130   3.639  12.253
52383SOL    HW257176  11.031   3.520  12.304
52384SOL     OW57177  10.562   3.593  12.300
52384SOL    HW157178  10.646   3.598  12.246
52384SOL    HW257179  10.539   3.497  12.318
52385SOL     OW57180   9.393   3.120  12.194
52385SOL    HW157181   9.388   3.119  12.294
52385SOL    HW257182   9.310   3.079  12.156
52386SOL     OW57183  11.036   1.997  11.695
52386SOL    HW157184  11.109   1.980  11.628
52386SOL    HW257185  11.005   1.910  11.733
52387SOL     OW57186  10.698   3.435  11.649
52387SOL    HW157187  10.765   3.447  11.575
52387SOL    HW257188  10.658   3.524  11.672
52388SOL     OW57189  10.590   2.789  11.844
52388SOL    HW157190  10.650   2.708  11.846
52388SOL    HW257191  10.630   2.858  11.784
52389SOL     OW57192   9.982   3.478  11.326
52389SOL    HW157193   9.991   3.488  11.227
52389SOL    HW257194   9.942   3.389  11.347
52390SOL     OW57195  10.960   3.582  12.566
52390SOL    HW157196  11.013   3.592  12.482
52390SOL    HW257197  10.933   3.672  12.600
52391SOL     OW57198  11.151   2.037  12.135
52391SOL    HW157199  11.190   1.952  12.099
52391SOL    HW257200  11.053   2.039  12.116
52392SOL     OW57201   9.573   2.188  11.892
52392SOL    HW157202   9.494   2.239  11.858
52392SOL    HW257203   9.564   2.173  11.990
52393SOL     OW57204  10.504   3.474  11.203
52393SOL    HW157205  10.510   3.381  11.240
52393SOL    HW257206  10.445   3.474  11.123
52394SOL     OW57207  10.132   2.864  12.544
52394SOL    HW157208  10.172   2.863  12.452
52394SOL    HW257209  10.142   2.956  12.584
52395SOL     OW57210  10.226   2.772  11.463
52395SOL    HW157211  10.289   2.810  11.395
52395SOL    HW257212  10.266   2.689  11.502
52396SOL     OW57213  10.814   3.469  11.216
52396SOL    HW157214  10.722   3.506  11.223
52396SOL    HW257215  10.852   3.489  11.126
52397SOL     OW57216   9.682   3.150  12.662
52397SOL    HW157217   9.669   3.243  12.628
52397SOL    HW257218   9.598   3.098  12.649
52398SOL     OW57219  10.924   3.154  12.461
52398SOL    HW157220  10.984   3.157  12.541
52398SOL    HW257221  10.849   3.218  12.474
52399SOL     OW57222  10.349   2.960  11.868
52399SOL    HW157223  10.279   2.913  11.922
52399SOL    HW257224  10.408   2.892  11.825
52400SOL     OW57225  10.324   2.098  12.143
52400SOL    HW157226  10.316   2.062  12.050
52400SOL    HW257227  10.322   2.022  12.208
52401SOL     OW57228   9.900   3.349  11.663
52401SOL    HW157229   9.942   3.291  11.593
52401SOL    HW257230   9.856   3.428  11.619
52402SOL     OW57231  11.019   2.247  12.553
52402SOL    HW157232  11.092   2.316  12.557
52402SOL    HW257233  11.047   2.172  12.494
52403SOL     OW57234   9.565   3.210  11.462
52403SOL    HW157235   9.469   3.211  11.435
52403SOL    HW257236   9.577   3.263  11.546
52404SOL     OW57237   9.385   2.207  11.205
52404SOL    HW157238   9.293   2.179  11.176
52404SOL    HW257239   9.416   2.284  11.149
52405SOL     OW57240  10.750   2.718  12.570
52405SOL    HW157241  10.693   2.770  12.507
52405SOL    HW257242  10.846   2.730  12.546
52406SOL     OW57243   9.382   2.028  11.490
52406SOL    HW157244   9.365   2.111  11.436
52406SOL    HW257245   9.472   1.991  11.468
52407SOL     OW57246  10.493   3.197  11.291
52407SOL    HW157247  10.394   3.186  11.293
52407SOL    HW257248  10.527   3.212  11.384
52408SOL     OW57249   9.923   2.704  12.603
52408SOL    HW157250   9.979   2.785  12.586
52408SOL    HW257251   9.982   2.624  12.606
52409SOL     OW57252  10.803   3.629  12.131
52409SOL    HW157253  10.836   3.693  12.062
52409SOL    HW257254  10.869   3.623  12.206
52410SOL     OW57255   9.700   3.603  12.732
52410SOL    HW157256   9.609   3.644  12.730
52410SOL    HW257257   9.693   3.509  12.764
52411SOL     OW57258  10.984   2.745  12.426
52411SOL    HW157259  10.957   2.656  12.389
52411SOL    HW257260  10.985   2.813  12.353
52412SOL     OW57261  10.535   2.187  11.621
52412SOL    HW157262  10.600   2.113  11.610
52412SOL    HW257263  10.555   2.237  11.705
52413SOL     OW57264   9.904   2.607  11.824
52413SOL    HW157265   9.954   2.692  11.805
52413SOL    HW257266   9.816   2.609  11.776
52414SOL     OW57267  11.087   2.204  12.814
52414SOL    HW157268  11.070   2.235  12.720
52414SOL    HW257269  11.003   2.167  12.852
52415SOL     OW57270  11.040   2.796  12.689
52415SOL    HW157271  11.078   2.887  12.704
52415SOL    HW257272  11.032   2.779  12.590
52416SOL     OW57273  10.169   3.236  11.188
52416SOL    HW157274  10.123   3.251  11.276
52416SOL    HW257275  10.213   3.321  11.158
52417SOL     OW57276   9.971   3.652  12.125
52417SOL    HW157277   9.925   3.740  12.112
52417SOL    HW257278  10.070   3.664  12.118
52418SOL     OW57279  10.169   2.818  12.033
52418SOL    HW157280  10.223   2.749  12.081
52418SOL    HW257281  10.137   2.887  12.099
52419SOL     OW57282  10.393   2.846  11.259
52419SOL    HW157283  10.370   2.899  11.177
52419SOL    HW257284  10.474   2.790  11.240
52420SOL     OW57285  11.171   3.431  12.023
52420SOL    HW157286  11.100   3.419  11.953
52420SOL    HW257287  11.172   3.352  12.083
52421SOL     OW57288   9.389   3.102  11.825
52421SOL    HW157289   9.388   3.055  11.913
52421SOL    HW257290   9.471   3.074  11.774
52422SOL     OW57291  11.134   2.054  12.399
52422SOL    HW157292  11.130   1.964  12.443
52422SOL    HW257293  11.137   2.043  12.300
52423SOL     OW57294   9.738   2.286  11.692
52423SOL    HW157295   9.768   2.214  11.630
52423SOL    HW257296   9.699   2.246  11.775
52424SOL     OW57297  11.015   3.349  12.276
52424SOL    HW157298  10.922   3.324  12.249
52424SOL    HW257299  11.041   3.299  12.358
52425SOL     OW57300   9.627   2.409  12.452
52425SOL    HW157301   9.665   2.350  12.524
52425SOL    HW257302   9.667   2.383  12.364
52426SOL     OW57303  10.122   3.448  11.859
52426SOL    HW157304  10.154   3.458  11.765
52426SOL    HW257305  10.043   3.386  11.861
52427SOL     OW57306  10.734   2.076  12.284
52427SOL    HW157307  10.786   2.011  12.339
52427SOL    HW257308  10.685   2.139  12.345
52428SOL     OW57309  10.311   1.896  12.326
52428SOL    HW157310  10.248   1.824  12.295
52428SOL    HW257311  10.404   1.860  12.326
52429SOL     OW57312  10.080   3.192  11.473
52429SOL    HW157313  10.034   3.105  11.490
52429SOL    HW257314  10.171   3.189  11.514
52430SOL     OW57315   9.928   3.429  12.456
52430SOL    HW157316   9.923   3.511  12.513
52430SOL    HW257317  10.017   3.426  12.411
52431SOL     OW57318  10.662   1.914  11.340
52431SOL    HW157319  10.697   1.873  11.256
52431SOL    HW257320  10.572   1.876  11.360
52432SOL     OW57321  10.610   2.315  11.863
52432SOL    HW157322  10.551   2.395  11.867
52432SOL    HW257323  10.625   2.280  11.956
52433SOL     OW57324  10.903   2.083  12.054
52433SOL    HW157325  10.819   2.082  12.108
52433SOL    HW257326  10.905   2.166  11.998
52434SOL     OW57327   9.349   2.939  11.472
52434SOL    HW157328   9.448   2.928  11.463
52434SOL    HW257329   9.309   2.853  11.504
52435SOL     OW57330  10.185   3.508  11.509
52435SOL    HW157331  10.108   3.473  11.455
52435SOL    HW257332  10.153   3.579  11.571
52436SOL     OW57333   9.540   4.352   0.113
52436SOL    HW157334   9.447   4.350   0.150
52436SOL    HW257335   9.541   4.313   0.021
52437SOL     OW57336   9.535   3.999   0.996
52437SOL    HW157337   9.570   3.982   1.088
52437SOL    HW257338   9.447   3.954   0.984
52438SOL     OW57339   9.329   4.092   0.647
52438SOL    HW157340   9.247   4.135   0.686
52438SOL    HW257341   9.301   4.019   0.584
52439SOL     OW57342   9.879   4.999   1.165
52439SOL    HW157343   9.786   4.992   1.128
52439SOL    HW257344   9.890   5.088   1.209
52440SOL     OW57345  10.865   5.235   0.703
52440SOL    HW157346  10.808   5.219   0.784
52440SOL    HW257347  10.806   5.245   0.623
52441SOL     OW57348  10.445   4.427   0.717
52441SOL    HW157349  10.502   4.505   0.692
52441SOL    HW257350  10.385   4.453   0.793
52442SOL     OW57351  11.065   4.331   0.231
52442SOL    HW157352  11.053   4.318   0.132
52442SOL    HW257353  11.035   4.250   0.280
52443SOL     OW57354  10.078   4.868   1.023
52443SOL    HW157355  10.000   4.885   1.083
52443SOL    HW257356  10.112   4.955   0.987
52444SOL     OW57357  10.160   4.522   1.823
52444SOL    HW157358  10.156   4.598   1.888
52444SOL    HW257359  10.182   4.558   1.732
52445SOL     OW57360   9.995   4.736   0.665
52445SOL    HW157361  10.064   4.720   0.735
52445SOL    HW257362   9.922   4.793   0.703
52446SOL     OW57363   9.996   4.885   1.803
52446SOL    HW157364  10.056   4.964   1.817
52446SOL    HW257365   9.910   4.916   1.762
52447SOL     OW57366   9.645   5.159   1.061
52447SOL    HW157367   9.567   5.128   1.008
52447SOL    HW257368   9.703   5.217   1.004
52448SOL     OW57369  10.770   5.229   1.339
52448SOL    HW157370  10.794   5.323   1.365
52448SOL    HW257371  10.754   5.175   1.421
52449SOL     OW57372   9.748   4.116   1.499
52449SOL    HW157373   9.830   4.060   1.508
52449SOL    HW257374   9.667   4.058   1.503
52450SOL     OW57375  10.913   4.171   0.737
52450SOL    HW157376  10.839   4.217   0.687
52450SOL    HW257377  10.964   4.239   0.790
52451SOL     OW57378   9.541   5.437   0.483
52451SOL    HW157379   9.575   5.514   0.537
52451SOL    HW257380   9.585   5.437   0.393
52452SOL     OW57381  10.437   5.065   1.690
52452SOL    HW157382  10.484   5.065   1.778
52452SOL    HW257383  10.389   4.978   1.679
52453SOL     OW57384   9.540   5.158   0.538
52453SOL    HW157385   9.514   5.254   0.538
52453SOL    HW257386   9.469   5.104   0.583
52454SOL     OW57387   9.550   4.815   0.886
52454SOL    HW157388   9.564   4.731   0.938
52454SOL    HW257389   9.495   4.879   0.941
52455SOL     OW57390   9.930   5.510   1.439
52455SOL    HW157391   9.838   5.493   1.474
52455SOL    HW257392   9.958   5.602   1.465
52456SOL     OW57393   9.916   4.688   0.123
52456SOL    HW157394   9.923   4.772   0.069
52456SOL    HW257395   9.962   4.701   0.211
52457SOL     OW57396  10.904   3.838   1.480
52457SOL    HW157397  10.886   3.905   1.408
52457SOL    HW257398  10.901   3.884   1.569
52458SOL     OW57399   9.432   4.367   0.563
52458SOL    HW157400   9.387   4.279   0.580
52458SOL    HW257401   9.431   4.421   0.647
52459SOL     OW57402  11.152   5.491   0.359
52459SOL    HW157403  11.206   5.462   0.439
52459SOL    HW257404  11.182   5.581   0.330
52460SOL     OW57405   9.337   5.320   0.117
52460SOL    HW157406   9.318   5.224   0.138
52460SOL    HW257407   9.304   5.378   0.192
52461SOL     OW57408  10.999   4.646   0.612
52461SOL    HW157409  11.094   4.617   0.620
52461SOL    HW257410  10.991   4.711   0.537
52462SOL     OW57411  10.951   4.832   0.432
52462SOL    HW157412  11.037   4.834   0.380
52462SOL    HW257413  10.965   4.879   0.520
52463SOL     OW57414   9.423   4.461   1.597
52463SOL    HW157415   9.511   4.448   1.642
52463SOL    HW257416   9.410   4.558   1.575
52464SOL     OW57417   9.923   5.089   0.726
52464SOL    HW157418   9.874   5.002   0.735
52464SOL    HW257419   9.900   5.132   0.639
52465SOL     OW57420  10.603   4.952   1.423
52465SOL    HW157421  10.640   4.879   1.365
52465SOL    HW257422  10.655   4.957   1.508
52466SOL     OW57423  10.119   3.728   0.502
52466SOL    HW157424  10.159   3.819   0.493
52466SOL    HW257425  10.019   3.736   0.508
52467SOL     OW57426   9.507   4.700   1.264
52467SOL    HW157427   9.596   4.655   1.250
52467SOL    HW257428   9.434   4.635   1.245
52468SOL     OW57429  10.835   4.723   0.190
52468SOL    HW157430  10.772   4.647   0.203
52468SOL    HW257431  10.883   4.741   0.276
52469SOL     OW57432  10.497   5.516   1.616
52469SOL    HW157433  10.521   5.576   1.540
52469SOL    HW257434  10.504   5.421   1.586
52470SOL     OW57435   9.627   3.975   1.801
52470SOL    HW157436   9.698   4.046   1.807
52470SOL    HW257437   9.539   4.014   1.829
52471SOL     OW57438  10.776   5.141   0.953
52471SOL    HW157439  10.717   5.147   1.033
52471SOL    HW257440  10.761   5.053   0.907
52472SOL     OW57441  10.977   5.438   0.572
52472SOL    HW157442  10.936   5.415   0.484
52472SOL    HW257443  10.959   5.364   0.637
52473SOL     OW57444   9.908   4.453   0.270
52473SOL    HW157445   9.932   4.522   0.202
52473SOL    HW257446   9.830   4.486   0.324
52474SOL     OW57447  10.591   4.069   0.944
52474SOL    HW157448  10.505   4.019   0.931
52474SOL    HW257449  10.653   4.015   1.000
52475SOL     OW57450  10.886   5.386   0.307
52475SOL    HW157451  10.975   5.432   0.310
52475SOL    HW257452  10.865   5.362   0.212
52476SOL     OW57453  10.117   4.329   1.465
52476SOL    HW157454  10.070   4.326   1.554
52476SOL    HW257455  10.066   4.274   1.399
52477SOL     OW57456  10.704   4.193   1.674
52477SOL    HW157457  10.684   4.236   1.762
52477SOL    HW257458  10.782   4.131   1.683
52478SOL     OW57459  10.283   4.614   1.572
52478SOL    HW157460  10.329   4.530   1.543
52478SOL    HW257461  10.227   4.648   1.497
52479SOL     OW57462  10.301   4.134   1.242
52479SOL    HW157463  10.224   4.168   1.296
52479SOL    HW257464  10.267   4.083   1.163
52480SOL     OW57465  10.351   4.425   0.429
52480SOL    HW157466  10.377   4.421   0.525
52480SOL    HW257467  10.266   4.374   0.415
52481SOL     OW57468   9.386   4.535   0.789
52481SOL    HW157469   9.485   4.523   0.798
52481SOL    HW257470   9.362   4.630   0.810
52482SOL     OW57471   9.440   5.545   1.571
52482SOL    HW157472   9.430   5.530   1.670
52482SOL    HW257473   9.354   5.581   1.535
52483SOL     OW57474  10.175   4.072   0.195
52483SOL    HW157475  10.234   4.135   0.146
52483SOL    HW257476  10.194   3.978   0.166
52484SOL     OW57477  11.029   4.309   1.831
52484SOL    HW157478  11.003   4.398   1.795
52484SOL    HW257479  11.027   4.241   1.758
52485SOL     OW57480  10.672   4.868   0.545
52485SOL    HW157481  10.755   4.839   0.497
52485SOL    HW257482  10.623   4.935   0.489
52486SOL     OW57483   9.860   3.920   0.885
52486SOL    HW157484   9.855   3.915   0.985
52486SOL    HW257485   9.862   4.016   0.856
52487SOL     OW57486  10.318   5.180   0.477
52487SOL    HW157487  10.272   5.252   0.425
52487SOL    HW257488  10.314   5.200   0.575
52488SOL     OW57489   9.661   5.525   0.853
52488SOL    HW157490   9.711   5.439   0.859
52488SOL    HW257491   9.726   5.602   0.850
52489SOL     OW57492  11.105   4.790   0.873
52489SOL    HW157493  11.043   4.775   0.797
52489SOL    HW257494  11.053   4.801   0.958
52490SOL     OW57495  10.537   5.274   1.506
52490SOL    HW157496  10.543   5.197   1.570
52490SOL    HW257497  10.485   5.248   1.426
52491SOL     OW57498   9.631   4.667   0.242
52491SOL    HW157499   9.713   4.706   0.200
52491SOL    HW257500   9.604   4.585   0.193
52492SOL     OW57501  10.768   4.459   0.728
52492SOL    HW157502  10.763   4.394   0.803
52492SOL    HW257503  10.848   4.518   0.741
52493SOL     OW57504   9.771   4.990   1.727
52493SOL    HW157505   9.721   4.991   1.641
52493SOL    HW257506   9.708   4.972   1.803
52494SOL     OW57507  10.421   5.500   0.237
52494SOL    HW157508  10.361   5.438   0.287
52494SOL    HW257509  10.452   5.456   0.152
52495SOL     OW57510   9.512   4.009   1.498
52495SOL    HW157511   9.432   4.069   1.485
52495SOL    HW257512   9.502   3.960   1.584
52496SOL     OW57513  10.942   5.101   0.081
52496SOL    HW157514  10.910   5.195   0.071
52496SOL    HW257515  10.866   5.038   0.069
52497SOL     OW57516   9.774   5.467   0.323
52497SOL    HW157517   9.807   5.506   0.409
52497SOL    HW257518   9.850   5.460   0.258
52498SOL     OW57519  10.710   3.831   0.426
52498SOL    HW157520  10.686   3.794   0.336
52498SOL    HW257521  10.809   3.847   0.430
52499SOL     OW57522   9.559   5.509   1.241
52499SOL    HW157523   9.616   5.444   1.291
52499SOL    HW257524   9.543   5.476   1.148
52500SOL     OW57525  10.250   5.422   0.904
52500SOL    HW157526  10.330   5.365   0.925
52500SOL    HW257527  10.201   5.382   0.827
52501SOL     OW57528   9.692   4.424   0.480
52501SOL    HW157529   9.737   4.334   0.477
52501SOL    HW257530   9.598   4.413   0.513
52502SOL     OW57531  10.857   3.946   1.729
52502SOL    HW157532  10.852   3.983   1.821
52502SOL    HW257533  10.785   3.877   1.717
52503SOL     OW57534   9.924   3.846   0.117
52503SOL    HW157535  10.022   3.824   0.124
52503SOL    HW257536   9.893   3.829   0.024
52504SOL     OW57537  10.091   3.988   1.749
52504SOL    HW157538  10.158   3.927   1.792
52504SOL    HW257539  10.018   4.007   1.814
52505SOL     OW57540  10.198   5.238   1.195
52505SOL    HW157541  10.175   5.213   1.101
52505SOL    HW257542  10.259   5.169   1.234
52506SOL     OW57543  10.661   4.314   1.433
52506SOL    HW157544  10.689   4.271   1.518
52506SOL    HW257545  10.686   4.410   1.434
52507SOL     OW57546  10.113   5.126   0.924
52507SOL    HW157547  10.203   5.140   0.882
52507SOL    HW257548  10.042   5.128   0.853
52508SOL     OW57549  10.232   4.227   0.899
52508SOL    HW157550  10.207   4.218   0.803
52508SOL    HW257551  10.280   4.145   0.930
52509SOL     OW57552   9.849   3.788   0.512
52509SOL    HW157553   9.768   3.789   0.570
52509SOL    HW257554   9.852   3.871   0.457
52510SOL     OW57555  10.744   4.912   0.041
52510SOL    HW157556  10.776   4.836   0.098
52510SOL    HW257557  10.652   4.939   0.071
52511SOL     OW57558   9.607   3.759   0.171
52511SOL    HW157559   9.656   3.843   0.150
52511SOL    HW257560   9.669   3.694   0.216
52512SOL     OW57561  10.245   3.960   0.480
52512SOL    HW157562  10.197   4.001   0.402
52512SOL    HW257563  10.344   3.958   0.461
52513SOL     OW57564  10.386   4.407   1.464
52513SOL    HW157565  10.306   4.346   1.467
52513SOL    HW257566  10.467   4.354   1.440
52514SOL     OW57567  10.537   5.294   0.793
52514SOL    HW157568  10.558   5.368   0.728
52514SOL    HW257569  10.605   5.294   0.866
52515SOL     OW57570   9.769   4.876   0.741
52515SOL    HW157571   9.698   4.849   0.806
52515SOL    HW257572   9.743   4.848   0.648
52516SOL     OW57573  10.581   5.521   0.591
52516SOL    HW157574  10.625   5.585   0.527
52516SOL    HW257575  10.531   5.573   0.661
52517SOL     OW57576  10.342   4.273   0.016
52517SOL    HW157577  10.301   4.355  -0.023
52517SOL    HW257578  10.406   4.299   0.089
52518SOL     OW57579   9.388   4.280   1.386
52518SOL    HW157580   9.480   4.279   1.345
52518SOL    HW257581   9.382   4.354   1.453
52519SOL     OW57582   9.871   3.946   1.147
52519SOL    HW157583   9.909   3.862   1.184
52519SOL    HW257584   9.783   3.965   1.191
52520SOL     OW57585  10.176   4.178   0.642
52520SOL    HW157586  10.144   4.250   0.580
52520SOL    HW257587  10.200   4.097   0.589
52521SOL     OW57588  10.327   3.763   0.753
52521SOL    HW157589  10.255   3.768   0.684
52521SOL    HW257590  10.303   3.694   0.822
52522SOL     OW57591  10.739   4.897   0.867
52522SOL    HW157592  10.684   4.813   0.860
52522SOL    HW257593  10.765   4.926   0.775
52523SOL     OW57594  10.776   4.314   0.992
52523SOL    HW157595  10.746   4.219   0.999
52523SOL    HW257596  10.849   4.330   1.058
52524SOL     OW57597  11.167   4.557   0.377
52524SOL    HW157598  11.209   4.493   0.441
52524SOL    HW257599  11.129   4.506   0.299
52525SOL     OW57600   9.798   5.109   0.174
52525SOL    HW157601   9.711   5.094   0.221
52525SOL    HW257602   9.781   5.135   0.079
52526SOL     OW57603  10.974   5.004   0.657
52526SOL    HW157604  11.073   5.012   0.671
52526SOL    HW257605  10.929   5.088   0.688
52527SOL     OW57606  10.700   4.299   0.078
52527SOL    HW157607  10.646   4.278   0.159
52527SOL    HW257608  10.791   4.258   0.087
52528SOL     OW57609   9.837   3.980   0.328
52528SOL    HW157610   9.864   3.921   0.253
52528SOL    HW257611   9.837   4.075   0.297
52529SOL     OW57612  11.064   4.947   1.588
52529SOL    HW157613  11.155   4.908   1.575
52529SOL    HW257614  11.072   5.043   1.612
52530SOL     OW57615  10.374   5.071   1.340
52530SOL    HW157616  10.294   5.048   1.395
52530SOL    HW257617  10.457   5.045   1.389
52531SOL     OW57618  10.902   5.353   1.625
52531SOL    HW157619  10.929   5.387   1.535
52531SOL    HW257620  10.981   5.315   1.671
52532SOL     OW57621  10.421   4.919   1.100
52532SOL    HW157622  10.381   4.963   1.181
52532SOL    HW257623  10.380   4.956   1.017
52533SOL     OW57624  10.948   4.823   1.079
52533SOL    HW157625  10.953   4.904   1.138
52533SOL    HW257626  10.862   4.825   1.028
52534SOL     OW57627  10.225   3.813   1.402
52534SOL    HW157628  10.250   3.793   1.307
52534SOL    HW257629  10.297   3.869   1.444
52535SOL     OW57630  10.290   4.840   1.719
52535SOL    HW157631  10.191   4.846   1.729
52535SOL    HW257632  10.313   4.760   1.663
52536SOL     OW57633  10.015   4.774   0.368
52536SOL    HW157634  10.001   4.781   0.467
52536SOL    HW257635  10.099   4.723   0.350
52537SOL     OW57636   9.720   4.537   1.251
52537SOL    HW157637   9.806   4.549   1.301
52537SOL    HW257638   9.678   4.450   1.278
52538SOL     OW57639  10.584   4.110   1.262
52538SOL    HW157640  10.605   4.184   1.326
52538SOL    HW257641  10.495   4.127   1.219
52539SOL     OW57642   9.374   5.288   1.331
52539SOL    HW157643   9.328   5.370   1.297
52539SOL    HW257644   9.472   5.307   1.340
52540SOL     OW57645   9.677   4.824   0.501
52540SOL    HW157646   9.670   4.907   0.445
52540SOL    HW257647   9.681   4.744   0.441
52541SOL     OW57648   9.876   4.261   0.865
52541SOL    HW157649   9.888   4.327   0.791
52541SOL    HW257650   9.922   4.295   0.948
52542SOL     OW57651  10.562   5.072   0.388
52542SOL    HW157652  10.612   5.149   0.428
52542SOL    HW257653  10.467   5.074   0.420
52543SOL     OW57654  10.582   5.169   1.142
52543SOL    HW157655  10.629   5.182   1.229
52543SOL    HW257656  10.516   5.095   1.151
52544SOL     OW57657  10.892   4.363   0.472
52544SOL    HW157658  10.861   4.424   0.545
52544SOL    HW257659  10.942   4.415   0.403
52545SOL     OW57660   9.664   5.234   1.329
52545SOL    HW157661   9.643   5.190   1.242
52545SOL    HW257662   9.761   5.260   1.332
52546SOL     OW57663   9.712   4.475   1.598
52546SOL    HW157664   9.780   4.530   1.551
52546SOL    HW257665   9.752   4.387   1.625
52547SOL     OW57666  10.897   4.503   1.670
52547SOL    HW157667  10.805   4.541   1.665
52547SOL    HW257668  10.957   4.550   1.605
52548SOL     OW57669  10.323   3.829   1.770
52548SOL    HW157670  10.329   3.914   1.718
52548SOL    HW257671  10.355   3.753   1.713
52549SOL     OW57672   9.814   3.774   1.740
52549SOL    HW157673   9.772   3.717   1.670
52549SOL    HW257674   9.748   3.843   1.772
52550SOL     OW57675   9.883   4.594   1.029
52550SOL    HW157676   9.927   4.683   1.020
52550SOL    HW257677   9.820   4.594   1.106
52551SOL     OW57678  10.670   4.586   1.045
52551SOL    HW157679  10.595   4.586   0.979
52551SOL    HW257680  10.707   4.494   1.054
52552SOL     OW57681  10.519   4.249   0.275
52552SOL    HW157682  10.532   4.165   0.329
52552SOL    HW257683  10.490   4.323   0.335
52553SOL     OW57684   9.617   3.937   1.231
52553SOL    HW157685   9.594   3.974   1.321
52553SOL    HW257686   9.587   3.842   1.225
52554SOL     OW57687   9.347   5.034   1.282
52554SOL    HW157688   9.400   4.985   1.350
52554SOL    HW257689   9.369   5.132   1.287
52555SOL     OW57690  10.042   4.358   1.064
52555SOL    HW157691  10.101   4.332   0.988
52555SOL    HW257692  10.014   4.454   1.053
52556SOL     OW57693  11.038   4.659   1.854
52556SOL    HW157694  10.992   4.652   1.765
52556SOL    HW257695  10.976   4.703   1.920
52557SOL     OW57696   9.617   3.787   0.618
52557SOL    HW157697   9.606   3.881   0.651
52557SOL    HW257698   9.612   3.724   0.695
52558SOL     OW57699  10.932   4.091   0.374
52558SOL    HW157700  10.934   4.015   0.438
52558SOL    HW257701  10.884   4.168   0.414
52559SOL     OW57702  10.333   4.490   0.966
52559SOL    HW157703  10.348   4.511   1.062
52559SOL    HW257704  10.303   4.395   0.957
52560SOL     OW57705  10.290   5.297   1.700
52560SOL    HW157706  10.270   5.341   1.612
52560SOL    HW257707  10.329   5.206   1.684
52561SOL     OW57708  11.169   5.242   1.605
52561SOL    HW157709  11.183   5.269   1.510
52561SOL    HW257710  11.252   5.264   1.658
52562SOL     OW57711   9.660   4.622   1.804
52562SOL    HW157712   9.736   4.666   1.852
52562SOL    HW257713   9.695   4.575   1.722
52563SOL     OW57714  10.850   3.998   0.125
52563SOL    HW157715  10.789   3.923   0.148
52563SOL    HW257716  10.872   4.050   0.208
52564SOL     OW57717  10.613   4.562   0.042
52564SOL    HW157718  10.647   4.469   0.057
52564SOL    HW257719  10.631   4.589  -0.053
52565SOL     OW57720  10.378   5.057   0.849
52565SOL    HW157721  10.385   4.973   0.794
52565SOL    HW257722  10.440   5.126   0.813
52566SOL     OW57723   9.629   4.534   0.949
52566SOL    HW157724   9.722   4.570   0.954
52566SOL    HW257725   9.623   4.449   1.001
52567SOL     OW57726   9.649   4.233   1.006
52567SOL    HW157727   9.597   4.150   0.989
52567SOL    HW257728   9.726   4.238   0.942
52568SOL     OW57729  10.448   4.104   1.678
52568SOL    HW157730  10.403   4.167   1.742
52568SOL    HW257731  10.541   4.135   1.661
52569SOL     OW57732  10.470   3.931   1.477
52569SOL    HW157733  10.470   3.995   1.554
52569SOL    HW257734  10.498   3.979   1.394
52570SOL     OW57735   9.318   5.050   0.200
52570SOL    HW157736   9.225   5.071   0.169
52570SOL    HW257737   9.328   4.951   0.213
52571SOL     OW57738   9.398   5.525   0.927
52571SOL    HW157739   9.356   5.439   0.900
52571SOL    HW257740   9.492   5.528   0.893
52572SOL     OW57741   9.814   5.292   0.910
52572SOL    HW157742   9.880   5.366   0.919
52572SOL    HW257743   9.858   5.213   0.868
52573SOL     OW57744  10.312   4.520   1.238
52573SOL    HW157745  10.353   4.488   1.324
52573SOL    HW257746  10.216   4.493   1.235
52574SOL     OW57747   9.350   4.268   1.114
52574SOL    HW157748   9.435   4.235   1.073
52574SOL    HW257749   9.363   4.283   1.212
52575SOL     OW57750   9.499   4.244   1.722
52575SOL    HW157751   9.558   4.204   1.652
52575SOL    HW257752   9.441   4.315   1.681
52576SOL     OW57753  10.679   4.674   1.660
52576SOL    HW157754  10.718   4.763   1.680
52576SOL    HW257755  10.689   4.654   1.563
52577SOL     OW57756  10.125   4.296   0.325
52577SOL    HW157757  10.132   4.207   0.279
52577SOL    HW257758  10.031   4.330   0.317
52578SOL     OW57759  10.967   4.328   1.206
52578SOL    HW157760  10.929   4.259   1.268
52578SOL    HW257761  11.049   4.292   1.162
52579SOL     OW57762   9.562   5.288   1.744
52579SOL    HW157763   9.532   5.345   1.820
52579SOL    HW257764   9.555   5.191   1.770
52580SOL     OW57765   9.981   4.188   1.269
52580SOL    HW157766   9.947   4.099   1.239
52580SOL    HW257767  10.007   4.242   1.189
52581SOL     OW57768  10.240   5.402   1.465
52581SOL    HW157769  10.216   5.384   1.370
52581SOL    HW257770  10.270   5.496   1.475
52582SOL     OW57771   9.783   4.224   0.191
52582SOL    HW157772   9.844   4.304   0.195
52582SOL    HW257773   9.688   4.255   0.198
52583SOL     OW57774   9.469   4.861   1.466
52583SOL    HW157775   9.491   4.800   1.542
52583SOL    HW257776   9.479   4.812   1.380
52584SOL     OW57777  10.657   4.783   1.234
52584SOL    HW157778  10.681   4.720   1.160
52584SOL    HW257779  10.567   4.823   1.216
52585SOL     OW57780  10.612   4.579   0.309
52585SOL    HW157781  10.526   4.548   0.351
52585SOL    HW257782  10.608   4.565   0.210
52586SOL     OW57783  11.069   5.471   1.154
52586SOL    HW157784  11.130   5.501   1.081
52586SOL    HW257785  11.031   5.382   1.132
52587SOL     OW57786  10.562   5.455   1.128
52587SOL    HW157787  10.646   5.460   1.074
52587SOL    HW257788  10.539   5.359   1.146
52588SOL     OW57789   9.393   4.982   1.022
52588SOL    HW157790   9.388   4.981   1.122
52588SOL    HW257791   9.310   4.941   0.984
52589SOL     OW57792   9.998   5.386   1.716
52589SOL    HW157793   9.942   5.467   1.725
52589SOL    HW257794  10.050   5.390   1.630
52590SOL     OW57795  10.213   3.810   0.133
52590SOL    HW157796  10.264   3.811   0.047
52590SOL    HW257797  10.269   3.768   0.204
52591SOL     OW57798  11.036   3.859   0.523
52591SOL    HW157799  11.109   3.842   0.456
52591SOL    HW257800  11.005   3.772   0.561
52592SOL     OW57801  10.698   5.297   0.477
52592SOL    HW157802  10.765   5.309   0.403
52592SOL    HW257803  10.658   5.386   0.500
52593SOL     OW57804   9.440   5.518   1.851
52593SOL    HW157805   9.399   5.444   1.904
52593SOL    HW257806   9.504   5.569   1.909
52594SOL     OW57807  10.590   4.651   0.672
52594SOL    HW157808  10.650   4.570   0.674
52594SOL    HW257809  10.630   4.720   0.612
52595SOL     OW57810  10.140   4.997   1.422
52595SOL    HW157811  10.135   5.030   1.517
52595SOL    HW257812  10.054   5.016   1.376
52596SOL     OW57813   9.982   5.340   0.154
52596SOL    HW157814   9.991   5.350   0.055
52596SOL    HW257815   9.942   5.251   0.175
52597SOL     OW57816  10.960   5.444   1.394
52597SOL    HW157817  11.013   5.454   1.310
52597SOL    HW257818  10.933   5.534   1.428
52598SOL     OW57819  11.151   3.899   0.963
52598SOL    HW157820  11.190   3.814   0.927
52598SOL    HW257821  11.053   3.901   0.944
52599SOL     OW57822   9.573   4.050   0.720
52599SOL    HW157823   9.494   4.101   0.686
52599SOL    HW257824   9.564   4.035   0.818
52600SOL     OW57825  10.504   5.336   0.031
52600SOL    HW157826  10.510   5.243   0.068
52600SOL    HW257827  10.445   5.336  -0.049
52601SOL     OW57828  10.132   4.726   1.372
52601SOL    HW157829  10.172   4.725   1.280
52601SOL    HW257830  10.142   4.818   1.412
52602SOL     OW57831  10.226   4.634   0.291
52602SOL    HW157832  10.289   4.672   0.223
52602SOL    HW257833  10.266   4.551   0.330
52603SOL     OW57834  10.814   5.331   0.044
52603SOL    HW157835  10.722   5.368   0.051
52603SOL    HW257836  10.852   5.351  -0.046
52604SOL     OW57837   9.682   5.012   1.490
52604SOL    HW157838   9.669   5.105   1.456
52604SOL    HW257839   9.598   4.960   1.477
52605SOL     OW57840  10.924   5.016   1.289
52605SOL    HW157841  10.984   5.019   1.369
52605SOL    HW257842  10.849   5.080   1.302
52606SOL     OW57843  10.349   4.822   0.696
52606SOL    HW157844  10.279   4.775   0.750
52606SOL    HW257845  10.408   4.754   0.653
52607SOL     OW57846  10.324   3.960   0.971
52607SOL    HW157847  10.316   3.924   0.878
52607SOL    HW257848  10.322   3.884   1.036
52608SOL     OW57849   9.900   5.211   0.491
52608SOL    HW157850   9.942   5.153   0.421
52608SOL    HW257851   9.856   5.290   0.447
52609SOL     OW57852  11.019   4.109   1.381
52609SOL    HW157853  11.092   4.178   1.385
52609SOL    HW257854  11.047   4.034   1.322
52610SOL     OW57855   9.565   5.072   0.290
52610SOL    HW157856   9.469   5.073   0.263
52610SOL    HW257857   9.577   5.125   0.374
52611SOL     OW57858   9.415   4.737   1.726
52611SOL    HW157859   9.338   4.704   1.780
52611SOL    HW257860   9.500   4.707   1.768
52612SOL     OW57861   9.982   3.927   1.489
52612SOL    HW157862  10.072   3.911   1.449
52612SOL    HW257863   9.990   3.932   1.588
52613SOL     OW57864  10.750   4.580   1.398
52613SOL    HW157865  10.693   4.632   1.335
52613SOL    HW257866  10.846   4.592   1.374
52614SOL     OW57867   9.382   3.890   0.318
52614SOL    HW157868   9.365   3.973   0.264
52614SOL    HW257869   9.472   3.853   0.296
52615SOL     OW57870  10.493   5.059   0.119
52615SOL    HW157871  10.394   5.048   0.121
52615SOL    HW257872  10.527   5.074   0.212
52616SOL     OW57873   9.923   4.566   1.431
52616SOL    HW157874   9.979   4.647   1.414
52616SOL    HW257875   9.982   4.486   1.434
52617SOL     OW57876  10.803   5.491   0.959
52617SOL    HW157877  10.836   5.555   0.890
52617SOL    HW257878  10.869   5.485   1.034
52618SOL     OW57879  10.026   4.289   1.708
52618SOL    HW157880  10.045   4.354   1.782
52618SOL    HW257881  10.086   4.209   1.717
52619SOL     OW57882  10.760   4.944   1.633
52619SOL    HW157883  10.751   4.934   1.732
52619SOL    HW257884  10.856   4.937   1.607
52620SOL     OW57885   9.700   5.465   1.560
52620SOL    HW157886   9.609   5.506   1.558
52620SOL    HW257887   9.693   5.371   1.592
52621SOL     OW57888  10.984   4.607   1.254
52621SOL    HW157889  10.957   4.518   1.217
52621SOL    HW257890  10.985   4.675   1.181
52622SOL     OW57891  10.535   4.049   0.449
52622SOL    HW157892  10.600   3.975   0.438
52622SOL    HW257893  10.555   4.099   0.533
52623SOL     OW57894   9.904   4.469   0.652
52623SOL    HW157895   9.954   4.554   0.633
52623SOL    HW257896   9.816   4.471   0.604
52624SOL     OW57897  11.087   4.066   1.642
52624SOL    HW157898  11.070   4.097   1.548
52624SOL    HW257899  11.003   4.029   1.680
52625SOL     OW57900  11.040   4.658   1.517
52625SOL    HW157901  11.078   4.749   1.532
52625SOL    HW257902  11.032   4.641   1.418
52626SOL     OW57903  10.169   5.098   0.016
52626SOL    HW157904  10.123   5.113   0.104
52626SOL    HW257905  10.213   5.183  -0.014
52627SOL     OW57906   9.971   5.514   0.953
52627SOL    HW157907   9.925   5.602   0.940
52627SOL    HW257908  10.070   5.526   0.946
52628SOL     OW57909  10.169   4.680   0.861
52628SOL    HW157910  10.223   4.611   0.909
52628SOL    HW257911  10.137   4.749   0.927
52629SOL     OW57912  10.393   4.708   0.087
52629SOL    HW157913  10.370   4.761   0.005
52629SOL    HW257914  10.474   4.652   0.068
52630SOL     OW57915  11.171   5.293   0.851
52630SOL    HW157916  11.100   5.281   0.781
52630SOL    HW257917  11.172   5.214   0.911
52631SOL     OW57918   9.531   5.038   1.844
52631SOL    HW157919   9.466   4.965   1.823
52631SOL    HW257920   9.535   5.052   1.942
52632SOL     OW57921   9.389   4.964   0.653
52632SOL    HW157922   9.388   4.917   0.741
52632SOL    HW257923   9.471   4.936   0.602
52633SOL     OW57924   9.982   5.115   1.624
52633SOL    HW157925   9.904   5.065   1.662
52633SOL    HW257926   9.979   5.210   1.655
52634SOL     OW57927  11.134   3.916   1.227
52634SOL    HW157928  11.130   3.826   1.271
52634SOL    HW257929  11.137   3.905   1.128
52635SOL     OW57930   9.738   4.148   0.520
52635SOL    HW157931   9.768   4.076   0.458
52635SOL    HW257932   9.699   4.108   0.603
52636SOL     OW57933  11.015   5.211   1.104
52636SOL    HW157934  10.922   5.186   1.077
52636SOL    HW257935  11.041   5.161   1.186
52637SOL     OW57936   9.627   4.271   1.280
52637SOL    HW157937   9.665   4.212   1.352
52637SOL    HW257938   9.667   4.245   1.192
52638SOL     OW57939  10.122   5.310   0.687
52638SOL    HW157940  10.154   5.320   0.593
52638SOL    HW257941  10.043   5.248   0.689
52639SOL     OW57942  10.734   3.938   1.112
52639SOL    HW157943  10.786   3.873   1.167
52639SOL    HW257944  10.685   4.001   1.173
52640SOL     OW57945  10.311   3.758   1.154
52640SOL    HW157946  10.248   3.686   1.123
52640SOL    HW257947  10.404   3.722   1.154
52641SOL     OW57948  10.080   5.054   0.301
52641SOL    HW157949  10.034   4.967   0.318
52641SOL    HW257950  10.171   5.051   0.342
52642SOL     OW57951   9.928   5.291   1.284
52642SOL    HW157952   9.923   5.373   1.341
52642SOL    HW257953  10.017   5.288   1.239
52643SOL     OW57954  10.662   3.776   0.168
52643SOL    HW157955  10.697   3.735   0.084
52643SOL    HW257956  10.572   3.738   0.188
52644SOL     OW57957  10.610   4.177   0.691
52644SOL    HW157958  10.551   4.257   0.695
52644SOL    HW257959  10.625   4.142   0.784
52645SOL     OW57960  10.903   3.945   0.882
52645SOL    HW157961  10.819   3.944   0.936
52645SOL    HW257962  10.905   4.028   0.826
52646SOL     OW57963   9.349   4.801   0.300
52646SOL    HW157964   9.448   4.790   0.291
52646SOL    HW257965   9.309   4.715   0.332
52647SOL     OW57966  10.185   5.370   0.337
52647SOL    HW157967  10.108   5.335   0.283
52647SOL    HW257968  10.153   5.441   0.399
52648SOL     OW57969   9.540   4.352   1.975
52648SOL    HW157970   9.447   4.350   2.012
52648SOL    HW257971   9.541   4.313   1.883
52649SOL     OW57972   9.535   3.999   2.858
52649SOL    HW157973   9.570   3.982   2.950
52649SOL    HW257974   9.447   3.954   2.846
52650SOL     OW57975   9.329   4.092   2.509
52650SOL    HW157976   9.247   4.135   2.548
52650SOL    HW257977   9.301   4.019   2.446
52651SOL     OW57978   9.879   4.999   3.027
52651SOL    HW157979   9.786   4.992   2.990
52651SOL    HW257980   9.890   5.088   3.071
52652SOL     OW57981  10.865   5.235   2.565
52652SOL    HW157982  10.808   5.219   2.646
52652SOL    HW257983  10.806   5.245   2.485
52653SOL     OW57984  10.445   4.427   2.579
52653SOL    HW157985  10.502   4.505   2.554
52653SOL    HW257986  10.385   4.453   2.655
52654SOL     OW57987  11.065   4.331   2.093
52654SOL    HW157988  11.053   4.318   1.994
52654SOL    HW257989  11.035   4.250   2.142
52655SOL     OW57990  10.078   4.868   2.885
52655SOL    HW157991  10.000   4.885   2.945
52655SOL    HW257992  10.112   4.955   2.849
52656SOL     OW57993  10.160   4.522   3.685
52656SOL    HW157994  10.156   4.598   3.750
52656SOL    HW257995  10.182   4.558   3.594
52657SOL     OW57996   9.995   4.736   2.527
52657SOL    HW157997  10.064   4.720   2.597
52657SOL    HW257998   9.922   4.793   2.565
52658SOL     OW57999   9.996   4.885   3.665
52658SOL    HW158000  10.056   4.964   3.679
52658SOL    HW258001   9.910   4.916   3.624
52659SOL     OW58002   9.645   5.159   2.923
52659SOL    HW158003   9.567   5.128   2.870
52659SOL    HW258004   9.703   5.217   2.866
52660SOL     OW58005  10.770   5.229   3.201
52660SOL    HW158006  10.794   5.323   3.227
52660SOL    HW258007  10.754   5.175   3.283
52661SOL     OW58008   9.748   4.116   3.361
52661SOL    HW158009   9.830   4.060   3.370
52661SOL    HW258010   9.667   4.058   3.365
52662SOL     OW58011  10.913   4.171   2.599
52662SOL    HW158012  10.839   4.217   2.549
52662SOL    HW258013  10.964   4.239   2.652
52663SOL     OW58014   9.541   5.437   2.345
52663SOL    HW158015   9.575   5.514   2.399
52663SOL    HW258016   9.585   5.437   2.255
52664SOL     OW58017  10.437   5.065   3.552
52664SOL    HW158018  10.484   5.065   3.640
52664SOL    HW258019  10.389   4.978   3.541
52665SOL     OW58020   9.540   5.158   2.400
52665SOL    HW158021   9.514   5.254   2.400
52665SOL    HW258022   9.469   5.104   2.445
52666SOL     OW58023   9.550   4.815   2.748
52666SOL    HW158024   9.564   4.731   2.800
52666SOL    HW258025   9.495   4.879   2.803
52667SOL     OW58026   9.930   5.510   3.301
52667SOL    HW158027   9.838   5.493   3.336
52667SOL    HW258028   9.958   5.602   3.327
52668SOL     OW58029   9.916   4.688   1.985
52668SOL    HW158030   9.923   4.772   1.931
52668SOL    HW258031   9.962   4.701   2.073
52669SOL     OW58032  10.904   3.838   3.342
52669SOL    HW158033  10.886   3.905   3.270
52669SOL    HW258034  10.901   3.884   3.431
52670SOL     OW58035   9.432   4.367   2.425
52670SOL    HW158036   9.387   4.279   2.442
52670SOL    HW258037   9.431   4.421   2.509
52671SOL     OW58038  11.152   5.491   2.221
52671SOL    HW158039  11.206   5.462   2.301
52671SOL    HW258040  11.182   5.581   2.192
52672SOL     OW58041   9.337   5.320   1.979
52672SOL    HW158042   9.318   5.224   2.000
52672SOL    HW258043   9.304   5.378   2.054
52673SOL     OW58044  10.999   4.646   2.474
52673SOL    HW158045  11.094   4.617   2.482
52673SOL    HW258046  10.991   4.711   2.399
52674SOL     OW58047  10.951   4.832   2.294
52674SOL    HW158048  11.037   4.834   2.242
52674SOL    HW258049  10.965   4.879   2.382
52675SOL     OW58050   9.423   4.461   3.459
52675SOL    HW158051   9.511   4.448   3.504
52675SOL    HW258052   9.410   4.558   3.437
52676SOL     OW58053   9.923   5.089   2.588
52676SOL    HW158054   9.874   5.002   2.597
52676SOL    HW258055   9.900   5.132   2.501
52677SOL     OW58056  10.603   4.952   3.285
52677SOL    HW158057  10.640   4.879   3.227
52677SOL    HW258058  10.655   4.957   3.370
52678SOL     OW58059  10.119   3.728   2.364
52678SOL    HW158060  10.159   3.819   2.355
52678SOL    HW258061  10.019   3.736   2.370
52679SOL     OW58062   9.507   4.700   3.126
52679SOL    HW158063   9.596   4.655   3.112
52679SOL    HW258064   9.434   4.635   3.107
52680SOL     OW58065  10.835   4.723   2.052
52680SOL    HW158066  10.772   4.647   2.065
52680SOL    HW258067  10.883   4.741   2.138
52681SOL     OW58068  10.497   5.516   3.478
52681SOL    HW158069  10.521   5.576   3.402
52681SOL    HW258070  10.504   5.421   3.448
52682SOL     OW58071   9.627   3.975   3.663
52682SOL    HW158072   9.698   4.046   3.669
52682SOL    HW258073   9.539   4.014   3.691
52683SOL     OW58074  10.776   5.141   2.815
52683SOL    HW158075  10.717   5.147   2.895
52683SOL    HW258076  10.761   5.053   2.769
52684SOL     OW58077  10.977   5.438   2.434
52684SOL    HW158078  10.936   5.415   2.346
52684SOL    HW258079  10.959   5.364   2.499
52685SOL     OW58080   9.908   4.453   2.132
52685SOL    HW158081   9.932   4.522   2.064
52685SOL    HW258082   9.830   4.486   2.186
52686SOL     OW58083  10.591   4.069   2.806
52686SOL    HW158084  10.505   4.019   2.793
52686SOL    HW258085  10.653   4.015   2.862
52687SOL     OW58086  10.886   5.386   2.169
52687SOL    HW158087  10.975   5.432   2.172
52687SOL    HW258088  10.865   5.362   2.074
52688SOL     OW58089  10.117   4.329   3.327
52688SOL    HW158090  10.070   4.326   3.416
52688SOL    HW258091  10.066   4.274   3.261
52689SOL     OW58092  10.704   4.193   3.536
52689SOL    HW158093  10.684   4.236   3.624
52689SOL    HW258094  10.782   4.131   3.545
52690SOL     OW58095  10.283   4.614   3.434
52690SOL    HW158096  10.329   4.530   3.405
52690SOL    HW258097  10.227   4.648   3.359
52691SOL     OW58098  10.301   4.134   3.104
52691SOL    HW158099  10.224   4.168   3.158
52691SOL    HW258100  10.267   4.083   3.025
52692SOL     OW58101  10.351   4.425   2.291
52692SOL    HW158102  10.377   4.421   2.387
52692SOL    HW258103  10.266   4.374   2.277
52693SOL     OW58104   9.386   4.535   2.651
52693SOL    HW158105   9.485   4.523   2.660
52693SOL    HW258106   9.362   4.630   2.672
52694SOL     OW58107   9.440   5.545   3.433
52694SOL    HW158108   9.430   5.530   3.532
52694SOL    HW258109   9.354   5.581   3.397
52695SOL     OW58110  10.175   4.072   2.057
52695SOL    HW158111  10.234   4.135   2.008
52695SOL    HW258112  10.194   3.978   2.028
52696SOL     OW58113  11.029   4.309   3.693
52696SOL    HW158114  11.003   4.398   3.657
52696SOL    HW258115  11.027   4.241   3.620
52697SOL     OW58116  10.672   4.868   2.407
52697SOL    HW158117  10.755   4.839   2.359
52697SOL    HW258118  10.623   4.935   2.351
52698SOL     OW58119   9.860   3.920   2.747
52698SOL    HW158120   9.855   3.915   2.847
52698SOL    HW258121   9.862   4.016   2.718
52699SOL     OW58122  10.318   5.180   2.339
52699SOL    HW158123  10.272   5.252   2.287
52699SOL    HW258124  10.314   5.200   2.437
52700SOL     OW58125   9.661   5.525   2.715
52700SOL    HW158126   9.711   5.439   2.721
52700SOL    HW258127   9.726   5.602   2.712
52701SOL     OW58128  11.105   4.790   2.735
52701SOL    HW158129  11.043   4.775   2.659
52701SOL    HW258130  11.053   4.801   2.820
52702SOL     OW58131  10.537   5.274   3.368
52702SOL    HW158132  10.543   5.197   3.432
52702SOL    HW258133  10.485   5.248   3.288
52703SOL     OW58134   9.631   4.667   2.104
52703SOL    HW158135   9.713   4.706   2.062
52703SOL    HW258136   9.604   4.585   2.055
52704SOL     OW58137  10.768   4.459   2.590
52704SOL    HW158138  10.763   4.394   2.665
52704SOL    HW258139  10.848   4.518   2.603
52705SOL     OW58140   9.771   4.990   3.589
52705SOL    HW158141   9.721   4.991   3.503
52705SOL    HW258142   9.708   4.972   3.665
52706SOL     OW58143  10.421   5.500   2.099
52706SOL    HW158144  10.361   5.438   2.149
52706SOL    HW258145  10.452   5.456   2.014
52707SOL     OW58146   9.512   4.009   3.360
52707SOL    HW158147   9.432   4.069   3.347
52707SOL    HW258148   9.502   3.960   3.446
52708SOL     OW58149  10.942   5.101   1.943
52708SOL    HW158150  10.910   5.195   1.933
52708SOL    HW258151  10.866   5.038   1.931
52709SOL     OW58152   9.774   5.467   2.185
52709SOL    HW158153   9.807   5.506   2.271
52709SOL    HW258154   9.850   5.460   2.120
52710SOL     OW58155  10.710   3.831   2.288
52710SOL    HW158156  10.686   3.794   2.198
52710SOL    HW258157  10.809   3.847   2.292
52711SOL     OW58158   9.559   5.509   3.103
52711SOL    HW158159   9.616   5.444   3.153
52711SOL    HW258160   9.543   5.476   3.010
52712SOL     OW58161  10.250   5.422   2.766
52712SOL    HW158162  10.330   5.365   2.787
52712SOL    HW258163  10.201   5.382   2.689
52713SOL     OW58164   9.692   4.424   2.342
52713SOL    HW158165   9.737   4.334   2.339
52713SOL    HW258166   9.598   4.413   2.375
52714SOL     OW58167  10.857   3.946   3.591
52714SOL    HW158168  10.852   3.983   3.683
52714SOL    HW258169  10.785   3.877   3.579
52715SOL     OW58170   9.924   3.846   1.979
52715SOL    HW158171  10.022   3.824   1.986
52715SOL    HW258172   9.893   3.829   1.886
52716SOL     OW58173  10.091   3.988   3.611
52716SOL    HW158174  10.158   3.927   3.654
52716SOL    HW258175  10.018   4.007   3.676
52717SOL     OW58176  10.198   5.238   3.057
52717SOL    HW158177  10.175   5.213   2.963
52717SOL    HW258178  10.259   5.169   3.096
52718SOL     OW58179  10.661   4.314   3.295
52718SOL    HW158180  10.689   4.271   3.380
52718SOL    HW258181  10.686   4.410   3.296
52719SOL     OW58182  10.113   5.126   2.786
52719SOL    HW158183  10.203   5.140   2.744
52719SOL    HW258184  10.042   5.128   2.715
52720SOL     OW58185  10.232   4.227   2.761
52720SOL    HW158186  10.207   4.218   2.665
52720SOL    HW258187  10.280   4.145   2.792
52721SOL     OW58188   9.849   3.788   2.374
52721SOL    HW158189   9.768   3.789   2.432
52721SOL    HW258190   9.852   3.871   2.319
52722SOL     OW58191  10.744   4.912   1.903
52722SOL    HW158192  10.776   4.836   1.960
52722SOL    HW258193  10.652   4.939   1.933
52723SOL     OW58194   9.607   3.759   2.033
52723SOL    HW158195   9.656   3.843   2.012
52723SOL    HW258196   9.669   3.694   2.078
52724SOL     OW58197  10.245   3.960   2.342
52724SOL    HW158198  10.197   4.001   2.264
52724SOL    HW258199  10.344   3.958   2.323
52725SOL     OW58200  10.386   4.407   3.326
52725SOL    HW158201  10.306   4.346   3.329
52725SOL    HW258202  10.467   4.354   3.302
52726SOL     OW58203  10.537   5.294   2.655
52726SOL    HW158204  10.558   5.368   2.590
52726SOL    HW258205  10.605   5.294   2.728
52727SOL     OW58206   9.769   4.876   2.603
52727SOL    HW158207   9.698   4.849   2.668
52727SOL    HW258208   9.743   4.848   2.510
52728SOL     OW58209  10.581   5.521   2.453
52728SOL    HW158210  10.625   5.585   2.389
52728SOL    HW258211  10.531   5.573   2.523
52729SOL     OW58212  10.342   4.273   1.878
52729SOL    HW158213  10.301   4.355   1.839
52729SOL    HW258214  10.406   4.299   1.951
52730SOL     OW58215   9.388   4.280   3.248
52730SOL    HW158216   9.480   4.279   3.207
52730SOL    HW258217   9.382   4.354   3.315
52731SOL     OW58218   9.871   3.946   3.009
52731SOL    HW158219   9.909   3.862   3.046
52731SOL    HW258220   9.783   3.965   3.053
52732SOL     OW58221  10.176   4.178   2.504
52732SOL    HW158222  10.144   4.250   2.442
52732SOL    HW258223  10.200   4.097   2.451
52733SOL     OW58224  10.327   3.763   2.615
52733SOL    HW158225  10.255   3.768   2.546
52733SOL    HW258226  10.303   3.694   2.684
52734SOL     OW58227  10.739   4.897   2.729
52734SOL    HW158228  10.684   4.813   2.722
52734SOL    HW258229  10.765   4.926   2.637
52735SOL     OW58230  10.776   4.314   2.854
52735SOL    HW158231  10.746   4.219   2.861
52735SOL    HW258232  10.849   4.330   2.920
52736SOL     OW58233  11.167   4.557   2.239
52736SOL    HW158234  11.209   4.493   2.303
52736SOL    HW258235  11.129   4.506   2.161
52737SOL     OW58236   9.798   5.109   2.036
52737SOL    HW158237   9.711   5.094   2.083
52737SOL    HW258238   9.781   5.135   1.941
52738SOL     OW58239  10.974   5.004   2.519
52738SOL    HW158240  11.073   5.012   2.533
52738SOL    HW258241  10.929   5.088   2.550
52739SOL     OW58242  10.700   4.299   1.940
52739SOL    HW158243  10.646   4.278   2.021
52739SOL    HW258244  10.791   4.258   1.949
52740SOL     OW58245   9.837   3.980   2.190
52740SOL    HW158246   9.864   3.921   2.115
52740SOL    HW258247   9.837   4.075   2.159
52741SOL     OW58248  11.064   4.947   3.450
52741SOL    HW158249  11.155   4.908   3.437
52741SOL    HW258250  11.072   5.043   3.474
52742SOL     OW58251  10.374   5.071   3.202
52742SOL    HW158252  10.294   5.048   3.257
52742SOL    HW258253  10.457   5.045   3.251
52743SOL     OW58254  10.902   5.353   3.487
52743SOL    HW158255  10.929   5.387   3.397
52743SOL    HW258256  10.981   5.315   3.533
52744SOL     OW58257  10.421   4.919   2.962
52744SOL    HW158258  10.381   4.963   3.043
52744SOL    HW258259  10.380   4.956   2.879
52745SOL     OW58260  10.948   4.823   2.941
52745SOL    HW158261  10.953   4.904   3.000
52745SOL    HW258262  10.862   4.825   2.890
52746SOL     OW58263  10.225   3.813   3.264
52746SOL    HW158264  10.250   3.793   3.169
52746SOL    HW258265  10.297   3.869   3.306
52747SOL     OW58266  10.290   4.840   3.581
52747SOL    HW158267  10.191   4.846   3.591
52747SOL    HW258268  10.313   4.760   3.525
52748SOL     OW58269  10.015   4.774   2.230
52748SOL    HW158270  10.001   4.781   2.329
52748SOL    HW258271  10.099   4.723   2.212
52749SOL     OW58272   9.720   4.537   3.113
52749SOL    HW158273   9.806   4.549   3.163
52749SOL    HW258274   9.678   4.450   3.140
52750SOL     OW58275  10.584   4.110   3.124
52750SOL    HW158276  10.605   4.184   3.188
52750SOL    HW258277  10.495   4.127   3.081
52751SOL     OW58278   9.374   5.288   3.193
52751SOL    HW158279   9.328   5.370   3.159
52751SOL    HW258280   9.472   5.307   3.202
52752SOL     OW58281   9.677   4.824   2.363
52752SOL    HW158282   9.670   4.907   2.307
52752SOL    HW258283   9.681   4.744   2.303
52753SOL     OW58284   9.876   4.261   2.727
52753SOL    HW158285   9.888   4.327   2.653
52753SOL    HW258286   9.922   4.295   2.810
52754SOL     OW58287  10.562   5.072   2.250
52754SOL    HW158288  10.612   5.149   2.290
52754SOL    HW258289  10.467   5.074   2.282
52755SOL     OW58290  10.582   5.169   3.004
52755SOL    HW158291  10.629   5.182   3.091
52755SOL    HW258292  10.516   5.095   3.013
52756SOL     OW58293  10.892   4.363   2.334
52756SOL    HW158294  10.861   4.424   2.407
52756SOL    HW258295  10.942   4.415   2.265
52757SOL     OW58296   9.664   5.234   3.191
52757SOL    HW158297   9.643   5.190   3.104
52757SOL    HW258298   9.761   5.260   3.194
52758SOL     OW58299   9.712   4.475   3.460
52758SOL    HW158300   9.780   4.530   3.413
52758SOL    HW258301   9.752   4.387   3.487
52759SOL     OW58302  10.897   4.503   3.532
52759SOL    HW158303  10.805   4.541   3.527
52759SOL    HW258304  10.957   4.550   3.467
52760SOL     OW58305  10.323   3.829   3.632
52760SOL    HW158306  10.329   3.914   3.580
52760SOL    HW258307  10.355   3.753   3.575
52761SOL     OW58308   9.814   3.774   3.602
52761SOL    HW158309   9.772   3.717   3.532
52761SOL    HW258310   9.748   3.843   3.634
52762SOL     OW58311   9.883   4.594   2.891
52762SOL    HW158312   9.927   4.683   2.882
52762SOL    HW258313   9.820   4.594   2.968
52763SOL     OW58314  10.670   4.586   2.907
52763SOL    HW158315  10.595   4.586   2.841
52763SOL    HW258316  10.707   4.494   2.916
52764SOL     OW58317  10.519   4.249   2.137
52764SOL    HW158318  10.532   4.165   2.191
52764SOL    HW258319  10.490   4.323   2.197
52765SOL     OW58320   9.617   3.937   3.093
52765SOL    HW158321   9.594   3.974   3.183
52765SOL    HW258322   9.587   3.842   3.087
52766SOL     OW58323   9.347   5.034   3.144
52766SOL    HW158324   9.400   4.985   3.212
52766SOL    HW258325   9.369   5.132   3.149
52767SOL     OW58326  10.042   4.358   2.926
52767SOL    HW158327  10.101   4.332   2.850
52767SOL    HW258328  10.014   4.454   2.915
52768SOL     OW58329  11.038   4.659   3.716
52768SOL    HW158330  10.992   4.652   3.627
52768SOL    HW258331  10.976   4.703   3.782
52769SOL     OW58332   9.617   3.787   2.480
52769SOL    HW158333   9.606   3.881   2.513
52769SOL    HW258334   9.612   3.724   2.557
52770SOL     OW58335  10.932   4.091   2.236
52770SOL    HW158336  10.934   4.015   2.300
52770SOL    HW258337  10.884   4.168   2.276
52771SOL     OW58338  10.333   4.490   2.828
52771SOL    HW158339  10.348   4.511   2.924
52771SOL    HW258340  10.303   4.395   2.819
52772SOL     OW58341  10.290   5.297   3.562
52772SOL    HW158342  10.270   5.341   3.474
52772SOL    HW258343  10.329   5.206   3.546
52773SOL     OW58344  11.169   5.242   3.467
52773SOL    HW158345  11.183   5.269   3.372
52773SOL    HW258346  11.252   5.264   3.520
52774SOL     OW58347   9.660   4.622   3.666
52774SOL    HW158348   9.736   4.666   3.714
52774SOL    HW258349   9.695   4.575   3.584
52775SOL     OW58350  10.850   3.998   1.987
52775SOL    HW158351  10.789   3.923   2.010
52775SOL    HW258352  10.872   4.050   2.070
52776SOL     OW58353  10.613   4.562   1.904
52776SOL    HW158354  10.647   4.469   1.919
52776SOL    HW258355  10.631   4.589   1.809
52777SOL     OW58356  10.378   5.057   2.711
52777SOL    HW158357  10.385   4.973   2.656
52777SOL    HW258358  10.440   5.126   2.675
52778SOL     OW58359   9.629   4.534   2.811
52778SOL    HW158360   9.722   4.570   2.816
52778SOL    HW258361   9.623   4.449   2.863
52779SOL     OW58362   9.649   4.233   2.868
52779SOL    HW158363   9.597   4.150   2.851
52779SOL    HW258364   9.726   4.238   2.804
52780SOL     OW58365  10.448   4.104   3.540
52780SOL    HW158366  10.403   4.167   3.604
52780SOL    HW258367  10.541   4.135   3.523
52781SOL     OW58368  10.470   3.931   3.339
52781SOL    HW158369  10.470   3.995   3.416
52781SOL    HW258370  10.498   3.979   3.256
52782SOL     OW58371   9.318   5.050   2.062
52782SOL    HW158372   9.225   5.071   2.031
52782SOL    HW258373   9.328   4.951   2.075
52783SOL     OW58374   9.398   5.525   2.789
52783SOL    HW158375   9.356   5.439   2.762
52783SOL    HW258376   9.492   5.528   2.755
52784SOL     OW58377   9.814   5.292   2.772
52784SOL    HW158378   9.880   5.366   2.781
52784SOL    HW258379   9.858   5.213   2.730
52785SOL     OW58380  10.312   4.520   3.100
52785SOL    HW158381  10.353   4.488   3.186
52785SOL    HW258382  10.216   4.493   3.097
52786SOL     OW58383   9.350   4.268   2.976
52786SOL    HW158384   9.435   4.235   2.935
52786SOL    HW258385   9.363   4.283   3.074
52787SOL     OW58386   9.499   4.244   3.584
52787SOL    HW158387   9.558   4.204   3.514
52787SOL    HW258388   9.441   4.315   3.543
52788SOL     OW58389  10.679   4.674   3.522
52788SOL    HW158390  10.718   4.763   3.542
52788SOL    HW258391  10.689   4.654   3.425
52789SOL     OW58392  10.125   4.296   2.187
52789SOL    HW158393  10.132   4.207   2.141
52789SOL    HW258394  10.031   4.330   2.179
52790SOL     OW58395  10.967   4.328   3.068
52790SOL    HW158396  10.929   4.259   3.130
52790SOL    HW258397  11.049   4.292   3.024
52791SOL     OW58398   9.562   5.288   3.606
52791SOL    HW158399   9.532   5.345   3.682
52791SOL    HW258400   9.555   5.191   3.632
52792SOL     OW58401   9.981   4.188   3.131
52792SOL    HW158402   9.947   4.099   3.101
52792SOL    HW258403  10.007   4.242   3.051
52793SOL     OW58404  10.240   5.402   3.327
52793SOL    HW158405  10.216   5.384   3.232
52793SOL    HW258406  10.270   5.496   3.337
52794SOL     OW58407   9.783   4.224   2.053
52794SOL    HW158408   9.844   4.304   2.057
52794SOL    HW258409   9.688   4.255   2.060
52795SOL     OW58410   9.469   4.861   3.328
52795SOL    HW158411   9.491   4.800   3.404
52795SOL    HW258412   9.479   4.812   3.242
52796SOL     OW58413  10.657   4.783   3.096
52796SOL    HW158414  10.681   4.720   3.022
52796SOL    HW258415  10.567   4.823   3.078
52797SOL     OW58416  10.612   4.579   2.171
52797SOL    HW158417  10.526   4.548   2.213
52797SOL    HW258418  10.608   4.565   2.072
52798SOL     OW58419  11.069   5.471   3.016
52798SOL    HW158420  11.130   5.501   2.943
52798SOL    HW258421  11.031   5.382   2.994
52799SOL     OW58422  10.562   5.455   2.990
52799SOL    HW158423  10.646   5.460   2.936
52799SOL    HW258424  10.539   5.359   3.008
52800SOL     OW58425   9.393   4.982   2.884
52800SOL    HW158426   9.388   4.981   2.984
52800SOL    HW258427   9.310   4.941   2.846
52801SOL     OW58428   9.998   5.386   3.578
52801SOL    HW158429   9.942   5.467   3.587
52801SOL    HW258430  10.050   5.390   3.492
52802SOL     OW58431  11.036   3.859   2.385
52802SOL    HW158432  11.109   3.842   2.318
52802SOL    HW258433  11.005   3.772   2.423
52803SOL     OW58434  10.698   5.297   2.339
52803SOL    HW158435  10.765   5.309   2.265
52803SOL    HW258436  10.658   5.386   2.362
52804SOL     OW58437   9.440   5.518   3.713
52804SOL    HW158438   9.399   5.444   3.766
52804SOL    HW258439   9.504   5.569   3.771
52805SOL     OW58440  10.590   4.651   2.534
52805SOL    HW158441  10.650   4.570   2.536
52805SOL    HW258442  10.630   4.720   2.474
52806SOL     OW58443  10.140   4.997   3.284
52806SOL    HW158444  10.135   5.030   3.379
52806SOL    HW258445  10.054   5.016   3.238
52807SOL     OW58446   9.982   5.340   2.016
52807SOL    HW158447   9.991   5.350   1.917
52807SOL    HW258448   9.942   5.251   2.037
52808SOL     OW58449  10.960   5.444   3.256
52808SOL    HW158450  11.013   5.454   3.172
52808SOL    HW258451  10.933   5.534   3.290
52809SOL     OW58452  11.151   3.899   2.825
52809SOL    HW158453  11.190   3.814   2.789
52809SOL    HW258454  11.053   3.901   2.806
52810SOL     OW58455   9.573   4.050   2.582
52810SOL    HW158456   9.494   4.101   2.548
52810SOL    HW258457   9.564   4.035   2.680
52811SOL     OW58458  10.504   5.336   1.893
52811SOL    HW158459  10.510   5.243   1.930
52811SOL    HW258460  10.445   5.336   1.813
52812SOL     OW58461  10.132   4.726   3.234
52812SOL    HW158462  10.172   4.725   3.142
52812SOL    HW258463  10.142   4.818   3.274
52813SOL     OW58464  10.226   4.634   2.153
52813SOL    HW158465  10.289   4.672   2.085
52813SOL    HW258466  10.266   4.551   2.192
52814SOL     OW58467  10.814   5.331   1.906
52814SOL    HW158468  10.722   5.368   1.913
52814SOL    HW258469  10.852   5.351   1.816
52815SOL     OW58470   9.682   5.012   3.352
52815SOL    HW158471   9.669   5.105   3.318
52815SOL    HW258472   9.598   4.960   3.339
52816SOL     OW58473  10.924   5.016   3.151
52816SOL    HW158474  10.984   5.019   3.231
52816SOL    HW258475  10.849   5.080   3.164
52817SOL     OW58476  10.349   4.822   2.558
52817SOL    HW158477  10.279   4.775   2.612
52817SOL    HW258478  10.408   4.754   2.515
52818SOL     OW58479  10.324   3.960   2.833
52818SOL    HW158480  10.316   3.924   2.740
52818SOL    HW258481  10.322   3.884   2.898
52819SOL     OW58482   9.900   5.211   2.353
52819SOL    HW158483   9.942   5.153   2.283
52819SOL    HW258484   9.856   5.290   2.309
52820SOL     OW58485  11.019   4.109   3.243
52820SOL    HW158486  11.092   4.178   3.247
52820SOL    HW258487  11.047   4.034   3.184
52821SOL     OW58488   9.565   5.072   2.152
52821SOL    HW158489   9.469   5.073   2.125
52821SOL    HW258490   9.577   5.125   2.236
52822SOL     OW58491   9.415   4.737   3.588
52822SOL    HW158492   9.338   4.704   3.642
52822SOL    HW258493   9.500   4.707   3.630
52823SOL     OW58494   9.982   3.927   3.351
52823SOL    HW158495  10.072   3.911   3.311
52823SOL    HW258496   9.990   3.932   3.450
52824SOL     OW58497   9.385   4.069   1.895
52824SOL    HW158498   9.293   4.041   1.866
52824SOL    HW258499   9.416   4.146   1.839
52825SOL     OW58500  10.750   4.580   3.260
52825SOL    HW158501  10.693   4.632   3.197
52825SOL    HW258502  10.846   4.592   3.236
52826SOL     OW58503   9.382   3.890   2.180
52826SOL    HW158504   9.365   3.973   2.126
52826SOL    HW258505   9.472   3.853   2.158
52827SOL     OW58506  10.493   5.059   1.981
52827SOL    HW158507  10.394   5.048   1.983
52827SOL    HW258508  10.527   5.074   2.074
52828SOL     OW58509   9.923   4.566   3.293
52828SOL    HW158510   9.979   4.647   3.276
52828SOL    HW258511   9.982   4.486   3.296
52829SOL     OW58512  10.803   5.491   2.821
52829SOL    HW158513  10.836   5.555   2.752
52829SOL    HW258514  10.869   5.485   2.896
52830SOL     OW58515  10.026   4.289   3.570
52830SOL    HW158516  10.045   4.354   3.644
52830SOL    HW258517  10.086   4.209   3.579
52831SOL     OW58518  10.760   4.944   3.495
52831SOL    HW158519  10.751   4.934   3.594
52831SOL    HW258520  10.856   4.937   3.469
52832SOL     OW58521   9.700   5.465   3.422
52832SOL    HW158522   9.609   5.506   3.420
52832SOL    HW258523   9.693   5.371   3.454
52833SOL     OW58524  10.984   4.607   3.116
52833SOL    HW158525  10.957   4.518   3.079
52833SOL    HW258526  10.985   4.675   3.043
52834SOL     OW58527  10.535   4.049   2.311
52834SOL    HW158528  10.600   3.975   2.300
52834SOL    HW258529  10.555   4.099   2.395
52835SOL     OW58530   9.904   4.469   2.514
52835SOL    HW158531   9.954   4.554   2.495
52835SOL    HW258532   9.816   4.471   2.466
52836SOL     OW58533  11.087   4.066   3.504
52836SOL    HW158534  11.070   4.097   3.410
52836SOL    HW258535  11.003   4.029   3.542
52837SOL     OW58536  11.040   4.658   3.379
52837SOL    HW158537  11.078   4.749   3.394
52837SOL    HW258538  11.032   4.641   3.280
52838SOL     OW58539  10.169   5.098   1.878
52838SOL    HW158540  10.123   5.113   1.966
52838SOL    HW258541  10.213   5.183   1.848
52839SOL     OW58542   9.971   5.514   2.815
52839SOL    HW158543   9.925   5.602   2.802
52839SOL    HW258544  10.070   5.526   2.808
52840SOL     OW58545  10.169   4.680   2.723
52840SOL    HW158546  10.223   4.611   2.771
52840SOL    HW258547  10.137   4.749   2.789
52841SOL     OW58548  10.393   4.708   1.949
52841SOL    HW158549  10.370   4.761   1.867
52841SOL    HW258550  10.474   4.652   1.930
52842SOL     OW58551  11.171   5.293   2.713
52842SOL    HW158552  11.100   5.281   2.643
52842SOL    HW258553  11.172   5.214   2.773
52843SOL     OW58554   9.531   5.038   3.706
52843SOL    HW158555   9.466   4.965   3.685
52843SOL    HW258556   9.535   5.052   3.804
52844SOL     OW58557   9.389   4.964   2.515
52844SOL    HW158558   9.388   4.917   2.603
52844SOL    HW258559   9.471   4.936   2.464
52845SOL     OW58560   9.982   5.115   3.486
52845SOL    HW158561   9.904   5.065   3.524
52845SOL    HW258562   9.979   5.210   3.517
52846SOL     OW58563  11.134   3.916   3.089
52846SOL    HW158564  11.130   3.826   3.133
52846SOL    HW258565  11.137   3.905   2.990
52847SOL     OW58566   9.738   4.148   2.382
52847SOL    HW158567   9.768   4.076   2.320
52847SOL    HW258568   9.699   4.108   2.465
52848SOL     OW58569  11.015   5.211   2.966
52848SOL    HW158570  10.922   5.186   2.939
52848SOL    HW258571  11.041   5.161   3.048
52849SOL     OW58572   9.627   4.271   3.142
52849SOL    HW158573   9.665   4.212   3.214
52849SOL    HW258574   9.667   4.245   3.054
52850SOL     OW58575  10.122   5.310   2.549
52850SOL    HW158576  10.154   5.320   2.455
52850SOL    HW258577  10.043   5.248   2.551
52851SOL     OW58578  10.734   3.938   2.974
52851SOL    HW158579  10.786   3.873   3.029
52851SOL    HW258580  10.685   4.001   3.035
52852SOL     OW58581  10.311   3.758   3.016
52852SOL    HW158582  10.248   3.686   2.985
52852SOL    HW258583  10.404   3.722   3.016
52853SOL     OW58584  10.080   5.054   2.163
52853SOL    HW158585  10.034   4.967   2.180
52853SOL    HW258586  10.171   5.051   2.204
52854SOL     OW58587   9.928   5.291   3.146
52854SOL    HW158588   9.923   5.373   3.203
52854SOL    HW258589  10.017   5.288   3.101
52855SOL     OW58590  10.662   3.776   2.030
52855SOL    HW158591  10.697   3.735   1.946
52855SOL    HW258592  10.572   3.738   2.050
52856SOL     OW58593  10.610   4.177   2.553
52856SOL    HW158594  10.551   4.257   2.557
52856SOL    HW258595  10.625   4.142   2.646
52857SOL     OW58596  10.903   3.945   2.744
52857SOL    HW158597  10.819   3.944   2.798
52857SOL    HW258598  10.905   4.028   2.688
52858SOL     OW58599   9.349   4.801   2.162
52858SOL    HW158600   9.448   4.790   2.153
52858SOL    HW258601   9.309   4.715   2.194
52859SOL     OW58602  10.185   5.370   2.199
52859SOL    HW158603  10.108   5.335   2.145
52859SOL    HW258604  10.153   5.441   2.261
52860SOL     OW58605   9.540   4.352   3.837
52860SOL    HW158606   9.447   4.350   3.874
52860SOL    HW258607   9.541   4.313   3.745
52861SOL     OW58608   9.535   3.999   4.720
52861SOL    HW158609   9.570   3.982   4.812
52861SOL    HW258610   9.447   3.954   4.708
52862SOL     OW58611   9.329   4.092   4.371
52862SOL    HW158612   9.247   4.135   4.410
52862SOL    HW258613   9.301   4.019   4.308
52863SOL     OW58614   9.879   4.999   4.889
52863SOL    HW158615   9.786   4.992   4.852
52863SOL    HW258616   9.890   5.088   4.933
52864SOL     OW58617  10.865   5.235   4.427
52864SOL    HW158618  10.808   5.219   4.508
52864SOL    HW258619  10.806   5.245   4.347
52865SOL     OW58620  10.445   4.427   4.441
52865SOL    HW158621  10.502   4.505   4.416
52865SOL    HW258622  10.385   4.453   4.517
52866SOL     OW58623  11.065   4.331   3.955
52866SOL    HW158624  11.053   4.318   3.856
52866SOL    HW258625  11.035   4.250   4.004
52867SOL     OW58626  10.078   4.868   4.747
52867SOL    HW158627  10.000   4.885   4.807
52867SOL    HW258628  10.112   4.955   4.711
52868SOL     OW58629  10.160   4.522   5.547
52868SOL    HW158630  10.156   4.598   5.612
52868SOL    HW258631  10.182   4.558   5.456
52869SOL     OW58632   9.995   4.736   4.389
52869SOL    HW158633  10.064   4.720   4.459
52869SOL    HW258634   9.922   4.793   4.427
52870SOL     OW58635   9.996   4.885   5.527
52870SOL    HW158636  10.056   4.964   5.541
52870SOL    HW258637   9.910   4.916   5.486
52871SOL     OW58638   9.645   5.159   4.785
52871SOL    HW158639   9.567   5.128   4.732
52871SOL    HW258640   9.703   5.217   4.728
52872SOL     OW58641  10.770   5.229   5.063
52872SOL    HW158642  10.794   5.323   5.089
52872SOL    HW258643  10.754   5.175   5.145
52873SOL     OW58644   9.748   4.116   5.223
52873SOL    HW158645   9.830   4.060   5.232
52873SOL    HW258646   9.667   4.058   5.227
52874SOL     OW58647  10.913   4.171   4.461
52874SOL    HW158648  10.839   4.217   4.411
52874SOL    HW258649  10.964   4.239   4.514
52875SOL     OW58650   9.541   5.437   4.207
52875SOL    HW158651   9.575   5.514   4.261
52875SOL    HW258652   9.585   5.437   4.117
52876SOL     OW58653  10.437   5.065   5.414
52876SOL    HW158654  10.484   5.065   5.502
52876SOL    HW258655  10.389   4.978   5.403
52877SOL     OW58656   9.540   5.158   4.262
52877SOL    HW158657   9.514   5.254   4.262
52877SOL    HW258658   9.469   5.104   4.307
52878SOL     OW58659   9.550   4.815   4.610
52878SOL    HW158660   9.564   4.731   4.662
52878SOL    HW258661   9.495   4.879   4.665
52879SOL     OW58662   9.930   5.510   5.163
52879SOL    HW158663   9.838   5.493   5.198
52879SOL    HW258664   9.958   5.602   5.189
52880SOL     OW58665   9.916   4.688   3.847
52880SOL    HW158666   9.923   4.772   3.793
52880SOL    HW258667   9.962   4.701   3.935
52881SOL     OW58668  10.904   3.838   5.204
52881SOL    HW158669  10.886   3.905   5.132
52881SOL    HW258670  10.901   3.884   5.293
52882SOL     OW58671   9.432   4.367   4.287
52882SOL    HW158672   9.387   4.279   4.304
52882SOL    HW258673   9.431   4.421   4.371
52883SOL     OW58674  11.152   5.491   4.083
52883SOL    HW158675  11.206   5.462   4.163
52883SOL    HW258676  11.182   5.581   4.054
52884SOL     OW58677   9.337   5.320   3.841
52884SOL    HW158678   9.318   5.224   3.862
52884SOL    HW258679   9.304   5.378   3.916
52885SOL     OW58680  10.999   4.646   4.336
52885SOL    HW158681  11.094   4.617   4.344
52885SOL    HW258682  10.991   4.711   4.261
52886SOL     OW58683  10.951   4.832   4.156
52886SOL    HW158684  11.037   4.834   4.104
52886SOL    HW258685  10.965   4.879   4.244
52887SOL     OW58686   9.423   4.461   5.321
52887SOL    HW158687   9.511   4.448   5.366
52887SOL    HW258688   9.410   4.558   5.299
52888SOL     OW58689   9.923   5.089   4.450
52888SOL    HW158690   9.874   5.002   4.459
52888SOL    HW258691   9.900   5.132   4.363
52889SOL     OW58692  10.603   4.952   5.147
52889SOL    HW158693  10.640   4.879   5.089
52889SOL    HW258694  10.655   4.957   5.232
52890SOL     OW58695  10.119   3.728   4.226
52890SOL    HW158696  10.159   3.819   4.217
52890SOL    HW258697  10.019   3.736   4.232
52891SOL     OW58698   9.507   4.700   4.988
52891SOL    HW158699   9.596   4.655   4.974
52891SOL    HW258700   9.434   4.635   4.969
52892SOL     OW58701  10.835   4.723   3.914
52892SOL    HW158702  10.772   4.647   3.927
52892SOL    HW258703  10.883   4.741   4.000
52893SOL     OW58704  10.497   5.516   5.340
52893SOL    HW158705  10.521   5.576   5.264
52893SOL    HW258706  10.504   5.421   5.310
52894SOL     OW58707   9.627   3.975   5.525
52894SOL    HW158708   9.698   4.046   5.531
52894SOL    HW258709   9.539   4.014   5.553
52895SOL     OW58710  10.776   5.141   4.677
52895SOL    HW158711  10.717   5.147   4.757
52895SOL    HW258712  10.761   5.053   4.631
52896SOL     OW58713  10.977   5.438   4.296
52896SOL    HW158714  10.936   5.415   4.208
52896SOL    HW258715  10.959   5.364   4.361
52897SOL     OW58716   9.908   4.453   3.994
52897SOL    HW158717   9.932   4.522   3.926
52897SOL    HW258718   9.830   4.486   4.048
52898SOL     OW58719  10.591   4.069   4.668
52898SOL    HW158720  10.505   4.019   4.655
52898SOL    HW258721  10.653   4.015   4.724
52899SOL     OW58722  10.886   5.386   4.031
52899SOL    HW158723  10.975   5.432   4.034
52899SOL    HW258724  10.865   5.362   3.936
52900SOL     OW58725  10.117   4.329   5.189
52900SOL    HW158726  10.070   4.326   5.278
52900SOL    HW258727  10.066   4.274   5.123
52901SOL     OW58728  10.704   4.193   5.398
52901SOL    HW158729  10.684   4.236   5.486
52901SOL    HW258730  10.782   4.131   5.407
52902SOL     OW58731  10.283   4.614   5.296
52902SOL    HW158732  10.329   4.530   5.267
52902SOL    HW258733  10.227   4.648   5.221
52903SOL     OW58734  10.301   4.134   4.966
52903SOL    HW158735  10.224   4.168   5.020
52903SOL    HW258736  10.267   4.083   4.887
52904SOL     OW58737  10.351   4.425   4.153
52904SOL    HW158738  10.377   4.421   4.249
52904SOL    HW258739  10.266   4.374   4.139
52905SOL     OW58740   9.386   4.535   4.513
52905SOL    HW158741   9.485   4.523   4.522
52905SOL    HW258742   9.362   4.630   4.534
52906SOL     OW58743   9.440   5.545   5.295
52906SOL    HW158744   9.430   5.530   5.394
52906SOL    HW258745   9.354   5.581   5.259
52907SOL     OW58746  10.175   4.072   3.919
52907SOL    HW158747  10.234   4.135   3.870
52907SOL    HW258748  10.194   3.978   3.890
52908SOL     OW58749  11.029   4.309   5.555
52908SOL    HW158750  11.003   4.398   5.519
52908SOL    HW258751  11.027   4.241   5.482
52909SOL     OW58752  10.672   4.868   4.269
52909SOL    HW158753  10.755   4.839   4.221
52909SOL    HW258754  10.623   4.935   4.213
52910SOL     OW58755   9.860   3.920   4.609
52910SOL    HW158756   9.855   3.915   4.709
52910SOL    HW258757   9.862   4.016   4.580
52911SOL     OW58758  10.318   5.180   4.201
52911SOL    HW158759  10.272   5.252   4.149
52911SOL    HW258760  10.314   5.200   4.299
52912SOL     OW58761   9.661   5.525   4.577
52912SOL    HW158762   9.711   5.439   4.583
52912SOL    HW258763   9.726   5.602   4.574
52913SOL     OW58764  11.105   4.790   4.597
52913SOL    HW158765  11.043   4.775   4.521
52913SOL    HW258766  11.053   4.801   4.682
52914SOL     OW58767  10.537   5.274   5.230
52914SOL    HW158768  10.543   5.197   5.294
52914SOL    HW258769  10.485   5.248   5.150
52915SOL     OW58770   9.631   4.667   3.966
52915SOL    HW158771   9.713   4.706   3.924
52915SOL    HW258772   9.604   4.585   3.917
52916SOL     OW58773  10.768   4.459   4.452
52916SOL    HW158774  10.763   4.394   4.527
52916SOL    HW258775  10.848   4.518   4.465
52917SOL     OW58776   9.771   4.990   5.451
52917SOL    HW158777   9.721   4.991   5.365
52917SOL    HW258778   9.708   4.972   5.527
52918SOL     OW58779  10.421   5.500   3.961
52918SOL    HW158780  10.361   5.438   4.011
52918SOL    HW258781  10.452   5.456   3.876
52919SOL     OW58782   9.512   4.009   5.222
52919SOL    HW158783   9.432   4.069   5.209
52919SOL    HW258784   9.502   3.960   5.308
52920SOL     OW58785  10.942   5.101   3.805
52920SOL    HW158786  10.910   5.195   3.795
52920SOL    HW258787  10.866   5.038   3.793
52921SOL     OW58788   9.774   5.467   4.047
52921SOL    HW158789   9.807   5.506   4.133
52921SOL    HW258790   9.850   5.460   3.982
52922SOL     OW58791  10.710   3.831   4.150
52922SOL    HW158792  10.686   3.794   4.060
52922SOL    HW258793  10.809   3.847   4.154
52923SOL     OW58794   9.559   5.509   4.965
52923SOL    HW158795   9.616   5.444   5.015
52923SOL    HW258796   9.543   5.476   4.872
52924SOL     OW58797  10.250   5.422   4.628
52924SOL    HW158798  10.330   5.365   4.649
52924SOL    HW258799  10.201   5.382   4.551
52925SOL     OW58800   9.692   4.424   4.204
52925SOL    HW158801   9.737   4.334   4.201
52925SOL    HW258802   9.598   4.413   4.237
52926SOL     OW58803  10.857   3.946   5.453
52926SOL    HW158804  10.852   3.983   5.545
52926SOL    HW258805  10.785   3.877   5.441
52927SOL     OW58806   9.924   3.846   3.841
52927SOL    HW158807  10.022   3.824   3.848
52927SOL    HW258808   9.893   3.829   3.748
52928SOL     OW58809  10.091   3.988   5.473
52928SOL    HW158810  10.158   3.927   5.516
52928SOL    HW258811  10.018   4.007   5.538
52929SOL     OW58812  10.198   5.238   4.919
52929SOL    HW158813  10.175   5.213   4.825
52929SOL    HW258814  10.259   5.169   4.958
52930SOL     OW58815  10.661   4.314   5.157
52930SOL    HW158816  10.689   4.271   5.242
52930SOL    HW258817  10.686   4.410   5.158
52931SOL     OW58818  10.113   5.126   4.648
52931SOL    HW158819  10.203   5.140   4.606
52931SOL    HW258820  10.042   5.128   4.577
52932SOL     OW58821  10.232   4.227   4.623
52932SOL    HW158822  10.207   4.218   4.527
52932SOL    HW258823  10.280   4.145   4.654
52933SOL     OW58824   9.849   3.788   4.236
52933SOL    HW158825   9.768   3.789   4.294
52933SOL    HW258826   9.852   3.871   4.181
52934SOL     OW58827  10.744   4.912   3.765
52934SOL    HW158828  10.776   4.836   3.822
52934SOL    HW258829  10.652   4.939   3.795
52935SOL     OW58830   9.607   3.759   3.895
52935SOL    HW158831   9.656   3.843   3.874
52935SOL    HW258832   9.669   3.694   3.940
52936SOL     OW58833  10.245   3.960   4.204
52936SOL    HW158834  10.197   4.001   4.126
52936SOL    HW258835  10.344   3.958   4.185
52937SOL     OW58836  10.386   4.407   5.188
52937SOL    HW158837  10.306   4.346   5.191
52937SOL    HW258838  10.467   4.354   5.164
52938SOL     OW58839  10.537   5.294   4.517
52938SOL    HW158840  10.558   5.368   4.452
52938SOL    HW258841  10.605   5.294   4.590
52939SOL     OW58842   9.769   4.876   4.465
52939SOL    HW158843   9.698   4.849   4.530
52939SOL    HW258844   9.743   4.848   4.372
52940SOL     OW58845  10.581   5.521   4.315
52940SOL    HW158846  10.625   5.585   4.251
52940SOL    HW258847  10.531   5.573   4.385
52941SOL     OW58848  10.342   4.273   3.740
52941SOL    HW158849  10.301   4.355   3.701
52941SOL    HW258850  10.406   4.299   3.813
52942SOL     OW58851   9.388   4.280   5.110
52942SOL    HW158852   9.480   4.279   5.069
52942SOL    HW258853   9.382   4.354   5.177
52943SOL     OW58854   9.871   3.946   4.871
52943SOL    HW158855   9.909   3.862   4.908
52943SOL    HW258856   9.783   3.965   4.915
52944SOL     OW58857  10.176   4.178   4.366
52944SOL    HW158858  10.144   4.250   4.304
52944SOL    HW258859  10.200   4.097   4.313
52945SOL     OW58860  10.327   3.763   4.477
52945SOL    HW158861  10.255   3.768   4.408
52945SOL    HW258862  10.303   3.694   4.546
52946SOL     OW58863  10.739   4.897   4.591
52946SOL    HW158864  10.684   4.813   4.584
52946SOL    HW258865  10.765   4.926   4.499
52947SOL     OW58866  10.776   4.314   4.716
52947SOL    HW158867  10.746   4.219   4.723
52947SOL    HW258868  10.849   4.330   4.782
52948SOL     OW58869  11.167   4.557   4.101
52948SOL    HW158870  11.209   4.493   4.165
52948SOL    HW258871  11.129   4.506   4.023
52949SOL     OW58872   9.798   5.109   3.898
52949SOL    HW158873   9.711   5.094   3.945
52949SOL    HW258874   9.781   5.135   3.803
52950SOL     OW58875  10.974   5.004   4.381
52950SOL    HW158876  11.073   5.012   4.395
52950SOL    HW258877  10.929   5.088   4.412
52951SOL     OW58878  10.700   4.299   3.802
52951SOL    HW158879  10.646   4.278   3.883
52951SOL    HW258880  10.791   4.258   3.811
52952SOL     OW58881   9.837   3.980   4.052
52952SOL    HW158882   9.864   3.921   3.977
52952SOL    HW258883   9.837   4.075   4.021
52953SOL     OW58884  11.064   4.947   5.312
52953SOL    HW158885  11.155   4.908   5.299
52953SOL    HW258886  11.072   5.043   5.336
52954SOL     OW58887  10.374   5.071   5.064
52954SOL    HW158888  10.294   5.048   5.119
52954SOL    HW258889  10.457   5.045   5.113
52955SOL     OW58890  10.902   5.353   5.349
52955SOL    HW158891  10.929   5.387   5.259
52955SOL    HW258892  10.981   5.315   5.395
52956SOL     OW58893  10.421   4.919   4.824
52956SOL    HW158894  10.381   4.963   4.905
52956SOL    HW258895  10.380   4.956   4.741
52957SOL     OW58896  10.948   4.823   4.803
52957SOL    HW158897  10.953   4.904   4.862
52957SOL    HW258898  10.862   4.825   4.752
52958SOL     OW58899  10.225   3.813   5.126
52958SOL    HW158900  10.250   3.793   5.031
52958SOL    HW258901  10.297   3.869   5.168
52959SOL     OW58902  10.290   4.840   5.443
52959SOL    HW158903  10.191   4.846   5.453
52959SOL    HW258904  10.313   4.760   5.387
52960SOL     OW58905  10.015   4.774   4.092
52960SOL    HW158906  10.001   4.781   4.191
52960SOL    HW258907  10.099   4.723   4.074
52961SOL     OW58908   9.720   4.537   4.975
52961SOL    HW158909   9.806   4.549   5.025
52961SOL    HW258910   9.678   4.450   5.002
52962SOL     OW58911  10.584   4.110   4.986
52962SOL    HW158912  10.605   4.184   5.050
52962SOL    HW258913  10.495   4.127   4.943
52963SOL     OW58914   9.374   5.288   5.055
52963SOL    HW158915   9.328   5.370   5.021
52963SOL    HW258916   9.472   5.307   5.064
52964SOL     OW58917   9.677   4.824   4.225
52964SOL    HW158918   9.670   4.907   4.169
52964SOL    HW258919   9.681   4.744   4.165
52965SOL     OW58920   9.876   4.261   4.589
52965SOL    HW158921   9.888   4.327   4.515
52965SOL    HW258922   9.922   4.295   4.672
52966SOL     OW58923  10.562   5.072   4.112
52966SOL    HW158924  10.612   5.149   4.152
52966SOL    HW258925  10.467   5.074   4.144
52967SOL     OW58926  10.582   5.169   4.866
52967SOL    HW158927  10.629   5.182   4.953
52967SOL    HW258928  10.516   5.095   4.875
52968SOL     OW58929  10.892   4.363   4.196
52968SOL    HW158930  10.861   4.424   4.269
52968SOL    HW258931  10.942   4.415   4.127
52969SOL     OW58932   9.664   5.234   5.053
52969SOL    HW158933   9.643   5.190   4.966
52969SOL    HW258934   9.761   5.260   5.056
52970SOL     OW58935   9.712   4.475   5.322
52970SOL    HW158936   9.780   4.530   5.275
52970SOL    HW258937   9.752   4.387   5.349
52971SOL     OW58938  10.897   4.503   5.394
52971SOL    HW158939  10.805   4.541   5.389
52971SOL    HW258940  10.957   4.550   5.329
52972SOL     OW58941  10.323   3.829   5.494
52972SOL    HW158942  10.329   3.914   5.442
52972SOL    HW258943  10.355   3.753   5.437
52973SOL     OW58944   9.814   3.774   5.464
52973SOL    HW158945   9.772   3.717   5.394
52973SOL    HW258946   9.748   3.843   5.496
52974SOL     OW58947   9.883   4.594   4.753
52974SOL    HW158948   9.927   4.683   4.744
52974SOL    HW258949   9.820   4.594   4.830
52975SOL     OW58950  10.670   4.586   4.769
52975SOL    HW158951  10.595   4.586   4.703
52975SOL    HW258952  10.707   4.494   4.778
52976SOL     OW58953  10.519   4.249   3.999
52976SOL    HW158954  10.532   4.165   4.053
52976SOL    HW258955  10.490   4.323   4.059
52977SOL     OW58956   9.617   3.937   4.955
52977SOL    HW158957   9.594   3.974   5.045
52977SOL    HW258958   9.587   3.842   4.949
52978SOL     OW58959   9.347   5.034   5.006
52978SOL    HW158960   9.400   4.985   5.074
52978SOL    HW258961   9.369   5.132   5.011
52979SOL     OW58962  10.042   4.358   4.788
52979SOL    HW158963  10.101   4.332   4.712
52979SOL    HW258964  10.014   4.454   4.777
52980SOL     OW58965  11.038   4.659   5.578
52980SOL    HW158966  10.992   4.652   5.489
52980SOL    HW258967  10.976   4.703   5.644
52981SOL     OW58968   9.617   3.787   4.342
52981SOL    HW158969   9.606   3.881   4.375
52981SOL    HW258970   9.612   3.724   4.419
52982SOL     OW58971  10.932   4.091   4.098
52982SOL    HW158972  10.934   4.015   4.162
52982SOL    HW258973  10.884   4.168   4.138
52983SOL     OW58974  10.333   4.490   4.690
52983SOL    HW158975  10.348   4.511   4.786
52983SOL    HW258976  10.303   4.395   4.681
52984SOL     OW58977  10.290   5.297   5.424
52984SOL    HW158978  10.270   5.341   5.336
52984SOL    HW258979  10.329   5.206   5.408
52985SOL     OW58980  11.169   5.242   5.329
52985SOL    HW158981  11.183   5.269   5.234
52985SOL    HW258982  11.252   5.264   5.382
52986SOL     OW58983   9.660   4.622   5.528
52986SOL    HW158984   9.736   4.666   5.576
52986SOL    HW258985   9.695   4.575   5.446
52987SOL     OW58986  10.850   3.998   3.849
52987SOL    HW158987  10.789   3.923   3.872
52987SOL    HW258988  10.872   4.050   3.932
52988SOL     OW58989  10.613   4.562   3.766
52988SOL    HW158990  10.647   4.469   3.781
52988SOL    HW258991  10.631   4.589   3.671
52989SOL     OW58992  10.378   5.057   4.573
52989SOL    HW158993  10.385   4.973   4.518
52989SOL    HW258994  10.440   5.126   4.537
52990SOL     OW58995   9.629   4.534   4.673
52990SOL    HW158996   9.722   4.570   4.678
52990SOL    HW258997   9.623   4.449   4.725
52991SOL     OW58998   9.649   4.233   4.730
52991SOL    HW158999   9.597   4.150   4.713
52991SOL    HW259000   9.726   4.238   4.666
52992SOL     OW59001  10.448   4.104   5.402
52992SOL    HW159002  10.403   4.167   5.466
52992SOL    HW259003  10.541   4.135   5.385
52993SOL     OW59004  10.470   3.931   5.201
52993SOL    HW159005  10.470   3.995   5.278
52993SOL    HW259006  10.498   3.979   5.118
52994SOL     OW59007   9.318   5.050   3.924
52994SOL    HW159008   9.225   5.071   3.893
52994SOL    HW259009   9.328   4.951   3.937
52995SOL     OW59010   9.398   5.525   4.651
52995SOL    HW159011   9.356   5.439   4.624
52995SOL    HW259012   9.492   5.528   4.617
52996SOL     OW59013   9.814   5.292   4.634
52996SOL    HW159014   9.880   5.366   4.643
52996SOL    HW259015   9.858   5.213   4.592
52997SOL     OW59016  10.312   4.520   4.962
52997SOL    HW159017  10.353   4.488   5.048
52997SOL    HW259018  10.216   4.493   4.959
52998SOL     OW59019   9.350   4.268   4.838
52998SOL    HW159020   9.435   4.235   4.797
52998SOL    HW259021   9.363   4.283   4.936
52999SOL     OW59022   9.499   4.244   5.446
52999SOL    HW159023   9.558   4.204   5.376
52999SOL    HW259024   9.441   4.315   5.405
53000SOL     OW59025  10.679   4.674   5.384
53000SOL    HW159026  10.718   4.763   5.404
53000SOL    HW259027  10.689   4.654   5.287
53001SOL     OW59028  10.125   4.296   4.049
53001SOL    HW159029  10.132   4.207   4.003
53001SOL    HW259030  10.031   4.330   4.041
53002SOL     OW59031  10.967   4.328   4.930
53002SOL    HW159032  10.929   4.259   4.992
53002SOL    HW259033  11.049   4.292   4.886
53003SOL     OW59034   9.562   5.288   5.468
53003SOL    HW159035   9.532   5.345   5.544
53003SOL    HW259036   9.555   5.191   5.494
53004SOL     OW59037   9.981   4.188   4.993
53004SOL    HW159038   9.947   4.099   4.963
53004SOL    HW259039  10.007   4.242   4.913
53005SOL     OW59040  10.240   5.402   5.189
53005SOL    HW159041  10.216   5.384   5.094
53005SOL    HW259042  10.270   5.496   5.199
53006SOL     OW59043   9.783   4.224   3.915
53006SOL    HW159044   9.844   4.304   3.919
53006SOL    HW259045   9.688   4.255   3.922
53007SOL     OW59046   9.469   4.861   5.190
53007SOL    HW159047   9.491   4.800   5.266
53007SOL    HW259048   9.479   4.812   5.104
53008SOL     OW59049  10.657   4.783   4.958
53008SOL    HW159050  10.681   4.720   4.884
53008SOL    HW259051  10.567   4.823   4.940
53009SOL     OW59052  10.612   4.579   4.033
53009SOL    HW159053  10.526   4.548   4.075
53009SOL    HW259054  10.608   4.565   3.934
53010SOL     OW59055  11.069   5.471   4.878
53010SOL    HW159056  11.130   5.501   4.805
53010SOL    HW259057  11.031   5.382   4.856
53011SOL     OW59058  10.562   5.455   4.852
53011SOL    HW159059  10.646   5.460   4.798
53011SOL    HW259060  10.539   5.359   4.870
53012SOL     OW59061   9.393   4.982   4.746
53012SOL    HW159062   9.388   4.981   4.846
53012SOL    HW259063   9.310   4.941   4.708
53013SOL     OW59064   9.998   5.386   5.440
53013SOL    HW159065   9.942   5.467   5.449
53013SOL    HW259066  10.050   5.390   5.354
53014SOL     OW59067  11.036   3.859   4.247
53014SOL    HW159068  11.109   3.842   4.180
53014SOL    HW259069  11.005   3.772   4.285
53015SOL     OW59070  10.698   5.297   4.201
53015SOL    HW159071  10.765   5.309   4.127
53015SOL    HW259072  10.658   5.386   4.224
53016SOL     OW59073   9.440   5.518   5.575
53016SOL    HW159074   9.399   5.444   5.628
53016SOL    HW259075   9.504   5.569   5.633
53017SOL     OW59076  10.590   4.651   4.396
53017SOL    HW159077  10.650   4.570   4.398
53017SOL    HW259078  10.630   4.720   4.336
53018SOL     OW59079  10.140   4.997   5.146
53018SOL    HW159080  10.135   5.030   5.241
53018SOL    HW259081  10.054   5.016   5.100
53019SOL     OW59082   9.982   5.340   3.878
53019SOL    HW159083   9.991   5.350   3.779
53019SOL    HW259084   9.942   5.251   3.899
53020SOL     OW59085  10.960   5.444   5.118
53020SOL    HW159086  11.013   5.454   5.034
53020SOL    HW259087  10.933   5.534   5.152
53021SOL     OW59088  11.151   3.899   4.687
53021SOL    HW159089  11.190   3.814   4.651
53021SOL    HW259090  11.053   3.901   4.668
53022SOL     OW59091   9.573   4.050   4.444
53022SOL    HW159092   9.494   4.101   4.410
53022SOL    HW259093   9.564   4.035   4.542
53023SOL     OW59094  10.504   5.336   3.755
53023SOL    HW159095  10.510   5.243   3.792
53023SOL    HW259096  10.445   5.336   3.675
53024SOL     OW59097  10.132   4.726   5.096
53024SOL    HW159098  10.172   4.725   5.004
53024SOL    HW259099  10.142   4.818   5.136
53025SOL     OW59100  10.226   4.634   4.015
53025SOL    HW159101  10.289   4.672   3.947
53025SOL    HW259102  10.266   4.551   4.054
53026SOL     OW59103  10.814   5.331   3.768
53026SOL    HW159104  10.722   5.368   3.775
53026SOL    HW259105  10.852   5.351   3.678
53027SOL     OW59106   9.682   5.012   5.214
53027SOL    HW159107   9.669   5.105   5.180
53027SOL    HW259108   9.598   4.960   5.201
53028SOL     OW59109  10.924   5.016   5.013
53028SOL    HW159110  10.984   5.019   5.093
53028SOL    HW259111  10.849   5.080   5.026
53029SOL     OW59112  10.349   4.822   4.420
53029SOL    HW159113  10.279   4.775   4.474
53029SOL    HW259114  10.408   4.754   4.377
53030SOL     OW59115  10.324   3.960   4.695
53030SOL    HW159116  10.316   3.924   4.602
53030SOL    HW259117  10.322   3.884   4.760
53031SOL     OW59118   9.900   5.211   4.215
53031SOL    HW159119   9.942   5.153   4.145
53031SOL    HW259120   9.856   5.290   4.171
53032SOL     OW59121  11.019   4.109   5.105
53032SOL    HW159122  11.092   4.178   5.109
53032SOL    HW259123  11.047   4.034   5.046
53033SOL     OW59124   9.565   5.072   4.014
53033SOL    HW159125   9.469   5.073   3.987
53033SOL    HW259126   9.577   5.125   4.098
53034SOL     OW59127   9.415   4.737   5.450
53034SOL    HW159128   9.338   4.704   5.504
53034SOL    HW259129   9.500   4.707   5.492
53035SOL     OW59130   9.982   3.927   5.213
53035SOL    HW159131  10.072   3.911   5.173
53035SOL    HW259132   9.990   3.932   5.312
53036SOL     OW59133   9.385   4.069   3.757
53036SOL    HW159134   9.293   4.041   3.728
53036SOL    HW259135   9.416   4.146   3.701
53037SOL     OW59136  10.750   4.580   5.122
53037SOL    HW159137  10.693   4.632   5.059
53037SOL    HW259138  10.846   4.592   5.098
53038SOL     OW59139   9.382   3.890   4.042
53038SOL    HW159140   9.365   3.973   3.988
53038SOL    HW259141   9.472   3.853   4.020
53039SOL     OW59142  10.493   5.059   3.843
53039SOL    HW159143  10.394   5.048   3.845
53039SOL    HW259144  10.527   5.074   3.936
53040SOL     OW59145   9.923   4.566   5.155
53040SOL    HW159146   9.979   4.647   5.138
53040SOL    HW259147   9.982   4.486   5.158
53041SOL     OW59148  10.803   5.491   4.683
53041SOL    HW159149  10.836   5.555   4.614
53041SOL    HW259150  10.869   5.485   4.758
53042SOL     OW59151  10.026   4.289   5.432
53042SOL    HW159152  10.045   4.354   5.506
53042SOL    HW259153  10.086   4.209   5.441
53043SOL     OW59154  10.760   4.944   5.357
53043SOL    HW159155  10.751   4.934   5.456
53043SOL    HW259156  10.856   4.937   5.331
53044SOL     OW59157   9.700   5.465   5.284
53044SOL    HW159158   9.609   5.506   5.282
53044SOL    HW259159   9.693   5.371   5.316
53045SOL     OW59160  10.984   4.607   4.978
53045SOL    HW159161  10.957   4.518   4.941
53045SOL    HW259162  10.985   4.675   4.905
53046SOL     OW59163  10.535   4.049   4.173
53046SOL    HW159164  10.600   3.975   4.162
53046SOL    HW259165  10.555   4.099   4.257
53047SOL     OW59166   9.904   4.469   4.376
53047SOL    HW159167   9.954   4.554   4.357
53047SOL    HW259168   9.816   4.471   4.328
53048SOL     OW59169  11.087   4.066   5.366
53048SOL    HW159170  11.070   4.097   5.272
53048SOL    HW259171  11.003   4.029   5.404
53049SOL     OW59172  11.040   4.658   5.241
53049SOL    HW159173  11.078   4.749   5.256
53049SOL    HW259174  11.032   4.641   5.142
53050SOL     OW59175  10.169   5.098   3.740
53050SOL    HW159176  10.123   5.113   3.828
53050SOL    HW259177  10.213   5.183   3.710
53051SOL     OW59178   9.971   5.514   4.677
53051SOL    HW159179   9.925   5.602   4.664
53051SOL    HW259180  10.070   5.526   4.670
53052SOL     OW59181  10.169   4.680   4.585
53052SOL    HW159182  10.223   4.611   4.633
53052SOL    HW259183  10.137   4.749   4.651
53053SOL     OW59184  10.393   4.708   3.811
53053SOL    HW159185  10.370   4.761   3.729
53053SOL    HW259186  10.474   4.652   3.792
53054SOL     OW59187  11.171   5.293   4.575
53054SOL    HW159188  11.100   5.281   4.505
53054SOL    HW259189  11.172   5.214   4.635
53055SOL     OW59190   9.531   5.038   5.568
53055SOL    HW159191   9.466   4.965   5.547
53055SOL    HW259192   9.535   5.052   5.666
53056SOL     OW59193   9.389   4.964   4.377
53056SOL    HW159194   9.388   4.917   4.465
53056SOL    HW259195   9.471   4.936   4.326
53057SOL     OW59196   9.982   5.115   5.348
53057SOL    HW159197   9.904   5.065   5.386
53057SOL    HW259198   9.979   5.210   5.379
53058SOL     OW59199  11.134   3.916   4.951
53058SOL    HW159200  11.130   3.826   4.995
53058SOL    HW259201  11.137   3.905   4.852
53059SOL     OW59202   9.738   4.148   4.244
53059SOL    HW159203   9.768   4.076   4.182
53059SOL    HW259204   9.699   4.108   4.327
53060SOL     OW59205  11.015   5.211   4.828
53060SOL    HW159206  10.922   5.186   4.801
53060SOL    HW259207  11.041   5.161   4.910
53061SOL     OW59208   9.627   4.271   5.004
53061SOL    HW159209   9.665   4.212   5.076
53061SOL    HW259210   9.667   4.245   4.916
53062SOL     OW59211  10.122   5.310   4.411
53062SOL    HW159212  10.154   5.320   4.317
53062SOL    HW259213  10.043   5.248   4.413
53063SOL     OW59214  10.734   3.938   4.836
53063SOL    HW159215  10.786   3.873   4.891
53063SOL    HW259216  10.685   4.001   4.897
53064SOL     OW59217  10.311   3.758   4.878
53064SOL    HW159218  10.248   3.686   4.847
53064SOL    HW259219  10.404   3.722   4.878
53065SOL     OW59220  10.080   5.054   4.025
53065SOL    HW159221  10.034   4.967   4.042
53065SOL    HW259222  10.171   5.051   4.066
53066SOL     OW59223   9.928   5.291   5.008
53066SOL    HW159224   9.923   5.373   5.065
53066SOL    HW259225  10.017   5.288   4.963
53067SOL     OW59226  10.662   3.776   3.892
53067SOL    HW159227  10.697   3.735   3.808
53067SOL    HW259228  10.572   3.738   3.912
53068SOL     OW59229  10.610   4.177   4.415
53068SOL    HW159230  10.551   4.257   4.419
53068SOL    HW259231  10.625   4.142   4.508
53069SOL     OW59232  10.903   3.945   4.606
53069SOL    HW159233  10.819   3.944   4.660
53069SOL    HW259234  10.905   4.028   4.550
53070SOL     OW59235   9.349   4.801   4.024
53070SOL    HW159236   9.448   4.790   4.015
53070SOL    HW259237   9.309   4.715   4.056
53071SOL     OW59238  10.185   5.370   4.061
53071SOL    HW159239  10.108   5.335   4.007
53071SOL    HW259240  10.153   5.441   4.123
53072SOL     OW59241   9.540   4.352   5.699
53072SOL    HW159242   9.447   4.350   5.736
53072SOL    HW259243   9.541   4.313   5.607
53073SOL     OW59244   9.535   3.999   6.582
53073SOL    HW159245   9.570   3.982   6.674
53073SOL    HW259246   9.447   3.954   6.570
53074SOL     OW59247   9.329   4.092   6.233
53074SOL    HW159248   9.247   4.135   6.272
53074SOL    HW259249   9.301   4.019   6.170
53075SOL     OW59250   9.879   4.999   6.751
53075SOL    HW159251   9.786   4.992   6.714
53075SOL    HW259252   9.890   5.088   6.795
53076SOL     OW59253  10.865   5.235   6.289
53076SOL    HW159254  10.808   5.219   6.370
53076SOL    HW259255  10.806   5.245   6.209
53077SOL     OW59256  10.445   4.427   6.303
53077SOL    HW159257  10.502   4.505   6.278
53077SOL    HW259258  10.385   4.453   6.379
53078SOL     OW59259  11.065   4.331   5.817
53078SOL    HW159260  11.053   4.318   5.718
53078SOL    HW259261  11.035   4.250   5.866
53079SOL     OW59262  10.078   4.868   6.609
53079SOL    HW159263  10.000   4.885   6.669
53079SOL    HW259264  10.112   4.955   6.573
53080SOL     OW59265  10.160   4.522   7.409
53080SOL    HW159266  10.156   4.598   7.474
53080SOL    HW259267  10.182   4.558   7.318
53081SOL     OW59268   9.995   4.736   6.251
53081SOL    HW159269  10.064   4.720   6.321
53081SOL    HW259270   9.922   4.793   6.289
53082SOL     OW59271   9.996   4.885   7.389
53082SOL    HW159272  10.056   4.964   7.403
53082SOL    HW259273   9.910   4.916   7.348
53083SOL     OW59274   9.645   5.159   6.647
53083SOL    HW159275   9.567   5.128   6.594
53083SOL    HW259276   9.703   5.217   6.590
53084SOL     OW59277  10.770   5.229   6.925
53084SOL    HW159278  10.794   5.323   6.951
53084SOL    HW259279  10.754   5.175   7.007
53085SOL     OW59280   9.748   4.116   7.085
53085SOL    HW159281   9.830   4.060   7.094
53085SOL    HW259282   9.667   4.058   7.089
53086SOL     OW59283  10.913   4.171   6.323
53086SOL    HW159284  10.839   4.217   6.273
53086SOL    HW259285  10.964   4.239   6.376
53087SOL     OW59286   9.541   5.437   6.069
53087SOL    HW159287   9.575   5.514   6.123
53087SOL    HW259288   9.585   5.437   5.979
53088SOL     OW59289  10.437   5.065   7.276
53088SOL    HW159290  10.484   5.065   7.364
53088SOL    HW259291  10.389   4.978   7.265
53089SOL     OW59292   9.540   5.158   6.124
53089SOL    HW159293   9.514   5.254   6.124
53089SOL    HW259294   9.469   5.104   6.169
53090SOL     OW59295   9.550   4.815   6.472
53090SOL    HW159296   9.564   4.731   6.524
53090SOL    HW259297   9.495   4.879   6.527
53091SOL     OW59298   9.930   5.510   7.025
53091SOL    HW159299   9.838   5.493   7.060
53091SOL    HW259300   9.958   5.602   7.051
53092SOL     OW59301   9.916   4.688   5.709
53092SOL    HW159302   9.923   4.772   5.655
53092SOL    HW259303   9.962   4.701   5.797
53093SOL     OW59304  10.904   3.838   7.066
53093SOL    HW159305  10.886   3.905   6.994
53093SOL    HW259306  10.901   3.884   7.155
53094SOL     OW59307   9.432   4.367   6.149
53094SOL    HW159308   9.387   4.279   6.166
53094SOL    HW259309   9.431   4.421   6.233
53095SOL     OW59310  11.152   5.491   5.945
53095SOL    HW159311  11.206   5.462   6.025
53095SOL    HW259312  11.182   5.581   5.916
53096SOL     OW59313   9.337   5.320   5.703
53096SOL    HW159314   9.318   5.224   5.724
53096SOL    HW259315   9.304   5.378   5.778
53097SOL     OW59316  10.999   4.646   6.198
53097SOL    HW159317  11.094   4.617   6.206
53097SOL    HW259318  10.991   4.711   6.123
53098SOL     OW59319  10.951   4.832   6.018
53098SOL    HW159320  11.037   4.834   5.966
53098SOL    HW259321  10.965   4.879   6.106
53099SOL     OW59322   9.423   4.461   7.183
53099SOL    HW159323   9.511   4.448   7.228
53099SOL    HW259324   9.410   4.558   7.161
53100SOL     OW59325   9.923   5.089   6.312
53100SOL    HW159326   9.874   5.002   6.321
53100SOL    HW259327   9.900   5.132   6.225
53101SOL     OW59328  10.603   4.952   7.009
53101SOL    HW159329  10.640   4.879   6.951
53101SOL    HW259330  10.655   4.957   7.094
53102SOL     OW59331  10.119   3.728   6.088
53102SOL    HW159332  10.159   3.819   6.079
53102SOL    HW259333  10.019   3.736   6.094
53103SOL     OW59334   9.507   4.700   6.850
53103SOL    HW159335   9.596   4.655   6.836
53103SOL    HW259336   9.434   4.635   6.831
53104SOL     OW59337  10.835   4.723   5.776
53104SOL    HW159338  10.772   4.647   5.789
53104SOL    HW259339  10.883   4.741   5.862
53105SOL     OW59340  10.497   5.516   7.202
53105SOL    HW159341  10.521   5.576   7.126
53105SOL    HW259342  10.504   5.421   7.172
53106SOL     OW59343   9.627   3.975   7.387
53106SOL    HW159344   9.698   4.046   7.393
53106SOL    HW259345   9.539   4.014   7.415
53107SOL     OW59346  10.776   5.141   6.539
53107SOL    HW159347  10.717   5.147   6.619
53107SOL    HW259348  10.761   5.053   6.493
53108SOL     OW59349  10.977   5.438   6.158
53108SOL    HW159350  10.936   5.415   6.070
53108SOL    HW259351  10.959   5.364   6.223
53109SOL     OW59352   9.908   4.453   5.856
53109SOL    HW159353   9.932   4.522   5.788
53109SOL    HW259354   9.830   4.486   5.910
53110SOL     OW59355  10.591   4.069   6.530
53110SOL    HW159356  10.505   4.019   6.517
53110SOL    HW259357  10.653   4.015   6.586
53111SOL     OW59358  10.886   5.386   5.893
53111SOL    HW159359  10.975   5.432   5.896
53111SOL    HW259360  10.865   5.362   5.798
53112SOL     OW59361  10.117   4.329   7.051
53112SOL    HW159362  10.070   4.326   7.140
53112SOL    HW259363  10.066   4.274   6.985
53113SOL     OW59364  10.704   4.193   7.260
53113SOL    HW159365  10.684   4.236   7.348
53113SOL    HW259366  10.782   4.131   7.269
53114SOL     OW59367  10.283   4.614   7.158
53114SOL    HW159368  10.329   4.530   7.129
53114SOL    HW259369  10.227   4.648   7.083
53115SOL     OW59370  10.301   4.134   6.828
53115SOL    HW159371  10.224   4.168   6.882
53115SOL    HW259372  10.267   4.083   6.749
53116SOL     OW59373  10.351   4.425   6.015
53116SOL    HW159374  10.377   4.421   6.111
53116SOL    HW259375  10.266   4.374   6.001
53117SOL     OW59376   9.386   4.535   6.375
53117SOL    HW159377   9.485   4.523   6.384
53117SOL    HW259378   9.362   4.630   6.396
53118SOL     OW59379   9.440   5.545   7.157
53118SOL    HW159380   9.430   5.530   7.256
53118SOL    HW259381   9.354   5.581   7.121
53119SOL     OW59382  10.175   4.072   5.781
53119SOL    HW159383  10.234   4.135   5.732
53119SOL    HW259384  10.194   3.978   5.752
53120SOL     OW59385  11.029   4.309   7.417
53120SOL    HW159386  11.003   4.398   7.381
53120SOL    HW259387  11.027   4.241   7.344
53121SOL     OW59388  10.672   4.868   6.131
53121SOL    HW159389  10.755   4.839   6.083
53121SOL    HW259390  10.623   4.935   6.075
53122SOL     OW59391   9.860   3.920   6.471
53122SOL    HW159392   9.855   3.915   6.571
53122SOL    HW259393   9.862   4.016   6.442
53123SOL     OW59394  10.318   5.180   6.063
53123SOL    HW159395  10.272   5.252   6.011
53123SOL    HW259396  10.314   5.200   6.161
53124SOL     OW59397   9.661   5.525   6.439
53124SOL    HW159398   9.711   5.439   6.445
53124SOL    HW259399   9.726   5.602   6.436
53125SOL     OW59400  11.105   4.790   6.459
53125SOL    HW159401  11.043   4.775   6.383
53125SOL    HW259402  11.053   4.801   6.544
53126SOL     OW59403  10.537   5.274   7.092
53126SOL    HW159404  10.543   5.197   7.156
53126SOL    HW259405  10.485   5.248   7.012
53127SOL     OW59406   9.631   4.667   5.828
53127SOL    HW159407   9.713   4.706   5.786
53127SOL    HW259408   9.604   4.585   5.779
53128SOL     OW59409  10.768   4.459   6.314
53128SOL    HW159410  10.763   4.394   6.389
53128SOL    HW259411  10.848   4.518   6.327
53129SOL     OW59412   9.771   4.990   7.313
53129SOL    HW159413   9.721   4.991   7.227
53129SOL    HW259414   9.708   4.972   7.389
53130SOL     OW59415  10.421   5.500   5.823
53130SOL    HW159416  10.361   5.438   5.873
53130SOL    HW259417  10.452   5.456   5.738
53131SOL     OW59418   9.512   4.009   7.084
53131SOL    HW159419   9.432   4.069   7.071
53131SOL    HW259420   9.502   3.960   7.170
53132SOL     OW59421  10.942   5.101   5.667
53132SOL    HW159422  10.910   5.195   5.657
53132SOL    HW259423  10.866   5.038   5.655
53133SOL     OW59424   9.774   5.467   5.909
53133SOL    HW159425   9.807   5.506   5.995
53133SOL    HW259426   9.850   5.460   5.844
53134SOL     OW59427  10.710   3.831   6.012
53134SOL    HW159428  10.686   3.794   5.922
53134SOL    HW259429  10.809   3.847   6.016
53135SOL     OW59430   9.559   5.509   6.827
53135SOL    HW159431   9.616   5.444   6.877
53135SOL    HW259432   9.543   5.476   6.734
53136SOL     OW59433  10.250   5.422   6.490
53136SOL    HW159434  10.330   5.365   6.511
53136SOL    HW259435  10.201   5.382   6.413
53137SOL     OW59436   9.692   4.424   6.066
53137SOL    HW159437   9.737   4.334   6.063
53137SOL    HW259438   9.598   4.413   6.099
53138SOL     OW59439  10.857   3.946   7.315
53138SOL    HW159440  10.852   3.983   7.407
53138SOL    HW259441  10.785   3.877   7.303
53139SOL     OW59442   9.924   3.846   5.703
53139SOL    HW159443  10.022   3.824   5.710
53139SOL    HW259444   9.893   3.829   5.610
53140SOL     OW59445  10.091   3.988   7.335
53140SOL    HW159446  10.158   3.927   7.378
53140SOL    HW259447  10.018   4.007   7.400
53141SOL     OW59448  10.198   5.238   6.781
53141SOL    HW159449  10.175   5.213   6.687
53141SOL    HW259450  10.259   5.169   6.820
53142SOL     OW59451  10.661   4.314   7.019
53142SOL    HW159452  10.689   4.271   7.104
53142SOL    HW259453  10.686   4.410   7.020
53143SOL     OW59454  10.113   5.126   6.510
53143SOL    HW159455  10.203   5.140   6.468
53143SOL    HW259456  10.042   5.128   6.439
53144SOL     OW59457  10.232   4.227   6.485
53144SOL    HW159458  10.207   4.218   6.389
53144SOL    HW259459  10.280   4.145   6.516
53145SOL     OW59460   9.849   3.788   6.098
53145SOL    HW159461   9.768   3.789   6.156
53145SOL    HW259462   9.852   3.871   6.043
53146SOL     OW59463  10.744   4.912   5.627
53146SOL    HW159464  10.776   4.836   5.684
53146SOL    HW259465  10.652   4.939   5.657
53147SOL     OW59466   9.607   3.759   5.757
53147SOL    HW159467   9.656   3.843   5.736
53147SOL    HW259468   9.669   3.694   5.802
53148SOL     OW59469  10.245   3.960   6.066
53148SOL    HW159470  10.197   4.001   5.988
53148SOL    HW259471  10.344   3.958   6.047
53149SOL     OW59472  10.386   4.407   7.050
53149SOL    HW159473  10.306   4.346   7.053
53149SOL    HW259474  10.467   4.354   7.026
53150SOL     OW59475  10.537   5.294   6.379
53150SOL    HW159476  10.558   5.368   6.314
53150SOL    HW259477  10.605   5.294   6.452
53151SOL     OW59478   9.769   4.876   6.327
53151SOL    HW159479   9.698   4.849   6.392
53151SOL    HW259480   9.743   4.848   6.234
53152SOL     OW59481  10.581   5.521   6.177
53152SOL    HW159482  10.625   5.585   6.113
53152SOL    HW259483  10.531   5.573   6.247
53153SOL     OW59484  10.342   4.273   5.602
53153SOL    HW159485  10.301   4.355   5.563
53153SOL    HW259486  10.406   4.299   5.675
53154SOL     OW59487   9.388   4.280   6.972
53154SOL    HW159488   9.480   4.279   6.931
53154SOL    HW259489   9.382   4.354   7.039
53155SOL     OW59490   9.871   3.946   6.733
53155SOL    HW159491   9.909   3.862   6.770
53155SOL    HW259492   9.783   3.965   6.777
53156SOL     OW59493  10.176   4.178   6.228
53156SOL    HW159494  10.144   4.250   6.166
53156SOL    HW259495  10.200   4.097   6.175
53157SOL     OW59496  10.327   3.763   6.339
53157SOL    HW159497  10.255   3.768   6.270
53157SOL    HW259498  10.303   3.694   6.408
53158SOL     OW59499  10.739   4.897   6.453
53158SOL    HW159500  10.684   4.813   6.446
53158SOL    HW259501  10.765   4.926   6.361
53159SOL     OW59502  10.776   4.314   6.578
53159SOL    HW159503  10.746   4.219   6.585
53159SOL    HW259504  10.849   4.330   6.644
53160SOL     OW59505  11.167   4.557   5.963
53160SOL    HW159506  11.209   4.493   6.027
53160SOL    HW259507  11.129   4.506   5.885
53161SOL     OW59508   9.798   5.109   5.760
53161SOL    HW159509   9.711   5.094   5.807
53161SOL    HW259510   9.781   5.135   5.665
53162SOL     OW59511  10.974   5.004   6.243
53162SOL    HW159512  11.073   5.012   6.257
53162SOL    HW259513  10.929   5.088   6.274
53163SOL     OW59514  10.700   4.299   5.664
53163SOL    HW159515  10.646   4.278   5.745
53163SOL    HW259516  10.791   4.258   5.673
53164SOL     OW59517   9.837   3.980   5.914
53164SOL    HW159518   9.864   3.921   5.839
53164SOL    HW259519   9.837   4.075   5.883
53165SOL     OW59520  11.064   4.947   7.174
53165SOL    HW159521  11.155   4.908   7.161
53165SOL    HW259522  11.072   5.043   7.198
53166SOL     OW59523  10.374   5.071   6.926
53166SOL    HW159524  10.294   5.048   6.981
53166SOL    HW259525  10.457   5.045   6.975
53167SOL     OW59526  10.902   5.353   7.211
53167SOL    HW159527  10.929   5.387   7.121
53167SOL    HW259528  10.981   5.315   7.257
53168SOL     OW59529  10.421   4.919   6.686
53168SOL    HW159530  10.381   4.963   6.767
53168SOL    HW259531  10.380   4.956   6.603
53169SOL     OW59532  10.948   4.823   6.665
53169SOL    HW159533  10.953   4.904   6.724
53169SOL    HW259534  10.862   4.825   6.614
53170SOL     OW59535  10.225   3.813   6.988
53170SOL    HW159536  10.250   3.793   6.893
53170SOL    HW259537  10.297   3.869   7.030
53171SOL     OW59538  10.290   4.840   7.305
53171SOL    HW159539  10.191   4.846   7.315
53171SOL    HW259540  10.313   4.760   7.249
53172SOL     OW59541  10.015   4.774   5.954
53172SOL    HW159542  10.001   4.781   6.053
53172SOL    HW259543  10.099   4.723   5.936
53173SOL     OW59544   9.720   4.537   6.837
53173SOL    HW159545   9.806   4.549   6.887
53173SOL    HW259546   9.678   4.450   6.864
53174SOL     OW59547  10.584   4.110   6.848
53174SOL    HW159548  10.605   4.184   6.912
53174SOL    HW259549  10.495   4.127   6.805
53175SOL     OW59550   9.374   5.288   6.917
53175SOL    HW159551   9.328   5.370   6.883
53175SOL    HW259552   9.472   5.307   6.926
53176SOL     OW59553   9.677   4.824   6.087
53176SOL    HW159554   9.670   4.907   6.031
53176SOL    HW259555   9.681   4.744   6.027
53177SOL     OW59556   9.876   4.261   6.451
53177SOL    HW159557   9.888   4.327   6.377
53177SOL    HW259558   9.922   4.295   6.534
53178SOL     OW59559  10.562   5.072   5.974
53178SOL    HW159560  10.612   5.149   6.014
53178SOL    HW259561  10.467   5.074   6.006
53179SOL     OW59562  10.582   5.169   6.728
53179SOL    HW159563  10.629   5.182   6.815
53179SOL    HW259564  10.516   5.095   6.737
53180SOL     OW59565  10.892   4.363   6.058
53180SOL    HW159566  10.861   4.424   6.131
53180SOL    HW259567  10.942   4.415   5.989
53181SOL     OW59568   9.664   5.234   6.915
53181SOL    HW159569   9.643   5.190   6.828
53181SOL    HW259570   9.761   5.260   6.918
53182SOL     OW59571   9.712   4.475   7.184
53182SOL    HW159572   9.780   4.530   7.137
53182SOL    HW259573   9.752   4.387   7.211
53183SOL     OW59574  10.897   4.503   7.256
53183SOL    HW159575  10.805   4.541   7.251
53183SOL    HW259576  10.957   4.550   7.191
53184SOL     OW59577  10.323   3.829   7.356
53184SOL    HW159578  10.329   3.914   7.304
53184SOL    HW259579  10.355   3.753   7.299
53185SOL     OW59580   9.814   3.774   7.326
53185SOL    HW159581   9.772   3.717   7.256
53185SOL    HW259582   9.748   3.843   7.358
53186SOL     OW59583   9.883   4.594   6.615
53186SOL    HW159584   9.927   4.683   6.606
53186SOL    HW259585   9.820   4.594   6.692
53187SOL     OW59586  10.670   4.586   6.631
53187SOL    HW159587  10.595   4.586   6.565
53187SOL    HW259588  10.707   4.494   6.640
53188SOL     OW59589  10.519   4.249   5.861
53188SOL    HW159590  10.532   4.165   5.915
53188SOL    HW259591  10.490   4.323   5.921
53189SOL     OW59592   9.617   3.937   6.817
53189SOL    HW159593   9.594   3.974   6.907
53189SOL    HW259594   9.587   3.842   6.811
53190SOL     OW59595   9.347   5.034   6.868
53190SOL    HW159596   9.400   4.985   6.936
53190SOL    HW259597   9.369   5.132   6.873
53191SOL     OW59598  10.042   4.358   6.650
53191SOL    HW159599  10.101   4.332   6.574
53191SOL    HW259600  10.014   4.454   6.639
53192SOL     OW59601  11.038   4.659   7.440
53192SOL    HW159602  10.992   4.652   7.351
53192SOL    HW259603  10.976   4.703   7.506
53193SOL     OW59604   9.617   3.787   6.204
53193SOL    HW159605   9.606   3.881   6.237
53193SOL    HW259606   9.612   3.724   6.281
53194SOL     OW59607  10.932   4.091   5.960
53194SOL    HW159608  10.934   4.015   6.024
53194SOL    HW259609  10.884   4.168   6.000
53195SOL     OW59610  10.333   4.490   6.552
53195SOL    HW159611  10.348   4.511   6.648
53195SOL    HW259612  10.303   4.395   6.543
53196SOL     OW59613  10.290   5.297   7.286
53196SOL    HW159614  10.270   5.341   7.198
53196SOL    HW259615  10.329   5.206   7.270
53197SOL     OW59616  11.169   5.242   7.191
53197SOL    HW159617  11.183   5.269   7.096
53197SOL    HW259618  11.252   5.264   7.244
53198SOL     OW59619   9.660   4.622   7.390
53198SOL    HW159620   9.736   4.666   7.438
53198SOL    HW259621   9.695   4.575   7.308
53199SOL     OW59622  10.850   3.998   5.711
53199SOL    HW159623  10.789   3.923   5.734
53199SOL    HW259624  10.872   4.050   5.794
53200SOL     OW59625  10.613   4.562   5.628
53200SOL    HW159626  10.647   4.469   5.643
53200SOL    HW259627  10.631   4.589   5.533
53201SOL     OW59628  10.378   5.057   6.435
53201SOL    HW159629  10.385   4.973   6.380
53201SOL    HW259630  10.440   5.126   6.399
53202SOL     OW59631   9.629   4.534   6.535
53202SOL    HW159632   9.722   4.570   6.540
53202SOL    HW259633   9.623   4.449   6.587
53203SOL     OW59634   9.649   4.233   6.592
53203SOL    HW159635   9.597   4.150   6.575
53203SOL    HW259636   9.726   4.238   6.528
53204SOL     OW59637  10.448   4.104   7.264
53204SOL    HW159638  10.403   4.167   7.328
53204SOL    HW259639  10.541   4.135   7.247
53205SOL     OW59640  10.470   3.931   7.063
53205SOL    HW159641  10.470   3.995   7.140
53205SOL    HW259642  10.498   3.979   6.980
53206SOL     OW59643   9.318   5.050   5.786
53206SOL    HW159644   9.225   5.071   5.755
53206SOL    HW259645   9.328   4.951   5.799
53207SOL     OW59646   9.398   5.525   6.513
53207SOL    HW159647   9.356   5.439   6.486
53207SOL    HW259648   9.492   5.528   6.479
53208SOL     OW59649   9.814   5.292   6.496
53208SOL    HW159650   9.880   5.366   6.505
53208SOL    HW259651   9.858   5.213   6.454
53209SOL     OW59652  10.312   4.520   6.824
53209SOL    HW159653  10.353   4.488   6.910
53209SOL    HW259654  10.216   4.493   6.821
53210SOL     OW59655   9.350   4.268   6.700
53210SOL    HW159656   9.435   4.235   6.659
53210SOL    HW259657   9.363   4.283   6.798
53211SOL     OW59658   9.499   4.244   7.308
53211SOL    HW159659   9.558   4.204   7.238
53211SOL    HW259660   9.441   4.315   7.267
53212SOL     OW59661  10.679   4.674   7.246
53212SOL    HW159662  10.718   4.763   7.266
53212SOL    HW259663  10.689   4.654   7.149
53213SOL     OW59664  10.125   4.296   5.911
53213SOL    HW159665  10.132   4.207   5.865
53213SOL    HW259666  10.031   4.330   5.903
53214SOL     OW59667  10.967   4.328   6.792
53214SOL    HW159668  10.929   4.259   6.854
53214SOL    HW259669  11.049   4.292   6.748
53215SOL     OW59670   9.562   5.288   7.330
53215SOL    HW159671   9.532   5.345   7.406
53215SOL    HW259672   9.555   5.191   7.356
53216SOL     OW59673   9.981   4.188   6.855
53216SOL    HW159674   9.947   4.099   6.825
53216SOL    HW259675  10.007   4.242   6.775
53217SOL     OW59676  10.240   5.402   7.051
53217SOL    HW159677  10.216   5.384   6.956
53217SOL    HW259678  10.270   5.496   7.061
53218SOL     OW59679   9.783   4.224   5.777
53218SOL    HW159680   9.844   4.304   5.781
53218SOL    HW259681   9.688   4.255   5.784
53219SOL     OW59682   9.469   4.861   7.052
53219SOL    HW159683   9.491   4.800   7.128
53219SOL    HW259684   9.479   4.812   6.966
53220SOL     OW59685  10.657   4.783   6.820
53220SOL    HW159686  10.681   4.720   6.746
53220SOL    HW259687  10.567   4.823   6.802
53221SOL     OW59688  10.612   4.579   5.895
53221SOL    HW159689  10.526   4.548   5.937
53221SOL    HW259690  10.608   4.565   5.796
53222SOL     OW59691  11.069   5.471   6.740
53222SOL    HW159692  11.130   5.501   6.667
53222SOL    HW259693  11.031   5.382   6.718
53223SOL     OW59694  10.562   5.455   6.714
53223SOL    HW159695  10.646   5.460   6.660
53223SOL    HW259696  10.539   5.359   6.732
53224SOL     OW59697   9.393   4.982   6.608
53224SOL    HW159698   9.388   4.981   6.708
53224SOL    HW259699   9.310   4.941   6.570
53225SOL     OW59700   9.998   5.386   7.302
53225SOL    HW159701   9.942   5.467   7.311
53225SOL    HW259702  10.050   5.390   7.216
53226SOL     OW59703  11.036   3.859   6.109
53226SOL    HW159704  11.109   3.842   6.042
53226SOL    HW259705  11.005   3.772   6.147
53227SOL     OW59706  10.698   5.297   6.063
53227SOL    HW159707  10.765   5.309   5.989
53227SOL    HW259708  10.658   5.386   6.086
53228SOL     OW59709   9.440   5.518   7.437
53228SOL    HW159710   9.399   5.444   7.490
53228SOL    HW259711   9.504   5.569   7.495
53229SOL     OW59712  10.590   4.651   6.258
53229SOL    HW159713  10.650   4.570   6.260
53229SOL    HW259714  10.630   4.720   6.198
53230SOL     OW59715  10.140   4.997   7.008
53230SOL    HW159716  10.135   5.030   7.103
53230SOL    HW259717  10.054   5.016   6.962
53231SOL     OW59718   9.982   5.340   5.740
53231SOL    HW159719   9.991   5.350   5.641
53231SOL    HW259720   9.942   5.251   5.761
53232SOL     OW59721  10.960   5.444   6.980
53232SOL    HW159722  11.013   5.454   6.896
53232SOL    HW259723  10.933   5.534   7.014
53233SOL     OW59724  11.151   3.899   6.549
53233SOL    HW159725  11.190   3.814   6.513
53233SOL    HW259726  11.053   3.901   6.530
53234SOL     OW59727   9.573   4.050   6.306
53234SOL    HW159728   9.494   4.101   6.272
53234SOL    HW259729   9.564   4.035   6.404
53235SOL     OW59730  10.504   5.336   5.617
53235SOL    HW159731  10.510   5.243   5.654
53235SOL    HW259732  10.445   5.336   5.537
53236SOL     OW59733  10.132   4.726   6.958
53236SOL    HW159734  10.172   4.725   6.866
53236SOL    HW259735  10.142   4.818   6.998
53237SOL     OW59736  10.226   4.634   5.877
53237SOL    HW159737  10.289   4.672   5.809
53237SOL    HW259738  10.266   4.551   5.916
53238SOL     OW59739  10.814   5.331   5.630
53238SOL    HW159740  10.722   5.368   5.637
53238SOL    HW259741  10.852   5.351   5.540
53239SOL     OW59742   9.682   5.012   7.076
53239SOL    HW159743   9.669   5.105   7.042
53239SOL    HW259744   9.598   4.960   7.063
53240SOL     OW59745  10.924   5.016   6.875
53240SOL    HW159746  10.984   5.019   6.955
53240SOL    HW259747  10.849   5.080   6.888
53241SOL     OW59748  10.349   4.822   6.282
53241SOL    HW159749  10.279   4.775   6.336
53241SOL    HW259750  10.408   4.754   6.239
53242SOL     OW59751  10.324   3.960   6.557
53242SOL    HW159752  10.316   3.924   6.464
53242SOL    HW259753  10.322   3.884   6.622
53243SOL     OW59754   9.900   5.211   6.077
53243SOL    HW159755   9.942   5.153   6.007
53243SOL    HW259756   9.856   5.290   6.033
53244SOL     OW59757  11.019   4.109   6.967
53244SOL    HW159758  11.092   4.178   6.971
53244SOL    HW259759  11.047   4.034   6.908
53245SOL     OW59760   9.565   5.072   5.876
53245SOL    HW159761   9.469   5.073   5.849
53245SOL    HW259762   9.577   5.125   5.960
53246SOL     OW59763   9.415   4.737   7.312
53246SOL    HW159764   9.338   4.704   7.366
53246SOL    HW259765   9.500   4.707   7.354
53247SOL     OW59766   9.982   3.927   7.075
53247SOL    HW159767  10.072   3.911   7.035
53247SOL    HW259768   9.990   3.932   7.174
53248SOL     OW59769   9.385   4.069   5.619
53248SOL    HW159770   9.293   4.041   5.590
53248SOL    HW259771   9.416   4.146   5.563
53249SOL     OW59772  10.750   4.580   6.984
53249SOL    HW159773  10.693   4.632   6.921
53249SOL    HW259774  10.846   4.592   6.960
53250SOL     OW59775   9.382   3.890   5.904
53250SOL    HW159776   9.365   3.973   5.850
53250SOL    HW259777   9.472   3.853   5.882
53251SOL     OW59778  10.493   5.059   5.705
53251SOL    HW159779  10.394   5.048   5.707
53251SOL    HW259780  10.527   5.074   5.798
53252SOL     OW59781   9.923   4.566   7.017
53252SOL    HW159782   9.979   4.647   7.000
53252SOL    HW259783   9.982   4.486   7.020
53253SOL     OW59784  10.803   5.491   6.545
53253SOL    HW159785  10.836   5.555   6.476
53253SOL    HW259786  10.869   5.485   6.620
53254SOL     OW59787  10.026   4.289   7.294
53254SOL    HW159788  10.045   4.354   7.368
53254SOL    HW259789  10.086   4.209   7.303
53255SOL     OW59790  10.760   4.944   7.219
53255SOL    HW159791  10.751   4.934   7.318
53255SOL    HW259792  10.856   4.937   7.193
53256SOL     OW59793   9.700   5.465   7.146
53256SOL    HW159794   9.609   5.506   7.144
53256SOL    HW259795   9.693   5.371   7.178
53257SOL     OW59796  10.984   4.607   6.840
53257SOL    HW159797  10.957   4.518   6.803
53257SOL    HW259798  10.985   4.675   6.767
53258SOL     OW59799  10.535   4.049   6.035
53258SOL    HW159800  10.600   3.975   6.024
53258SOL    HW259801  10.555   4.099   6.119
53259SOL     OW59802   9.904   4.469   6.238
53259SOL    HW159803   9.954   4.554   6.219
53259SOL    HW259804   9.816   4.471   6.190
53260SOL     OW59805  11.087   4.066   7.228
53260SOL    HW159806  11.070   4.097   7.134
53260SOL    HW259807  11.003   4.029   7.266
53261SOL     OW59808  11.040   4.658   7.103
53261SOL    HW159809  11.078   4.749   7.118
53261SOL    HW259810  11.032   4.641   7.004
53262SOL     OW59811  10.169   5.098   5.602
53262SOL    HW159812  10.123   5.113   5.690
53262SOL    HW259813  10.213   5.183   5.572
53263SOL     OW59814   9.971   5.514   6.539
53263SOL    HW159815   9.925   5.602   6.526
53263SOL    HW259816  10.070   5.526   6.532
53264SOL     OW59817  10.169   4.680   6.447
53264SOL    HW159818  10.223   4.611   6.495
53264SOL    HW259819  10.137   4.749   6.513
53265SOL     OW59820  10.393   4.708   5.673
53265SOL    HW159821  10.370   4.761   5.591
53265SOL    HW259822  10.474   4.652   5.654
53266SOL     OW59823  11.171   5.293   6.437
53266SOL    HW159824  11.100   5.281   6.367
53266SOL    HW259825  11.172   5.214   6.497
53267SOL     OW59826   9.531   5.038   7.430
53267SOL    HW159827   9.466   4.965   7.409
53267SOL    HW259828   9.535   5.052   7.528
53268SOL     OW59829   9.389   4.964   6.239
53268SOL    HW159830   9.388   4.917   6.327
53268SOL    HW259831   9.471   4.936   6.188
53269SOL     OW59832   9.982   5.115   7.210
53269SOL    HW159833   9.904   5.065   7.248
53269SOL    HW259834   9.979   5.210   7.241
53270SOL     OW59835  11.134   3.916   6.813
53270SOL    HW159836  11.130   3.826   6.857
53270SOL    HW259837  11.137   3.905   6.714
53271SOL     OW59838   9.738   4.148   6.106
53271SOL    HW159839   9.768   4.076   6.044
53271SOL    HW259840   9.699   4.108   6.189
53272SOL     OW59841  11.015   5.211   6.690
53272SOL    HW159842  10.922   5.186   6.663
53272SOL    HW259843  11.041   5.161   6.772
53273SOL     OW59844   9.627   4.271   6.866
53273SOL    HW159845   9.665   4.212   6.938
53273SOL    HW259846   9.667   4.245   6.778
53274SOL     OW59847  10.122   5.310   6.273
53274SOL    HW159848  10.154   5.320   6.179
53274SOL    HW259849  10.043   5.248   6.275
53275SOL     OW59850  10.734   3.938   6.698
53275SOL    HW159851  10.786   3.873   6.753
53275SOL    HW259852  10.685   4.001   6.759
53276SOL     OW59853  10.311   3.758   6.740
53276SOL    HW159854  10.248   3.686   6.709
53276SOL    HW259855  10.404   3.722   6.740
53277SOL     OW59856  10.080   5.054   5.887
53277SOL    HW159857  10.034   4.967   5.904
53277SOL    HW259858  10.171   5.051   5.928
53278SOL     OW59859   9.928   5.291   6.870
53278SOL    HW159860   9.923   5.373   6.927
53278SOL    HW259861  10.017   5.288   6.825
53279SOL     OW59862  10.662   3.776   5.754
53279SOL    HW159863  10.697   3.735   5.670
53279SOL    HW259864  10.572   3.738   5.774
53280SOL     OW59865  10.610   4.177   6.277
53280SOL    HW159866  10.551   4.257   6.281
53280SOL    HW259867  10.625   4.142   6.370
53281SOL     OW59868  10.903   3.945   6.468
53281SOL    HW159869  10.819   3.944   6.522
53281SOL    HW259870  10.905   4.028   6.412
53282SOL     OW59871   9.349   4.801   5.886
53282SOL    HW159872   9.448   4.790   5.877
53282SOL    HW259873   9.309   4.715   5.918
53283SOL     OW59874  10.185   5.370   5.923
53283SOL    HW159875  10.108   5.335   5.869
53283SOL    HW259876  10.153   5.441   5.985
53284SOL     OW59877   9.540   4.352   7.561
53284SOL    HW159878   9.447   4.350   7.598
53284SOL    HW259879   9.541   4.313   7.469
53285SOL     OW59880   9.535   3.999   8.444
53285SOL    HW159881   9.570   3.982   8.536
53285SOL    HW259882   9.447   3.954   8.432
53286SOL     OW59883   9.329   4.092   8.095
53286SOL    HW159884   9.247   4.135   8.134
53286SOL    HW259885   9.301   4.019   8.032
53287SOL     OW59886   9.879   4.999   8.613
53287SOL    HW159887   9.786   4.992   8.576
53287SOL    HW259888   9.890   5.088   8.657
53288SOL     OW59889  10.865   5.235   8.151
53288SOL    HW159890  10.808   5.219   8.232
53288SOL    HW259891  10.806   5.245   8.071
53289SOL     OW59892  10.445   4.427   8.165
53289SOL    HW159893  10.502   4.505   8.140
53289SOL    HW259894  10.385   4.453   8.241
53290SOL     OW59895  11.065   4.331   7.679
53290SOL    HW159896  11.053   4.318   7.580
53290SOL    HW259897  11.035   4.250   7.728
53291SOL     OW59898  10.078   4.868   8.471
53291SOL    HW159899  10.000   4.885   8.531
53291SOL    HW259900  10.112   4.955   8.435
53292SOL     OW59901  10.160   4.522   9.271
53292SOL    HW159902  10.156   4.598   9.336
53292SOL    HW259903  10.182   4.558   9.180
53293SOL     OW59904   9.995   4.736   8.113
53293SOL    HW159905  10.064   4.720   8.183
53293SOL    HW259906   9.922   4.793   8.151
53294SOL     OW59907   9.996   4.885   9.251
53294SOL    HW159908  10.056   4.964   9.265
53294SOL    HW259909   9.910   4.916   9.210
53295SOL     OW59910   9.645   5.159   8.509
53295SOL    HW159911   9.567   5.128   8.456
53295SOL    HW259912   9.703   5.217   8.452
53296SOL     OW59913  10.770   5.229   8.787
53296SOL    HW159914  10.794   5.323   8.813
53296SOL    HW259915  10.754   5.175   8.869
53297SOL     OW59916   9.748   4.116   8.947
53297SOL    HW159917   9.830   4.060   8.956
53297SOL    HW259918   9.667   4.058   8.951
53298SOL     OW59919  10.913   4.171   8.185
53298SOL    HW159920  10.839   4.217   8.135
53298SOL    HW259921  10.964   4.239   8.238
53299SOL     OW59922   9.541   5.437   7.931
53299SOL    HW159923   9.575   5.514   7.985
53299SOL    HW259924   9.585   5.437   7.841
53300SOL     OW59925  10.437   5.065   9.138
53300SOL    HW159926  10.484   5.065   9.226
53300SOL    HW259927  10.389   4.978   9.127
53301SOL     OW59928   9.540   5.158   7.986
53301SOL    HW159929   9.514   5.254   7.986
53301SOL    HW259930   9.469   5.104   8.031
53302SOL     OW59931   9.550   4.815   8.334
53302SOL    HW159932   9.564   4.731   8.386
53302SOL    HW259933   9.495   4.879   8.389
53303SOL     OW59934   9.930   5.510   8.887
53303SOL    HW159935   9.838   5.493   8.922
53303SOL    HW259936   9.958   5.602   8.913
53304SOL     OW59937   9.916   4.688   7.571
53304SOL    HW159938   9.923   4.772   7.517
53304SOL    HW259939   9.962   4.701   7.659
53305SOL     OW59940  10.904   3.838   8.928
53305SOL    HW159941  10.886   3.905   8.856
53305SOL    HW259942  10.901   3.884   9.017
53306SOL     OW59943   9.432   4.367   8.011
53306SOL    HW159944   9.387   4.279   8.028
53306SOL    HW259945   9.431   4.421   8.095
53307SOL     OW59946  11.152   5.491   7.807
53307SOL    HW159947  11.206   5.462   7.887
53307SOL    HW259948  11.182   5.581   7.778
53308SOL     OW59949   9.337   5.320   7.565
53308SOL    HW159950   9.318   5.224   7.586
53308SOL    HW259951   9.304   5.378   7.640
53309SOL     OW59952  10.999   4.646   8.060
53309SOL    HW159953  11.094   4.617   8.068
53309SOL    HW259954  10.991   4.711   7.985
53310SOL     OW59955  10.951   4.832   7.880
53310SOL    HW159956  11.037   4.834   7.828
53310SOL    HW259957  10.965   4.879   7.968
53311SOL     OW59958   9.423   4.461   9.045
53311SOL    HW159959   9.511   4.448   9.090
53311SOL    HW259960   9.410   4.558   9.023
53312SOL     OW59961   9.923   5.089   8.174
53312SOL    HW159962   9.874   5.002   8.183
53312SOL    HW259963   9.900   5.132   8.087
53313SOL     OW59964  10.603   4.952   8.871
53313SOL    HW159965  10.640   4.879   8.813
53313SOL    HW259966  10.655   4.957   8.956
53314SOL     OW59967  10.119   3.728   7.950
53314SOL    HW159968  10.159   3.819   7.941
53314SOL    HW259969  10.019   3.736   7.956
53315SOL     OW59970   9.507   4.700   8.712
53315SOL    HW159971   9.596   4.655   8.698
53315SOL    HW259972   9.434   4.635   8.693
53316SOL     OW59973  10.835   4.723   7.638
53316SOL    HW159974  10.772   4.647   7.651
53316SOL    HW259975  10.883   4.741   7.724
53317SOL     OW59976  10.497   5.516   9.064
53317SOL    HW159977  10.521   5.576   8.988
53317SOL    HW259978  10.504   5.421   9.034
53318SOL     OW59979   9.627   3.975   9.249
53318SOL    HW159980   9.698   4.046   9.255
53318SOL    HW259981   9.539   4.014   9.277
53319SOL     OW59982  10.776   5.141   8.401
53319SOL    HW159983  10.717   5.147   8.481
53319SOL    HW259984  10.761   5.053   8.355
53320SOL     OW59985  10.977   5.438   8.020
53320SOL    HW159986  10.936   5.415   7.932
53320SOL    HW259987  10.959   5.364   8.085
53321SOL     OW59988   9.908   4.453   7.718
53321SOL    HW159989   9.932   4.522   7.650
53321SOL    HW259990   9.830   4.486   7.772
53322SOL     OW59991  10.591   4.069   8.392
53322SOL    HW159992  10.505   4.019   8.379
53322SOL    HW259993  10.653   4.015   8.448
53323SOL     OW59994  10.886   5.386   7.755
53323SOL    HW159995  10.975   5.432   7.758
53323SOL    HW259996  10.865   5.362   7.660
53324SOL     OW59997  10.117   4.329   8.913
53324SOL    HW159998  10.070   4.326   9.002
53324SOL    HW259999  10.066   4.274   8.847
53325SOL     OW60000  10.704   4.193   9.122
53325SOL    HW160001  10.684   4.236   9.210
53325SOL    HW260002  10.782   4.131   9.131
53326SOL     OW60003  10.283   4.614   9.020
53326SOL    HW160004  10.329   4.530   8.991
53326SOL    HW260005  10.227   4.648   8.945
53327SOL     OW60006  10.301   4.134   8.690
53327SOL    HW160007  10.224   4.168   8.744
53327SOL    HW260008  10.267   4.083   8.611
53328SOL     OW60009  10.351   4.425   7.877
53328SOL    HW160010  10.377   4.421   7.973
53328SOL    HW260011  10.266   4.374   7.863
53329SOL     OW60012   9.386   4.535   8.237
53329SOL    HW160013   9.485   4.523   8.246
53329SOL    HW260014   9.362   4.630   8.258
53330SOL     OW60015   9.440   5.545   9.019
53330SOL    HW160016   9.430   5.530   9.118
53330SOL    HW260017   9.354   5.581   8.983
53331SOL     OW60018  10.175   4.072   7.643
53331SOL    HW160019  10.234   4.135   7.594
53331SOL    HW260020  10.194   3.978   7.614
53332SOL     OW60021  11.029   4.309   9.279
53332SOL    HW160022  11.003   4.398   9.243
53332SOL    HW260023  11.027   4.241   9.206
53333SOL     OW60024  10.672   4.868   7.993
53333SOL    HW160025  10.755   4.839   7.945
53333SOL    HW260026  10.623   4.935   7.937
53334SOL     OW60027   9.860   3.920   8.333
53334SOL    HW160028   9.855   3.915   8.433
53334SOL    HW260029   9.862   4.016   8.304
53335SOL     OW60030  10.318   5.180   7.925
53335SOL    HW160031  10.272   5.252   7.873
53335SOL    HW260032  10.314   5.200   8.023
53336SOL     OW60033   9.661   5.525   8.301
53336SOL    HW160034   9.711   5.439   8.307
53336SOL    HW260035   9.726   5.602   8.298
53337SOL     OW60036  11.105   4.790   8.321
53337SOL    HW160037  11.043   4.775   8.245
53337SOL    HW260038  11.053   4.801   8.406
53338SOL     OW60039  10.537   5.274   8.954
53338SOL    HW160040  10.543   5.197   9.018
53338SOL    HW260041  10.485   5.248   8.874
53339SOL     OW60042   9.631   4.667   7.690
53339SOL    HW160043   9.713   4.706   7.648
53339SOL    HW260044   9.604   4.585   7.641
53340SOL     OW60045  10.768   4.459   8.176
53340SOL    HW160046  10.763   4.394   8.251
53340SOL    HW260047  10.848   4.518   8.189
53341SOL     OW60048   9.771   4.990   9.175
53341SOL    HW160049   9.721   4.991   9.089
53341SOL    HW260050   9.708   4.972   9.251
53342SOL     OW60051  10.421   5.500   7.685
53342SOL    HW160052  10.361   5.438   7.735
53342SOL    HW260053  10.452   5.456   7.600
53343SOL     OW60054   9.512   4.009   8.946
53343SOL    HW160055   9.432   4.069   8.933
53343SOL    HW260056   9.502   3.960   9.032
53344SOL     OW60057  10.942   5.101   7.529
53344SOL    HW160058  10.910   5.195   7.519
53344SOL    HW260059  10.866   5.038   7.517
53345SOL     OW60060   9.774   5.467   7.771
53345SOL    HW160061   9.807   5.506   7.857
53345SOL    HW260062   9.850   5.460   7.706
53346SOL     OW60063  10.710   3.831   7.874
53346SOL    HW160064  10.686   3.794   7.784
53346SOL    HW260065  10.809   3.847   7.878
53347SOL     OW60066   9.559   5.509   8.689
53347SOL    HW160067   9.616   5.444   8.739
53347SOL    HW260068   9.543   5.476   8.596
53348SOL     OW60069  10.250   5.422   8.352
53348SOL    HW160070  10.330   5.365   8.373
53348SOL    HW260071  10.201   5.382   8.275
53349SOL     OW60072   9.692   4.424   7.928
53349SOL    HW160073   9.737   4.334   7.925
53349SOL    HW260074   9.598   4.413   7.961
53350SOL     OW60075  10.857   3.946   9.177
53350SOL    HW160076  10.852   3.983   9.269
53350SOL    HW260077  10.785   3.877   9.165
53351SOL     OW60078   9.924   3.846   7.565
53351SOL    HW160079  10.022   3.824   7.572
53351SOL    HW260080   9.893   3.829   7.472
53352SOL     OW60081  10.091   3.988   9.197
53352SOL    HW160082  10.158   3.927   9.240
53352SOL    HW260083  10.018   4.007   9.262
53353SOL     OW60084  10.198   5.238   8.643
53353SOL    HW160085  10.175   5.213   8.549
53353SOL    HW260086  10.259   5.169   8.682
53354SOL     OW60087  10.661   4.314   8.881
53354SOL    HW160088  10.689   4.271   8.966
53354SOL    HW260089  10.686   4.410   8.882
53355SOL     OW60090  10.113   5.126   8.372
53355SOL    HW160091  10.203   5.140   8.330
53355SOL    HW260092  10.042   5.128   8.301
53356SOL     OW60093  10.232   4.227   8.347
53356SOL    HW160094  10.207   4.218   8.251
53356SOL    HW260095  10.280   4.145   8.378
53357SOL     OW60096   9.849   3.788   7.960
53357SOL    HW160097   9.768   3.789   8.018
53357SOL    HW260098   9.852   3.871   7.905
53358SOL     OW60099  10.744   4.912   7.489
53358SOL    HW160100  10.776   4.836   7.546
53358SOL    HW260101  10.652   4.939   7.519
53359SOL     OW60102   9.607   3.759   7.619
53359SOL    HW160103   9.656   3.843   7.598
53359SOL    HW260104   9.669   3.694   7.664
53360SOL     OW60105  10.245   3.960   7.928
53360SOL    HW160106  10.197   4.001   7.850
53360SOL    HW260107  10.344   3.958   7.909
53361SOL     OW60108  10.386   4.407   8.912
53361SOL    HW160109  10.306   4.346   8.915
53361SOL    HW260110  10.467   4.354   8.888
53362SOL     OW60111  10.537   5.294   8.241
53362SOL    HW160112  10.558   5.368   8.176
53362SOL    HW260113  10.605   5.294   8.314
53363SOL     OW60114   9.769   4.876   8.189
53363SOL    HW160115   9.698   4.849   8.254
53363SOL    HW260116   9.743   4.848   8.096
53364SOL     OW60117  10.581   5.521   8.039
53364SOL    HW160118  10.625   5.585   7.975
53364SOL    HW260119  10.531   5.573   8.109
53365SOL     OW60120  10.342   4.273   7.464
53365SOL    HW160121  10.301   4.355   7.425
53365SOL    HW260122  10.406   4.299   7.537
53366SOL     OW60123   9.388   4.280   8.834
53366SOL    HW160124   9.480   4.279   8.793
53366SOL    HW260125   9.382   4.354   8.901
53367SOL     OW60126   9.871   3.946   8.595
53367SOL    HW160127   9.909   3.862   8.632
53367SOL    HW260128   9.783   3.965   8.639
53368SOL     OW60129  10.176   4.178   8.090
53368SOL    HW160130  10.144   4.250   8.028
53368SOL    HW260131  10.200   4.097   8.037
53369SOL     OW60132  10.327   3.763   8.201
53369SOL    HW160133  10.255   3.768   8.132
53369SOL    HW260134  10.303   3.694   8.270
53370SOL     OW60135  10.739   4.897   8.315
53370SOL    HW160136  10.684   4.813   8.308
53370SOL    HW260137  10.765   4.926   8.223
53371SOL     OW60138  10.776   4.314   8.440
53371SOL    HW160139  10.746   4.219   8.447
53371SOL    HW260140  10.849   4.330   8.506
53372SOL     OW60141  11.167   4.557   7.825
53372SOL    HW160142  11.209   4.493   7.889
53372SOL    HW260143  11.129   4.506   7.747
53373SOL     OW60144   9.798   5.109   7.622
53373SOL    HW160145   9.711   5.094   7.669
53373SOL    HW260146   9.781   5.135   7.527
53374SOL     OW60147  10.974   5.004   8.105
53374SOL    HW160148  11.073   5.012   8.119
53374SOL    HW260149  10.929   5.088   8.136
53375SOL     OW60150  10.700   4.299   7.526
53375SOL    HW160151  10.646   4.278   7.607
53375SOL    HW260152  10.791   4.258   7.535
53376SOL     OW60153   9.837   3.980   7.776
53376SOL    HW160154   9.864   3.921   7.701
53376SOL    HW260155   9.837   4.075   7.745
53377SOL     OW60156  11.064   4.947   9.036
53377SOL    HW160157  11.155   4.908   9.023
53377SOL    HW260158  11.072   5.043   9.060
53378SOL     OW60159  10.374   5.071   8.788
53378SOL    HW160160  10.294   5.048   8.843
53378SOL    HW260161  10.457   5.045   8.837
53379SOL     OW60162  10.902   5.353   9.073
53379SOL    HW160163  10.929   5.387   8.983
53379SOL    HW260164  10.981   5.315   9.119
53380SOL     OW60165  10.421   4.919   8.548
53380SOL    HW160166  10.381   4.963   8.629
53380SOL    HW260167  10.380   4.956   8.465
53381SOL     OW60168  10.948   4.823   8.527
53381SOL    HW160169  10.953   4.904   8.586
53381SOL    HW260170  10.862   4.825   8.476
53382SOL     OW60171  10.225   3.813   8.850
53382SOL    HW160172  10.250   3.793   8.755
53382SOL    HW260173  10.297   3.869   8.892
53383SOL     OW60174  10.290   4.840   9.167
53383SOL    HW160175  10.191   4.846   9.177
53383SOL    HW260176  10.313   4.760   9.111
53384SOL     OW60177  10.015   4.774   7.816
53384SOL    HW160178  10.001   4.781   7.915
53384SOL    HW260179  10.099   4.723   7.798
53385SOL     OW60180   9.720   4.537   8.699
53385SOL    HW160181   9.806   4.549   8.749
53385SOL    HW260182   9.678   4.450   8.726
53386SOL     OW60183  10.584   4.110   8.710
53386SOL    HW160184  10.605   4.184   8.774
53386SOL    HW260185  10.495   4.127   8.667
53387SOL     OW60186   9.374   5.288   8.779
53387SOL    HW160187   9.328   5.370   8.745
53387SOL    HW260188   9.472   5.307   8.788
53388SOL     OW60189   9.677   4.824   7.949
53388SOL    HW160190   9.670   4.907   7.893
53388SOL    HW260191   9.681   4.744   7.889
53389SOL     OW60192   9.876   4.261   8.313
53389SOL    HW160193   9.888   4.327   8.239
53389SOL    HW260194   9.922   4.295   8.396
53390SOL     OW60195  10.562   5.072   7.836
53390SOL    HW160196  10.612   5.149   7.876
53390SOL    HW260197  10.467   5.074   7.868
53391SOL     OW60198  10.582   5.169   8.590
53391SOL    HW160199  10.629   5.182   8.677
53391SOL    HW260200  10.516   5.095   8.599
53392SOL     OW60201  10.892   4.363   7.920
53392SOL    HW160202  10.861   4.424   7.993
53392SOL    HW260203  10.942   4.415   7.851
53393SOL     OW60204   9.664   5.234   8.777
53393SOL    HW160205   9.643   5.190   8.690
53393SOL    HW260206   9.761   5.260   8.780
53394SOL     OW60207   9.712   4.475   9.046
53394SOL    HW160208   9.780   4.530   8.999
53394SOL    HW260209   9.752   4.387   9.073
53395SOL     OW60210  10.897   4.503   9.118
53395SOL    HW160211  10.805   4.541   9.113
53395SOL    HW260212  10.957   4.550   9.053
53396SOL     OW60213  10.323   3.829   9.218
53396SOL    HW160214  10.329   3.914   9.166
53396SOL    HW260215  10.355   3.753   9.161
53397SOL     OW60216   9.814   3.774   9.188
53397SOL    HW160217   9.772   3.717   9.118
53397SOL    HW260218   9.748   3.843   9.220
53398SOL     OW60219   9.883   4.594   8.477
53398SOL    HW160220   9.927   4.683   8.468
53398SOL    HW260221   9.820   4.594   8.554
53399SOL     OW60222  10.670   4.586   8.493
53399SOL    HW160223  10.595   4.586   8.427
53399SOL    HW260224  10.707   4.494   8.502
53400SOL     OW60225  10.519   4.249   7.723
53400SOL    HW160226  10.532   4.165   7.777
53400SOL    HW260227  10.490   4.323   7.783
53401SOL     OW60228   9.617   3.937   8.679
53401SOL    HW160229   9.594   3.974   8.769
53401SOL    HW260230   9.587   3.842   8.673
53402SOL     OW60231   9.347   5.034   8.730
53402SOL    HW160232   9.400   4.985   8.798
53402SOL    HW260233   9.369   5.132   8.735
53403SOL     OW60234  10.042   4.358   8.512
53403SOL    HW160235  10.101   4.332   8.436
53403SOL    HW260236  10.014   4.454   8.501
53404SOL     OW60237  11.038   4.659   9.302
53404SOL    HW160238  10.992   4.652   9.213
53404SOL    HW260239  10.976   4.703   9.368
53405SOL     OW60240   9.617   3.787   8.066
53405SOL    HW160241   9.606   3.881   8.099
53405SOL    HW260242   9.612   3.724   8.143
53406SOL     OW60243  10.932   4.091   7.822
53406SOL    HW160244  10.934   4.015   7.886
53406SOL    HW260245  10.884   4.168   7.862
53407SOL     OW60246  10.333   4.490   8.414
53407SOL    HW160247  10.348   4.511   8.510
53407SOL    HW260248  10.303   4.395   8.405
53408SOL     OW60249  10.290   5.297   9.148
53408SOL    HW160250  10.270   5.341   9.060
53408SOL    HW260251  10.329   5.206   9.132
53409SOL     OW60252  11.169   5.242   9.053
53409SOL    HW160253  11.183   5.269   8.958
53409SOL    HW260254  11.252   5.264   9.106
53410SOL     OW60255   9.660   4.622   9.252
53410SOL    HW160256   9.736   4.666   9.300
53410SOL    HW260257   9.695   4.575   9.170
53411SOL     OW60258  10.850   3.998   7.573
53411SOL    HW160259  10.789   3.923   7.596
53411SOL    HW260260  10.872   4.050   7.656
53412SOL     OW60261  10.613   4.562   7.490
53412SOL    HW160262  10.647   4.469   7.505
53412SOL    HW260263  10.631   4.589   7.395
53413SOL     OW60264  10.378   5.057   8.297
53413SOL    HW160265  10.385   4.973   8.242
53413SOL    HW260266  10.440   5.126   8.261
53414SOL     OW60267   9.629   4.534   8.397
53414SOL    HW160268   9.722   4.570   8.402
53414SOL    HW260269   9.623   4.449   8.449
53415SOL     OW60270   9.649   4.233   8.454
53415SOL    HW160271   9.597   4.150   8.437
53415SOL    HW260272   9.726   4.238   8.390
53416SOL     OW60273  10.448   4.104   9.126
53416SOL    HW160274  10.403   4.167   9.190
53416SOL    HW260275  10.541   4.135   9.109
53417SOL     OW60276  10.470   3.931   8.925
53417SOL    HW160277  10.470   3.995   9.002
53417SOL    HW260278  10.498   3.979   8.842
53418SOL     OW60279   9.318   5.050   7.648
53418SOL    HW160280   9.225   5.071   7.617
53418SOL    HW260281   9.328   4.951   7.661
53419SOL     OW60282   9.398   5.525   8.375
53419SOL    HW160283   9.356   5.439   8.348
53419SOL    HW260284   9.492   5.528   8.341
53420SOL     OW60285   9.814   5.292   8.358
53420SOL    HW160286   9.880   5.366   8.367
53420SOL    HW260287   9.858   5.213   8.316
53421SOL     OW60288  10.312   4.520   8.686
53421SOL    HW160289  10.353   4.488   8.772
53421SOL    HW260290  10.216   4.493   8.683
53422SOL     OW60291   9.350   4.268   8.562
53422SOL    HW160292   9.435   4.235   8.521
53422SOL    HW260293   9.363   4.283   8.660
53423SOL     OW60294   9.499   4.244   9.170
53423SOL    HW160295   9.558   4.204   9.100
53423SOL    HW260296   9.441   4.315   9.129
53424SOL     OW60297  10.679   4.674   9.108
53424SOL    HW160298  10.718   4.763   9.128
53424SOL    HW260299  10.689   4.654   9.011
53425SOL     OW60300  10.125   4.296   7.773
53425SOL    HW160301  10.132   4.207   7.727
53425SOL    HW260302  10.031   4.330   7.765
53426SOL     OW60303  10.967   4.328   8.654
53426SOL    HW160304  10.929   4.259   8.716
53426SOL    HW260305  11.049   4.292   8.610
53427SOL     OW60306   9.562   5.288   9.192
53427SOL    HW160307   9.532   5.345   9.268
53427SOL    HW260308   9.555   5.191   9.218
53428SOL     OW60309   9.981   4.188   8.717
53428SOL    HW160310   9.947   4.099   8.687
53428SOL    HW260311  10.007   4.242   8.637
53429SOL     OW60312  10.240   5.402   8.913
53429SOL    HW160313  10.216   5.384   8.818
53429SOL    HW260314  10.270   5.496   8.923
53430SOL     OW60315   9.783   4.224   7.639
53430SOL    HW160316   9.844   4.304   7.643
53430SOL    HW260317   9.688   4.255   7.646
53431SOL     OW60318   9.469   4.861   8.914
53431SOL    HW160319   9.491   4.800   8.990
53431SOL    HW260320   9.479   4.812   8.828
53432SOL     OW60321  10.657   4.783   8.682
53432SOL    HW160322  10.681   4.720   8.608
53432SOL    HW260323  10.567   4.823   8.664
53433SOL     OW60324  10.612   4.579   7.757
53433SOL    HW160325  10.526   4.548   7.799
53433SOL    HW260326  10.608   4.565   7.658
53434SOL     OW60327  11.069   5.471   8.602
53434SOL    HW160328  11.130   5.501   8.529
53434SOL    HW260329  11.031   5.382   8.580
53435SOL     OW60330  10.562   5.455   8.576
53435SOL    HW160331  10.646   5.460   8.522
53435SOL    HW260332  10.539   5.359   8.594
53436SOL     OW60333   9.393   4.982   8.470
53436SOL    HW160334   9.388   4.981   8.570
53436SOL    HW260335   9.310   4.941   8.432
53437SOL     OW60336   9.998   5.386   9.164
53437SOL    HW160337   9.942   5.467   9.173
53437SOL    HW260338  10.050   5.390   9.078
53438SOL     OW60339  11.036   3.859   7.971
53438SOL    HW160340  11.109   3.842   7.904
53438SOL    HW260341  11.005   3.772   8.009
53439SOL     OW60342  10.698   5.297   7.925
53439SOL    HW160343  10.765   5.309   7.851
53439SOL    HW260344  10.658   5.386   7.948
53440SOL     OW60345   9.440   5.518   9.299
53440SOL    HW160346   9.399   5.444   9.352
53440SOL    HW260347   9.504   5.569   9.357
53441SOL     OW60348  10.590   4.651   8.120
53441SOL    HW160349  10.650   4.570   8.122
53441SOL    HW260350  10.630   4.720   8.060
53442SOL     OW60351  10.140   4.997   8.870
53442SOL    HW160352  10.135   5.030   8.965
53442SOL    HW260353  10.054   5.016   8.824
53443SOL     OW60354   9.982   5.340   7.602
53443SOL    HW160355   9.991   5.350   7.503
53443SOL    HW260356   9.942   5.251   7.623
53444SOL     OW60357  10.960   5.444   8.842
53444SOL    HW160358  11.013   5.454   8.758
53444SOL    HW260359  10.933   5.534   8.876
53445SOL     OW60360  11.151   3.899   8.411
53445SOL    HW160361  11.190   3.814   8.375
53445SOL    HW260362  11.053   3.901   8.392
53446SOL     OW60363   9.573   4.050   8.168
53446SOL    HW160364   9.494   4.101   8.134
53446SOL    HW260365   9.564   4.035   8.266
53447SOL     OW60366  10.504   5.336   7.479
53447SOL    HW160367  10.510   5.243   7.516
53447SOL    HW260368  10.445   5.336   7.399
53448SOL     OW60369  10.132   4.726   8.820
53448SOL    HW160370  10.172   4.725   8.728
53448SOL    HW260371  10.142   4.818   8.860
53449SOL     OW60372  10.226   4.634   7.739
53449SOL    HW160373  10.289   4.672   7.671
53449SOL    HW260374  10.266   4.551   7.778
53450SOL     OW60375  10.814   5.331   7.492
53450SOL    HW160376  10.722   5.368   7.499
53450SOL    HW260377  10.852   5.351   7.402
53451SOL     OW60378   9.682   5.012   8.938
53451SOL    HW160379   9.669   5.105   8.904
53451SOL    HW260380   9.598   4.960   8.925
53452SOL     OW60381  10.924   5.016   8.737
53452SOL    HW160382  10.984   5.019   8.817
53452SOL    HW260383  10.849   5.080   8.750
53453SOL     OW60384  10.349   4.822   8.144
53453SOL    HW160385  10.279   4.775   8.198
53453SOL    HW260386  10.408   4.754   8.101
53454SOL     OW60387  10.324   3.960   8.419
53454SOL    HW160388  10.316   3.924   8.326
53454SOL    HW260389  10.322   3.884   8.484
53455SOL     OW60390   9.900   5.211   7.939
53455SOL    HW160391   9.942   5.153   7.869
53455SOL    HW260392   9.856   5.290   7.895
53456SOL     OW60393  11.019   4.109   8.829
53456SOL    HW160394  11.092   4.178   8.833
53456SOL    HW260395  11.047   4.034   8.770
53457SOL     OW60396   9.565   5.072   7.738
53457SOL    HW160397   9.469   5.073   7.711
53457SOL    HW260398   9.577   5.125   7.822
53458SOL     OW60399   9.415   4.737   9.174
53458SOL    HW160400   9.338   4.704   9.228
53458SOL    HW260401   9.500   4.707   9.216
53459SOL     OW60402   9.982   3.927   8.937
53459SOL    HW160403  10.072   3.911   8.897
53459SOL    HW260404   9.990   3.932   9.036
53460SOL     OW60405   9.385   4.069   7.481
53460SOL    HW160406   9.293   4.041   7.452
53460SOL    HW260407   9.416   4.146   7.425
53461SOL     OW60408  10.750   4.580   8.846
53461SOL    HW160409  10.693   4.632   8.783
53461SOL    HW260410  10.846   4.592   8.822
53462SOL     OW60411   9.382   3.890   7.766
53462SOL    HW160412   9.365   3.973   7.712
53462SOL    HW260413   9.472   3.853   7.744
53463SOL     OW60414  10.493   5.059   7.567
53463SOL    HW160415  10.394   5.048   7.569
53463SOL    HW260416  10.527   5.074   7.660
53464SOL     OW60417   9.923   4.566   8.879
53464SOL    HW160418   9.979   4.647   8.862
53464SOL    HW260419   9.982   4.486   8.882
53465SOL     OW60420  10.803   5.491   8.407
53465SOL    HW160421  10.836   5.555   8.338
53465SOL    HW260422  10.869   5.485   8.482
53466SOL     OW60423  10.026   4.289   9.156
53466SOL    HW160424  10.045   4.354   9.230
53466SOL    HW260425  10.086   4.209   9.165
53467SOL     OW60426  10.760   4.944   9.081
53467SOL    HW160427  10.751   4.934   9.180
53467SOL    HW260428  10.856   4.937   9.055
53468SOL     OW60429   9.700   5.465   9.008
53468SOL    HW160430   9.609   5.506   9.006
53468SOL    HW260431   9.693   5.371   9.040
53469SOL     OW60432  10.984   4.607   8.702
53469SOL    HW160433  10.957   4.518   8.665
53469SOL    HW260434  10.985   4.675   8.629
53470SOL     OW60435  10.535   4.049   7.897
53470SOL    HW160436  10.600   3.975   7.886
53470SOL    HW260437  10.555   4.099   7.981
53471SOL     OW60438   9.904   4.469   8.100
53471SOL    HW160439   9.954   4.554   8.081
53471SOL    HW260440   9.816   4.471   8.052
53472SOL     OW60441  11.087   4.066   9.090
53472SOL    HW160442  11.070   4.097   8.996
53472SOL    HW260443  11.003   4.029   9.128
53473SOL     OW60444  11.040   4.658   8.965
53473SOL    HW160445  11.078   4.749   8.980
53473SOL    HW260446  11.032   4.641   8.866
53474SOL     OW60447  10.169   5.098   7.464
53474SOL    HW160448  10.123   5.113   7.552
53474SOL    HW260449  10.213   5.183   7.434
53475SOL     OW60450   9.971   5.514   8.401
53475SOL    HW160451   9.925   5.602   8.388
53475SOL    HW260452  10.070   5.526   8.394
53476SOL     OW60453  10.169   4.680   8.309
53476SOL    HW160454  10.223   4.611   8.357
53476SOL    HW260455  10.137   4.749   8.375
53477SOL     OW60456  10.393   4.708   7.535
53477SOL    HW160457  10.370   4.761   7.453
53477SOL    HW260458  10.474   4.652   7.516
53478SOL     OW60459  11.171   5.293   8.299
53478SOL    HW160460  11.100   5.281   8.229
53478SOL    HW260461  11.172   5.214   8.359
53479SOL     OW60462   9.531   5.038   9.292
53479SOL    HW160463   9.466   4.965   9.271
53479SOL    HW260464   9.535   5.052   9.390
53480SOL     OW60465   9.389   4.964   8.101
53480SOL    HW160466   9.388   4.917   8.189
53480SOL    HW260467   9.471   4.936   8.050
53481SOL     OW60468   9.982   5.115   9.072
53481SOL    HW160469   9.904   5.065   9.110
53481SOL    HW260470   9.979   5.210   9.103
53482SOL     OW60471  11.134   3.916   8.675
53482SOL    HW160472  11.130   3.826   8.719
53482SOL    HW260473  11.137   3.905   8.576
53483SOL     OW60474   9.738   4.148   7.968
53483SOL    HW160475   9.768   4.076   7.906
53483SOL    HW260476   9.699   4.108   8.051
53484SOL     OW60477  11.015   5.211   8.552
53484SOL    HW160478  10.922   5.186   8.525
53484SOL    HW260479  11.041   5.161   8.634
53485SOL     OW60480   9.627   4.271   8.728
53485SOL    HW160481   9.665   4.212   8.800
53485SOL    HW260482   9.667   4.245   8.640
53486SOL     OW60483  10.122   5.310   8.135
53486SOL    HW160484  10.154   5.320   8.041
53486SOL    HW260485  10.043   5.248   8.137
53487SOL     OW60486  10.734   3.938   8.560
53487SOL    HW160487  10.786   3.873   8.615
53487SOL    HW260488  10.685   4.001   8.621
53488SOL     OW60489  10.311   3.758   8.602
53488SOL    HW160490  10.248   3.686   8.571
53488SOL    HW260491  10.404   3.722   8.602
53489SOL     OW60492  10.080   5.054   7.749
53489SOL    HW160493  10.034   4.967   7.766
53489SOL    HW260494  10.171   5.051   7.790
53490SOL     OW60495   9.928   5.291   8.732
53490SOL    HW160496   9.923   5.373   8.789
53490SOL    HW260497  10.017   5.288   8.687
53491SOL     OW60498  10.662   3.776   7.616
53491SOL    HW160499  10.697   3.735   7.532
53491SOL    HW260500  10.572   3.738   7.636
53492SOL     OW60501  10.610   4.177   8.139
53492SOL    HW160502  10.551   4.257   8.143
53492SOL    HW260503  10.625   4.142   8.232
53493SOL     OW60504  10.903   3.945   8.330
53493SOL    HW160505  10.819   3.944   8.384
53493SOL    HW260506  10.905   4.028   8.274
53494SOL     OW60507   9.349   4.801   7.748
53494SOL    HW160508   9.448   4.790   7.739
53494SOL    HW260509   9.309   4.715   7.780
53495SOL     OW60510  10.185   5.370   7.785
53495SOL    HW160511  10.108   5.335   7.731
53495SOL    HW260512  10.153   5.441   7.847
53496SOL     OW60513   9.540   4.352   9.423
53496SOL    HW160514   9.447   4.350   9.460
53496SOL    HW260515   9.541   4.313   9.331
53497SOL     OW60516   9.535   3.999  10.306
53497SOL    HW160517   9.570   3.982  10.398
53497SOL    HW260518   9.447   3.954  10.294
53498SOL     OW60519   9.329   4.092   9.957
53498SOL    HW160520   9.247   4.135   9.996
53498SOL    HW260521   9.301   4.019   9.894
53499SOL     OW60522   9.879   4.999  10.475
53499SOL    HW160523   9.786   4.992  10.438
53499SOL    HW260524   9.890   5.088  10.519
53500SOL     OW60525  10.865   5.235  10.013
53500SOL    HW160526  10.808   5.219  10.094
53500SOL    HW260527  10.806   5.245   9.933
53501SOL     OW60528  10.445   4.427  10.027
53501SOL    HW160529  10.502   4.505  10.002
53501SOL    HW260530  10.385   4.453  10.103
53502SOL     OW60531  11.065   4.331   9.541
53502SOL    HW160532  11.053   4.318   9.442
53502SOL    HW260533  11.035   4.250   9.590
53503SOL     OW60534  10.078   4.868  10.333
53503SOL    HW160535  10.000   4.885  10.393
53503SOL    HW260536  10.112   4.955  10.297
53504SOL     OW60537  10.160   4.522  11.133
53504SOL    HW160538  10.156   4.598  11.198
53504SOL    HW260539  10.182   4.558  11.042
53505SOL     OW60540   9.995   4.736   9.975
53505SOL    HW160541  10.064   4.720  10.045
53505SOL    HW260542   9.922   4.793  10.013
53506SOL     OW60543   9.996   4.885  11.113
53506SOL    HW160544  10.056   4.964  11.127
53506SOL    HW260545   9.910   4.916  11.072
53507SOL     OW60546   9.645   5.159  10.371
53507SOL    HW160547   9.567   5.128  10.318
53507SOL    HW260548   9.703   5.217  10.314
53508SOL     OW60549  10.770   5.229  10.649
53508SOL    HW160550  10.794   5.323  10.675
53508SOL    HW260551  10.754   5.175  10.731
53509SOL     OW60552   9.748   4.116  10.809
53509SOL    HW160553   9.830   4.060  10.818
53509SOL    HW260554   9.667   4.058  10.813
53510SOL     OW60555  10.913   4.171  10.047
53510SOL    HW160556  10.839   4.217   9.997
53510SOL    HW260557  10.964   4.239  10.100
53511SOL     OW60558   9.541   5.437   9.793
53511SOL    HW160559   9.575   5.514   9.847
53511SOL    HW260560   9.585   5.437   9.703
53512SOL     OW60561  10.437   5.065  11.000
53512SOL    HW160562  10.484   5.065  11.088
53512SOL    HW260563  10.389   4.978  10.989
53513SOL     OW60564   9.540   5.158   9.848
53513SOL    HW160565   9.514   5.254   9.848
53513SOL    HW260566   9.469   5.104   9.893
53514SOL     OW60567   9.550   4.815  10.196
53514SOL    HW160568   9.564   4.731  10.248
53514SOL    HW260569   9.495   4.879  10.251
53515SOL     OW60570   9.930   5.510  10.749
53515SOL    HW160571   9.838   5.493  10.784
53515SOL    HW260572   9.958   5.602  10.775
53516SOL     OW60573   9.916   4.688   9.433
53516SOL    HW160574   9.923   4.772   9.379
53516SOL    HW260575   9.962   4.701   9.521
53517SOL     OW60576  10.904   3.838  10.790
53517SOL    HW160577  10.886   3.905  10.718
53517SOL    HW260578  10.901   3.884  10.879
53518SOL     OW60579   9.432   4.367   9.873
53518SOL    HW160580   9.387   4.279   9.890
53518SOL    HW260581   9.431   4.421   9.957
53519SOL     OW60582  11.152   5.491   9.669
53519SOL    HW160583  11.206   5.462   9.749
53519SOL    HW260584  11.182   5.581   9.640
53520SOL     OW60585   9.337   5.320   9.427
53520SOL    HW160586   9.318   5.224   9.448
53520SOL    HW260587   9.304   5.378   9.502
53521SOL     OW60588  10.999   4.646   9.922
53521SOL    HW160589  11.094   4.617   9.930
53521SOL    HW260590  10.991   4.711   9.847
53522SOL     OW60591  10.951   4.832   9.742
53522SOL    HW160592  11.037   4.834   9.690
53522SOL    HW260593  10.965   4.879   9.830
53523SOL     OW60594   9.423   4.461  10.907
53523SOL    HW160595   9.511   4.448  10.952
53523SOL    HW260596   9.410   4.558  10.885
53524SOL     OW60597   9.923   5.089  10.036
53524SOL    HW160598   9.874   5.002  10.045
53524SOL    HW260599   9.900   5.132   9.949
53525SOL     OW60600  10.603   4.952  10.733
53525SOL    HW160601  10.640   4.879  10.675
53525SOL    HW260602  10.655   4.957  10.818
53526SOL     OW60603  10.119   3.728   9.812
53526SOL    HW160604  10.159   3.819   9.803
53526SOL    HW260605  10.019   3.736   9.818
53527SOL     OW60606   9.507   4.700  10.574
53527SOL    HW160607   9.596   4.655  10.560
53527SOL    HW260608   9.434   4.635  10.555
53528SOL     OW60609  10.835   4.723   9.500
53528SOL    HW160610  10.772   4.647   9.513
53528SOL    HW260611  10.883   4.741   9.586
53529SOL     OW60612  10.497   5.516  10.926
53529SOL    HW160613  10.521   5.576  10.850
53529SOL    HW260614  10.504   5.421  10.896
53530SOL     OW60615   9.627   3.975  11.111
53530SOL    HW160616   9.698   4.046  11.117
53530SOL    HW260617   9.539   4.014  11.139
53531SOL     OW60618  10.776   5.141  10.263
53531SOL    HW160619  10.717   5.147  10.343
53531SOL    HW260620  10.761   5.053  10.217
53532SOL     OW60621  10.977   5.438   9.882
53532SOL    HW160622  10.936   5.415   9.794
53532SOL    HW260623  10.959   5.364   9.947
53533SOL     OW60624   9.908   4.453   9.580
53533SOL    HW160625   9.932   4.522   9.512
53533SOL    HW260626   9.830   4.486   9.634
53534SOL     OW60627  10.591   4.069  10.254
53534SOL    HW160628  10.505   4.019  10.241
53534SOL    HW260629  10.653   4.015  10.310
53535SOL     OW60630  10.886   5.386   9.617
53535SOL    HW160631  10.975   5.432   9.620
53535SOL    HW260632  10.865   5.362   9.522
53536SOL     OW60633  10.117   4.329  10.775
53536SOL    HW160634  10.070   4.326  10.864
53536SOL    HW260635  10.066   4.274  10.709
53537SOL     OW60636  10.704   4.193  10.984
53537SOL    HW160637  10.684   4.236  11.072
53537SOL    HW260638  10.782   4.131  10.993
53538SOL     OW60639  10.283   4.614  10.882
53538SOL    HW160640  10.329   4.530  10.853
53538SOL    HW260641  10.227   4.648  10.807
53539SOL     OW60642  10.301   4.134  10.552
53539SOL    HW160643  10.224   4.168  10.606
53539SOL    HW260644  10.267   4.083  10.473
53540SOL     OW60645  10.351   4.425   9.739
53540SOL    HW160646  10.377   4.421   9.835
53540SOL    HW260647  10.266   4.374   9.725
53541SOL     OW60648   9.386   4.535  10.099
53541SOL    HW160649   9.485   4.523  10.108
53541SOL    HW260650   9.362   4.630  10.120
53542SOL     OW60651   9.440   5.545  10.881
53542SOL    HW160652   9.430   5.530  10.980
53542SOL    HW260653   9.354   5.581  10.845
53543SOL     OW60654  10.175   4.072   9.505
53543SOL    HW160655  10.234   4.135   9.456
53543SOL    HW260656  10.194   3.978   9.476
53544SOL     OW60657  11.029   4.309  11.141
53544SOL    HW160658  11.003   4.398  11.105
53544SOL    HW260659  11.027   4.241  11.068
53545SOL     OW60660  10.672   4.868   9.855
53545SOL    HW160661  10.755   4.839   9.807
53545SOL    HW260662  10.623   4.935   9.799
53546SOL     OW60663   9.860   3.920  10.195
53546SOL    HW160664   9.855   3.915  10.295
53546SOL    HW260665   9.862   4.016  10.166
53547SOL     OW60666  10.318   5.180   9.787
53547SOL    HW160667  10.272   5.252   9.735
53547SOL    HW260668  10.314   5.200   9.885
53548SOL     OW60669   9.661   5.525  10.163
53548SOL    HW160670   9.711   5.439  10.169
53548SOL    HW260671   9.726   5.602  10.160
53549SOL     OW60672  11.105   4.790  10.183
53549SOL    HW160673  11.043   4.775  10.107
53549SOL    HW260674  11.053   4.801  10.268
53550SOL     OW60675  10.537   5.274  10.816
53550SOL    HW160676  10.543   5.197  10.880
53550SOL    HW260677  10.485   5.248  10.736
53551SOL     OW60678   9.631   4.667   9.552
53551SOL    HW160679   9.713   4.706   9.510
53551SOL    HW260680   9.604   4.585   9.503
53552SOL     OW60681  10.768   4.459  10.038
53552SOL    HW160682  10.763   4.394  10.113
53552SOL    HW260683  10.848   4.518  10.051
53553SOL     OW60684   9.771   4.990  11.037
53553SOL    HW160685   9.721   4.991  10.951
53553SOL    HW260686   9.708   4.972  11.113
53554SOL     OW60687  10.421   5.500   9.547
53554SOL    HW160688  10.361   5.438   9.597
53554SOL    HW260689  10.452   5.456   9.462
53555SOL     OW60690   9.512   4.009  10.808
53555SOL    HW160691   9.432   4.069  10.795
53555SOL    HW260692   9.502   3.960  10.894
53556SOL     OW60693  10.942   5.101   9.391
53556SOL    HW160694  10.910   5.195   9.381
53556SOL    HW260695  10.866   5.038   9.379
53557SOL     OW60696   9.774   5.467   9.633
53557SOL    HW160697   9.807   5.506   9.719
53557SOL    HW260698   9.850   5.460   9.568
53558SOL     OW60699  10.710   3.831   9.736
53558SOL    HW160700  10.686   3.794   9.646
53558SOL    HW260701  10.809   3.847   9.740
53559SOL     OW60702   9.559   5.509  10.551
53559SOL    HW160703   9.616   5.444  10.601
53559SOL    HW260704   9.543   5.476  10.458
53560SOL     OW60705  10.250   5.422  10.214
53560SOL    HW160706  10.330   5.365  10.235
53560SOL    HW260707  10.201   5.382  10.137
53561SOL     OW60708   9.692   4.424   9.790
53561SOL    HW160709   9.737   4.334   9.787
53561SOL    HW260710   9.598   4.413   9.823
53562SOL     OW60711  10.857   3.946  11.039
53562SOL    HW160712  10.852   3.983  11.131
53562SOL    HW260713  10.785   3.877  11.027
53563SOL     OW60714   9.924   3.846   9.427
53563SOL    HW160715  10.022   3.824   9.434
53563SOL    HW260716   9.893   3.829   9.334
53564SOL     OW60717  10.091   3.988  11.059
53564SOL    HW160718  10.158   3.927  11.102
53564SOL    HW260719  10.018   4.007  11.124
53565SOL     OW60720  10.198   5.238  10.505
53565SOL    HW160721  10.175   5.213  10.411
53565SOL    HW260722  10.259   5.169  10.544
53566SOL     OW60723  10.661   4.314  10.743
53566SOL    HW160724  10.689   4.271  10.828
53566SOL    HW260725  10.686   4.410  10.744
53567SOL     OW60726  10.113   5.126  10.234
53567SOL    HW160727  10.203   5.140  10.192
53567SOL    HW260728  10.042   5.128  10.163
53568SOL     OW60729  10.232   4.227  10.209
53568SOL    HW160730  10.207   4.218  10.113
53568SOL    HW260731  10.280   4.145  10.240
53569SOL     OW60732   9.849   3.788   9.822
53569SOL    HW160733   9.768   3.789   9.880
53569SOL    HW260734   9.852   3.871   9.767
53570SOL     OW60735  10.744   4.912   9.351
53570SOL    HW160736  10.776   4.836   9.408
53570SOL    HW260737  10.652   4.939   9.381
53571SOL     OW60738   9.607   3.759   9.481
53571SOL    HW160739   9.656   3.843   9.460
53571SOL    HW260740   9.669   3.694   9.526
53572SOL     OW60741  10.245   3.960   9.790
53572SOL    HW160742  10.197   4.001   9.712
53572SOL    HW260743  10.344   3.958   9.771
53573SOL     OW60744  10.386   4.407  10.774
53573SOL    HW160745  10.306   4.346  10.777
53573SOL    HW260746  10.467   4.354  10.750
53574SOL     OW60747  10.537   5.294  10.103
53574SOL    HW160748  10.558   5.368  10.038
53574SOL    HW260749  10.605   5.294  10.176
53575SOL     OW60750   9.769   4.876  10.051
53575SOL    HW160751   9.698   4.849  10.116
53575SOL    HW260752   9.743   4.848   9.958
53576SOL     OW60753  10.581   5.521   9.901
53576SOL    HW160754  10.625   5.585   9.837
53576SOL    HW260755  10.531   5.573   9.971
53577SOL     OW60756  10.342   4.273   9.326
53577SOL    HW160757  10.301   4.355   9.287
53577SOL    HW260758  10.406   4.299   9.399
53578SOL     OW60759   9.388   4.280  10.696
53578SOL    HW160760   9.480   4.279  10.655
53578SOL    HW260761   9.382   4.354  10.763
53579SOL     OW60762   9.871   3.946  10.457
53579SOL    HW160763   9.909   3.862  10.494
53579SOL    HW260764   9.783   3.965  10.501
53580SOL     OW60765  10.176   4.178   9.952
53580SOL    HW160766  10.144   4.250   9.890
53580SOL    HW260767  10.200   4.097   9.899
53581SOL     OW60768  10.327   3.763  10.063
53581SOL    HW160769  10.255   3.768   9.994
53581SOL    HW260770  10.303   3.694  10.132
53582SOL     OW60771  10.739   4.897  10.177
53582SOL    HW160772  10.684   4.813  10.170
53582SOL    HW260773  10.765   4.926  10.085
53583SOL     OW60774  10.776   4.314  10.302
53583SOL    HW160775  10.746   4.219  10.309
53583SOL    HW260776  10.849   4.330  10.368
53584SOL     OW60777  11.167   4.557   9.687
53584SOL    HW160778  11.209   4.493   9.751
53584SOL    HW260779  11.129   4.506   9.609
53585SOL     OW60780   9.798   5.109   9.484
53585SOL    HW160781   9.711   5.094   9.531
53585SOL    HW260782   9.781   5.135   9.389
53586SOL     OW60783  10.974   5.004   9.967
53586SOL    HW160784  11.073   5.012   9.981
53586SOL    HW260785  10.929   5.088   9.998
53587SOL     OW60786  10.700   4.299   9.388
53587SOL    HW160787  10.646   4.278   9.469
53587SOL    HW260788  10.791   4.258   9.397
53588SOL     OW60789   9.837   3.980   9.638
53588SOL    HW160790   9.864   3.921   9.563
53588SOL    HW260791   9.837   4.075   9.607
53589SOL     OW60792  11.064   4.947  10.898
53589SOL    HW160793  11.155   4.908  10.885
53589SOL    HW260794  11.072   5.043  10.922
53590SOL     OW60795  10.374   5.071  10.650
53590SOL    HW160796  10.294   5.048  10.705
53590SOL    HW260797  10.457   5.045  10.699
53591SOL     OW60798  10.902   5.353  10.935
53591SOL    HW160799  10.929   5.387  10.845
53591SOL    HW260800  10.981   5.315  10.981
53592SOL     OW60801  10.421   4.919  10.410
53592SOL    HW160802  10.381   4.963  10.491
53592SOL    HW260803  10.380   4.956  10.327
53593SOL     OW60804  10.948   4.823  10.389
53593SOL    HW160805  10.953   4.904  10.448
53593SOL    HW260806  10.862   4.825  10.338
53594SOL     OW60807  10.225   3.813  10.712
53594SOL    HW160808  10.250   3.793  10.617
53594SOL    HW260809  10.297   3.869  10.754
53595SOL     OW60810  10.290   4.840  11.029
53595SOL    HW160811  10.191   4.846  11.039
53595SOL    HW260812  10.313   4.760  10.973
53596SOL     OW60813  10.015   4.774   9.678
53596SOL    HW160814  10.001   4.781   9.777
53596SOL    HW260815  10.099   4.723   9.660
53597SOL     OW60816   9.720   4.537  10.561
53597SOL    HW160817   9.806   4.549  10.611
53597SOL    HW260818   9.678   4.450  10.588
53598SOL     OW60819  10.584   4.110  10.572
53598SOL    HW160820  10.605   4.184  10.636
53598SOL    HW260821  10.495   4.127  10.529
53599SOL     OW60822   9.374   5.288  10.641
53599SOL    HW160823   9.328   5.370  10.607
53599SOL    HW260824   9.472   5.307  10.650
53600SOL     OW60825   9.677   4.824   9.811
53600SOL    HW160826   9.670   4.907   9.755
53600SOL    HW260827   9.681   4.744   9.751
53601SOL     OW60828   9.876   4.261  10.175
53601SOL    HW160829   9.888   4.327  10.101
53601SOL    HW260830   9.922   4.295  10.258
53602SOL     OW60831  10.562   5.072   9.698
53602SOL    HW160832  10.612   5.149   9.738
53602SOL    HW260833  10.467   5.074   9.730
53603SOL     OW60834  10.582   5.169  10.452
53603SOL    HW160835  10.629   5.182  10.539
53603SOL    HW260836  10.516   5.095  10.461
53604SOL     OW60837  10.892   4.363   9.782
53604SOL    HW160838  10.861   4.424   9.855
53604SOL    HW260839  10.942   4.415   9.713
53605SOL     OW60840   9.664   5.234  10.639
53605SOL    HW160841   9.643   5.190  10.552
53605SOL    HW260842   9.761   5.260  10.642
53606SOL     OW60843   9.712   4.475  10.908
53606SOL    HW160844   9.780   4.530  10.861
53606SOL    HW260845   9.752   4.387  10.935
53607SOL     OW60846  10.897   4.503  10.980
53607SOL    HW160847  10.805   4.541  10.975
53607SOL    HW260848  10.957   4.550  10.915
53608SOL     OW60849  10.323   3.829  11.080
53608SOL    HW160850  10.329   3.914  11.028
53608SOL    HW260851  10.355   3.753  11.023
53609SOL     OW60852   9.814   3.774  11.050
53609SOL    HW160853   9.772   3.717  10.980
53609SOL    HW260854   9.748   3.843  11.082
53610SOL     OW60855   9.883   4.594  10.339
53610SOL    HW160856   9.927   4.683  10.330
53610SOL    HW260857   9.820   4.594  10.416
53611SOL     OW60858  10.670   4.586  10.355
53611SOL    HW160859  10.595   4.586  10.289
53611SOL    HW260860  10.707   4.494  10.364
53612SOL     OW60861  10.519   4.249   9.585
53612SOL    HW160862  10.532   4.165   9.639
53612SOL    HW260863  10.490   4.323   9.645
53613SOL     OW60864   9.617   3.937  10.541
53613SOL    HW160865   9.594   3.974  10.631
53613SOL    HW260866   9.587   3.842  10.535
53614SOL     OW60867   9.347   5.034  10.592
53614SOL    HW160868   9.400   4.985  10.660
53614SOL    HW260869   9.369   5.132  10.597
53615SOL     OW60870  10.042   4.358  10.374
53615SOL    HW160871  10.101   4.332  10.298
53615SOL    HW260872  10.014   4.454  10.363
53616SOL     OW60873  11.038   4.659  11.164
53616SOL    HW160874  10.992   4.652  11.075
53616SOL    HW260875  10.976   4.703  11.230
53617SOL     OW60876   9.617   3.787   9.928
53617SOL    HW160877   9.606   3.881   9.961
53617SOL    HW260878   9.612   3.724  10.005
53618SOL     OW60879  10.932   4.091   9.684
53618SOL    HW160880  10.934   4.015   9.748
53618SOL    HW260881  10.884   4.168   9.724
53619SOL     OW60882  10.333   4.490  10.276
53619SOL    HW160883  10.348   4.511  10.372
53619SOL    HW260884  10.303   4.395  10.267
53620SOL     OW60885  10.290   5.297  11.010
53620SOL    HW160886  10.270   5.341  10.922
53620SOL    HW260887  10.329   5.206  10.994
53621SOL     OW60888  11.169   5.242  10.915
53621SOL    HW160889  11.183   5.269  10.820
53621SOL    HW260890  11.252   5.264  10.968
53622SOL     OW60891   9.660   4.622  11.114
53622SOL    HW160892   9.736   4.666  11.162
53622SOL    HW260893   9.695   4.575  11.032
53623SOL     OW60894  10.850   3.998   9.435
53623SOL    HW160895  10.789   3.923   9.458
53623SOL    HW260896  10.872   4.050   9.518
53624SOL     OW60897  10.613   4.562   9.352
53624SOL    HW160898  10.647   4.469   9.367
53624SOL    HW260899  10.631   4.589   9.257
53625SOL     OW60900  10.378   5.057  10.159
53625SOL    HW160901  10.385   4.973  10.104
53625SOL    HW260902  10.440   5.126  10.123
53626SOL     OW60903   9.629   4.534  10.259
53626SOL    HW160904   9.722   4.570  10.264
53626SOL    HW260905   9.623   4.449  10.311
53627SOL     OW60906   9.649   4.233  10.316
53627SOL    HW160907   9.597   4.150  10.299
53627SOL    HW260908   9.726   4.238  10.252
53628SOL     OW60909  10.448   4.104  10.988
53628SOL    HW160910  10.403   4.167  11.052
53628SOL    HW260911  10.541   4.135  10.971
53629SOL     OW60912  10.470   3.931  10.787
53629SOL    HW160913  10.470   3.995  10.864
53629SOL    HW260914  10.498   3.979  10.704
53630SOL     OW60915   9.318   5.050   9.510
53630SOL    HW160916   9.225   5.071   9.479
53630SOL    HW260917   9.328   4.951   9.523
53631SOL     OW60918   9.398   5.525  10.237
53631SOL    HW160919   9.356   5.439  10.210
53631SOL    HW260920   9.492   5.528  10.203
53632SOL     OW60921   9.814   5.292  10.220
53632SOL    HW160922   9.880   5.366  10.229
53632SOL    HW260923   9.858   5.213  10.178
53633SOL     OW60924  10.312   4.520  10.548
53633SOL    HW160925  10.353   4.488  10.634
53633SOL    HW260926  10.216   4.493  10.545
53634SOL     OW60927   9.350   4.268  10.424
53634SOL    HW160928   9.435   4.235  10.383
53634SOL    HW260929   9.363   4.283  10.522
53635SOL     OW60930   9.499   4.244  11.032
53635SOL    HW160931   9.558   4.204  10.962
53635SOL    HW260932   9.441   4.315  10.991
53636SOL     OW60933  10.679   4.674  10.970
53636SOL    HW160934  10.718   4.763  10.990
53636SOL    HW260935  10.689   4.654  10.873
53637SOL     OW60936  10.125   4.296   9.635
53637SOL    HW160937  10.132   4.207   9.589
53637SOL    HW260938  10.031   4.330   9.627
53638SOL     OW60939  10.967   4.328  10.516
53638SOL    HW160940  10.929   4.259  10.578
53638SOL    HW260941  11.049   4.292  10.472
53639SOL     OW60942   9.562   5.288  11.054
53639SOL    HW160943   9.532   5.345  11.130
53639SOL    HW260944   9.555   5.191  11.080
53640SOL     OW60945   9.981   4.188  10.579
53640SOL    HW160946   9.947   4.099  10.549
53640SOL    HW260947  10.007   4.242  10.499
53641SOL     OW60948  10.240   5.402  10.775
53641SOL    HW160949  10.216   5.384  10.680
53641SOL    HW260950  10.270   5.496  10.785
53642SOL     OW60951   9.783   4.224   9.501
53642SOL    HW160952   9.844   4.304   9.505
53642SOL    HW260953   9.688   4.255   9.508
53643SOL     OW60954   9.469   4.861  10.776
53643SOL    HW160955   9.491   4.800  10.852
53643SOL    HW260956   9.479   4.812  10.690
53644SOL     OW60957  10.657   4.783  10.544
53644SOL    HW160958  10.681   4.720  10.470
53644SOL    HW260959  10.567   4.823  10.526
53645SOL     OW60960  10.612   4.579   9.619
53645SOL    HW160961  10.526   4.548   9.661
53645SOL    HW260962  10.608   4.565   9.520
53646SOL     OW60963  11.069   5.471  10.464
53646SOL    HW160964  11.130   5.501  10.391
53646SOL    HW260965  11.031   5.382  10.442
53647SOL     OW60966  10.562   5.455  10.438
53647SOL    HW160967  10.646   5.460  10.384
53647SOL    HW260968  10.539   5.359  10.456
53648SOL     OW60969   9.393   4.982  10.332
53648SOL    HW160970   9.388   4.981  10.432
53648SOL    HW260971   9.310   4.941  10.294
53649SOL     OW60972   9.998   5.386  11.026
53649SOL    HW160973   9.942   5.467  11.035
53649SOL    HW260974  10.050   5.390  10.940
53650SOL     OW60975  11.036   3.859   9.833
53650SOL    HW160976  11.109   3.842   9.766
53650SOL    HW260977  11.005   3.772   9.871
53651SOL     OW60978  10.698   5.297   9.787
53651SOL    HW160979  10.765   5.309   9.713
53651SOL    HW260980  10.658   5.386   9.810
53652SOL     OW60981   9.440   5.518  11.161
53652SOL    HW160982   9.399   5.444  11.214
53652SOL    HW260983   9.504   5.569  11.219
53653SOL     OW60984  10.590   4.651   9.982
53653SOL    HW160985  10.650   4.570   9.984
53653SOL    HW260986  10.630   4.720   9.922
53654SOL     OW60987  10.140   4.997  10.732
53654SOL    HW160988  10.135   5.030  10.827
53654SOL    HW260989  10.054   5.016  10.686
53655SOL     OW60990   9.982   5.340   9.464
53655SOL    HW160991   9.991   5.350   9.365
53655SOL    HW260992   9.942   5.251   9.485
53656SOL     OW60993  10.960   5.444  10.704
53656SOL    HW160994  11.013   5.454  10.620
53656SOL    HW260995  10.933   5.534  10.738
53657SOL     OW60996  11.151   3.899  10.273
53657SOL    HW160997  11.190   3.814  10.237
53657SOL    HW260998  11.053   3.901  10.254
53658SOL     OW60999   9.573   4.050  10.030
53658SOL    HW161000   9.494   4.101   9.996
53658SOL    HW261001   9.564   4.035  10.128
53659SOL     OW61002  10.504   5.336   9.341
53659SOL    HW161003  10.510   5.243   9.378
53659SOL    HW261004  10.445   5.336   9.261
53660SOL     OW61005  10.132   4.726  10.682
53660SOL    HW161006  10.172   4.725  10.590
53660SOL    HW261007  10.142   4.818  10.722
53661SOL     OW61008  10.226   4.634   9.601
53661SOL    HW161009  10.289   4.672   9.533
53661SOL    HW261010  10.266   4.551   9.640
53662SOL     OW61011  10.814   5.331   9.354
53662SOL    HW161012  10.722   5.368   9.361
53662SOL    HW261013  10.852   5.351   9.264
53663SOL     OW61014   9.682   5.012  10.800
53663SOL    HW161015   9.669   5.105  10.766
53663SOL    HW261016   9.598   4.960  10.787
53664SOL     OW61017  10.924   5.016  10.599
53664SOL    HW161018  10.984   5.019  10.679
53664SOL    HW261019  10.849   5.080  10.612
53665SOL     OW61020  10.349   4.822  10.006
53665SOL    HW161021  10.279   4.775  10.060
53665SOL    HW261022  10.408   4.754   9.963
53666SOL     OW61023  10.324   3.960  10.281
53666SOL    HW161024  10.316   3.924  10.188
53666SOL    HW261025  10.322   3.884  10.346
53667SOL     OW61026   9.900   5.211   9.801
53667SOL    HW161027   9.942   5.153   9.731
53667SOL    HW261028   9.856   5.290   9.757
53668SOL     OW61029  11.019   4.109  10.691
53668SOL    HW161030  11.092   4.178  10.695
53668SOL    HW261031  11.047   4.034  10.632
53669SOL     OW61032   9.565   5.072   9.600
53669SOL    HW161033   9.469   5.073   9.573
53669SOL    HW261034   9.577   5.125   9.684
53670SOL     OW61035   9.415   4.737  11.036
53670SOL    HW161036   9.338   4.704  11.090
53670SOL    HW261037   9.500   4.707  11.078
53671SOL     OW61038   9.982   3.927  10.799
53671SOL    HW161039  10.072   3.911  10.759
53671SOL    HW261040   9.990   3.932  10.898
53672SOL     OW61041   9.385   4.069   9.343
53672SOL    HW161042   9.293   4.041   9.314
53672SOL    HW261043   9.416   4.146   9.287
53673SOL     OW61044  10.750   4.580  10.708
53673SOL    HW161045  10.693   4.632  10.645
53673SOL    HW261046  10.846   4.592  10.684
53674SOL     OW61047   9.382   3.890   9.628
53674SOL    HW161048   9.365   3.973   9.574
53674SOL    HW261049   9.472   3.853   9.606
53675SOL     OW61050  10.493   5.059   9.429
53675SOL    HW161051  10.394   5.048   9.431
53675SOL    HW261052  10.527   5.074   9.522
53676SOL     OW61053   9.923   4.566  10.741
53676SOL    HW161054   9.979   4.647  10.724
53676SOL    HW261055   9.982   4.486  10.744
53677SOL     OW61056  10.803   5.491  10.269
53677SOL    HW161057  10.836   5.555  10.200
53677SOL    HW261058  10.869   5.485  10.344
53678SOL     OW61059  10.026   4.289  11.018
53678SOL    HW161060  10.045   4.354  11.092
53678SOL    HW261061  10.086   4.209  11.027
53679SOL     OW61062  10.760   4.944  10.943
53679SOL    HW161063  10.751   4.934  11.042
53679SOL    HW261064  10.856   4.937  10.917
53680SOL     OW61065   9.700   5.465  10.870
53680SOL    HW161066   9.609   5.506  10.868
53680SOL    HW261067   9.693   5.371  10.902
53681SOL     OW61068  10.984   4.607  10.564
53681SOL    HW161069  10.957   4.518  10.527
53681SOL    HW261070  10.985   4.675  10.491
53682SOL     OW61071  10.535   4.049   9.759
53682SOL    HW161072  10.600   3.975   9.748
53682SOL    HW261073  10.555   4.099   9.843
53683SOL     OW61074   9.904   4.469   9.962
53683SOL    HW161075   9.954   4.554   9.943
53683SOL    HW261076   9.816   4.471   9.914
53684SOL     OW61077  11.087   4.066  10.952
53684SOL    HW161078  11.070   4.097  10.858
53684SOL    HW261079  11.003   4.029  10.990
53685SOL     OW61080  11.040   4.658  10.827
53685SOL    HW161081  11.078   4.749  10.842
53685SOL    HW261082  11.032   4.641  10.728
53686SOL     OW61083  10.169   5.098   9.326
53686SOL    HW161084  10.123   5.113   9.414
53686SOL    HW261085  10.213   5.183   9.296
53687SOL     OW61086   9.971   5.514  10.263
53687SOL    HW161087   9.925   5.602  10.250
53687SOL    HW261088  10.070   5.526  10.256
53688SOL     OW61089  10.169   4.680  10.171
53688SOL    HW161090  10.223   4.611  10.219
53688SOL    HW261091  10.137   4.749  10.237
53689SOL     OW61092  10.393   4.708   9.397
53689SOL    HW161093  10.370   4.761   9.315
53689SOL    HW261094  10.474   4.652   9.378
53690SOL     OW61095  11.171   5.293  10.161
53690SOL    HW161096  11.100   5.281  10.091
53690SOL    HW261097  11.172   5.214  10.221
53691SOL     OW61098   9.531   5.038  11.154
53691SOL    HW161099   9.466   4.965  11.133
53691SOL    HW261100   9.535   5.052  11.252
53692SOL     OW61101   9.389   4.964   9.963
53692SOL    HW161102   9.388   4.917  10.051
53692SOL    HW261103   9.471   4.936   9.912
53693SOL     OW61104   9.982   5.115  10.934
53693SOL    HW161105   9.904   5.065  10.972
53693SOL    HW261106   9.979   5.210  10.965
53694SOL     OW61107  11.134   3.916  10.537
53694SOL    HW161108  11.130   3.826  10.581
53694SOL    HW261109  11.137   3.905  10.438
53695SOL     OW61110   9.738   4.148   9.830
53695SOL    HW161111   9.768   4.076   9.768
53695SOL    HW261112   9.699   4.108   9.913
53696SOL     OW61113  11.015   5.211  10.414
53696SOL    HW161114  10.922   5.186  10.387
53696SOL    HW261115  11.041   5.161  10.496
53697SOL     OW61116   9.627   4.271  10.590
53697SOL    HW161117   9.665   4.212  10.662
53697SOL    HW261118   9.667   4.245  10.502
53698SOL     OW61119  10.122   5.310   9.997
53698SOL    HW161120  10.154   5.320   9.903
53698SOL    HW261121  10.043   5.248   9.999
53699SOL     OW61122  10.734   3.938  10.422
53699SOL    HW161123  10.786   3.873  10.477
53699SOL    HW261124  10.685   4.001  10.483
53700SOL     OW61125  10.311   3.758  10.464
53700SOL    HW161126  10.248   3.686  10.433
53700SOL    HW261127  10.404   3.722  10.464
53701SOL     OW61128  10.080   5.054   9.611
53701SOL    HW161129  10.034   4.967   9.628
53701SOL    HW261130  10.171   5.051   9.652
53702SOL     OW61131   9.928   5.291  10.594
53702SOL    HW161132   9.923   5.373  10.651
53702SOL    HW261133  10.017   5.288  10.549
53703SOL     OW61134  10.662   3.776   9.478
53703SOL    HW161135  10.697   3.735   9.394
53703SOL    HW261136  10.572   3.738   9.498
53704SOL     OW61137  10.610   4.177  10.001
53704SOL    HW161138  10.551   4.257  10.005
53704SOL    HW261139  10.625   4.142  10.094
53705SOL     OW61140  10.903   3.945  10.192
53705SOL    HW161141  10.819   3.944  10.246
53705SOL    HW261142  10.905   4.028  10.136
53706SOL     OW61143   9.349   4.801   9.610
53706SOL    HW161144   9.448   4.790   9.601
53706SOL    HW261145   9.309   4.715   9.642
53707SOL     OW61146  10.185   5.370   9.647
53707SOL    HW161147  10.108   5.335   9.593
53707SOL    HW261148  10.153   5.441   9.709
53708SOL     OW61149   9.540   4.352  11.285
53708SOL    HW161150   9.447   4.350  11.322
53708SOL    HW261151   9.541   4.313  11.193
53709SOL     OW61152   9.535   3.999  12.168
53709SOL    HW161153   9.570   3.982  12.260
53709SOL    HW261154   9.447   3.954  12.156
53710SOL     OW61155   9.329   4.092  11.819
53710SOL    HW161156   9.247   4.135  11.858
53710SOL    HW261157   9.301   4.019  11.756
53711SOL     OW61158   9.879   4.999  12.337
53711SOL    HW161159   9.786   4.992  12.300
53711SOL    HW261160   9.890   5.088  12.381
53712SOL     OW61161  10.865   5.235  11.875
53712SOL    HW161162  10.808   5.219  11.956
53712SOL    HW261163  10.806   5.245  11.795
53713SOL     OW61164  10.445   4.427  11.889
53713SOL    HW161165  10.502   4.505  11.864
53713SOL    HW261166  10.385   4.453  11.965
53714SOL     OW61167  11.065   4.331  11.403
53714SOL    HW161168  11.053   4.318  11.304
53714SOL    HW261169  11.035   4.250  11.452
53715SOL     OW61170  10.078   4.868  12.195
53715SOL    HW161171  10.000   4.885  12.255
53715SOL    HW261172  10.112   4.955  12.159
53716SOL     OW61173   9.995   4.736  11.837
53716SOL    HW161174  10.064   4.720  11.907
53716SOL    HW261175   9.922   4.793  11.875
53717SOL     OW61176   9.645   5.159  12.233
53717SOL    HW161177   9.567   5.128  12.180
53717SOL    HW261178   9.703   5.217  12.176
53718SOL     OW61179  10.770   5.229  12.511
53718SOL    HW161180  10.794   5.323  12.537
53718SOL    HW261181  10.754   5.175  12.593
53719SOL     OW61182   9.748   4.116  12.671
53719SOL    HW161183   9.830   4.060  12.680
53719SOL    HW261184   9.667   4.058  12.675
53720SOL     OW61185  10.913   4.171  11.909
53720SOL    HW161186  10.839   4.217  11.859
53720SOL    HW261187  10.964   4.239  11.962
53721SOL     OW61188   9.541   5.437  11.655
53721SOL    HW161189   9.575   5.514  11.709
53721SOL    HW261190   9.585   5.437  11.565
53722SOL     OW61191   9.540   5.158  11.710
53722SOL    HW161192   9.514   5.254  11.710
53722SOL    HW261193   9.469   5.104  11.755
53723SOL     OW61194   9.550   4.815  12.058
53723SOL    HW161195   9.564   4.731  12.110
53723SOL    HW261196   9.495   4.879  12.113
53724SOL     OW61197   9.930   5.510  12.611
53724SOL    HW161198   9.838   5.493  12.646
53724SOL    HW261199   9.958   5.602  12.637
53725SOL     OW61200   9.916   4.688  11.295
53725SOL    HW161201   9.923   4.772  11.241
53725SOL    HW261202   9.962   4.701  11.383
53726SOL     OW61203  10.904   3.838  12.652
53726SOL    HW161204  10.886   3.905  12.580
53726SOL    HW261205  10.901   3.884  12.741
53727SOL     OW61206   9.432   4.367  11.735
53727SOL    HW161207   9.387   4.279  11.752
53727SOL    HW261208   9.431   4.421  11.819
53728SOL     OW61209  11.152   5.491  11.531
53728SOL    HW161210  11.206   5.462  11.611
53728SOL    HW261211  11.182   5.581  11.502
53729SOL     OW61212   9.337   5.320  11.289
53729SOL    HW161213   9.318   5.224  11.310
53729SOL    HW261214   9.304   5.378  11.364
53730SOL     OW61215  10.999   4.646  11.784
53730SOL    HW161216  11.094   4.617  11.792
53730SOL    HW261217  10.991   4.711  11.709
53731SOL     OW61218  10.951   4.832  11.604
53731SOL    HW161219  11.037   4.834  11.552
53731SOL    HW261220  10.965   4.879  11.692
53732SOL     OW61221   9.923   5.089  11.898
53732SOL    HW161222   9.874   5.002  11.907
53732SOL    HW261223   9.900   5.132  11.811
53733SOL     OW61224  10.119   3.728  11.674
53733SOL    HW161225  10.159   3.819  11.665
53733SOL    HW261226  10.019   3.736  11.680
53734SOL     OW61227   9.507   4.700  12.436
53734SOL    HW161228   9.596   4.655  12.422
53734SOL    HW261229   9.434   4.635  12.417
53735SOL     OW61230  10.835   4.723  11.362
53735SOL    HW161231  10.772   4.647  11.375
53735SOL    HW261232  10.883   4.741  11.448
53736SOL     OW61233   9.627   3.975  12.973
53736SOL    HW161234   9.698   4.046  12.979
53736SOL    HW261235   9.539   4.014  13.001
53737SOL     OW61236  10.776   5.141  12.125
53737SOL    HW161237  10.717   5.147  12.205
53737SOL    HW261238  10.761   5.053  12.079
53738SOL     OW61239  10.977   5.438  11.744
53738SOL    HW161240  10.936   5.415  11.656
53738SOL    HW261241  10.959   5.364  11.809
53739SOL     OW61242   9.908   4.453  11.442
53739SOL    HW161243   9.932   4.522  11.374
53739SOL    HW261244   9.830   4.486  11.496
53740SOL     OW61245  10.591   4.069  12.116
53740SOL    HW161246  10.505   4.019  12.103
53740SOL    HW261247  10.653   4.015  12.172
53741SOL     OW61248  10.886   5.386  11.479
53741SOL    HW161249  10.975   5.432  11.482
53741SOL    HW261250  10.865   5.362  11.384
53742SOL     OW61251  10.117   4.329  12.637
53742SOL    HW161252  10.070   4.326  12.726
53742SOL    HW261253  10.066   4.274  12.571
53743SOL     OW61254  10.301   4.134  12.414
53743SOL    HW161255  10.224   4.168  12.468
53743SOL    HW261256  10.267   4.083  12.335
53744SOL     OW61257  10.351   4.425  11.601
53744SOL    HW161258  10.377   4.421  11.697
53744SOL    HW261259  10.266   4.374  11.587
53745SOL     OW61260   9.386   4.535  11.961
53745SOL    HW161261   9.485   4.523  11.970
53745SOL    HW261262   9.362   4.630  11.982
53746SOL     OW61263   9.440   5.545  12.743
53746SOL    HW161264   9.430   5.530  12.842
53746SOL    HW261265   9.354   5.581  12.707
53747SOL     OW61266  10.175   4.072  11.367
53747SOL    HW161267  10.234   4.135  11.318
53747SOL    HW261268  10.194   3.978  11.338
53748SOL     OW61269  10.672   4.868  11.717
53748SOL    HW161270  10.755   4.839  11.669
53748SOL    HW261271  10.623   4.935  11.661
53749SOL     OW61272   9.860   3.920  12.057
53749SOL    HW161273   9.855   3.915  12.157
53749SOL    HW261274   9.862   4.016  12.028
53750SOL     OW61275  10.318   5.180  11.649
53750SOL    HW161276  10.272   5.252  11.597
53750SOL    HW261277  10.314   5.200  11.747
53751SOL     OW61278   9.661   5.525  12.025
53751SOL    HW161279   9.711   5.439  12.031
53751SOL    HW261280   9.726   5.602  12.022
53752SOL     OW61281  11.105   4.790  12.045
53752SOL    HW161282  11.043   4.775  11.969
53752SOL    HW261283  11.053   4.801  12.130
53753SOL     OW61284   9.631   4.667  11.414
53753SOL    HW161285   9.713   4.706  11.372
53753SOL    HW261286   9.604   4.585  11.365
53754SOL     OW61287  10.768   4.459  11.900
53754SOL    HW161288  10.763   4.394  11.975
53754SOL    HW261289  10.848   4.518  11.913
53755SOL     OW61290  10.421   5.500  11.409
53755SOL    HW161291  10.361   5.438  11.459
53755SOL    HW261292  10.452   5.456  11.324
53756SOL     OW61293   9.512   4.009  12.670
53756SOL    HW161294   9.432   4.069  12.657
53756SOL    HW261295   9.502   3.960  12.756
53757SOL     OW61296  10.942   5.101  11.253
53757SOL    HW161297  10.910   5.195  11.243
53757SOL    HW261298  10.866   5.038  11.241
53758SOL     OW61299   9.774   5.467  11.495
53758SOL    HW161300   9.807   5.506  11.581
53758SOL    HW261301   9.850   5.460  11.430
53759SOL     OW61302  10.710   3.831  11.598
53759SOL    HW161303  10.686   3.794  11.508
53759SOL    HW261304  10.809   3.847  11.602
53760SOL     OW61305   9.559   5.509  12.413
53760SOL    HW161306   9.616   5.444  12.463
53760SOL    HW261307   9.543   5.476  12.320
53761SOL     OW61308  10.250   5.422  12.076
53761SOL    HW161309  10.330   5.365  12.097
53761SOL    HW261310  10.201   5.382  11.999
53762SOL     OW61311   9.692   4.424  11.652
53762SOL    HW161312   9.737   4.334  11.649
53762SOL    HW261313   9.598   4.413  11.685
53763SOL     OW61314   9.924   3.846  11.289
53763SOL    HW161315  10.022   3.824  11.296
53763SOL    HW261316   9.893   3.829  11.196
53764SOL     OW61317  10.198   5.238  12.367
53764SOL    HW161318  10.175   5.213  12.273
53764SOL    HW261319  10.259   5.169  12.406
53765SOL     OW61320  10.113   5.126  12.096
53765SOL    HW161321  10.203   5.140  12.054
53765SOL    HW261322  10.042   5.128  12.025
53766SOL     OW61323  10.232   4.227  12.071
53766SOL    HW161324  10.207   4.218  11.975
53766SOL    HW261325  10.280   4.145  12.102
53767SOL     OW61326   9.849   3.788  11.684
53767SOL    HW161327   9.768   3.789  11.742
53767SOL    HW261328   9.852   3.871  11.629
53768SOL     OW61329  10.744   4.912  11.213
53768SOL    HW161330  10.776   4.836  11.270
53768SOL    HW261331  10.652   4.939  11.243
53769SOL     OW61332   9.607   3.759  11.343
53769SOL    HW161333   9.656   3.843  11.322
53769SOL    HW261334   9.669   3.694  11.388
53770SOL     OW61335  10.245   3.960  11.652
53770SOL    HW161336  10.197   4.001  11.574
53770SOL    HW261337  10.344   3.958  11.633
53771SOL     OW61338  10.537   5.294  11.965
53771SOL    HW161339  10.558   5.368  11.900
53771SOL    HW261340  10.605   5.294  12.038
53772SOL     OW61341   9.769   4.876  11.913
53772SOL    HW161342   9.698   4.849  11.978
53772SOL    HW261343   9.743   4.848  11.820
53773SOL     OW61344  10.581   5.521  11.763
53773SOL    HW161345  10.625   5.585  11.699
53773SOL    HW261346  10.531   5.573  11.833
53774SOL     OW61347  10.342   4.273  11.188
53774SOL    HW161348  10.301   4.355  11.149
53774SOL    HW261349  10.406   4.299  11.261
53775SOL     OW61350   9.388   4.280  12.558
53775SOL    HW161351   9.480   4.279  12.517
53775SOL    HW261352   9.382   4.354  12.625
53776SOL     OW61353   9.871   3.946  12.319
53776SOL    HW161354   9.909   3.862  12.356
53776SOL    HW261355   9.783   3.965  12.363
53777SOL     OW61356  10.176   4.178  11.814
53777SOL    HW161357  10.144   4.250  11.752
53777SOL    HW261358  10.200   4.097  11.761
53778SOL     OW61359  10.327   3.763  11.925
53778SOL    HW161360  10.255   3.768  11.856
53778SOL    HW261361  10.303   3.694  11.994
53779SOL     OW61362  10.739   4.897  12.039
53779SOL    HW161363  10.684   4.813  12.032
53779SOL    HW261364  10.765   4.926  11.947
53780SOL     OW61365  10.776   4.314  12.164
53780SOL    HW161366  10.746   4.219  12.171
53780SOL    HW261367  10.849   4.330  12.230
53781SOL     OW61368  11.167   4.557  11.549
53781SOL    HW161369  11.209   4.493  11.613
53781SOL    HW261370  11.129   4.506  11.471
53782SOL     OW61371   9.798   5.109  11.346
53782SOL    HW161372   9.711   5.094  11.393
53782SOL    HW261373   9.781   5.135  11.251
53783SOL     OW61374  10.974   5.004  11.829
53783SOL    HW161375  11.073   5.012  11.843
53783SOL    HW261376  10.929   5.088  11.860
53784SOL     OW61377  10.700   4.299  11.250
53784SOL    HW161378  10.646   4.278  11.331
53784SOL    HW261379  10.791   4.258  11.259
53785SOL     OW61380   9.837   3.980  11.500
53785SOL    HW161381   9.864   3.921  11.425
53785SOL    HW261382   9.837   4.075  11.469
53786SOL     OW61383  10.374   5.071  12.512
53786SOL    HW161384  10.294   5.048  12.567
53786SOL    HW261385  10.457   5.045  12.561
53787SOL     OW61386  10.421   4.919  12.272
53787SOL    HW161387  10.381   4.963  12.353
53787SOL    HW261388  10.380   4.956  12.189
53788SOL     OW61389  10.948   4.823  12.251
53788SOL    HW161390  10.953   4.904  12.310
53788SOL    HW261391  10.862   4.825  12.200
53789SOL     OW61392  10.225   3.813  12.574
53789SOL    HW161393  10.250   3.793  12.479
53789SOL    HW261394  10.297   3.869  12.616
53790SOL     OW61395  10.015   4.774  11.540
53790SOL    HW161396  10.001   4.781  11.639
53790SOL    HW261397  10.099   4.723  11.522
53791SOL     OW61398   9.720   4.537  12.423
53791SOL    HW161399   9.806   4.549  12.473
53791SOL    HW261400   9.678   4.450  12.450
53792SOL     OW61401  10.584   4.110  12.434
53792SOL    HW161402  10.605   4.184  12.498
53792SOL    HW261403  10.495   4.127  12.391
53793SOL     OW61404   9.374   5.288  12.503
53793SOL    HW161405   9.328   5.370  12.469
53793SOL    HW261406   9.472   5.307  12.512
53794SOL     OW61407   9.677   4.824  11.673
53794SOL    HW161408   9.670   4.907  11.617
53794SOL    HW261409   9.681   4.744  11.613
53795SOL     OW61410   9.876   4.261  12.037
53795SOL    HW161411   9.888   4.327  11.963
53795SOL    HW261412   9.922   4.295  12.120
53796SOL     OW61413  10.562   5.072  11.560
53796SOL    HW161414  10.612   5.149  11.600
53796SOL    HW261415  10.467   5.074  11.592
53797SOL     OW61416  10.582   5.169  12.314
53797SOL    HW161417  10.629   5.182  12.401
53797SOL    HW261418  10.516   5.095  12.323
53798SOL     OW61419  10.892   4.363  11.644
53798SOL    HW161420  10.861   4.424  11.717
53798SOL    HW261421  10.942   4.415  11.575
53799SOL     OW61422   9.664   5.234  12.501
53799SOL    HW161423   9.643   5.190  12.414
53799SOL    HW261424   9.761   5.260  12.504
53800SOL     OW61425   9.712   4.475  12.770
53800SOL    HW161426   9.780   4.530  12.723
53800SOL    HW261427   9.752   4.387  12.797
53801SOL     OW61428  10.897   4.503  12.842
53801SOL    HW161429  10.805   4.541  12.837
53801SOL    HW261430  10.957   4.550  12.777
53802SOL     OW61431   9.883   4.594  12.201
53802SOL    HW161432   9.927   4.683  12.192
53802SOL    HW261433   9.820   4.594  12.278
53803SOL     OW61434  10.670   4.586  12.217
53803SOL    HW161435  10.595   4.586  12.151
53803SOL    HW261436  10.707   4.494  12.226
53804SOL     OW61437  10.519   4.249  11.447
53804SOL    HW161438  10.532   4.165  11.501
53804SOL    HW261439  10.490   4.323  11.507
53805SOL     OW61440   9.617   3.937  12.403
53805SOL    HW161441   9.594   3.974  12.493
53805SOL    HW261442   9.587   3.842  12.397
53806SOL     OW61443   9.347   5.034  12.454
53806SOL    HW161444   9.400   4.985  12.522
53806SOL    HW261445   9.369   5.132  12.459
53807SOL     OW61446  10.042   4.358  12.236
53807SOL    HW161447  10.101   4.332  12.160
53807SOL    HW261448  10.014   4.454  12.225
53808SOL     OW61449   9.617   3.787  11.790
53808SOL    HW161450   9.606   3.881  11.823
53808SOL    HW261451   9.612   3.724  11.867
53809SOL     OW61452  10.932   4.091  11.546
53809SOL    HW161453  10.934   4.015  11.610
53809SOL    HW261454  10.884   4.168  11.586
53810SOL     OW61455  10.333   4.490  12.138
53810SOL    HW161456  10.348   4.511  12.234
53810SOL    HW261457  10.303   4.395  12.129
53811SOL     OW61458  10.290   5.297  12.872
53811SOL    HW161459  10.270   5.341  12.784
53811SOL    HW261460  10.329   5.206  12.856
53812SOL     OW61461  10.850   3.998  11.297
53812SOL    HW161462  10.789   3.923  11.320
53812SOL    HW261463  10.872   4.050  11.380
53813SOL     OW61464  10.613   4.562  11.214
53813SOL    HW161465  10.647   4.469  11.229
53813SOL    HW261466  10.631   4.589  11.119
53814SOL     OW61467  10.378   5.057  12.021
53814SOL    HW161468  10.385   4.973  11.966
53814SOL    HW261469  10.440   5.126  11.985
53815SOL     OW61470   9.629   4.534  12.121
53815SOL    HW161471   9.722   4.570  12.126
53815SOL    HW261472   9.623   4.449  12.173
53816SOL     OW61473   9.649   4.233  12.178
53816SOL    HW161474   9.597   4.150  12.161
53816SOL    HW261475   9.726   4.238  12.114
53817SOL     OW61476  10.448   4.104  12.850
53817SOL    HW161477  10.403   4.167  12.914
53817SOL    HW261478  10.541   4.135  12.833
53818SOL     OW61479  10.470   3.931  12.649
53818SOL    HW161480  10.470   3.995  12.726
53818SOL    HW261481  10.498   3.979  12.566
53819SOL     OW61482   9.318   5.050  11.372
53819SOL    HW161483   9.225   5.071  11.341
53819SOL    HW261484   9.328   4.951  11.385
53820SOL     OW61485   9.398   5.525  12.099
53820SOL    HW161486   9.356   5.439  12.072
53820SOL    HW261487   9.492   5.528  12.065
53821SOL     OW61488   9.814   5.292  12.082
53821SOL    HW161489   9.880   5.366  12.091
53821SOL    HW261490   9.858   5.213  12.040
53822SOL     OW61491  10.312   4.520  12.410
53822SOL    HW161492  10.353   4.488  12.496
53822SOL    HW261493  10.216   4.493  12.407
53823SOL     OW61494   9.350   4.268  12.286
53823SOL    HW161495   9.435   4.235  12.245
53823SOL    HW261496   9.363   4.283  12.384
53824SOL     OW61497  10.125   4.296  11.497
53824SOL    HW161498  10.132   4.207  11.451
53824SOL    HW261499  10.031   4.330  11.489
53825SOL     OW61500  10.967   4.328  12.378
53825SOL    HW161501  10.929   4.259  12.440
53825SOL    HW261502  11.049   4.292  12.334
53826SOL     OW61503   9.981   4.188  12.441
53826SOL    HW161504   9.947   4.099  12.411
53826SOL    HW261505  10.007   4.242  12.361
53827SOL     OW61506  10.240   5.402  12.637
53827SOL    HW161507  10.216   5.384  12.542
53827SOL    HW261508  10.270   5.496  12.647
53828SOL     OW61509   9.783   4.224  11.363
53828SOL    HW161510   9.844   4.304  11.367
53828SOL    HW261511   9.688   4.255  11.370
53829SOL     OW61512   9.469   4.861  12.638
53829SOL    HW161513   9.491   4.800  12.714
53829SOL    HW261514   9.479   4.812  12.552
53830SOL     OW61515  10.657   4.783  12.406
53830SOL    HW161516  10.681   4.720  12.332
53830SOL    HW261517  10.567   4.823  12.388
53831SOL     OW61518  10.612   4.579  11.481
53831SOL    HW161519  10.526   4.548  11.523
53831SOL    HW261520  10.608   4.565  11.382
53832SOL     OW61521  11.069   5.471  12.326
53832SOL    HW161522  11.130   5.501  12.253
53832SOL    HW261523  11.031   5.382  12.304
53833SOL     OW61524  10.562   5.455  12.300
53833SOL    HW161525  10.646   5.460  12.246
53833SOL    HW261526  10.539   5.359  12.318
53834SOL     OW61527   9.393   4.982  12.194
53834SOL    HW161528   9.388   4.981  12.294
53834SOL    HW261529   9.310   4.941  12.156
53835SOL     OW61530  11.036   3.859  11.695
53835SOL    HW161531  11.109   3.842  11.628
53835SOL    HW261532  11.005   3.772  11.733
53836SOL     OW61533  10.698   5.297  11.649
53836SOL    HW161534  10.765   5.309  11.575
53836SOL    HW261535  10.658   5.386  11.672
53837SOL     OW61536  10.590   4.651  11.844
53837SOL    HW161537  10.650   4.570  11.846
53837SOL    HW261538  10.630   4.720  11.784
53838SOL     OW61539   9.982   5.340  11.326
53838SOL    HW161540   9.991   5.350  11.227
53838SOL    HW261541   9.942   5.251  11.347
53839SOL     OW61542  10.960   5.444  12.566
53839SOL    HW161543  11.013   5.454  12.482
53839SOL    HW261544  10.933   5.534  12.600
53840SOL     OW61545  11.151   3.899  12.135
53840SOL    HW161546  11.190   3.814  12.099
53840SOL    HW261547  11.053   3.901  12.116
53841SOL     OW61548   9.573   4.050  11.892
53841SOL    HW161549   9.494   4.101  11.858
53841SOL    HW261550   9.564   4.035  11.990
53842SOL     OW61551  10.504   5.336  11.203
53842SOL    HW161552  10.510   5.243  11.240
53842SOL    HW261553  10.445   5.336  11.123
53843SOL     OW61554  10.132   4.726  12.544
53843SOL    HW161555  10.172   4.725  12.452
53843SOL    HW261556  10.142   4.818  12.584
53844SOL     OW61557  10.226   4.634  11.463
53844SOL    HW161558  10.289   4.672  11.395
53844SOL    HW261559  10.266   4.551  11.502
53845SOL     OW61560  10.814   5.331  11.216
53845SOL    HW161561  10.722   5.368  11.223
53845SOL    HW261562  10.852   5.351  11.126
53846SOL     OW61563   9.682   5.012  12.662
53846SOL    HW161564   9.669   5.105  12.628
53846SOL    HW261565   9.598   4.960  12.649
53847SOL     OW61566  10.924   5.016  12.461
53847SOL    HW161567  10.984   5.019  12.541
53847SOL    HW261568  10.849   5.080  12.474
53848SOL     OW61569  10.349   4.822  11.868
53848SOL    HW161570  10.279   4.775  11.922
53848SOL    HW261571  10.408   4.754  11.825
53849SOL     OW61572  10.324   3.960  12.143
53849SOL    HW161573  10.316   3.924  12.050
53849SOL    HW261574  10.322   3.884  12.208
53850SOL     OW61575   9.900   5.211  11.663
53850SOL    HW161576   9.942   5.153  11.593
53850SOL    HW261577   9.856   5.290  11.619
53851SOL     OW61578  11.019   4.109  12.553
53851SOL    HW161579  11.092   4.178  12.557
53851SOL    HW261580  11.047   4.034  12.494
53852SOL     OW61581   9.565   5.072  11.462
53852SOL    HW161582   9.469   5.073  11.435
53852SOL    HW261583   9.577   5.125  11.546
53853SOL     OW61584   9.385   4.069  11.205
53853SOL    HW161585   9.293   4.041  11.176
53853SOL    HW261586   9.416   4.146  11.149
53854SOL     OW61587  10.750   4.580  12.570
53854SOL    HW161588  10.693   4.632  12.507
53854SOL    HW261589  10.846   4.592  12.546
53855SOL     OW61590   9.382   3.890  11.490
53855SOL    HW161591   9.365   3.973  11.436
53855SOL    HW261592   9.472   3.853  11.468
53856SOL     OW61593  10.493   5.059  11.291
53856SOL    HW161594  10.394   5.048  11.293
53856SOL    HW261595  10.527   5.074  11.384
53857SOL     OW61596   9.923   4.566  12.603
53857SOL    HW161597   9.979   4.647  12.586
53857SOL    HW261598   9.982   4.486  12.606
53858SOL     OW61599  10.803   5.491  12.131
53858SOL    HW161600  10.836   5.555  12.062
53858SOL    HW261601  10.869   5.485  12.206
53859SOL     OW61602   9.700   5.465  12.732
53859SOL    HW161603   9.609   5.506  12.730
53859SOL    HW261604   9.693   5.371  12.764
53860SOL     OW61605  10.984   4.607  12.426
53860SOL    HW161606  10.957   4.518  12.389
53860SOL    HW261607  10.985   4.675  12.353
53861SOL     OW61608  10.535   4.049  11.621
53861SOL    HW161609  10.600   3.975  11.610
53861SOL    HW261610  10.555   4.099  11.705
53862SOL     OW61611   9.904   4.469  11.824
53862SOL    HW161612   9.954   4.554  11.805
53862SOL    HW261613   9.816   4.471  11.776
53863SOL     OW61614  11.087   4.066  12.814
53863SOL    HW161615  11.070   4.097  12.720
53863SOL    HW261616  11.003   4.029  12.852
53864SOL     OW61617  11.040   4.658  12.689
53864SOL    HW161618  11.078   4.749  12.704
53864SOL    HW261619  11.032   4.641  12.590
53865SOL     OW61620  10.169   5.098  11.188
53865SOL    HW161621  10.123   5.113  11.276
53865SOL    HW261622  10.213   5.183  11.158
53866SOL     OW61623   9.971   5.514  12.125
53866SOL    HW161624   9.925   5.602  12.112
53866SOL    HW261625  10.070   5.526  12.118
53867SOL     OW61626  10.169   4.680  12.033
53867SOL    HW161627  10.223   4.611  12.081
53867SOL    HW261628  10.137   4.749  12.099
53868SOL     OW61629  10.393   4.708  11.259
53868SOL    HW161630  10.370   4.761  11.177
53868SOL    HW261631  10.474   4.652  11.240
53869SOL     OW61632  11.171   5.293  12.023
53869SOL    HW161633  11.100   5.281  11.953
53869SOL    HW261634  11.172   5.214  12.083
53870SOL     OW61635   9.389   4.964  11.825
53870SOL    HW161636   9.388   4.917  11.913
53870SOL    HW261637   9.471   4.936  11.774
53871SOL     OW61638  11.134   3.916  12.399
53871SOL    HW161639  11.130   3.826  12.443
53871SOL    HW261640  11.137   3.905  12.300
53872SOL     OW61641   9.738   4.148  11.692
53872SOL    HW161642   9.768   4.076  11.630
53872SOL    HW261643   9.699   4.108  11.775
53873SOL     OW61644  11.015   5.211  12.276
53873SOL    HW161645  10.922   5.186  12.249
53873SOL    HW261646  11.041   5.161  12.358
53874SOL     OW61647   9.627   4.271  12.452
53874SOL    HW161648   9.665   4.212  12.524
53874SOL    HW261649   9.667   4.245  12.364
53875SOL     OW61650  10.122   5.310  11.859
53875SOL    HW161651  10.154   5.320  11.765
53875SOL    HW261652  10.043   5.248  11.861
53876SOL     OW61653  10.734   3.938  12.284
53876SOL    HW161654  10.786   3.873  12.339
53876SOL    HW261655  10.685   4.001  12.345
53877SOL     OW61656  10.311   3.758  12.326
53877SOL    HW161657  10.248   3.686  12.295
53877SOL    HW261658  10.404   3.722  12.326
53878SOL     OW61659  10.080   5.054  11.473
53878SOL    HW161660  10.034   4.967  11.490
53878SOL    HW261661  10.171   5.051  11.514
53879SOL     OW61662   9.928   5.291  12.456
53879SOL    HW161663   9.923   5.373  12.513
53879SOL    HW261664  10.017   5.288  12.411
53880SOL     OW61665  10.662   3.776  11.340
53880SOL    HW161666  10.697   3.735  11.256
53880SOL    HW261667  10.572   3.738  11.360
53881SOL     OW61668  10.610   4.177  11.863
53881SOL    HW161669  10.551   4.257  11.867
53881SOL    HW261670  10.625   4.142  11.956
53882SOL     OW61671  10.903   3.945  12.054
53882SOL    HW161672  10.819   3.944  12.108
53882SOL    HW261673  10.905   4.028  11.998
53883SOL     OW61674   9.349   4.801  11.472
53883SOL    HW161675   9.448   4.790  11.463
53883SOL    HW261676   9.309   4.715  11.504
53884SOL     OW61677  10.185   5.370  11.509
53884SOL    HW161678  10.108   5.335  11.455
53884SOL    HW261679  10.153   5.441  11.571
53885SOL     OW61680   9.540   6.214   0.113
53885SOL    HW161681   9.447   6.212   0.150
53885SOL    HW261682   9.541   6.175   0.021
53886SOL     OW61683   9.535   5.861   0.996
53886SOL    HW161684   9.570   5.844   1.088
53886SOL    HW261685   9.447   5.816   0.984
53887SOL     OW61686   9.329   5.954   0.647
53887SOL    HW161687   9.247   5.997   0.686
53887SOL    HW261688   9.301   5.881   0.584
53888SOL     OW61689   9.879   6.861   1.165
53888SOL    HW161690   9.786   6.854   1.128
53888SOL    HW261691   9.890   6.950   1.209
53889SOL     OW61692  10.865   7.097   0.703
53889SOL    HW161693  10.808   7.081   0.784
53889SOL    HW261694  10.806   7.107   0.623
53890SOL     OW61695  10.445   6.289   0.717
53890SOL    HW161696  10.502   6.367   0.692
53890SOL    HW261697  10.385   6.315   0.793
53891SOL     OW61698  11.065   6.193   0.231
53891SOL    HW161699  11.053   6.180   0.132
53891SOL    HW261700  11.035   6.112   0.280
53892SOL     OW61701  10.078   6.730   1.023
53892SOL    HW161702  10.000   6.747   1.083
53892SOL    HW261703  10.112   6.817   0.987
53893SOL     OW61704  10.160   6.384   1.823
53893SOL    HW161705  10.156   6.460   1.888
53893SOL    HW261706  10.182   6.420   1.732
53894SOL     OW61707   9.995   6.598   0.665
53894SOL    HW161708  10.064   6.582   0.735
53894SOL    HW261709   9.922   6.655   0.703
53895SOL     OW61710   9.996   6.747   1.803
53895SOL    HW161711  10.056   6.826   1.817
53895SOL    HW261712   9.910   6.778   1.762
53896SOL     OW61713   9.645   7.021   1.061
53896SOL    HW161714   9.567   6.990   1.008
53896SOL    HW261715   9.703   7.079   1.004
53897SOL     OW61716  10.770   7.091   1.339
53897SOL    HW161717  10.794   7.185   1.365
53897SOL    HW261718  10.754   7.037   1.421
53898SOL     OW61719   9.748   5.978   1.499
53898SOL    HW161720   9.830   5.922   1.508
53898SOL    HW261721   9.667   5.920   1.503
53899SOL     OW61722  10.913   6.033   0.737
53899SOL    HW161723  10.839   6.079   0.687
53899SOL    HW261724  10.964   6.101   0.790
53900SOL     OW61725   9.541   7.299   0.483
53900SOL    HW161726   9.575   7.376   0.537
53900SOL    HW261727   9.585   7.299   0.393
53901SOL     OW61728  10.437   6.927   1.690
53901SOL    HW161729  10.484   6.927   1.778
53901SOL    HW261730  10.389   6.840   1.679
53902SOL     OW61731   9.540   7.020   0.538
53902SOL    HW161732   9.514   7.116   0.538
53902SOL    HW261733   9.469   6.966   0.583
53903SOL     OW61734   9.550   6.677   0.886
53903SOL    HW161735   9.564   6.593   0.938
53903SOL    HW261736   9.495   6.741   0.941
53904SOL     OW61737   9.930   7.372   1.439
53904SOL    HW161738   9.838   7.355   1.474
53904SOL    HW261739   9.958   7.464   1.465
53905SOL     OW61740   9.916   6.550   0.123
53905SOL    HW161741   9.923   6.634   0.069
53905SOL    HW261742   9.962   6.563   0.211
53906SOL     OW61743  10.904   5.700   1.480
53906SOL    HW161744  10.886   5.767   1.408
53906SOL    HW261745  10.901   5.746   1.569
53907SOL     OW61746   9.432   6.229   0.563
53907SOL    HW161747   9.387   6.141   0.580
53907SOL    HW261748   9.431   6.283   0.647
53908SOL     OW61749  11.152   7.353   0.359
53908SOL    HW161750  11.206   7.324   0.439
53908SOL    HW261751  11.182   7.443   0.330
53909SOL     OW61752   9.337   7.182   0.117
53909SOL    HW161753   9.318   7.086   0.138
53909SOL    HW261754   9.304   7.240   0.192
53910SOL     OW61755  10.999   6.508   0.612
53910SOL    HW161756  11.094   6.479   0.620
53910SOL    HW261757  10.991   6.573   0.537
53911SOL     OW61758  10.951   6.694   0.432
53911SOL    HW161759  11.037   6.696   0.380
53911SOL    HW261760  10.965   6.741   0.520
53912SOL     OW61761   9.423   6.323   1.597
53912SOL    HW161762   9.511   6.310   1.642
53912SOL    HW261763   9.410   6.420   1.575
53913SOL     OW61764   9.923   6.951   0.726
53913SOL    HW161765   9.874   6.864   0.735
53913SOL    HW261766   9.900   6.994   0.639
53914SOL     OW61767  10.603   6.814   1.423
53914SOL    HW161768  10.640   6.741   1.365
53914SOL    HW261769  10.655   6.819   1.508
53915SOL     OW61770  10.119   5.590   0.502
53915SOL    HW161771  10.159   5.681   0.493
53915SOL    HW261772  10.019   5.598   0.508
53916SOL     OW61773   9.507   6.562   1.264
53916SOL    HW161774   9.596   6.517   1.250
53916SOL    HW261775   9.434   6.497   1.245
53917SOL     OW61776  10.835   6.585   0.190
53917SOL    HW161777  10.772   6.509   0.203
53917SOL    HW261778  10.883   6.603   0.276
53918SOL     OW61779  10.497   7.378   1.616
53918SOL    HW161780  10.521   7.438   1.540
53918SOL    HW261781  10.504   7.283   1.586
53919SOL     OW61782   9.627   5.837   1.801
53919SOL    HW161783   9.698   5.908   1.807
53919SOL    HW261784   9.539   5.876   1.829
53920SOL     OW61785  10.776   7.003   0.953
53920SOL    HW161786  10.717   7.009   1.033
53920SOL    HW261787  10.761   6.915   0.907
53921SOL     OW61788  10.977   7.300   0.572
53921SOL    HW161789  10.936   7.277   0.484
53921SOL    HW261790  10.959   7.226   0.637
53922SOL     OW61791   9.908   6.315   0.270
53922SOL    HW161792   9.932   6.384   0.202
53922SOL    HW261793   9.830   6.348   0.324
53923SOL     OW61794  10.591   5.931   0.944
53923SOL    HW161795  10.505   5.881   0.931
53923SOL    HW261796  10.653   5.877   1.000
53924SOL     OW61797  10.886   7.248   0.307
53924SOL    HW161798  10.975   7.294   0.310
53924SOL    HW261799  10.865   7.224   0.212
53925SOL     OW61800  10.117   6.191   1.465
53925SOL    HW161801  10.070   6.188   1.554
53925SOL    HW261802  10.066   6.136   1.399
53926SOL     OW61803  10.704   6.055   1.674
53926SOL    HW161804  10.684   6.098   1.762
53926SOL    HW261805  10.782   5.993   1.683
53927SOL     OW61806  10.283   6.476   1.572
53927SOL    HW161807  10.329   6.392   1.543
53927SOL    HW261808  10.227   6.510   1.497
53928SOL     OW61809  10.301   5.996   1.242
53928SOL    HW161810  10.224   6.030   1.296
53928SOL    HW261811  10.267   5.945   1.163
53929SOL     OW61812  10.351   6.287   0.429
53929SOL    HW161813  10.377   6.283   0.525
53929SOL    HW261814  10.266   6.236   0.415
53930SOL     OW61815   9.386   6.397   0.789
53930SOL    HW161816   9.485   6.385   0.798
53930SOL    HW261817   9.362   6.492   0.810
53931SOL     OW61818   9.440   7.407   1.571
53931SOL    HW161819   9.430   7.392   1.670
53931SOL    HW261820   9.354   7.443   1.535
53932SOL     OW61821  10.175   5.934   0.195
53932SOL    HW161822  10.234   5.997   0.146
53932SOL    HW261823  10.194   5.840   0.166
53933SOL     OW61824  11.029   6.171   1.831
53933SOL    HW161825  11.003   6.260   1.795
53933SOL    HW261826  11.027   6.103   1.758
53934SOL     OW61827  10.672   6.730   0.545
53934SOL    HW161828  10.755   6.701   0.497
53934SOL    HW261829  10.623   6.797   0.489
53935SOL     OW61830   9.860   5.782   0.885
53935SOL    HW161831   9.855   5.777   0.985
53935SOL    HW261832   9.862   5.878   0.856
53936SOL     OW61833  10.318   7.042   0.477
53936SOL    HW161834  10.272   7.114   0.425
53936SOL    HW261835  10.314   7.062   0.575
53937SOL     OW61836   9.661   7.387   0.853
53937SOL    HW161837   9.711   7.301   0.859
53937SOL    HW261838   9.726   7.464   0.850
53938SOL     OW61839  11.105   6.652   0.873
53938SOL    HW161840  11.043   6.637   0.797
53938SOL    HW261841  11.053   6.663   0.958
53939SOL     OW61842  10.537   7.136   1.506
53939SOL    HW161843  10.543   7.059   1.570
53939SOL    HW261844  10.485   7.110   1.426
53940SOL     OW61845   9.631   6.529   0.242
53940SOL    HW161846   9.713   6.568   0.200
53940SOL    HW261847   9.604   6.447   0.193
53941SOL     OW61848  10.768   6.321   0.728
53941SOL    HW161849  10.763   6.256   0.803
53941SOL    HW261850  10.848   6.380   0.741
53942SOL     OW61851   9.771   6.852   1.727
53942SOL    HW161852   9.721   6.853   1.641
53942SOL    HW261853   9.708   6.834   1.803
53943SOL     OW61854  10.421   7.362   0.237
53943SOL    HW161855  10.361   7.300   0.287
53943SOL    HW261856  10.452   7.318   0.152
53944SOL     OW61857   9.512   5.871   1.498
53944SOL    HW161858   9.432   5.931   1.485
53944SOL    HW261859   9.502   5.822   1.584
53945SOL     OW61860  10.942   6.963   0.081
53945SOL    HW161861  10.910   7.057   0.071
53945SOL    HW261862  10.866   6.900   0.069
53946SOL     OW61863   9.774   7.329   0.323
53946SOL    HW161864   9.807   7.368   0.409
53946SOL    HW261865   9.850   7.322   0.258
53947SOL     OW61866  10.710   5.693   0.426
53947SOL    HW161867  10.686   5.656   0.336
53947SOL    HW261868  10.809   5.709   0.430
53948SOL     OW61869   9.559   7.371   1.241
53948SOL    HW161870   9.616   7.306   1.291
53948SOL    HW261871   9.543   7.338   1.148
53949SOL     OW61872  10.250   7.284   0.904
53949SOL    HW161873  10.330   7.227   0.925
53949SOL    HW261874  10.201   7.244   0.827
53950SOL     OW61875   9.692   6.286   0.480
53950SOL    HW161876   9.737   6.196   0.477
53950SOL    HW261877   9.598   6.275   0.513
53951SOL     OW61878  10.857   5.808   1.729
53951SOL    HW161879  10.852   5.845   1.821
53951SOL    HW261880  10.785   5.739   1.717
53952SOL     OW61881   9.924   5.708   0.117
53952SOL    HW161882  10.022   5.686   0.124
53952SOL    HW261883   9.893   5.691   0.024
53953SOL     OW61884  10.091   5.850   1.749
53953SOL    HW161885  10.158   5.789   1.792
53953SOL    HW261886  10.018   5.869   1.814
53954SOL     OW61887  10.198   7.100   1.195
53954SOL    HW161888  10.175   7.075   1.101
53954SOL    HW261889  10.259   7.031   1.234
53955SOL     OW61890  10.661   6.176   1.433
53955SOL    HW161891  10.689   6.133   1.518
53955SOL    HW261892  10.686   6.272   1.434
53956SOL     OW61893  10.113   6.988   0.924
53956SOL    HW161894  10.203   7.002   0.882
53956SOL    HW261895  10.042   6.990   0.853
53957SOL     OW61896  10.232   6.089   0.899
53957SOL    HW161897  10.207   6.080   0.803
53957SOL    HW261898  10.280   6.007   0.930
53958SOL     OW61899   9.849   5.650   0.512
53958SOL    HW161900   9.768   5.651   0.570
53958SOL    HW261901   9.852   5.733   0.457
53959SOL     OW61902  10.744   6.774   0.041
53959SOL    HW161903  10.776   6.698   0.098
53959SOL    HW261904  10.652   6.801   0.071
53960SOL     OW61905   9.607   5.621   0.171
53960SOL    HW161906   9.656   5.705   0.150
53960SOL    HW261907   9.669   5.556   0.216
53961SOL     OW61908  10.245   5.822   0.480
53961SOL    HW161909  10.197   5.863   0.402
53961SOL    HW261910  10.344   5.820   0.461
53962SOL     OW61911  10.386   6.269   1.464
53962SOL    HW161912  10.306   6.208   1.467
53962SOL    HW261913  10.467   6.216   1.440
53963SOL     OW61914  10.537   7.156   0.793
53963SOL    HW161915  10.558   7.230   0.728
53963SOL    HW261916  10.605   7.156   0.866
53964SOL     OW61917   9.769   6.738   0.741
53964SOL    HW161918   9.698   6.711   0.806
53964SOL    HW261919   9.743   6.710   0.648
53965SOL     OW61920  10.581   7.383   0.591
53965SOL    HW161921  10.625   7.447   0.527
53965SOL    HW261922  10.531   7.435   0.661
53966SOL     OW61923  10.342   6.135   0.016
53966SOL    HW161924  10.301   6.217  -0.023
53966SOL    HW261925  10.406   6.161   0.089
53967SOL     OW61926   9.388   6.142   1.386
53967SOL    HW161927   9.480   6.141   1.345
53967SOL    HW261928   9.382   6.216   1.453
53968SOL     OW61929   9.871   5.808   1.147
53968SOL    HW161930   9.909   5.724   1.184
53968SOL    HW261931   9.783   5.827   1.191
53969SOL     OW61932  10.176   6.040   0.642
53969SOL    HW161933  10.144   6.112   0.580
53969SOL    HW261934  10.200   5.959   0.589
53970SOL     OW61935  10.327   5.625   0.753
53970SOL    HW161936  10.255   5.630   0.684
53970SOL    HW261937  10.303   5.556   0.822
53971SOL     OW61938  10.739   6.759   0.867
53971SOL    HW161939  10.684   6.675   0.860
53971SOL    HW261940  10.765   6.788   0.775
53972SOL     OW61941  10.776   6.176   0.992
53972SOL    HW161942  10.746   6.081   0.999
53972SOL    HW261943  10.849   6.192   1.058
53973SOL     OW61944  11.167   6.419   0.377
53973SOL    HW161945  11.209   6.355   0.441
53973SOL    HW261946  11.129   6.368   0.299
53974SOL     OW61947   9.798   6.971   0.174
53974SOL    HW161948   9.711   6.956   0.221
53974SOL    HW261949   9.781   6.997   0.079
53975SOL     OW61950  10.974   6.866   0.657
53975SOL    HW161951  11.073   6.874   0.671
53975SOL    HW261952  10.929   6.950   0.688
53976SOL     OW61953  10.700   6.161   0.078
53976SOL    HW161954  10.646   6.140   0.159
53976SOL    HW261955  10.791   6.120   0.087
53977SOL     OW61956   9.837   5.842   0.328
53977SOL    HW161957   9.864   5.783   0.253
53977SOL    HW261958   9.837   5.937   0.297
53978SOL     OW61959  11.064   6.809   1.588
53978SOL    HW161960  11.155   6.770   1.575
53978SOL    HW261961  11.072   6.905   1.612
53979SOL     OW61962  10.374   6.933   1.340
53979SOL    HW161963  10.294   6.910   1.395
53979SOL    HW261964  10.457   6.907   1.389
53980SOL     OW61965  10.902   7.215   1.625
53980SOL    HW161966  10.929   7.249   1.535
53980SOL    HW261967  10.981   7.177   1.671
53981SOL     OW61968  10.421   6.781   1.100
53981SOL    HW161969  10.381   6.825   1.181
53981SOL    HW261970  10.380   6.818   1.017
53982SOL     OW61971  10.948   6.685   1.079
53982SOL    HW161972  10.953   6.766   1.138
53982SOL    HW261973  10.862   6.687   1.028
53983SOL     OW61974  10.225   5.675   1.402
53983SOL    HW161975  10.250   5.655   1.307
53983SOL    HW261976  10.297   5.731   1.444
53984SOL     OW61977  10.290   6.702   1.719
53984SOL    HW161978  10.191   6.708   1.729
53984SOL    HW261979  10.313   6.622   1.663
53985SOL     OW61980  10.015   6.636   0.368
53985SOL    HW161981  10.001   6.643   0.467
53985SOL    HW261982  10.099   6.585   0.350
53986SOL     OW61983   9.720   6.399   1.251
53986SOL    HW161984   9.806   6.411   1.301
53986SOL    HW261985   9.678   6.312   1.278
53987SOL     OW61986  10.584   5.972   1.262
53987SOL    HW161987  10.605   6.046   1.326
53987SOL    HW261988  10.495   5.989   1.219
53988SOL     OW61989   9.374   7.150   1.331
53988SOL    HW161990   9.328   7.232   1.297
53988SOL    HW261991   9.472   7.169   1.340
53989SOL     OW61992   9.677   6.686   0.501
53989SOL    HW161993   9.670   6.769   0.445
53989SOL    HW261994   9.681   6.606   0.441
53990SOL     OW61995   9.876   6.123   0.865
53990SOL    HW161996   9.888   6.189   0.791
53990SOL    HW261997   9.922   6.157   0.948
53991SOL     OW61998  10.562   6.934   0.388
53991SOL    HW161999  10.612   7.011   0.428
53991SOL    HW262000  10.467   6.936   0.420
53992SOL     OW62001  10.582   7.031   1.142
53992SOL    HW162002  10.629   7.044   1.229
53992SOL    HW262003  10.516   6.957   1.151
53993SOL     OW62004  10.892   6.225   0.472
53993SOL    HW162005  10.861   6.286   0.545
53993SOL    HW262006  10.942   6.277   0.403
53994SOL     OW62007   9.664   7.096   1.329
53994SOL    HW162008   9.643   7.052   1.242
53994SOL    HW262009   9.761   7.122   1.332
53995SOL     OW62010   9.712   6.337   1.598
53995SOL    HW162011   9.780   6.392   1.551
53995SOL    HW262012   9.752   6.249   1.625
53996SOL     OW62013  10.897   6.365   1.670
53996SOL    HW162014  10.805   6.403   1.665
53996SOL    HW262015  10.957   6.412   1.605
53997SOL     OW62016  10.323   5.691   1.770
53997SOL    HW162017  10.329   5.776   1.718
53997SOL    HW262018  10.355   5.615   1.713
53998SOL     OW62019   9.814   5.636   1.740
53998SOL    HW162020   9.772   5.579   1.670
53998SOL    HW262021   9.748   5.705   1.772
53999SOL     OW62022   9.883   6.456   1.029
53999SOL    HW162023   9.927   6.545   1.020
53999SOL    HW262024   9.820   6.456   1.106
54000SOL     OW62025  10.670   6.448   1.045
54000SOL    HW162026  10.595   6.448   0.979
54000SOL    HW262027  10.707   6.356   1.054
54001SOL     OW62028  10.519   6.111   0.275
54001SOL    HW162029  10.532   6.027   0.329
54001SOL    HW262030  10.490   6.185   0.335
54002SOL     OW62031   9.617   5.799   1.231
54002SOL    HW162032   9.594   5.836   1.321
54002SOL    HW262033   9.587   5.704   1.225
54003SOL     OW62034   9.347   6.896   1.282
54003SOL    HW162035   9.400   6.847   1.350
54003SOL    HW262036   9.369   6.994   1.287
54004SOL     OW62037  10.042   6.220   1.064
54004SOL    HW162038  10.101   6.194   0.988
54004SOL    HW262039  10.014   6.316   1.053
54005SOL     OW62040  11.038   6.521   1.854
54005SOL    HW162041  10.992   6.514   1.765
54005SOL    HW262042  10.976   6.565   1.920
54006SOL     OW62043   9.617   5.649   0.618
54006SOL    HW162044   9.606   5.743   0.651
54006SOL    HW262045   9.612   5.586   0.695
54007SOL     OW62046  10.932   5.953   0.374
54007SOL    HW162047  10.934   5.877   0.438
54007SOL    HW262048  10.884   6.030   0.414
54008SOL     OW62049  10.333   6.352   0.966
54008SOL    HW162050  10.348   6.373   1.062
54008SOL    HW262051  10.303   6.257   0.957
54009SOL     OW62052  10.290   7.159   1.700
54009SOL    HW162053  10.270   7.203   1.612
54009SOL    HW262054  10.329   7.068   1.684
54010SOL     OW62055  11.169   7.104   1.605
54010SOL    HW162056  11.183   7.131   1.510
54010SOL    HW262057  11.252   7.126   1.658
54011SOL     OW62058   9.660   6.484   1.804
54011SOL    HW162059   9.736   6.528   1.852
54011SOL    HW262060   9.695   6.437   1.722
54012SOL     OW62061  10.850   5.860   0.125
54012SOL    HW162062  10.789   5.785   0.148
54012SOL    HW262063  10.872   5.912   0.208
54013SOL     OW62064  10.613   6.424   0.042
54013SOL    HW162065  10.647   6.331   0.057
54013SOL    HW262066  10.631   6.451  -0.053
54014SOL     OW62067  10.378   6.919   0.849
54014SOL    HW162068  10.385   6.835   0.794
54014SOL    HW262069  10.440   6.988   0.813
54015SOL     OW62070   9.629   6.396   0.949
54015SOL    HW162071   9.722   6.432   0.954
54015SOL    HW262072   9.623   6.311   1.001
54016SOL     OW62073   9.649   6.095   1.006
54016SOL    HW162074   9.597   6.012   0.989
54016SOL    HW262075   9.726   6.100   0.942
54017SOL     OW62076  10.448   5.966   1.678
54017SOL    HW162077  10.403   6.029   1.742
54017SOL    HW262078  10.541   5.997   1.661
54018SOL     OW62079  10.470   5.793   1.477
54018SOL    HW162080  10.470   5.857   1.554
54018SOL    HW262081  10.498   5.841   1.394
54019SOL     OW62082   9.318   6.912   0.200
54019SOL    HW162083   9.225   6.933   0.169
54019SOL    HW262084   9.328   6.813   0.213
54020SOL     OW62085   9.398   7.387   0.927
54020SOL    HW162086   9.356   7.301   0.900
54020SOL    HW262087   9.492   7.390   0.893
54021SOL     OW62088   9.814   7.154   0.910
54021SOL    HW162089   9.880   7.228   0.919
54021SOL    HW262090   9.858   7.075   0.868
54022SOL     OW62091  10.312   6.382   1.238
54022SOL    HW162092  10.353   6.350   1.324
54022SOL    HW262093  10.216   6.355   1.235
54023SOL     OW62094   9.350   6.130   1.114
54023SOL    HW162095   9.435   6.097   1.073
54023SOL    HW262096   9.363   6.145   1.212
54024SOL     OW62097   9.499   6.106   1.722
54024SOL    HW162098   9.558   6.066   1.652
54024SOL    HW262099   9.441   6.177   1.681
54025SOL     OW62100  10.679   6.536   1.660
54025SOL    HW162101  10.718   6.625   1.680
54025SOL    HW262102  10.689   6.516   1.563
54026SOL     OW62103  10.125   6.158   0.325
54026SOL    HW162104  10.132   6.069   0.279
54026SOL    HW262105  10.031   6.192   0.317
54027SOL     OW62106  10.967   6.190   1.206
54027SOL    HW162107  10.929   6.121   1.268
54027SOL    HW262108  11.049   6.154   1.162
54028SOL     OW62109   9.562   7.150   1.744
54028SOL    HW162110   9.532   7.207   1.820
54028SOL    HW262111   9.555   7.053   1.770
54029SOL     OW62112   9.981   6.050   1.269
54029SOL    HW162113   9.947   5.961   1.239
54029SOL    HW262114  10.007   6.104   1.189
54030SOL     OW62115  10.240   7.264   1.465
54030SOL    HW162116  10.216   7.246   1.370
54030SOL    HW262117  10.270   7.358   1.475
54031SOL     OW62118   9.783   6.086   0.191
54031SOL    HW162119   9.844   6.166   0.195
54031SOL    HW262120   9.688   6.117   0.198
54032SOL     OW62121   9.469   6.723   1.466
54032SOL    HW162122   9.491   6.662   1.542
54032SOL    HW262123   9.479   6.674   1.380
54033SOL     OW62124  10.657   6.645   1.234
54033SOL    HW162125  10.681   6.582   1.160
54033SOL    HW262126  10.567   6.685   1.216
54034SOL     OW62127  10.612   6.441   0.309
54034SOL    HW162128  10.526   6.410   0.351
54034SOL    HW262129  10.608   6.427   0.210
54035SOL     OW62130  11.069   7.333   1.154
54035SOL    HW162131  11.130   7.363   1.081
54035SOL    HW262132  11.031   7.244   1.132
54036SOL     OW62133  10.562   7.317   1.128
54036SOL    HW162134  10.646   7.322   1.074
54036SOL    HW262135  10.539   7.221   1.146
54037SOL     OW62136   9.393   6.844   1.022
54037SOL    HW162137   9.388   6.843   1.122
54037SOL    HW262138   9.310   6.803   0.984
54038SOL     OW62139   9.998   7.248   1.716
54038SOL    HW162140   9.942   7.329   1.725
54038SOL    HW262141  10.050   7.252   1.630
54039SOL     OW62142  10.213   5.672   0.133
54039SOL    HW162143  10.264   5.673   0.047
54039SOL    HW262144  10.269   5.630   0.204
54040SOL     OW62145  11.036   5.721   0.523
54040SOL    HW162146  11.109   5.704   0.456
54040SOL    HW262147  11.005   5.634   0.561
54041SOL     OW62148  10.698   7.159   0.477
54041SOL    HW162149  10.765   7.171   0.403
54041SOL    HW262150  10.658   7.248   0.500
54042SOL     OW62151   9.440   7.380   1.851
54042SOL    HW162152   9.399   7.306   1.904
54042SOL    HW262153   9.504   7.431   1.909
54043SOL     OW62154  10.590   6.513   0.672
54043SOL    HW162155  10.650   6.432   0.674
54043SOL    HW262156  10.630   6.582   0.612
54044SOL     OW62157  10.140   6.859   1.422
54044SOL    HW162158  10.135   6.892   1.517
54044SOL    HW262159  10.054   6.878   1.376
54045SOL     OW62160   9.982   7.202   0.154
54045SOL    HW162161   9.991   7.212   0.055
54045SOL    HW262162   9.942   7.113   0.175
54046SOL     OW62163  10.960   7.306   1.394
54046SOL    HW162164  11.013   7.316   1.310
54046SOL    HW262165  10.933   7.396   1.428
54047SOL     OW62166  11.151   5.761   0.963
54047SOL    HW162167  11.190   5.676   0.927
54047SOL    HW262168  11.053   5.763   0.944
54048SOL     OW62169   9.573   5.912   0.720
54048SOL    HW162170   9.494   5.963   0.686
54048SOL    HW262171   9.564   5.897   0.818
54049SOL     OW62172  10.504   7.198   0.031
54049SOL    HW162173  10.510   7.105   0.068
54049SOL    HW262174  10.445   7.198  -0.049
54050SOL     OW62175  10.132   6.588   1.372
54050SOL    HW162176  10.172   6.587   1.280
54050SOL    HW262177  10.142   6.680   1.412
54051SOL     OW62178  10.226   6.496   0.291
54051SOL    HW162179  10.289   6.534   0.223
54051SOL    HW262180  10.266   6.413   0.330
54052SOL     OW62181  10.814   7.193   0.044
54052SOL    HW162182  10.722   7.230   0.051
54052SOL    HW262183  10.852   7.213  -0.046
54053SOL     OW62184   9.682   6.874   1.490
54053SOL    HW162185   9.669   6.967   1.456
54053SOL    HW262186   9.598   6.822   1.477
54054SOL     OW62187  10.924   6.878   1.289
54054SOL    HW162188  10.984   6.881   1.369
54054SOL    HW262189  10.849   6.942   1.302
54055SOL     OW62190  10.349   6.684   0.696
54055SOL    HW162191  10.279   6.637   0.750
54055SOL    HW262192  10.408   6.616   0.653
54056SOL     OW62193  10.324   5.822   0.971
54056SOL    HW162194  10.316   5.786   0.878
54056SOL    HW262195  10.322   5.746   1.036
54057SOL     OW62196   9.900   7.073   0.491
54057SOL    HW162197   9.942   7.015   0.421
54057SOL    HW262198   9.856   7.152   0.447
54058SOL     OW62199  11.019   5.971   1.381
54058SOL    HW162200  11.092   6.040   1.385
54058SOL    HW262201  11.047   5.896   1.322
54059SOL     OW62202   9.565   6.934   0.290
54059SOL    HW162203   9.469   6.935   0.263
54059SOL    HW262204   9.577   6.987   0.374
54060SOL     OW62205   9.415   6.599   1.726
54060SOL    HW162206   9.338   6.566   1.780
54060SOL    HW262207   9.500   6.569   1.768
54061SOL     OW62208   9.982   5.789   1.489
54061SOL    HW162209  10.072   5.773   1.449
54061SOL    HW262210   9.990   5.794   1.588
54062SOL     OW62211   9.385   5.931   0.033
54062SOL    HW162212   9.293   5.903   0.004
54062SOL    HW262213   9.416   6.008  -0.023
54063SOL     OW62214  10.750   6.442   1.398
54063SOL    HW162215  10.693   6.494   1.335
54063SOL    HW262216  10.846   6.454   1.374
54064SOL     OW62217   9.382   5.752   0.318
54064SOL    HW162218   9.365   5.835   0.264
54064SOL    HW262219   9.472   5.715   0.296
54065SOL     OW62220  10.493   6.921   0.119
54065SOL    HW162221  10.394   6.910   0.121
54065SOL    HW262222  10.527   6.936   0.212
54066SOL     OW62223   9.923   6.428   1.431
54066SOL    HW162224   9.979   6.509   1.414
54066SOL    HW262225   9.982   6.348   1.434
54067SOL     OW62226  10.803   7.353   0.959
54067SOL    HW162227  10.836   7.417   0.890
54067SOL    HW262228  10.869   7.347   1.034
54068SOL     OW62229  10.026   6.151   1.708
54068SOL    HW162230  10.045   6.216   1.782
54068SOL    HW262231  10.086   6.071   1.717
54069SOL     OW62232  10.760   6.806   1.633
54069SOL    HW162233  10.751   6.796   1.732
54069SOL    HW262234  10.856   6.799   1.607
54070SOL     OW62235   9.700   7.327   1.560
54070SOL    HW162236   9.609   7.368   1.558
54070SOL    HW262237   9.693   7.233   1.592
54071SOL     OW62238  10.984   6.469   1.254
54071SOL    HW162239  10.957   6.380   1.217
54071SOL    HW262240  10.985   6.537   1.181
54072SOL     OW62241  10.535   5.911   0.449
54072SOL    HW162242  10.600   5.837   0.438
54072SOL    HW262243  10.555   5.961   0.533
54073SOL     OW62244   9.904   6.331   0.652
54073SOL    HW162245   9.954   6.416   0.633
54073SOL    HW262246   9.816   6.333   0.604
54074SOL     OW62247  11.087   5.928   1.642
54074SOL    HW162248  11.070   5.959   1.548
54074SOL    HW262249  11.003   5.891   1.680
54075SOL     OW62250  11.040   6.520   1.517
54075SOL    HW162251  11.078   6.611   1.532
54075SOL    HW262252  11.032   6.503   1.418
54076SOL     OW62253  10.169   6.960   0.016
54076SOL    HW162254  10.123   6.975   0.104
54076SOL    HW262255  10.213   7.045  -0.014
54077SOL     OW62256   9.971   7.376   0.953
54077SOL    HW162257   9.925   7.464   0.940
54077SOL    HW262258  10.070   7.388   0.946
54078SOL     OW62259  10.169   6.542   0.861
54078SOL    HW162260  10.223   6.473   0.909
54078SOL    HW262261  10.137   6.611   0.927
54079SOL     OW62262  10.393   6.570   0.087
54079SOL    HW162263  10.370   6.623   0.005
54079SOL    HW262264  10.474   6.514   0.068
54080SOL     OW62265  11.171   7.155   0.851
54080SOL    HW162266  11.100   7.143   0.781
54080SOL    HW262267  11.172   7.076   0.911
54081SOL     OW62268   9.531   6.900   1.844
54081SOL    HW162269   9.466   6.827   1.823
54081SOL    HW262270   9.535   6.914   1.942
54082SOL     OW62271   9.389   6.826   0.653
54082SOL    HW162272   9.388   6.779   0.741
54082SOL    HW262273   9.471   6.798   0.602
54083SOL     OW62274   9.982   6.977   1.624
54083SOL    HW162275   9.904   6.927   1.662
54083SOL    HW262276   9.979   7.072   1.655
54084SOL     OW62277  11.134   5.778   1.227
54084SOL    HW162278  11.130   5.688   1.271
54084SOL    HW262279  11.137   5.767   1.128
54085SOL     OW62280   9.738   6.010   0.520
54085SOL    HW162281   9.768   5.938   0.458
54085SOL    HW262282   9.699   5.970   0.603
54086SOL     OW62283  11.015   7.073   1.104
54086SOL    HW162284  10.922   7.048   1.077
54086SOL    HW262285  11.041   7.023   1.186
54087SOL     OW62286   9.627   6.133   1.280
54087SOL    HW162287   9.665   6.074   1.352
54087SOL    HW262288   9.667   6.107   1.192
54088SOL     OW62289  10.122   7.172   0.687
54088SOL    HW162290  10.154   7.182   0.593
54088SOL    HW262291  10.043   7.110   0.689
54089SOL     OW62292  10.734   5.800   1.112
54089SOL    HW162293  10.786   5.735   1.167
54089SOL    HW262294  10.685   5.863   1.173
54090SOL     OW62295  10.311   5.620   1.154
54090SOL    HW162296  10.248   5.548   1.123
54090SOL    HW262297  10.404   5.584   1.154
54091SOL     OW62298  10.080   6.916   0.301
54091SOL    HW162299  10.034   6.829   0.318
54091SOL    HW262300  10.171   6.913   0.342
54092SOL     OW62301   9.928   7.153   1.284
54092SOL    HW162302   9.923   7.235   1.341
54092SOL    HW262303  10.017   7.150   1.239
54093SOL     OW62304  10.662   5.638   0.168
54093SOL    HW162305  10.697   5.597   0.084
54093SOL    HW262306  10.572   5.600   0.188
54094SOL     OW62307  10.610   6.039   0.691
54094SOL    HW162308  10.551   6.119   0.695
54094SOL    HW262309  10.625   6.004   0.784
54095SOL     OW62310  10.903   5.807   0.882
54095SOL    HW162311  10.819   5.806   0.936
54095SOL    HW262312  10.905   5.890   0.826
54096SOL     OW62313   9.349   6.663   0.300
54096SOL    HW162314   9.448   6.652   0.291
54096SOL    HW262315   9.309   6.577   0.332
54097SOL     OW62316  10.185   7.232   0.337
54097SOL    HW162317  10.108   7.197   0.283
54097SOL    HW262318  10.153   7.303   0.399
54098SOL     OW62319   9.540   6.214   1.975
54098SOL    HW162320   9.447   6.212   2.012
54098SOL    HW262321   9.541   6.175   1.883
54099SOL     OW62322   9.535   5.861   2.858
54099SOL    HW162323   9.570   5.844   2.950
54099SOL    HW262324   9.447   5.816   2.846
54100SOL     OW62325   9.329   5.954   2.509
54100SOL    HW162326   9.247   5.997   2.548
54100SOL    HW262327   9.301   5.881   2.446
54101SOL     OW62328   9.879   6.861   3.027
54101SOL    HW162329   9.786   6.854   2.990
54101SOL    HW262330   9.890   6.950   3.071
54102SOL     OW62331  10.865   7.097   2.565
54102SOL    HW162332  10.808   7.081   2.646
54102SOL    HW262333  10.806   7.107   2.485
54103SOL     OW62334  10.445   6.289   2.579
54103SOL    HW162335  10.502   6.367   2.554
54103SOL    HW262336  10.385   6.315   2.655
54104SOL     OW62337  11.065   6.193   2.093
54104SOL    HW162338  11.053   6.180   1.994
54104SOL    HW262339  11.035   6.112   2.142
54105SOL     OW62340  10.078   6.730   2.885
54105SOL    HW162341  10.000   6.747   2.945
54105SOL    HW262342  10.112   6.817   2.849
54106SOL     OW62343  10.160   6.384   3.685
54106SOL    HW162344  10.156   6.460   3.750
54106SOL    HW262345  10.182   6.420   3.594
54107SOL     OW62346   9.995   6.598   2.527
54107SOL    HW162347  10.064   6.582   2.597
54107SOL    HW262348   9.922   6.655   2.565
54108SOL     OW62349   9.996   6.747   3.665
54108SOL    HW162350  10.056   6.826   3.679
54108SOL    HW262351   9.910   6.778   3.624
54109SOL     OW62352   9.645   7.021   2.923
54109SOL    HW162353   9.567   6.990   2.870
54109SOL    HW262354   9.703   7.079   2.866
54110SOL     OW62355  10.770   7.091   3.201
54110SOL    HW162356  10.794   7.185   3.227
54110SOL    HW262357  10.754   7.037   3.283
54111SOL     OW62358   9.748   5.978   3.361
54111SOL    HW162359   9.830   5.922   3.370
54111SOL    HW262360   9.667   5.920   3.365
54112SOL     OW62361  10.913   6.033   2.599
54112SOL    HW162362  10.839   6.079   2.549
54112SOL    HW262363  10.964   6.101   2.652
54113SOL     OW62364   9.541   7.299   2.345
54113SOL    HW162365   9.575   7.376   2.399
54113SOL    HW262366   9.585   7.299   2.255
54114SOL     OW62367  10.437   6.927   3.552
54114SOL    HW162368  10.484   6.927   3.640
54114SOL    HW262369  10.389   6.840   3.541
54115SOL     OW62370   9.540   7.020   2.400
54115SOL    HW162371   9.514   7.116   2.400
54115SOL    HW262372   9.469   6.966   2.445
54116SOL     OW62373   9.550   6.677   2.748
54116SOL    HW162374   9.564   6.593   2.800
54116SOL    HW262375   9.495   6.741   2.803
54117SOL     OW62376   9.930   7.372   3.301
54117SOL    HW162377   9.838   7.355   3.336
54117SOL    HW262378   9.958   7.464   3.327
54118SOL     OW62379   9.916   6.550   1.985
54118SOL    HW162380   9.923   6.634   1.931
54118SOL    HW262381   9.962   6.563   2.073
54119SOL     OW62382  10.904   5.700   3.342
54119SOL    HW162383  10.886   5.767   3.270
54119SOL    HW262384  10.901   5.746   3.431
54120SOL     OW62385   9.432   6.229   2.425
54120SOL    HW162386   9.387   6.141   2.442
54120SOL    HW262387   9.431   6.283   2.509
54121SOL     OW62388  11.152   7.353   2.221
54121SOL    HW162389  11.206   7.324   2.301
54121SOL    HW262390  11.182   7.443   2.192
54122SOL     OW62391   9.337   7.182   1.979
54122SOL    HW162392   9.318   7.086   2.000
54122SOL    HW262393   9.304   7.240   2.054
54123SOL     OW62394  10.999   6.508   2.474
54123SOL    HW162395  11.094   6.479   2.482
54123SOL    HW262396  10.991   6.573   2.399
54124SOL     OW62397  10.951   6.694   2.294
54124SOL    HW162398  11.037   6.696   2.242
54124SOL    HW262399  10.965   6.741   2.382
54125SOL     OW62400   9.423   6.323   3.459
54125SOL    HW162401   9.511   6.310   3.504
54125SOL    HW262402   9.410   6.420   3.437
54126SOL     OW62403   9.923   6.951   2.588
54126SOL    HW162404   9.874   6.864   2.597
54126SOL    HW262405   9.900   6.994   2.501
54127SOL     OW62406  10.603   6.814   3.285
54127SOL    HW162407  10.640   6.741   3.227
54127SOL    HW262408  10.655   6.819   3.370
54128SOL     OW62409  10.119   5.590   2.364
54128SOL    HW162410  10.159   5.681   2.355
54128SOL    HW262411  10.019   5.598   2.370
54129SOL     OW62412   9.507   6.562   3.126
54129SOL    HW162413   9.596   6.517   3.112
54129SOL    HW262414   9.434   6.497   3.107
54130SOL     OW62415  10.835   6.585   2.052
54130SOL    HW162416  10.772   6.509   2.065
54130SOL    HW262417  10.883   6.603   2.138
54131SOL     OW62418  10.497   7.378   3.478
54131SOL    HW162419  10.521   7.438   3.402
54131SOL    HW262420  10.504   7.283   3.448
54132SOL     OW62421   9.627   5.837   3.663
54132SOL    HW162422   9.698   5.908   3.669
54132SOL    HW262423   9.539   5.876   3.691
54133SOL     OW62424  10.776   7.003   2.815
54133SOL    HW162425  10.717   7.009   2.895
54133SOL    HW262426  10.761   6.915   2.769
54134SOL     OW62427  10.977   7.300   2.434
54134SOL    HW162428  10.936   7.277   2.346
54134SOL    HW262429  10.959   7.226   2.499
54135SOL     OW62430   9.908   6.315   2.132
54135SOL    HW162431   9.932   6.384   2.064
54135SOL    HW262432   9.830   6.348   2.186
54136SOL     OW62433  10.591   5.931   2.806
54136SOL    HW162434  10.505   5.881   2.793
54136SOL    HW262435  10.653   5.877   2.862
54137SOL     OW62436  10.886   7.248   2.169
54137SOL    HW162437  10.975   7.294   2.172
54137SOL    HW262438  10.865   7.224   2.074
54138SOL     OW62439  10.117   6.191   3.327
54138SOL    HW162440  10.070   6.188   3.416
54138SOL    HW262441  10.066   6.136   3.261
54139SOL     OW62442  10.704   6.055   3.536
54139SOL    HW162443  10.684   6.098   3.624
54139SOL    HW262444  10.782   5.993   3.545
54140SOL     OW62445  10.283   6.476   3.434
54140SOL    HW162446  10.329   6.392   3.405
54140SOL    HW262447  10.227   6.510   3.359
54141SOL     OW62448  10.301   5.996   3.104
54141SOL    HW162449  10.224   6.030   3.158
54141SOL    HW262450  10.267   5.945   3.025
54142SOL     OW62451  10.351   6.287   2.291
54142SOL    HW162452  10.377   6.283   2.387
54142SOL    HW262453  10.266   6.236   2.277
54143SOL     OW62454   9.386   6.397   2.651
54143SOL    HW162455   9.485   6.385   2.660
54143SOL    HW262456   9.362   6.492   2.672
54144SOL     OW62457   9.440   7.407   3.433
54144SOL    HW162458   9.430   7.392   3.532
54144SOL    HW262459   9.354   7.443   3.397
54145SOL     OW62460  10.175   5.934   2.057
54145SOL    HW162461  10.234   5.997   2.008
54145SOL    HW262462  10.194   5.840   2.028
54146SOL     OW62463  11.029   6.171   3.693
54146SOL    HW162464  11.003   6.260   3.657
54146SOL    HW262465  11.027   6.103   3.620
54147SOL     OW62466  10.672   6.730   2.407
54147SOL    HW162467  10.755   6.701   2.359
54147SOL    HW262468  10.623   6.797   2.351
54148SOL     OW62469   9.860   5.782   2.747
54148SOL    HW162470   9.855   5.777   2.847
54148SOL    HW262471   9.862   5.878   2.718
54149SOL     OW62472  10.318   7.042   2.339
54149SOL    HW162473  10.272   7.114   2.287
54149SOL    HW262474  10.314   7.062   2.437
54150SOL     OW62475   9.661   7.387   2.715
54150SOL    HW162476   9.711   7.301   2.721
54150SOL    HW262477   9.726   7.464   2.712
54151SOL     OW62478  11.105   6.652   2.735
54151SOL    HW162479  11.043   6.637   2.659
54151SOL    HW262480  11.053   6.663   2.820
54152SOL     OW62481  10.537   7.136   3.368
54152SOL    HW162482  10.543   7.059   3.432
54152SOL    HW262483  10.485   7.110   3.288
54153SOL     OW62484   9.631   6.529   2.104
54153SOL    HW162485   9.713   6.568   2.062
54153SOL    HW262486   9.604   6.447   2.055
54154SOL     OW62487  10.768   6.321   2.590
54154SOL    HW162488  10.763   6.256   2.665
54154SOL    HW262489  10.848   6.380   2.603
54155SOL     OW62490   9.771   6.852   3.589
54155SOL    HW162491   9.721   6.853   3.503
54155SOL    HW262492   9.708   6.834   3.665
54156SOL     OW62493  10.421   7.362   2.099
54156SOL    HW162494  10.361   7.300   2.149
54156SOL    HW262495  10.452   7.318   2.014
54157SOL     OW62496   9.512   5.871   3.360
54157SOL    HW162497   9.432   5.931   3.347
54157SOL    HW262498   9.502   5.822   3.446
54158SOL     OW62499  10.942   6.963   1.943
54158SOL    HW162500  10.910   7.057   1.933
54158SOL    HW262501  10.866   6.900   1.931
54159SOL     OW62502   9.774   7.329   2.185
54159SOL    HW162503   9.807   7.368   2.271
54159SOL    HW262504   9.850   7.322   2.120
54160SOL     OW62505  10.710   5.693   2.288
54160SOL    HW162506  10.686   5.656   2.198
54160SOL    HW262507  10.809   5.709   2.292
54161SOL     OW62508   9.559   7.371   3.103
54161SOL    HW162509   9.616   7.306   3.153
54161SOL    HW262510   9.543   7.338   3.010
54162SOL     OW62511  10.250   7.284   2.766
54162SOL    HW162512  10.330   7.227   2.787
54162SOL    HW262513  10.201   7.244   2.689
54163SOL     OW62514   9.692   6.286   2.342
54163SOL    HW162515   9.737   6.196   2.339
54163SOL    HW262516   9.598   6.275   2.375
54164SOL     OW62517  10.857   5.808   3.591
54164SOL    HW162518  10.852   5.845   3.683
54164SOL    HW262519  10.785   5.739   3.579
54165SOL     OW62520   9.924   5.708   1.979
54165SOL    HW162521  10.022   5.686   1.986
54165SOL    HW262522   9.893   5.691   1.886
54166SOL     OW62523  10.091   5.850   3.611
54166SOL    HW162524  10.158   5.789   3.654
54166SOL    HW262525  10.018   5.869   3.676
54167SOL     OW62526  10.198   7.100   3.057
54167SOL    HW162527  10.175   7.075   2.963
54167SOL    HW262528  10.259   7.031   3.096
54168SOL     OW62529  10.661   6.176   3.295
54168SOL    HW162530  10.689   6.133   3.380
54168SOL    HW262531  10.686   6.272   3.296
54169SOL     OW62532  10.113   6.988   2.786
54169SOL    HW162533  10.203   7.002   2.744
54169SOL    HW262534  10.042   6.990   2.715
54170SOL     OW62535  10.232   6.089   2.761
54170SOL    HW162536  10.207   6.080   2.665
54170SOL    HW262537  10.280   6.007   2.792
54171SOL     OW62538   9.849   5.650   2.374
54171SOL    HW162539   9.768   5.651   2.432
54171SOL    HW262540   9.852   5.733   2.319
54172SOL     OW62541  10.744   6.774   1.903
54172SOL    HW162542  10.776   6.698   1.960
54172SOL    HW262543  10.652   6.801   1.933
54173SOL     OW62544   9.607   5.621   2.033
54173SOL    HW162545   9.656   5.705   2.012
54173SOL    HW262546   9.669   5.556   2.078
54174SOL     OW62547  10.245   5.822   2.342
54174SOL    HW162548  10.197   5.863   2.264
54174SOL    HW262549  10.344   5.820   2.323
54175SOL     OW62550  10.386   6.269   3.326
54175SOL    HW162551  10.306   6.208   3.329
54175SOL    HW262552  10.467   6.216   3.302
54176SOL     OW62553  10.537   7.156   2.655
54176SOL    HW162554  10.558   7.230   2.590
54176SOL    HW262555  10.605   7.156   2.728
54177SOL     OW62556   9.769   6.738   2.603
54177SOL    HW162557   9.698   6.711   2.668
54177SOL    HW262558   9.743   6.710   2.510
54178SOL     OW62559  10.581   7.383   2.453
54178SOL    HW162560  10.625   7.447   2.389
54178SOL    HW262561  10.531   7.435   2.523
54179SOL     OW62562  10.342   6.135   1.878
54179SOL    HW162563  10.301   6.217   1.839
54179SOL    HW262564  10.406   6.161   1.951
54180SOL     OW62565   9.388   6.142   3.248
54180SOL    HW162566   9.480   6.141   3.207
54180SOL    HW262567   9.382   6.216   3.315
54181SOL     OW62568   9.871   5.808   3.009
54181SOL    HW162569   9.909   5.724   3.046
54181SOL    HW262570   9.783   5.827   3.053
54182SOL     OW62571  10.176   6.040   2.504
54182SOL    HW162572  10.144   6.112   2.442
54182SOL    HW262573  10.200   5.959   2.451
54183SOL     OW62574  10.327   5.625   2.615
54183SOL    HW162575  10.255   5.630   2.546
54183SOL    HW262576  10.303   5.556   2.684
54184SOL     OW62577  10.739   6.759   2.729
54184SOL    HW162578  10.684   6.675   2.722
54184SOL    HW262579  10.765   6.788   2.637
54185SOL     OW62580  10.776   6.176   2.854
54185SOL    HW162581  10.746   6.081   2.861
54185SOL    HW262582  10.849   6.192   2.920
54186SOL     OW62583  11.167   6.419   2.239
54186SOL    HW162584  11.209   6.355   2.303
54186SOL    HW262585  11.129   6.368   2.161
54187SOL     OW62586   9.798   6.971   2.036
54187SOL    HW162587   9.711   6.956   2.083
54187SOL    HW262588   9.781   6.997   1.941
54188SOL     OW62589  10.974   6.866   2.519
54188SOL    HW162590  11.073   6.874   2.533
54188SOL    HW262591  10.929   6.950   2.550
54189SOL     OW62592  10.700   6.161   1.940
54189SOL    HW162593  10.646   6.140   2.021
54189SOL    HW262594  10.791   6.120   1.949
54190SOL     OW62595   9.837   5.842   2.190
54190SOL    HW162596   9.864   5.783   2.115
54190SOL    HW262597   9.837   5.937   2.159
54191SOL     OW62598  11.064   6.809   3.450
54191SOL    HW162599  11.155   6.770   3.437
54191SOL    HW262600  11.072   6.905   3.474
54192SOL     OW62601  10.374   6.933   3.202
54192SOL    HW162602  10.294   6.910   3.257
54192SOL    HW262603  10.457   6.907   3.251
54193SOL     OW62604  10.902   7.215   3.487
54193SOL    HW162605  10.929   7.249   3.397
54193SOL    HW262606  10.981   7.177   3.533
54194SOL     OW62607  10.421   6.781   2.962
54194SOL    HW162608  10.381   6.825   3.043
54194SOL    HW262609  10.380   6.818   2.879
54195SOL     OW62610  10.948   6.685   2.941
54195SOL    HW162611  10.953   6.766   3.000
54195SOL    HW262612  10.862   6.687   2.890
54196SOL     OW62613  10.225   5.675   3.264
54196SOL    HW162614  10.250   5.655   3.169
54196SOL    HW262615  10.297   5.731   3.306
54197SOL     OW62616  10.290   6.702   3.581
54197SOL    HW162617  10.191   6.708   3.591
54197SOL    HW262618  10.313   6.622   3.525
54198SOL     OW62619  10.015   6.636   2.230
54198SOL    HW162620  10.001   6.643   2.329
54198SOL    HW262621  10.099   6.585   2.212
54199SOL     OW62622   9.720   6.399   3.113
54199SOL    HW162623   9.806   6.411   3.163
54199SOL    HW262624   9.678   6.312   3.140
54200SOL     OW62625  10.584   5.972   3.124
54200SOL    HW162626  10.605   6.046   3.188
54200SOL    HW262627  10.495   5.989   3.081
54201SOL     OW62628   9.374   7.150   3.193
54201SOL    HW162629   9.328   7.232   3.159
54201SOL    HW262630   9.472   7.169   3.202
54202SOL     OW62631   9.677   6.686   2.363
54202SOL    HW162632   9.670   6.769   2.307
54202SOL    HW262633   9.681   6.606   2.303
54203SOL     OW62634   9.876   6.123   2.727
54203SOL    HW162635   9.888   6.189   2.653
54203SOL    HW262636   9.922   6.157   2.810
54204SOL     OW62637  10.562   6.934   2.250
54204SOL    HW162638  10.612   7.011   2.290
54204SOL    HW262639  10.467   6.936   2.282
54205SOL     OW62640  10.582   7.031   3.004
54205SOL    HW162641  10.629   7.044   3.091
54205SOL    HW262642  10.516   6.957   3.013
54206SOL     OW62643  10.892   6.225   2.334
54206SOL    HW162644  10.861   6.286   2.407
54206SOL    HW262645  10.942   6.277   2.265
54207SOL     OW62646   9.664   7.096   3.191
54207SOL    HW162647   9.643   7.052   3.104
54207SOL    HW262648   9.761   7.122   3.194
54208SOL     OW62649   9.712   6.337   3.460
54208SOL    HW162650   9.780   6.392   3.413
54208SOL    HW262651   9.752   6.249   3.487
54209SOL     OW62652  10.897   6.365   3.532
54209SOL    HW162653  10.805   6.403   3.527
54209SOL    HW262654  10.957   6.412   3.467
54210SOL     OW62655  10.323   5.691   3.632
54210SOL    HW162656  10.329   5.776   3.580
54210SOL    HW262657  10.355   5.615   3.575
54211SOL     OW62658   9.814   5.636   3.602
54211SOL    HW162659   9.772   5.579   3.532
54211SOL    HW262660   9.748   5.705   3.634
54212SOL     OW62661   9.883   6.456   2.891
54212SOL    HW162662   9.927   6.545   2.882
54212SOL    HW262663   9.820   6.456   2.968
54213SOL     OW62664  10.670   6.448   2.907
54213SOL    HW162665  10.595   6.448   2.841
54213SOL    HW262666  10.707   6.356   2.916
54214SOL     OW62667  10.519   6.111   2.137
54214SOL    HW162668  10.532   6.027   2.191
54214SOL    HW262669  10.490   6.185   2.197
54215SOL     OW62670   9.617   5.799   3.093
54215SOL    HW162671   9.594   5.836   3.183
54215SOL    HW262672   9.587   5.704   3.087
54216SOL     OW62673   9.347   6.896   3.144
54216SOL    HW162674   9.400   6.847   3.212
54216SOL    HW262675   9.369   6.994   3.149
54217SOL     OW62676  10.042   6.220   2.926
54217SOL    HW162677  10.101   6.194   2.850
54217SOL    HW262678  10.014   6.316   2.915
54218SOL     OW62679  11.038   6.521   3.716
54218SOL    HW162680  10.992   6.514   3.627
54218SOL    HW262681  10.976   6.565   3.782
54219SOL     OW62682   9.617   5.649   2.480
54219SOL    HW162683   9.606   5.743   2.513
54219SOL    HW262684   9.612   5.586   2.557
54220SOL     OW62685  10.932   5.953   2.236
54220SOL    HW162686  10.934   5.877   2.300
54220SOL    HW262687  10.884   6.030   2.276
54221SOL     OW62688  10.333   6.352   2.828
54221SOL    HW162689  10.348   6.373   2.924
54221SOL    HW262690  10.303   6.257   2.819
54222SOL     OW62691  10.290   7.159   3.562
54222SOL    HW162692  10.270   7.203   3.474
54222SOL    HW262693  10.329   7.068   3.546
54223SOL     OW62694  11.169   7.104   3.467
54223SOL    HW162695  11.183   7.131   3.372
54223SOL    HW262696  11.252   7.126   3.520
54224SOL     OW62697   9.660   6.484   3.666
54224SOL    HW162698   9.736   6.528   3.714
54224SOL    HW262699   9.695   6.437   3.584
54225SOL     OW62700  10.850   5.860   1.987
54225SOL    HW162701  10.789   5.785   2.010
54225SOL    HW262702  10.872   5.912   2.070
54226SOL     OW62703  10.613   6.424   1.904
54226SOL    HW162704  10.647   6.331   1.919
54226SOL    HW262705  10.631   6.451   1.809
54227SOL     OW62706  10.378   6.919   2.711
54227SOL    HW162707  10.385   6.835   2.656
54227SOL    HW262708  10.440   6.988   2.675
54228SOL     OW62709   9.629   6.396   2.811
54228SOL    HW162710   9.722   6.432   2.816
54228SOL    HW262711   9.623   6.311   2.863
54229SOL     OW62712   9.649   6.095   2.868
54229SOL    HW162713   9.597   6.012   2.851
54229SOL    HW262714   9.726   6.100   2.804
54230SOL     OW62715  10.448   5.966   3.540
54230SOL    HW162716  10.403   6.029   3.604
54230SOL    HW262717  10.541   5.997   3.523
54231SOL     OW62718  10.470   5.793   3.339
54231SOL    HW162719  10.470   5.857   3.416
54231SOL    HW262720  10.498   5.841   3.256
54232SOL     OW62721   9.318   6.912   2.062
54232SOL    HW162722   9.225   6.933   2.031
54232SOL    HW262723   9.328   6.813   2.075
54233SOL     OW62724   9.398   7.387   2.789
54233SOL    HW162725   9.356   7.301   2.762
54233SOL    HW262726   9.492   7.390   2.755
54234SOL     OW62727   9.814   7.154   2.772
54234SOL    HW162728   9.880   7.228   2.781
54234SOL    HW262729   9.858   7.075   2.730
54235SOL     OW62730  10.312   6.382   3.100
54235SOL    HW162731  10.353   6.350   3.186
54235SOL    HW262732  10.216   6.355   3.097
54236SOL     OW62733   9.350   6.130   2.976
54236SOL    HW162734   9.435   6.097   2.935
54236SOL    HW262735   9.363   6.145   3.074
54237SOL     OW62736   9.499   6.106   3.584
54237SOL    HW162737   9.558   6.066   3.514
54237SOL    HW262738   9.441   6.177   3.543
54238SOL     OW62739  10.679   6.536   3.522
54238SOL    HW162740  10.718   6.625   3.542
54238SOL    HW262741  10.689   6.516   3.425
54239SOL     OW62742  10.125   6.158   2.187
54239SOL    HW162743  10.132   6.069   2.141
54239SOL    HW262744  10.031   6.192   2.179
54240SOL     OW62745  10.967   6.190   3.068
54240SOL    HW162746  10.929   6.121   3.130
54240SOL    HW262747  11.049   6.154   3.024
54241SOL     OW62748   9.562   7.150   3.606
54241SOL    HW162749   9.532   7.207   3.682
54241SOL    HW262750   9.555   7.053   3.632
54242SOL     OW62751   9.981   6.050   3.131
54242SOL    HW162752   9.947   5.961   3.101
54242SOL    HW262753  10.007   6.104   3.051
54243SOL     OW62754  10.240   7.264   3.327
54243SOL    HW162755  10.216   7.246   3.232
54243SOL    HW262756  10.270   7.358   3.337
54244SOL     OW62757   9.783   6.086   2.053
54244SOL    HW162758   9.844   6.166   2.057
54244SOL    HW262759   9.688   6.117   2.060
54245SOL     OW62760   9.469   6.723   3.328
54245SOL    HW162761   9.491   6.662   3.404
54245SOL    HW262762   9.479   6.674   3.242
54246SOL     OW62763  10.657   6.645   3.096
54246SOL    HW162764  10.681   6.582   3.022
54246SOL    HW262765  10.567   6.685   3.078
54247SOL     OW62766  10.612   6.441   2.171
54247SOL    HW162767  10.526   6.410   2.213
54247SOL    HW262768  10.608   6.427   2.072
54248SOL     OW62769  11.069   7.333   3.016
54248SOL    HW162770  11.130   7.363   2.943
54248SOL    HW262771  11.031   7.244   2.994
54249SOL     OW62772  10.562   7.317   2.990
54249SOL    HW162773  10.646   7.322   2.936
54249SOL    HW262774  10.539   7.221   3.008
54250SOL     OW62775   9.393   6.844   2.884
54250SOL    HW162776   9.388   6.843   2.984
54250SOL    HW262777   9.310   6.803   2.846
54251SOL     OW62778   9.998   7.248   3.578
54251SOL    HW162779   9.942   7.329   3.587
54251SOL    HW262780  10.050   7.252   3.492
54252SOL     OW62781  11.036   5.721   2.385
54252SOL    HW162782  11.109   5.704   2.318
54252SOL    HW262783  11.005   5.634   2.423
54253SOL     OW62784  10.698   7.159   2.339
54253SOL    HW162785  10.765   7.171   2.265
54253SOL    HW262786  10.658   7.248   2.362
54254SOL     OW62787   9.440   7.380   3.713
54254SOL    HW162788   9.399   7.306   3.766
54254SOL    HW262789   9.504   7.431   3.771
54255SOL     OW62790  10.590   6.513   2.534
54255SOL    HW162791  10.650   6.432   2.536
54255SOL    HW262792  10.630   6.582   2.474
54256SOL     OW62793  10.140   6.859   3.284
54256SOL    HW162794  10.135   6.892   3.379
54256SOL    HW262795  10.054   6.878   3.238
54257SOL     OW62796   9.982   7.202   2.016
54257SOL    HW162797   9.991   7.212   1.917
54257SOL    HW262798   9.942   7.113   2.037
54258SOL     OW62799  10.960   7.306   3.256
54258SOL    HW162800  11.013   7.316   3.172
54258SOL    HW262801  10.933   7.396   3.290
54259SOL     OW62802  11.151   5.761   2.825
54259SOL    HW162803  11.190   5.676   2.789
54259SOL    HW262804  11.053   5.763   2.806
54260SOL     OW62805   9.573   5.912   2.582
54260SOL    HW162806   9.494   5.963   2.548
54260SOL    HW262807   9.564   5.897   2.680
54261SOL     OW62808  10.504   7.198   1.893
54261SOL    HW162809  10.510   7.105   1.930
54261SOL    HW262810  10.445   7.198   1.813
54262SOL     OW62811  10.132   6.588   3.234
54262SOL    HW162812  10.172   6.587   3.142
54262SOL    HW262813  10.142   6.680   3.274
54263SOL     OW62814  10.226   6.496   2.153
54263SOL    HW162815  10.289   6.534   2.085
54263SOL    HW262816  10.266   6.413   2.192
54264SOL     OW62817  10.814   7.193   1.906
54264SOL    HW162818  10.722   7.230   1.913
54264SOL    HW262819  10.852   7.213   1.816
54265SOL     OW62820   9.682   6.874   3.352
54265SOL    HW162821   9.669   6.967   3.318
54265SOL    HW262822   9.598   6.822   3.339
54266SOL     OW62823  10.924   6.878   3.151
54266SOL    HW162824  10.984   6.881   3.231
54266SOL    HW262825  10.849   6.942   3.164
54267SOL     OW62826  10.349   6.684   2.558
54267SOL    HW162827  10.279   6.637   2.612
54267SOL    HW262828  10.408   6.616   2.515
54268SOL     OW62829  10.324   5.822   2.833
54268SOL    HW162830  10.316   5.786   2.740
54268SOL    HW262831  10.322   5.746   2.898
54269SOL     OW62832   9.900   7.073   2.353
54269SOL    HW162833   9.942   7.015   2.283
54269SOL    HW262834   9.856   7.152   2.309
54270SOL     OW62835  11.019   5.971   3.243
54270SOL    HW162836  11.092   6.040   3.247
54270SOL    HW262837  11.047   5.896   3.184
54271SOL     OW62838   9.565   6.934   2.152
54271SOL    HW162839   9.469   6.935   2.125
54271SOL    HW262840   9.577   6.987   2.236
54272SOL     OW62841   9.415   6.599   3.588
54272SOL    HW162842   9.338   6.566   3.642
54272SOL    HW262843   9.500   6.569   3.630
54273SOL     OW62844   9.982   5.789   3.351
54273SOL    HW162845  10.072   5.773   3.311
54273SOL    HW262846   9.990   5.794   3.450
54274SOL     OW62847   9.385   5.931   1.895
54274SOL    HW162848   9.293   5.903   1.866
54274SOL    HW262849   9.416   6.008   1.839
54275SOL     OW62850  10.750   6.442   3.260
54275SOL    HW162851  10.693   6.494   3.197
54275SOL    HW262852  10.846   6.454   3.236
54276SOL     OW62853   9.382   5.752   2.180
54276SOL    HW162854   9.365   5.835   2.126
54276SOL    HW262855   9.472   5.715   2.158
54277SOL     OW62856  10.493   6.921   1.981
54277SOL    HW162857  10.394   6.910   1.983
54277SOL    HW262858  10.527   6.936   2.074
54278SOL     OW62859   9.923   6.428   3.293
54278SOL    HW162860   9.979   6.509   3.276
54278SOL    HW262861   9.982   6.348   3.296
54279SOL     OW62862  10.803   7.353   2.821
54279SOL    HW162863  10.836   7.417   2.752
54279SOL    HW262864  10.869   7.347   2.896
54280SOL     OW62865  10.026   6.151   3.570
54280SOL    HW162866  10.045   6.216   3.644
54280SOL    HW262867  10.086   6.071   3.579
54281SOL     OW62868  10.760   6.806   3.495
54281SOL    HW162869  10.751   6.796   3.594
54281SOL    HW262870  10.856   6.799   3.469
54282SOL     OW62871   9.700   7.327   3.422
54282SOL    HW162872   9.609   7.368   3.420
54282SOL    HW262873   9.693   7.233   3.454
54283SOL     OW62874  10.984   6.469   3.116
54283SOL    HW162875  10.957   6.380   3.079
54283SOL    HW262876  10.985   6.537   3.043
54284SOL     OW62877  10.535   5.911   2.311
54284SOL    HW162878  10.600   5.837   2.300
54284SOL    HW262879  10.555   5.961   2.395
54285SOL     OW62880   9.904   6.331   2.514
54285SOL    HW162881   9.954   6.416   2.495
54285SOL    HW262882   9.816   6.333   2.466
54286SOL     OW62883  11.087   5.928   3.504
54286SOL    HW162884  11.070   5.959   3.410
54286SOL    HW262885  11.003   5.891   3.542
54287SOL     OW62886  11.040   6.520   3.379
54287SOL    HW162887  11.078   6.611   3.394
54287SOL    HW262888  11.032   6.503   3.280
54288SOL     OW62889  10.169   6.960   1.878
54288SOL    HW162890  10.123   6.975   1.966
54288SOL    HW262891  10.213   7.045   1.848
54289SOL     OW62892   9.971   7.376   2.815
54289SOL    HW162893   9.925   7.464   2.802
54289SOL    HW262894  10.070   7.388   2.808
54290SOL     OW62895  10.169   6.542   2.723
54290SOL    HW162896  10.223   6.473   2.771
54290SOL    HW262897  10.137   6.611   2.789
54291SOL     OW62898  10.393   6.570   1.949
54291SOL    HW162899  10.370   6.623   1.867
54291SOL    HW262900  10.474   6.514   1.930
54292SOL     OW62901  11.171   7.155   2.713
54292SOL    HW162902  11.100   7.143   2.643
54292SOL    HW262903  11.172   7.076   2.773
54293SOL     OW62904   9.531   6.900   3.706
54293SOL    HW162905   9.466   6.827   3.685
54293SOL    HW262906   9.535   6.914   3.804
54294SOL     OW62907   9.389   6.826   2.515
54294SOL    HW162908   9.388   6.779   2.603
54294SOL    HW262909   9.471   6.798   2.464
54295SOL     OW62910   9.982   6.977   3.486
54295SOL    HW162911   9.904   6.927   3.524
54295SOL    HW262912   9.979   7.072   3.517
54296SOL     OW62913  11.134   5.778   3.089
54296SOL    HW162914  11.130   5.688   3.133
54296SOL    HW262915  11.137   5.767   2.990
54297SOL     OW62916   9.738   6.010   2.382
54297SOL    HW162917   9.768   5.938   2.320
54297SOL    HW262918   9.699   5.970   2.465
54298SOL     OW62919  11.015   7.073   2.966
54298SOL    HW162920  10.922   7.048   2.939
54298SOL    HW262921  11.041   7.023   3.048
54299SOL     OW62922   9.627   6.133   3.142
54299SOL    HW162923   9.665   6.074   3.214
54299SOL    HW262924   9.667   6.107   3.054
54300SOL     OW62925  10.122   7.172   2.549
54300SOL    HW162926  10.154   7.182   2.455
54300SOL    HW262927  10.043   7.110   2.551
54301SOL     OW62928  10.734   5.800   2.974
54301SOL    HW162929  10.786   5.735   3.029
54301SOL    HW262930  10.685   5.863   3.035
54302SOL     OW62931  10.311   5.620   3.016
54302SOL    HW162932  10.248   5.548   2.985
54302SOL    HW262933  10.404   5.584   3.016
54303SOL     OW62934  10.080   6.916   2.163
54303SOL    HW162935  10.034   6.829   2.180
54303SOL    HW262936  10.171   6.913   2.204
54304SOL     OW62937   9.928   7.153   3.146
54304SOL    HW162938   9.923   7.235   3.203
54304SOL    HW262939  10.017   7.150   3.101
54305SOL     OW62940  10.662   5.638   2.030
54305SOL    HW162941  10.697   5.597   1.946
54305SOL    HW262942  10.572   5.600   2.050
54306SOL     OW62943  10.610   6.039   2.553
54306SOL    HW162944  10.551   6.119   2.557
54306SOL    HW262945  10.625   6.004   2.646
54307SOL     OW62946  10.903   5.807   2.744
54307SOL    HW162947  10.819   5.806   2.798
54307SOL    HW262948  10.905   5.890   2.688
54308SOL     OW62949   9.349   6.663   2.162
54308SOL    HW162950   9.448   6.652   2.153
54308SOL    HW262951   9.309   6.577   2.194
54309SOL     OW62952  10.185   7.232   2.199
54309SOL    HW162953  10.108   7.197   2.145
54309SOL    HW262954  10.153   7.303   2.261
54310SOL     OW62955   9.540   6.214   3.837
54310SOL    HW162956   9.447   6.212   3.874
54310SOL    HW262957   9.541   6.175   3.745
54311SOL     OW62958   9.535   5.861   4.720
54311SOL    HW162959   9.570   5.844   4.812
54311SOL    HW262960   9.447   5.816   4.708
54312SOL     OW62961   9.329   5.954   4.371
54312SOL    HW162962   9.247   5.997   4.410
54312SOL    HW262963   9.301   5.881   4.308
54313SOL     OW62964   9.879   6.861   4.889
54313SOL    HW162965   9.786   6.854   4.852
54313SOL    HW262966   9.890   6.950   4.933
54314SOL     OW62967  10.865   7.097   4.427
54314SOL    HW162968  10.808   7.081   4.508
54314SOL    HW262969  10.806   7.107   4.347
54315SOL     OW62970  10.445   6.289   4.441
54315SOL    HW162971  10.502   6.367   4.416
54315SOL    HW262972  10.385   6.315   4.517
54316SOL     OW62973  11.065   6.193   3.955
54316SOL    HW162974  11.053   6.180   3.856
54316SOL    HW262975  11.035   6.112   4.004
54317SOL     OW62976  10.078   6.730   4.747
54317SOL    HW162977  10.000   6.747   4.807
54317SOL    HW262978  10.112   6.817   4.711
54318SOL     OW62979  10.160   6.384   5.547
54318SOL    HW162980  10.156   6.460   5.612
54318SOL    HW262981  10.182   6.420   5.456
54319SOL     OW62982   9.995   6.598   4.389
54319SOL    HW162983  10.064   6.582   4.459
54319SOL    HW262984   9.922   6.655   4.427
54320SOL     OW62985   9.996   6.747   5.527
54320SOL    HW162986  10.056   6.826   5.541
54320SOL    HW262987   9.910   6.778   5.486
54321SOL     OW62988   9.645   7.021   4.785
54321SOL    HW162989   9.567   6.990   4.732
54321SOL    HW262990   9.703   7.079   4.728
54322SOL     OW62991  10.770   7.091   5.063
54322SOL    HW162992  10.794   7.185   5.089
54322SOL    HW262993  10.754   7.037   5.145
54323SOL     OW62994   9.748   5.978   5.223
54323SOL    HW162995   9.830   5.922   5.232
54323SOL    HW262996   9.667   5.920   5.227
54324SOL     OW62997  10.913   6.033   4.461
54324SOL    HW162998  10.839   6.079   4.411
54324SOL    HW262999  10.964   6.101   4.514
54325SOL     OW63000   9.541   7.299   4.207
54325SOL    HW163001   9.575   7.376   4.261
54325SOL    HW263002   9.585   7.299   4.117
54326SOL     OW63003  10.437   6.927   5.414
54326SOL    HW163004  10.484   6.927   5.502
54326SOL    HW263005  10.389   6.840   5.403
54327SOL     OW63006   9.540   7.020   4.262
54327SOL    HW163007   9.514   7.116   4.262
54327SOL    HW263008   9.469   6.966   4.307
54328SOL     OW63009   9.550   6.677   4.610
54328SOL    HW163010   9.564   6.593   4.662
54328SOL    HW263011   9.495   6.741   4.665
54329SOL     OW63012   9.930   7.372   5.163
54329SOL    HW163013   9.838   7.355   5.198
54329SOL    HW263014   9.958   7.464   5.189
54330SOL     OW63015   9.916   6.550   3.847
54330SOL    HW163016   9.923   6.634   3.793
54330SOL    HW263017   9.962   6.563   3.935
54331SOL     OW63018  10.904   5.700   5.204
54331SOL    HW163019  10.886   5.767   5.132
54331SOL    HW263020  10.901   5.746   5.293
54332SOL     OW63021   9.432   6.229   4.287
54332SOL    HW163022   9.387   6.141   4.304
54332SOL    HW263023   9.431   6.283   4.371
54333SOL     OW63024  11.152   7.353   4.083
54333SOL    HW163025  11.206   7.324   4.163
54333SOL    HW263026  11.182   7.443   4.054
54334SOL     OW63027   9.337   7.182   3.841
54334SOL    HW163028   9.318   7.086   3.862
54334SOL    HW263029   9.304   7.240   3.916
54335SOL     OW63030  10.999   6.508   4.336
54335SOL    HW163031  11.094   6.479   4.344
54335SOL    HW263032  10.991   6.573   4.261
54336SOL     OW63033  10.951   6.694   4.156
54336SOL    HW163034  11.037   6.696   4.104
54336SOL    HW263035  10.965   6.741   4.244
54337SOL     OW63036   9.423   6.323   5.321
54337SOL    HW163037   9.511   6.310   5.366
54337SOL    HW263038   9.410   6.420   5.299
54338SOL     OW63039   9.923   6.951   4.450
54338SOL    HW163040   9.874   6.864   4.459
54338SOL    HW263041   9.900   6.994   4.363
54339SOL     OW63042  10.603   6.814   5.147
54339SOL    HW163043  10.640   6.741   5.089
54339SOL    HW263044  10.655   6.819   5.232
54340SOL     OW63045  10.119   5.590   4.226
54340SOL    HW163046  10.159   5.681   4.217
54340SOL    HW263047  10.019   5.598   4.232
54341SOL     OW63048   9.507   6.562   4.988
54341SOL    HW163049   9.596   6.517   4.974
54341SOL    HW263050   9.434   6.497   4.969
54342SOL     OW63051  10.835   6.585   3.914
54342SOL    HW163052  10.772   6.509   3.927
54342SOL    HW263053  10.883   6.603   4.000
54343SOL     OW63054  10.497   7.378   5.340
54343SOL    HW163055  10.521   7.438   5.264
54343SOL    HW263056  10.504   7.283   5.310
54344SOL     OW63057   9.627   5.837   5.525
54344SOL    HW163058   9.698   5.908   5.531
54344SOL    HW263059   9.539   5.876   5.553
54345SOL     OW63060  10.776   7.003   4.677
54345SOL    HW163061  10.717   7.009   4.757
54345SOL    HW263062  10.761   6.915   4.631
54346SOL     OW63063  10.977   7.300   4.296
54346SOL    HW163064  10.936   7.277   4.208
54346SOL    HW263065  10.959   7.226   4.361
54347SOL     OW63066   9.908   6.315   3.994
54347SOL    HW163067   9.932   6.384   3.926
54347SOL    HW263068   9.830   6.348   4.048
54348SOL     OW63069  10.591   5.931   4.668
54348SOL    HW163070  10.505   5.881   4.655
54348SOL    HW263071  10.653   5.877   4.724
54349SOL     OW63072  10.886   7.248   4.031
54349SOL    HW163073  10.975   7.294   4.034
54349SOL    HW263074  10.865   7.224   3.936
54350SOL     OW63075  10.117   6.191   5.189
54350SOL    HW163076  10.070   6.188   5.278
54350SOL    HW263077  10.066   6.136   5.123
54351SOL     OW63078  10.704   6.055   5.398
54351SOL    HW163079  10.684   6.098   5.486
54351SOL    HW263080  10.782   5.993   5.407
54352SOL     OW63081  10.283   6.476   5.296
54352SOL    HW163082  10.329   6.392   5.267
54352SOL    HW263083  10.227   6.510   5.221
54353SOL     OW63084  10.301   5.996   4.966
54353SOL    HW163085  10.224   6.030   5.020
54353SOL    HW263086  10.267   5.945   4.887
54354SOL     OW63087  10.351   6.287   4.153
54354SOL    HW163088  10.377   6.283   4.249
54354SOL    HW263089  10.266   6.236   4.139
54355SOL     OW63090   9.386   6.397   4.513
54355SOL    HW163091   9.485   6.385   4.522
54355SOL    HW263092   9.362   6.492   4.534
54356SOL     OW63093   9.440   7.407   5.295
54356SOL    HW163094   9.430   7.392   5.394
54356SOL    HW263095   9.354   7.443   5.259
54357SOL     OW63096  10.175   5.934   3.919
54357SOL    HW163097  10.234   5.997   3.870
54357SOL    HW263098  10.194   5.840   3.890
54358SOL     OW63099  11.029   6.171   5.555
54358SOL    HW163100  11.003   6.260   5.519
54358SOL    HW263101  11.027   6.103   5.482
54359SOL     OW63102  10.672   6.730   4.269
54359SOL    HW163103  10.755   6.701   4.221
54359SOL    HW263104  10.623   6.797   4.213
54360SOL     OW63105   9.860   5.782   4.609
54360SOL    HW163106   9.855   5.777   4.709
54360SOL    HW263107   9.862   5.878   4.580
54361SOL     OW63108  10.318   7.042   4.201
54361SOL    HW163109  10.272   7.114   4.149
54361SOL    HW263110  10.314   7.062   4.299
54362SOL     OW63111   9.661   7.387   4.577
54362SOL    HW163112   9.711   7.301   4.583
54362SOL    HW263113   9.726   7.464   4.574
54363SOL     OW63114  11.105   6.652   4.597
54363SOL    HW163115  11.043   6.637   4.521
54363SOL    HW263116  11.053   6.663   4.682
54364SOL     OW63117  10.537   7.136   5.230
54364SOL    HW163118  10.543   7.059   5.294
54364SOL    HW263119  10.485   7.110   5.150
54365SOL     OW63120   9.631   6.529   3.966
54365SOL    HW163121   9.713   6.568   3.924
54365SOL    HW263122   9.604   6.447   3.917
54366SOL     OW63123  10.768   6.321   4.452
54366SOL    HW163124  10.763   6.256   4.527
54366SOL    HW263125  10.848   6.380   4.465
54367SOL     OW63126   9.771   6.852   5.451
54367SOL    HW163127   9.721   6.853   5.365
54367SOL    HW263128   9.708   6.834   5.527
54368SOL     OW63129  10.421   7.362   3.961
54368SOL    HW163130  10.361   7.300   4.011
54368SOL    HW263131  10.452   7.318   3.876
54369SOL     OW63132   9.512   5.871   5.222
54369SOL    HW163133   9.432   5.931   5.209
54369SOL    HW263134   9.502   5.822   5.308
54370SOL     OW63135  10.942   6.963   3.805
54370SOL    HW163136  10.910   7.057   3.795
54370SOL    HW263137  10.866   6.900   3.793
54371SOL     OW63138   9.774   7.329   4.047
54371SOL    HW163139   9.807   7.368   4.133
54371SOL    HW263140   9.850   7.322   3.982
54372SOL     OW63141  10.710   5.693   4.150
54372SOL    HW163142  10.686   5.656   4.060
54372SOL    HW263143  10.809   5.709   4.154
54373SOL     OW63144   9.559   7.371   4.965
54373SOL    HW163145   9.616   7.306   5.015
54373SOL    HW263146   9.543   7.338   4.872
54374SOL     OW63147  10.250   7.284   4.628
54374SOL    HW163148  10.330   7.227   4.649
54374SOL    HW263149  10.201   7.244   4.551
54375SOL     OW63150   9.692   6.286   4.204
54375SOL    HW163151   9.737   6.196   4.201
54375SOL    HW263152   9.598   6.275   4.237
54376SOL     OW63153  10.857   5.808   5.453
54376SOL    HW163154  10.852   5.845   5.545
54376SOL    HW263155  10.785   5.739   5.441
54377SOL     OW63156   9.924   5.708   3.841
54377SOL    HW163157  10.022   5.686   3.848
54377SOL    HW263158   9.893   5.691   3.748
54378SOL     OW63159  10.091   5.850   5.473
54378SOL    HW163160  10.158   5.789   5.516
54378SOL    HW263161  10.018   5.869   5.538
54379SOL     OW63162  10.198   7.100   4.919
54379SOL    HW163163  10.175   7.075   4.825
54379SOL    HW263164  10.259   7.031   4.958
54380SOL     OW63165  10.661   6.176   5.157
54380SOL    HW163166  10.689   6.133   5.242
54380SOL    HW263167  10.686   6.272   5.158
54381SOL     OW63168  10.113   6.988   4.648
54381SOL    HW163169  10.203   7.002   4.606
54381SOL    HW263170  10.042   6.990   4.577
54382SOL     OW63171  10.232   6.089   4.623
54382SOL    HW163172  10.207   6.080   4.527
54382SOL    HW263173  10.280   6.007   4.654
54383SOL     OW63174   9.849   5.650   4.236
54383SOL    HW163175   9.768   5.651   4.294
54383SOL    HW263176   9.852   5.733   4.181
54384SOL     OW63177  10.744   6.774   3.765
54384SOL    HW163178  10.776   6.698   3.822
54384SOL    HW263179  10.652   6.801   3.795
54385SOL     OW63180   9.607   5.621   3.895
54385SOL    HW163181   9.656   5.705   3.874
54385SOL    HW263182   9.669   5.556   3.940
54386SOL     OW63183  10.245   5.822   4.204
54386SOL    HW163184  10.197   5.863   4.126
54386SOL    HW263185  10.344   5.820   4.185
54387SOL     OW63186  10.386   6.269   5.188
54387SOL    HW163187  10.306   6.208   5.191
54387SOL    HW263188  10.467   6.216   5.164
54388SOL     OW63189  10.537   7.156   4.517
54388SOL    HW163190  10.558   7.230   4.452
54388SOL    HW263191  10.605   7.156   4.590
54389SOL     OW63192   9.769   6.738   4.465
54389SOL    HW163193   9.698   6.711   4.530
54389SOL    HW263194   9.743   6.710   4.372
54390SOL     OW63195  10.581   7.383   4.315
54390SOL    HW163196  10.625   7.447   4.251
54390SOL    HW263197  10.531   7.435   4.385
54391SOL     OW63198  10.342   6.135   3.740
54391SOL    HW163199  10.301   6.217   3.701
54391SOL    HW263200  10.406   6.161   3.813
54392SOL     OW63201   9.388   6.142   5.110
54392SOL    HW163202   9.480   6.141   5.069
54392SOL    HW263203   9.382   6.216   5.177
54393SOL     OW63204   9.871   5.808   4.871
54393SOL    HW163205   9.909   5.724   4.908
54393SOL    HW263206   9.783   5.827   4.915
54394SOL     OW63207  10.176   6.040   4.366
54394SOL    HW163208  10.144   6.112   4.304
54394SOL    HW263209  10.200   5.959   4.313
54395SOL     OW63210  10.327   5.625   4.477
54395SOL    HW163211  10.255   5.630   4.408
54395SOL    HW263212  10.303   5.556   4.546
54396SOL     OW63213  10.739   6.759   4.591
54396SOL    HW163214  10.684   6.675   4.584
54396SOL    HW263215  10.765   6.788   4.499
54397SOL     OW63216  10.776   6.176   4.716
54397SOL    HW163217  10.746   6.081   4.723
54397SOL    HW263218  10.849   6.192   4.782
54398SOL     OW63219  11.167   6.419   4.101
54398SOL    HW163220  11.209   6.355   4.165
54398SOL    HW263221  11.129   6.368   4.023
54399SOL     OW63222   9.798   6.971   3.898
54399SOL    HW163223   9.711   6.956   3.945
54399SOL    HW263224   9.781   6.997   3.803
54400SOL     OW63225  10.974   6.866   4.381
54400SOL    HW163226  11.073   6.874   4.395
54400SOL    HW263227  10.929   6.950   4.412
54401SOL     OW63228  10.700   6.161   3.802
54401SOL    HW163229  10.646   6.140   3.883
54401SOL    HW263230  10.791   6.120   3.811
54402SOL     OW63231   9.837   5.842   4.052
54402SOL    HW163232   9.864   5.783   3.977
54402SOL    HW263233   9.837   5.937   4.021
54403SOL     OW63234  11.064   6.809   5.312
54403SOL    HW163235  11.155   6.770   5.299
54403SOL    HW263236  11.072   6.905   5.336
54404SOL     OW63237  10.374   6.933   5.064
54404SOL    HW163238  10.294   6.910   5.119
54404SOL    HW263239  10.457   6.907   5.113
54405SOL     OW63240  10.902   7.215   5.349
54405SOL    HW163241  10.929   7.249   5.259
54405SOL    HW263242  10.981   7.177   5.395
54406SOL     OW63243  10.421   6.781   4.824
54406SOL    HW163244  10.381   6.825   4.905
54406SOL    HW263245  10.380   6.818   4.741
54407SOL     OW63246  10.948   6.685   4.803
54407SOL    HW163247  10.953   6.766   4.862
54407SOL    HW263248  10.862   6.687   4.752
54408SOL     OW63249  10.225   5.675   5.126
54408SOL    HW163250  10.250   5.655   5.031
54408SOL    HW263251  10.297   5.731   5.168
54409SOL     OW63252  10.290   6.702   5.443
54409SOL    HW163253  10.191   6.708   5.453
54409SOL    HW263254  10.313   6.622   5.387
54410SOL     OW63255  10.015   6.636   4.092
54410SOL    HW163256  10.001   6.643   4.191
54410SOL    HW263257  10.099   6.585   4.074
54411SOL     OW63258   9.720   6.399   4.975
54411SOL    HW163259   9.806   6.411   5.025
54411SOL    HW263260   9.678   6.312   5.002
54412SOL     OW63261  10.584   5.972   4.986
54412SOL    HW163262  10.605   6.046   5.050
54412SOL    HW263263  10.495   5.989   4.943
54413SOL     OW63264   9.374   7.150   5.055
54413SOL    HW163265   9.328   7.232   5.021
54413SOL    HW263266   9.472   7.169   5.064
54414SOL     OW63267   9.677   6.686   4.225
54414SOL    HW163268   9.670   6.769   4.169
54414SOL    HW263269   9.681   6.606   4.165
54415SOL     OW63270   9.876   6.123   4.589
54415SOL    HW163271   9.888   6.189   4.515
54415SOL    HW263272   9.922   6.157   4.672
54416SOL     OW63273  10.562   6.934   4.112
54416SOL    HW163274  10.612   7.011   4.152
54416SOL    HW263275  10.467   6.936   4.144
54417SOL     OW63276  10.582   7.031   4.866
54417SOL    HW163277  10.629   7.044   4.953
54417SOL    HW263278  10.516   6.957   4.875
54418SOL     OW63279  10.892   6.225   4.196
54418SOL    HW163280  10.861   6.286   4.269
54418SOL    HW263281  10.942   6.277   4.127
54419SOL     OW63282   9.664   7.096   5.053
54419SOL    HW163283   9.643   7.052   4.966
54419SOL    HW263284   9.761   7.122   5.056
54420SOL     OW63285   9.712   6.337   5.322
54420SOL    HW163286   9.780   6.392   5.275
54420SOL    HW263287   9.752   6.249   5.349
54421SOL     OW63288  10.897   6.365   5.394
54421SOL    HW163289  10.805   6.403   5.389
54421SOL    HW263290  10.957   6.412   5.329
54422SOL     OW63291  10.323   5.691   5.494
54422SOL    HW163292  10.329   5.776   5.442
54422SOL    HW263293  10.355   5.615   5.437
54423SOL     OW63294   9.814   5.636   5.464
54423SOL    HW163295   9.772   5.579   5.394
54423SOL    HW263296   9.748   5.705   5.496
54424SOL     OW63297   9.883   6.456   4.753
54424SOL    HW163298   9.927   6.545   4.744
54424SOL    HW263299   9.820   6.456   4.830
54425SOL     OW63300  10.670   6.448   4.769
54425SOL    HW163301  10.595   6.448   4.703
54425SOL    HW263302  10.707   6.356   4.778
54426SOL     OW63303  10.519   6.111   3.999
54426SOL    HW163304  10.532   6.027   4.053
54426SOL    HW263305  10.490   6.185   4.059
54427SOL     OW63306   9.617   5.799   4.955
54427SOL    HW163307   9.594   5.836   5.045
54427SOL    HW263308   9.587   5.704   4.949
54428SOL     OW63309   9.347   6.896   5.006
54428SOL    HW163310   9.400   6.847   5.074
54428SOL    HW263311   9.369   6.994   5.011
54429SOL     OW63312  10.042   6.220   4.788
54429SOL    HW163313  10.101   6.194   4.712
54429SOL    HW263314  10.014   6.316   4.777
54430SOL     OW63315  11.038   6.521   5.578
54430SOL    HW163316  10.992   6.514   5.489
54430SOL    HW263317  10.976   6.565   5.644
54431SOL     OW63318   9.617   5.649   4.342
54431SOL    HW163319   9.606   5.743   4.375
54431SOL    HW263320   9.612   5.586   4.419
54432SOL     OW63321  10.932   5.953   4.098
54432SOL    HW163322  10.934   5.877   4.162
54432SOL    HW263323  10.884   6.030   4.138
54433SOL     OW63324  10.333   6.352   4.690
54433SOL    HW163325  10.348   6.373   4.786
54433SOL    HW263326  10.303   6.257   4.681
54434SOL     OW63327  10.290   7.159   5.424
54434SOL    HW163328  10.270   7.203   5.336
54434SOL    HW263329  10.329   7.068   5.408
54435SOL     OW63330  11.169   7.104   5.329
54435SOL    HW163331  11.183   7.131   5.234
54435SOL    HW263332  11.252   7.126   5.382
54436SOL     OW63333   9.660   6.484   5.528
54436SOL    HW163334   9.736   6.528   5.576
54436SOL    HW263335   9.695   6.437   5.446
54437SOL     OW63336  10.850   5.860   3.849
54437SOL    HW163337  10.789   5.785   3.872
54437SOL    HW263338  10.872   5.912   3.932
54438SOL     OW63339  10.613   6.424   3.766
54438SOL    HW163340  10.647   6.331   3.781
54438SOL    HW263341  10.631   6.451   3.671
54439SOL     OW63342  10.378   6.919   4.573
54439SOL    HW163343  10.385   6.835   4.518
54439SOL    HW263344  10.440   6.988   4.537
54440SOL     OW63345   9.629   6.396   4.673
54440SOL    HW163346   9.722   6.432   4.678
54440SOL    HW263347   9.623   6.311   4.725
54441SOL     OW63348   9.649   6.095   4.730
54441SOL    HW163349   9.597   6.012   4.713
54441SOL    HW263350   9.726   6.100   4.666
54442SOL     OW63351  10.448   5.966   5.402
54442SOL    HW163352  10.403   6.029   5.466
54442SOL    HW263353  10.541   5.997   5.385
54443SOL     OW63354  10.470   5.793   5.201
54443SOL    HW163355  10.470   5.857   5.278
54443SOL    HW263356  10.498   5.841   5.118
54444SOL     OW63357   9.318   6.912   3.924
54444SOL    HW163358   9.225   6.933   3.893
54444SOL    HW263359   9.328   6.813   3.937
54445SOL     OW63360   9.398   7.387   4.651
54445SOL    HW163361   9.356   7.301   4.624
54445SOL    HW263362   9.492   7.390   4.617
54446SOL     OW63363   9.814   7.154   4.634
54446SOL    HW163364   9.880   7.228   4.643
54446SOL    HW263365   9.858   7.075   4.592
54447SOL     OW63366  10.312   6.382   4.962
54447SOL    HW163367  10.353   6.350   5.048
54447SOL    HW263368  10.216   6.355   4.959
54448SOL     OW63369   9.350   6.130   4.838
54448SOL    HW163370   9.435   6.097   4.797
54448SOL    HW263371   9.363   6.145   4.936
54449SOL     OW63372   9.499   6.106   5.446
54449SOL    HW163373   9.558   6.066   5.376
54449SOL    HW263374   9.441   6.177   5.405
54450SOL     OW63375  10.679   6.536   5.384
54450SOL    HW163376  10.718   6.625   5.404
54450SOL    HW263377  10.689   6.516   5.287
54451SOL     OW63378  10.125   6.158   4.049
54451SOL    HW163379  10.132   6.069   4.003
54451SOL    HW263380  10.031   6.192   4.041
54452SOL     OW63381  10.967   6.190   4.930
54452SOL    HW163382  10.929   6.121   4.992
54452SOL    HW263383  11.049   6.154   4.886
54453SOL     OW63384   9.562   7.150   5.468
54453SOL    HW163385   9.532   7.207   5.544
54453SOL    HW263386   9.555   7.053   5.494
54454SOL     OW63387   9.981   6.050   4.993
54454SOL    HW163388   9.947   5.961   4.963
54454SOL    HW263389  10.007   6.104   4.913
54455SOL     OW63390  10.240   7.264   5.189
54455SOL    HW163391  10.216   7.246   5.094
54455SOL    HW263392  10.270   7.358   5.199
54456SOL     OW63393   9.783   6.086   3.915
54456SOL    HW163394   9.844   6.166   3.919
54456SOL    HW263395   9.688   6.117   3.922
54457SOL     OW63396   9.469   6.723   5.190
54457SOL    HW163397   9.491   6.662   5.266
54457SOL    HW263398   9.479   6.674   5.104
54458SOL     OW63399  10.657   6.645   4.958
54458SOL    HW163400  10.681   6.582   4.884
54458SOL    HW263401  10.567   6.685   4.940
54459SOL     OW63402  10.612   6.441   4.033
54459SOL    HW163403  10.526   6.410   4.075
54459SOL    HW263404  10.608   6.427   3.934
54460SOL     OW63405  11.069   7.333   4.878
54460SOL    HW163406  11.130   7.363   4.805
54460SOL    HW263407  11.031   7.244   4.856
54461SOL     OW63408  10.562   7.317   4.852
54461SOL    HW163409  10.646   7.322   4.798
54461SOL    HW263410  10.539   7.221   4.870
54462SOL     OW63411   9.393   6.844   4.746
54462SOL    HW163412   9.388   6.843   4.846
54462SOL    HW263413   9.310   6.803   4.708
54463SOL     OW63414   9.998   7.248   5.440
54463SOL    HW163415   9.942   7.329   5.449
54463SOL    HW263416  10.050   7.252   5.354
54464SOL     OW63417  11.036   5.721   4.247
54464SOL    HW163418  11.109   5.704   4.180
54464SOL    HW263419  11.005   5.634   4.285
54465SOL     OW63420  10.698   7.159   4.201
54465SOL    HW163421  10.765   7.171   4.127
54465SOL    HW263422  10.658   7.248   4.224
54466SOL     OW63423   9.440   7.380   5.575
54466SOL    HW163424   9.399   7.306   5.628
54466SOL    HW263425   9.504   7.431   5.633
54467SOL     OW63426  10.590   6.513   4.396
54467SOL    HW163427  10.650   6.432   4.398
54467SOL    HW263428  10.630   6.582   4.336
54468SOL     OW63429  10.140   6.859   5.146
54468SOL    HW163430  10.135   6.892   5.241
54468SOL    HW263431  10.054   6.878   5.100
54469SOL     OW63432   9.982   7.202   3.878
54469SOL    HW163433   9.991   7.212   3.779
54469SOL    HW263434   9.942   7.113   3.899
54470SOL     OW63435  10.960   7.306   5.118
54470SOL    HW163436  11.013   7.316   5.034
54470SOL    HW263437  10.933   7.396   5.152
54471SOL     OW63438  11.151   5.761   4.687
54471SOL    HW163439  11.190   5.676   4.651
54471SOL    HW263440  11.053   5.763   4.668
54472SOL     OW63441   9.573   5.912   4.444
54472SOL    HW163442   9.494   5.963   4.410
54472SOL    HW263443   9.564   5.897   4.542
54473SOL     OW63444  10.504   7.198   3.755
54473SOL    HW163445  10.510   7.105   3.792
54473SOL    HW263446  10.445   7.198   3.675
54474SOL     OW63447  10.132   6.588   5.096
54474SOL    HW163448  10.172   6.587   5.004
54474SOL    HW263449  10.142   6.680   5.136
54475SOL     OW63450  10.226   6.496   4.015
54475SOL    HW163451  10.289   6.534   3.947
54475SOL    HW263452  10.266   6.413   4.054
54476SOL     OW63453  10.814   7.193   3.768
54476SOL    HW163454  10.722   7.230   3.775
54476SOL    HW263455  10.852   7.213   3.678
54477SOL     OW63456   9.682   6.874   5.214
54477SOL    HW163457   9.669   6.967   5.180
54477SOL    HW263458   9.598   6.822   5.201
54478SOL     OW63459  10.924   6.878   5.013
54478SOL    HW163460  10.984   6.881   5.093
54478SOL    HW263461  10.849   6.942   5.026
54479SOL     OW63462  10.349   6.684   4.420
54479SOL    HW163463  10.279   6.637   4.474
54479SOL    HW263464  10.408   6.616   4.377
54480SOL     OW63465  10.324   5.822   4.695
54480SOL    HW163466  10.316   5.786   4.602
54480SOL    HW263467  10.322   5.746   4.760
54481SOL     OW63468   9.900   7.073   4.215
54481SOL    HW163469   9.942   7.015   4.145
54481SOL    HW263470   9.856   7.152   4.171
54482SOL     OW63471  11.019   5.971   5.105
54482SOL    HW163472  11.092   6.040   5.109
54482SOL    HW263473  11.047   5.896   5.046
54483SOL     OW63474   9.565   6.934   4.014
54483SOL    HW163475   9.469   6.935   3.987
54483SOL    HW263476   9.577   6.987   4.098
54484SOL     OW63477   9.415   6.599   5.450
54484SOL    HW163478   9.338   6.566   5.504
54484SOL    HW263479   9.500   6.569   5.492
54485SOL     OW63480   9.982   5.789   5.213
54485SOL    HW163481  10.072   5.773   5.173
54485SOL    HW263482   9.990   5.794   5.312
54486SOL     OW63483   9.385   5.931   3.757
54486SOL    HW163484   9.293   5.903   3.728
54486SOL    HW263485   9.416   6.008   3.701
54487SOL     OW63486  10.750   6.442   5.122
54487SOL    HW163487  10.693   6.494   5.059
54487SOL    HW263488  10.846   6.454   5.098
54488SOL     OW63489   9.382   5.752   4.042
54488SOL    HW163490   9.365   5.835   3.988
54488SOL    HW263491   9.472   5.715   4.020
54489SOL     OW63492  10.493   6.921   3.843
54489SOL    HW163493  10.394   6.910   3.845
54489SOL    HW263494  10.527   6.936   3.936
54490SOL     OW63495   9.923   6.428   5.155
54490SOL    HW163496   9.979   6.509   5.138
54490SOL    HW263497   9.982   6.348   5.158
54491SOL     OW63498  10.803   7.353   4.683
54491SOL    HW163499  10.836   7.417   4.614
54491SOL    HW263500  10.869   7.347   4.758
54492SOL     OW63501  10.026   6.151   5.432
54492SOL    HW163502  10.045   6.216   5.506
54492SOL    HW263503  10.086   6.071   5.441
54493SOL     OW63504  10.760   6.806   5.357
54493SOL    HW163505  10.751   6.796   5.456
54493SOL    HW263506  10.856   6.799   5.331
54494SOL     OW63507   9.700   7.327   5.284
54494SOL    HW163508   9.609   7.368   5.282
54494SOL    HW263509   9.693   7.233   5.316
54495SOL     OW63510  10.984   6.469   4.978
54495SOL    HW163511  10.957   6.380   4.941
54495SOL    HW263512  10.985   6.537   4.905
54496SOL     OW63513  10.535   5.911   4.173
54496SOL    HW163514  10.600   5.837   4.162
54496SOL    HW263515  10.555   5.961   4.257
54497SOL     OW63516   9.904   6.331   4.376
54497SOL    HW163517   9.954   6.416   4.357
54497SOL    HW263518   9.816   6.333   4.328
54498SOL     OW63519  11.087   5.928   5.366
54498SOL    HW163520  11.070   5.959   5.272
54498SOL    HW263521  11.003   5.891   5.404
54499SOL     OW63522  11.040   6.520   5.241
54499SOL    HW163523  11.078   6.611   5.256
54499SOL    HW263524  11.032   6.503   5.142
54500SOL     OW63525  10.169   6.960   3.740
54500SOL    HW163526  10.123   6.975   3.828
54500SOL    HW263527  10.213   7.045   3.710
54501SOL     OW63528   9.971   7.376   4.677
54501SOL    HW163529   9.925   7.464   4.664
54501SOL    HW263530  10.070   7.388   4.670
54502SOL     OW63531  10.169   6.542   4.585
54502SOL    HW163532  10.223   6.473   4.633
54502SOL    HW263533  10.137   6.611   4.651
54503SOL     OW63534  10.393   6.570   3.811
54503SOL    HW163535  10.370   6.623   3.729
54503SOL    HW263536  10.474   6.514   3.792
54504SOL     OW63537  11.171   7.155   4.575
54504SOL    HW163538  11.100   7.143   4.505
54504SOL    HW263539  11.172   7.076   4.635
54505SOL     OW63540   9.531   6.900   5.568
54505SOL    HW163541   9.466   6.827   5.547
54505SOL    HW263542   9.535   6.914   5.666
54506SOL     OW63543   9.389   6.826   4.377
54506SOL    HW163544   9.388   6.779   4.465
54506SOL    HW263545   9.471   6.798   4.326
54507SOL     OW63546   9.982   6.977   5.348
54507SOL    HW163547   9.904   6.927   5.386
54507SOL    HW263548   9.979   7.072   5.379
54508SOL     OW63549  11.134   5.778   4.951
54508SOL    HW163550  11.130   5.688   4.995
54508SOL    HW263551  11.137   5.767   4.852
54509SOL     OW63552   9.738   6.010   4.244
54509SOL    HW163553   9.768   5.938   4.182
54509SOL    HW263554   9.699   5.970   4.327
54510SOL     OW63555  11.015   7.073   4.828
54510SOL    HW163556  10.922   7.048   4.801
54510SOL    HW263557  11.041   7.023   4.910
54511SOL     OW63558   9.627   6.133   5.004
54511SOL    HW163559   9.665   6.074   5.076
54511SOL    HW263560   9.667   6.107   4.916
54512SOL     OW63561  10.122   7.172   4.411
54512SOL    HW163562  10.154   7.182   4.317
54512SOL    HW263563  10.043   7.110   4.413
54513SOL     OW63564  10.734   5.800   4.836
54513SOL    HW163565  10.786   5.735   4.891
54513SOL    HW263566  10.685   5.863   4.897
54514SOL     OW63567  10.311   5.620   4.878
54514SOL    HW163568  10.248   5.548   4.847
54514SOL    HW263569  10.404   5.584   4.878
54515SOL     OW63570  10.080   6.916   4.025
54515SOL    HW163571  10.034   6.829   4.042
54515SOL    HW263572  10.171   6.913   4.066
54516SOL     OW63573   9.928   7.153   5.008
54516SOL    HW163574   9.923   7.235   5.065
54516SOL    HW263575  10.017   7.150   4.963
54517SOL     OW63576  10.662   5.638   3.892
54517SOL    HW163577  10.697   5.597   3.808
54517SOL    HW263578  10.572   5.600   3.912
54518SOL     OW63579  10.610   6.039   4.415
54518SOL    HW163580  10.551   6.119   4.419
54518SOL    HW263581  10.625   6.004   4.508
54519SOL     OW63582  10.903   5.807   4.606
54519SOL    HW163583  10.819   5.806   4.660
54519SOL    HW263584  10.905   5.890   4.550
54520SOL     OW63585   9.349   6.663   4.024
54520SOL    HW163586   9.448   6.652   4.015
54520SOL    HW263587   9.309   6.577   4.056
54521SOL     OW63588  10.185   7.232   4.061
54521SOL    HW163589  10.108   7.197   4.007
54521SOL    HW263590  10.153   7.303   4.123
54522SOL     OW63591   9.540   6.214   5.699
54522SOL    HW163592   9.447   6.212   5.736
54522SOL    HW263593   9.541   6.175   5.607
54523SOL     OW63594   9.535   5.861   6.582
54523SOL    HW163595   9.570   5.844   6.674
54523SOL    HW263596   9.447   5.816   6.570
54524SOL     OW63597   9.329   5.954   6.233
54524SOL    HW163598   9.247   5.997   6.272
54524SOL    HW263599   9.301   5.881   6.170
54525SOL     OW63600   9.879   6.861   6.751
54525SOL    HW163601   9.786   6.854   6.714
54525SOL    HW263602   9.890   6.950   6.795
54526SOL     OW63603  10.865   7.097   6.289
54526SOL    HW163604  10.808   7.081   6.370
54526SOL    HW263605  10.806   7.107   6.209
54527SOL     OW63606  10.445   6.289   6.303
54527SOL    HW163607  10.502   6.367   6.278
54527SOL    HW263608  10.385   6.315   6.379
54528SOL     OW63609  11.065   6.193   5.817
54528SOL    HW163610  11.053   6.180   5.718
54528SOL    HW263611  11.035   6.112   5.866
54529SOL     OW63612  10.078   6.730   6.609
54529SOL    HW163613  10.000   6.747   6.669
54529SOL    HW263614  10.112   6.817   6.573
54530SOL     OW63615  10.160   6.384   7.409
54530SOL    HW163616  10.156   6.460   7.474
54530SOL    HW263617  10.182   6.420   7.318
54531SOL     OW63618   9.995   6.598   6.251
54531SOL    HW163619  10.064   6.582   6.321
54531SOL    HW263620   9.922   6.655   6.289
54532SOL     OW63621   9.996   6.747   7.389
54532SOL    HW163622  10.056   6.826   7.403
54532SOL    HW263623   9.910   6.778   7.348
54533SOL     OW63624   9.645   7.021   6.647
54533SOL    HW163625   9.567   6.990   6.594
54533SOL    HW263626   9.703   7.079   6.590
54534SOL     OW63627  10.770   7.091   6.925
54534SOL    HW163628  10.794   7.185   6.951
54534SOL    HW263629  10.754   7.037   7.007
54535SOL     OW63630   9.748   5.978   7.085
54535SOL    HW163631   9.830   5.922   7.094
54535SOL    HW263632   9.667   5.920   7.089
54536SOL     OW63633  10.913   6.033   6.323
54536SOL    HW163634  10.839   6.079   6.273
54536SOL    HW263635  10.964   6.101   6.376
54537SOL     OW63636   9.541   7.299   6.069
54537SOL    HW163637   9.575   7.376   6.123
54537SOL    HW263638   9.585   7.299   5.979
54538SOL     OW63639  10.437   6.927   7.276
54538SOL    HW163640  10.484   6.927   7.364
54538SOL    HW263641  10.389   6.840   7.265
54539SOL     OW63642   9.540   7.020   6.124
54539SOL    HW163643   9.514   7.116   6.124
54539SOL    HW263644   9.469   6.966   6.169
54540SOL     OW63645   9.550   6.677   6.472
54540SOL    HW163646   9.564   6.593   6.524
54540SOL    HW263647   9.495   6.741   6.527
54541SOL     OW63648   9.930   7.372   7.025
54541SOL    HW163649   9.838   7.355   7.060
54541SOL    HW263650   9.958   7.464   7.051
54542SOL     OW63651   9.916   6.550   5.709
54542SOL    HW163652   9.923   6.634   5.655
54542SOL    HW263653   9.962   6.563   5.797
54543SOL     OW63654  10.904   5.700   7.066
54543SOL    HW163655  10.886   5.767   6.994
54543SOL    HW263656  10.901   5.746   7.155
54544SOL     OW63657   9.432   6.229   6.149
54544SOL    HW163658   9.387   6.141   6.166
54544SOL    HW263659   9.431   6.283   6.233
54545SOL     OW63660  11.152   7.353   5.945
54545SOL    HW163661  11.206   7.324   6.025
54545SOL    HW263662  11.182   7.443   5.916
54546SOL     OW63663   9.337   7.182   5.703
54546SOL    HW163664   9.318   7.086   5.724
54546SOL    HW263665   9.304   7.240   5.778
54547SOL     OW63666  10.999   6.508   6.198
54547SOL    HW163667  11.094   6.479   6.206
54547SOL    HW263668  10.991   6.573   6.123
54548SOL     OW63669  10.951   6.694   6.018
54548SOL    HW163670  11.037   6.696   5.966
54548SOL    HW263671  10.965   6.741   6.106
54549SOL     OW63672   9.423   6.323   7.183
54549SOL    HW163673   9.511   6.310   7.228
54549SOL    HW263674   9.410   6.420   7.161
54550SOL     OW63675   9.923   6.951   6.312
54550SOL    HW163676   9.874   6.864   6.321
54550SOL    HW263677   9.900   6.994   6.225
54551SOL     OW63678  10.603   6.814   7.009
54551SOL    HW163679  10.640   6.741   6.951
54551SOL    HW263680  10.655   6.819   7.094
54552SOL     OW63681  10.119   5.590   6.088
54552SOL    HW163682  10.159   5.681   6.079
54552SOL    HW263683  10.019   5.598   6.094
54553SOL     OW63684   9.507   6.562   6.850
54553SOL    HW163685   9.596   6.517   6.836
54553SOL    HW263686   9.434   6.497   6.831
54554SOL     OW63687  10.835   6.585   5.776
54554SOL    HW163688  10.772   6.509   5.789
54554SOL    HW263689  10.883   6.603   5.862
54555SOL     OW63690  10.497   7.378   7.202
54555SOL    HW163691  10.521   7.438   7.126
54555SOL    HW263692  10.504   7.283   7.172
54556SOL     OW63693   9.627   5.837   7.387
54556SOL    HW163694   9.698   5.908   7.393
54556SOL    HW263695   9.539   5.876   7.415
54557SOL     OW63696  10.776   7.003   6.539
54557SOL    HW163697  10.717   7.009   6.619
54557SOL    HW263698  10.761   6.915   6.493
54558SOL     OW63699  10.977   7.300   6.158
54558SOL    HW163700  10.936   7.277   6.070
54558SOL    HW263701  10.959   7.226   6.223
54559SOL     OW63702   9.908   6.315   5.856
54559SOL    HW163703   9.932   6.384   5.788
54559SOL    HW263704   9.830   6.348   5.910
54560SOL     OW63705  10.591   5.931   6.530
54560SOL    HW163706  10.505   5.881   6.517
54560SOL    HW263707  10.653   5.877   6.586
54561SOL     OW63708  10.886   7.248   5.893
54561SOL    HW163709  10.975   7.294   5.896
54561SOL    HW263710  10.865   7.224   5.798
54562SOL     OW63711  10.117   6.191   7.051
54562SOL    HW163712  10.070   6.188   7.140
54562SOL    HW263713  10.066   6.136   6.985
54563SOL     OW63714  10.704   6.055   7.260
54563SOL    HW163715  10.684   6.098   7.348
54563SOL    HW263716  10.782   5.993   7.269
54564SOL     OW63717  10.283   6.476   7.158
54564SOL    HW163718  10.329   6.392   7.129
54564SOL    HW263719  10.227   6.510   7.083
54565SOL     OW63720  10.301   5.996   6.828
54565SOL    HW163721  10.224   6.030   6.882
54565SOL    HW263722  10.267   5.945   6.749
54566SOL     OW63723  10.351   6.287   6.015
54566SOL    HW163724  10.377   6.283   6.111
54566SOL    HW263725  10.266   6.236   6.001
54567SOL     OW63726   9.386   6.397   6.375
54567SOL    HW163727   9.485   6.385   6.384
54567SOL    HW263728   9.362   6.492   6.396
54568SOL     OW63729   9.440   7.407   7.157
54568SOL    HW163730   9.430   7.392   7.256
54568SOL    HW263731   9.354   7.443   7.121
54569SOL     OW63732  10.175   5.934   5.781
54569SOL    HW163733  10.234   5.997   5.732
54569SOL    HW263734  10.194   5.840   5.752
54570SOL     OW63735  11.029   6.171   7.417
54570SOL    HW163736  11.003   6.260   7.381
54570SOL    HW263737  11.027   6.103   7.344
54571SOL     OW63738  10.672   6.730   6.131
54571SOL    HW163739  10.755   6.701   6.083
54571SOL    HW263740  10.623   6.797   6.075
54572SOL     OW63741   9.860   5.782   6.471
54572SOL    HW163742   9.855   5.777   6.571
54572SOL    HW263743   9.862   5.878   6.442
54573SOL     OW63744  10.318   7.042   6.063
54573SOL    HW163745  10.272   7.114   6.011
54573SOL    HW263746  10.314   7.062   6.161
54574SOL     OW63747   9.661   7.387   6.439
54574SOL    HW163748   9.711   7.301   6.445
54574SOL    HW263749   9.726   7.464   6.436
54575SOL     OW63750  11.105   6.652   6.459
54575SOL    HW163751  11.043   6.637   6.383
54575SOL    HW263752  11.053   6.663   6.544
54576SOL     OW63753  10.537   7.136   7.092
54576SOL    HW163754  10.543   7.059   7.156
54576SOL    HW263755  10.485   7.110   7.012
54577SOL     OW63756   9.631   6.529   5.828
54577SOL    HW163757   9.713   6.568   5.786
54577SOL    HW263758   9.604   6.447   5.779
54578SOL     OW63759  10.768   6.321   6.314
54578SOL    HW163760  10.763   6.256   6.389
54578SOL    HW263761  10.848   6.380   6.327
54579SOL     OW63762   9.771   6.852   7.313
54579SOL    HW163763   9.721   6.853   7.227
54579SOL    HW263764   9.708   6.834   7.389
54580SOL     OW63765  10.421   7.362   5.823
54580SOL    HW163766  10.361   7.300   5.873
54580SOL    HW263767  10.452   7.318   5.738
54581SOL     OW63768   9.512   5.871   7.084
54581SOL    HW163769   9.432   5.931   7.071
54581SOL    HW263770   9.502   5.822   7.170
54582SOL     OW63771  10.942   6.963   5.667
54582SOL    HW163772  10.910   7.057   5.657
54582SOL    HW263773  10.866   6.900   5.655
54583SOL     OW63774   9.774   7.329   5.909
54583SOL    HW163775   9.807   7.368   5.995
54583SOL    HW263776   9.850   7.322   5.844
54584SOL     OW63777  10.710   5.693   6.012
54584SOL    HW163778  10.686   5.656   5.922
54584SOL    HW263779  10.809   5.709   6.016
54585SOL     OW63780   9.559   7.371   6.827
54585SOL    HW163781   9.616   7.306   6.877
54585SOL    HW263782   9.543   7.338   6.734
54586SOL     OW63783  10.250   7.284   6.490
54586SOL    HW163784  10.330   7.227   6.511
54586SOL    HW263785  10.201   7.244   6.413
54587SOL     OW63786   9.692   6.286   6.066
54587SOL    HW163787   9.737   6.196   6.063
54587SOL    HW263788   9.598   6.275   6.099
54588SOL     OW63789  10.857   5.808   7.315
54588SOL    HW163790  10.852   5.845   7.407
54588SOL    HW263791  10.785   5.739   7.303
54589SOL     OW63792   9.924   5.708   5.703
54589SOL    HW163793  10.022   5.686   5.710
54589SOL    HW263794   9.893   5.691   5.610
54590SOL     OW63795  10.091   5.850   7.335
54590SOL    HW163796  10.158   5.789   7.378
54590SOL    HW263797  10.018   5.869   7.400
54591SOL     OW63798  10.198   7.100   6.781
54591SOL    HW163799  10.175   7.075   6.687
54591SOL    HW263800  10.259   7.031   6.820
54592SOL     OW63801  10.661   6.176   7.019
54592SOL    HW163802  10.689   6.133   7.104
54592SOL    HW263803  10.686   6.272   7.020
54593SOL     OW63804  10.113   6.988   6.510
54593SOL    HW163805  10.203   7.002   6.468
54593SOL    HW263806  10.042   6.990   6.439
54594SOL     OW63807  10.232   6.089   6.485
54594SOL    HW163808  10.207   6.080   6.389
54594SOL    HW263809  10.280   6.007   6.516
54595SOL     OW63810   9.849   5.650   6.098
54595SOL    HW163811   9.768   5.651   6.156
54595SOL    HW263812   9.852   5.733   6.043
54596SOL     OW63813  10.744   6.774   5.627
54596SOL    HW163814  10.776   6.698   5.684
54596SOL    HW263815  10.652   6.801   5.657
54597SOL     OW63816   9.607   5.621   5.757
54597SOL    HW163817   9.656   5.705   5.736
54597SOL    HW263818   9.669   5.556   5.802
54598SOL     OW63819  10.245   5.822   6.066
54598SOL    HW163820  10.197   5.863   5.988
54598SOL    HW263821  10.344   5.820   6.047
54599SOL     OW63822  10.386   6.269   7.050
54599SOL    HW163823  10.306   6.208   7.053
54599SOL    HW263824  10.467   6.216   7.026
54600SOL     OW63825  10.537   7.156   6.379
54600SOL    HW163826  10.558   7.230   6.314
54600SOL    HW263827  10.605   7.156   6.452
54601SOL     OW63828   9.769   6.738   6.327
54601SOL    HW163829   9.698   6.711   6.392
54601SOL    HW263830   9.743   6.710   6.234
54602SOL     OW63831  10.581   7.383   6.177
54602SOL    HW163832  10.625   7.447   6.113
54602SOL    HW263833  10.531   7.435   6.247
54603SOL     OW63834  10.342   6.135   5.602
54603SOL    HW163835  10.301   6.217   5.563
54603SOL    HW263836  10.406   6.161   5.675
54604SOL     OW63837   9.388   6.142   6.972
54604SOL    HW163838   9.480   6.141   6.931
54604SOL    HW263839   9.382   6.216   7.039
54605SOL     OW63840   9.871   5.808   6.733
54605SOL    HW163841   9.909   5.724   6.770
54605SOL    HW263842   9.783   5.827   6.777
54606SOL     OW63843  10.176   6.040   6.228
54606SOL    HW163844  10.144   6.112   6.166
54606SOL    HW263845  10.200   5.959   6.175
54607SOL     OW63846  10.327   5.625   6.339
54607SOL    HW163847  10.255   5.630   6.270
54607SOL    HW263848  10.303   5.556   6.408
54608SOL     OW63849  10.739   6.759   6.453
54608SOL    HW163850  10.684   6.675   6.446
54608SOL    HW263851  10.765   6.788   6.361
54609SOL     OW63852  10.776   6.176   6.578
54609SOL    HW163853  10.746   6.081   6.585
54609SOL    HW263854  10.849   6.192   6.644
54610SOL     OW63855  11.167   6.419   5.963
54610SOL    HW163856  11.209   6.355   6.027
54610SOL    HW263857  11.129   6.368   5.885
54611SOL     OW63858   9.798   6.971   5.760
54611SOL    HW163859   9.711   6.956   5.807
54611SOL    HW263860   9.781   6.997   5.665
54612SOL     OW63861  10.974   6.866   6.243
54612SOL    HW163862  11.073   6.874   6.257
54612SOL    HW263863  10.929   6.950   6.274
54613SOL     OW63864  10.700   6.161   5.664
54613SOL    HW163865  10.646   6.140   5.745
54613SOL    HW263866  10.791   6.120   5.673
54614SOL     OW63867   9.837   5.842   5.914
54614SOL    HW163868   9.864   5.783   5.839
54614SOL    HW263869   9.837   5.937   5.883
54615SOL     OW63870  11.064   6.809   7.174
54615SOL    HW163871  11.155   6.770   7.161
54615SOL    HW263872  11.072   6.905   7.198
54616SOL     OW63873  10.374   6.933   6.926
54616SOL    HW163874  10.294   6.910   6.981
54616SOL    HW263875  10.457   6.907   6.975
54617SOL     OW63876  10.902   7.215   7.211
54617SOL    HW163877  10.929   7.249   7.121
54617SOL    HW263878  10.981   7.177   7.257
54618SOL     OW63879  10.421   6.781   6.686
54618SOL    HW163880  10.381   6.825   6.767
54618SOL    HW263881  10.380   6.818   6.603
54619SOL     OW63882  10.948   6.685   6.665
54619SOL    HW163883  10.953   6.766   6.724
54619SOL    HW263884  10.862   6.687   6.614
54620SOL     OW63885  10.225   5.675   6.988
54620SOL    HW163886  10.250   5.655   6.893
54620SOL    HW263887  10.297   5.731   7.030
54621SOL     OW63888  10.290   6.702   7.305
54621SOL    HW163889  10.191   6.708   7.315
54621SOL    HW263890  10.313   6.622   7.249
54622SOL     OW63891  10.015   6.636   5.954
54622SOL    HW163892  10.001   6.643   6.053
54622SOL    HW263893  10.099   6.585   5.936
54623SOL     OW63894   9.720   6.399   6.837
54623SOL    HW163895   9.806   6.411   6.887
54623SOL    HW263896   9.678   6.312   6.864
54624SOL     OW63897  10.584   5.972   6.848
54624SOL    HW163898  10.605   6.046   6.912
54624SOL    HW263899  10.495   5.989   6.805
54625SOL     OW63900   9.374   7.150   6.917
54625SOL    HW163901   9.328   7.232   6.883
54625SOL    HW263902   9.472   7.169   6.926
54626SOL     OW63903   9.677   6.686   6.087
54626SOL    HW163904   9.670   6.769   6.031
54626SOL    HW263905   9.681   6.606   6.027
54627SOL     OW63906   9.876   6.123   6.451
54627SOL    HW163907   9.888   6.189   6.377
54627SOL    HW263908   9.922   6.157   6.534
54628SOL     OW63909  10.562   6.934   5.974
54628SOL    HW163910  10.612   7.011   6.014
54628SOL    HW263911  10.467   6.936   6.006
54629SOL     OW63912  10.582   7.031   6.728
54629SOL    HW163913  10.629   7.044   6.815
54629SOL    HW263914  10.516   6.957   6.737
54630SOL     OW63915  10.892   6.225   6.058
54630SOL    HW163916  10.861   6.286   6.131
54630SOL    HW263917  10.942   6.277   5.989
54631SOL     OW63918   9.664   7.096   6.915
54631SOL    HW163919   9.643   7.052   6.828
54631SOL    HW263920   9.761   7.122   6.918
54632SOL     OW63921   9.712   6.337   7.184
54632SOL    HW163922   9.780   6.392   7.137
54632SOL    HW263923   9.752   6.249   7.211
54633SOL     OW63924  10.897   6.365   7.256
54633SOL    HW163925  10.805   6.403   7.251
54633SOL    HW263926  10.957   6.412   7.191
54634SOL     OW63927  10.323   5.691   7.356
54634SOL    HW163928  10.329   5.776   7.304
54634SOL    HW263929  10.355   5.615   7.299
54635SOL     OW63930   9.814   5.636   7.326
54635SOL    HW163931   9.772   5.579   7.256
54635SOL    HW263932   9.748   5.705   7.358
54636SOL     OW63933   9.883   6.456   6.615
54636SOL    HW163934   9.927   6.545   6.606
54636SOL    HW263935   9.820   6.456   6.692
54637SOL     OW63936  10.670   6.448   6.631
54637SOL    HW163937  10.595   6.448   6.565
54637SOL    HW263938  10.707   6.356   6.640
54638SOL     OW63939  10.519   6.111   5.861
54638SOL    HW163940  10.532   6.027   5.915
54638SOL    HW263941  10.490   6.185   5.921
54639SOL     OW63942   9.617   5.799   6.817
54639SOL    HW163943   9.594   5.836   6.907
54639SOL    HW263944   9.587   5.704   6.811
54640SOL     OW63945   9.347   6.896   6.868
54640SOL    HW163946   9.400   6.847   6.936
54640SOL    HW263947   9.369   6.994   6.873
54641SOL     OW63948  10.042   6.220   6.650
54641SOL    HW163949  10.101   6.194   6.574
54641SOL    HW263950  10.014   6.316   6.639
54642SOL     OW63951  11.038   6.521   7.440
54642SOL    HW163952  10.992   6.514   7.351
54642SOL    HW263953  10.976   6.565   7.506
54643SOL     OW63954   9.617   5.649   6.204
54643SOL    HW163955   9.606   5.743   6.237
54643SOL    HW263956   9.612   5.586   6.281
54644SOL     OW63957  10.932   5.953   5.960
54644SOL    HW163958  10.934   5.877   6.024
54644SOL    HW263959  10.884   6.030   6.000
54645SOL     OW63960  10.333   6.352   6.552
54645SOL    HW163961  10.348   6.373   6.648
54645SOL    HW263962  10.303   6.257   6.543
54646SOL     OW63963  10.290   7.159   7.286
54646SOL    HW163964  10.270   7.203   7.198
54646SOL    HW263965  10.329   7.068   7.270
54647SOL     OW63966  11.169   7.104   7.191
54647SOL    HW163967  11.183   7.131   7.096
54647SOL    HW263968  11.252   7.126   7.244
54648SOL     OW63969   9.660   6.484   7.390
54648SOL    HW163970   9.736   6.528   7.438
54648SOL    HW263971   9.695   6.437   7.308
54649SOL     OW63972  10.850   5.860   5.711
54649SOL    HW163973  10.789   5.785   5.734
54649SOL    HW263974  10.872   5.912   5.794
54650SOL     OW63975  10.613   6.424   5.628
54650SOL    HW163976  10.647   6.331   5.643
54650SOL    HW263977  10.631   6.451   5.533
54651SOL     OW63978  10.378   6.919   6.435
54651SOL    HW163979  10.385   6.835   6.380
54651SOL    HW263980  10.440   6.988   6.399
54652SOL     OW63981   9.629   6.396   6.535
54652SOL    HW163982   9.722   6.432   6.540
54652SOL    HW263983   9.623   6.311   6.587
54653SOL     OW63984   9.649   6.095   6.592
54653SOL    HW163985   9.597   6.012   6.575
54653SOL    HW263986   9.726   6.100   6.528
54654SOL     OW63987  10.448   5.966   7.264
54654SOL    HW163988  10.403   6.029   7.328
54654SOL    HW263989  10.541   5.997   7.247
54655SOL     OW63990  10.470   5.793   7.063
54655SOL    HW163991  10.470   5.857   7.140
54655SOL    HW263992  10.498   5.841   6.980
54656SOL     OW63993   9.318   6.912   5.786
54656SOL    HW163994   9.225   6.933   5.755
54656SOL    HW263995   9.328   6.813   5.799
54657SOL     OW63996   9.398   7.387   6.513
54657SOL    HW163997   9.356   7.301   6.486
54657SOL    HW263998   9.492   7.390   6.479
54658SOL     OW63999   9.814   7.154   6.496
54658SOL    HW164000   9.880   7.228   6.505
54658SOL    HW264001   9.858   7.075   6.454
54659SOL     OW64002  10.312   6.382   6.824
54659SOL    HW164003  10.353   6.350   6.910
54659SOL    HW264004  10.216   6.355   6.821
54660SOL     OW64005   9.350   6.130   6.700
54660SOL    HW164006   9.435   6.097   6.659
54660SOL    HW264007   9.363   6.145   6.798
54661SOL     OW64008   9.499   6.106   7.308
54661SOL    HW164009   9.558   6.066   7.238
54661SOL    HW264010   9.441   6.177   7.267
54662SOL     OW64011  10.679   6.536   7.246
54662SOL    HW164012  10.718   6.625   7.266
54662SOL    HW264013  10.689   6.516   7.149
54663SOL     OW64014  10.125   6.158   5.911
54663SOL    HW164015  10.132   6.069   5.865
54663SOL    HW264016  10.031   6.192   5.903
54664SOL     OW64017  10.967   6.190   6.792
54664SOL    HW164018  10.929   6.121   6.854
54664SOL    HW264019  11.049   6.154   6.748
54665SOL     OW64020   9.562   7.150   7.330
54665SOL    HW164021   9.532   7.207   7.406
54665SOL    HW264022   9.555   7.053   7.356
54666SOL     OW64023   9.981   6.050   6.855
54666SOL    HW164024   9.947   5.961   6.825
54666SOL    HW264025  10.007   6.104   6.775
54667SOL     OW64026  10.240   7.264   7.051
54667SOL    HW164027  10.216   7.246   6.956
54667SOL    HW264028  10.270   7.358   7.061
54668SOL     OW64029   9.783   6.086   5.777
54668SOL    HW164030   9.844   6.166   5.781
54668SOL    HW264031   9.688   6.117   5.784
54669SOL     OW64032   9.469   6.723   7.052
54669SOL    HW164033   9.491   6.662   7.128
54669SOL    HW264034   9.479   6.674   6.966
54670SOL     OW64035  10.657   6.645   6.820
54670SOL    HW164036  10.681   6.582   6.746
54670SOL    HW264037  10.567   6.685   6.802
54671SOL     OW64038  10.612   6.441   5.895
54671SOL    HW164039  10.526   6.410   5.937
54671SOL    HW264040  10.608   6.427   5.796
54672SOL     OW64041  11.069   7.333   6.740
54672SOL    HW164042  11.130   7.363   6.667
54672SOL    HW264043  11.031   7.244   6.718
54673SOL     OW64044  10.562   7.317   6.714
54673SOL    HW164045  10.646   7.322   6.660
54673SOL    HW264046  10.539   7.221   6.732
54674SOL     OW64047   9.393   6.844   6.608
54674SOL    HW164048   9.388   6.843   6.708
54674SOL    HW264049   9.310   6.803   6.570
54675SOL     OW64050   9.998   7.248   7.302
54675SOL    HW164051   9.942   7.329   7.311
54675SOL    HW264052  10.050   7.252   7.216
54676SOL     OW64053  11.036   5.721   6.109
54676SOL    HW164054  11.109   5.704   6.042
54676SOL    HW264055  11.005   5.634   6.147
54677SOL     OW64056  10.698   7.159   6.063
54677SOL    HW164057  10.765   7.171   5.989
54677SOL    HW264058  10.658   7.248   6.086
54678SOL     OW64059   9.440   7.380   7.437
54678SOL    HW164060   9.399   7.306   7.490
54678SOL    HW264061   9.504   7.431   7.495
54679SOL     OW64062  10.590   6.513   6.258
54679SOL    HW164063  10.650   6.432   6.260
54679SOL    HW264064  10.630   6.582   6.198
54680SOL     OW64065  10.140   6.859   7.008
54680SOL    HW164066  10.135   6.892   7.103
54680SOL    HW264067  10.054   6.878   6.962
54681SOL     OW64068   9.982   7.202   5.740
54681SOL    HW164069   9.991   7.212   5.641
54681SOL    HW264070   9.942   7.113   5.761
54682SOL     OW64071  10.960   7.306   6.980
54682SOL    HW164072  11.013   7.316   6.896
54682SOL    HW264073  10.933   7.396   7.014
54683SOL     OW64074  11.151   5.761   6.549
54683SOL    HW164075  11.190   5.676   6.513
54683SOL    HW264076  11.053   5.763   6.530
54684SOL     OW64077   9.573   5.912   6.306
54684SOL    HW164078   9.494   5.963   6.272
54684SOL    HW264079   9.564   5.897   6.404
54685SOL     OW64080  10.504   7.198   5.617
54685SOL    HW164081  10.510   7.105   5.654
54685SOL    HW264082  10.445   7.198   5.537
54686SOL     OW64083  10.132   6.588   6.958
54686SOL    HW164084  10.172   6.587   6.866
54686SOL    HW264085  10.142   6.680   6.998
54687SOL     OW64086  10.226   6.496   5.877
54687SOL    HW164087  10.289   6.534   5.809
54687SOL    HW264088  10.266   6.413   5.916
54688SOL     OW64089  10.814   7.193   5.630
54688SOL    HW164090  10.722   7.230   5.637
54688SOL    HW264091  10.852   7.213   5.540
54689SOL     OW64092   9.682   6.874   7.076
54689SOL    HW164093   9.669   6.967   7.042
54689SOL    HW264094   9.598   6.822   7.063
54690SOL     OW64095  10.924   6.878   6.875
54690SOL    HW164096  10.984   6.881   6.955
54690SOL    HW264097  10.849   6.942   6.888
54691SOL     OW64098  10.349   6.684   6.282
54691SOL    HW164099  10.279   6.637   6.336
54691SOL    HW264100  10.408   6.616   6.239
54692SOL     OW64101  10.324   5.822   6.557
54692SOL    HW164102  10.316   5.786   6.464
54692SOL    HW264103  10.322   5.746   6.622
54693SOL     OW64104   9.900   7.073   6.077
54693SOL    HW164105   9.942   7.015   6.007
54693SOL    HW264106   9.856   7.152   6.033
54694SOL     OW64107  11.019   5.971   6.967
54694SOL    HW164108  11.092   6.040   6.971
54694SOL    HW264109  11.047   5.896   6.908
54695SOL     OW64110   9.565   6.934   5.876
54695SOL    HW164111   9.469   6.935   5.849
54695SOL    HW264112   9.577   6.987   5.960
54696SOL     OW64113   9.415   6.599   7.312
54696SOL    HW164114   9.338   6.566   7.366
54696SOL    HW264115   9.500   6.569   7.354
54697SOL     OW64116   9.982   5.789   7.075
54697SOL    HW164117  10.072   5.773   7.035
54697SOL    HW264118   9.990   5.794   7.174
54698SOL     OW64119   9.385   5.931   5.619
54698SOL    HW164120   9.293   5.903   5.590
54698SOL    HW264121   9.416   6.008   5.563
54699SOL     OW64122  10.750   6.442   6.984
54699SOL    HW164123  10.693   6.494   6.921
54699SOL    HW264124  10.846   6.454   6.960
54700SOL     OW64125   9.382   5.752   5.904
54700SOL    HW164126   9.365   5.835   5.850
54700SOL    HW264127   9.472   5.715   5.882
54701SOL     OW64128  10.493   6.921   5.705
54701SOL    HW164129  10.394   6.910   5.707
54701SOL    HW264130  10.527   6.936   5.798
54702SOL     OW64131   9.923   6.428   7.017
54702SOL    HW164132   9.979   6.509   7.000
54702SOL    HW264133   9.982   6.348   7.020
54703SOL     OW64134  10.803   7.353   6.545
54703SOL    HW164135  10.836   7.417   6.476
54703SOL    HW264136  10.869   7.347   6.620
54704SOL     OW64137  10.026   6.151   7.294
54704SOL    HW164138  10.045   6.216   7.368
54704SOL    HW264139  10.086   6.071   7.303
54705SOL     OW64140  10.760   6.806   7.219
54705SOL    HW164141  10.751   6.796   7.318
54705SOL    HW264142  10.856   6.799   7.193
54706SOL     OW64143   9.700   7.327   7.146
54706SOL    HW164144   9.609   7.368   7.144
54706SOL    HW264145   9.693   7.233   7.178
54707SOL     OW64146  10.984   6.469   6.840
54707SOL    HW164147  10.957   6.380   6.803
54707SOL    HW264148  10.985   6.537   6.767
54708SOL     OW64149  10.535   5.911   6.035
54708SOL    HW164150  10.600   5.837   6.024
54708SOL    HW264151  10.555   5.961   6.119
54709SOL     OW64152   9.904   6.331   6.238
54709SOL    HW164153   9.954   6.416   6.219
54709SOL    HW264154   9.816   6.333   6.190
54710SOL     OW64155  11.087   5.928   7.228
54710SOL    HW164156  11.070   5.959   7.134
54710SOL    HW264157  11.003   5.891   7.266
54711SOL     OW64158  11.040   6.520   7.103
54711SOL    HW164159  11.078   6.611   7.118
54711SOL    HW264160  11.032   6.503   7.004
54712SOL     OW64161  10.169   6.960   5.602
54712SOL    HW164162  10.123   6.975   5.690
54712SOL    HW264163  10.213   7.045   5.572
54713SOL     OW64164   9.971   7.376   6.539
54713SOL    HW164165   9.925   7.464   6.526
54713SOL    HW264166  10.070   7.388   6.532
54714SOL     OW64167  10.169   6.542   6.447
54714SOL    HW164168  10.223   6.473   6.495
54714SOL    HW264169  10.137   6.611   6.513
54715SOL     OW64170  10.393   6.570   5.673
54715SOL    HW164171  10.370   6.623   5.591
54715SOL    HW264172  10.474   6.514   5.654
54716SOL     OW64173  11.171   7.155   6.437
54716SOL    HW164174  11.100   7.143   6.367
54716SOL    HW264175  11.172   7.076   6.497
54717SOL     OW64176   9.531   6.900   7.430
54717SOL    HW164177   9.466   6.827   7.409
54717SOL    HW264178   9.535   6.914   7.528
54718SOL     OW64179   9.389   6.826   6.239
54718SOL    HW164180   9.388   6.779   6.327
54718SOL    HW264181   9.471   6.798   6.188
54719SOL     OW64182   9.982   6.977   7.210
54719SOL    HW164183   9.904   6.927   7.248
54719SOL    HW264184   9.979   7.072   7.241
54720SOL     OW64185  11.134   5.778   6.813
54720SOL    HW164186  11.130   5.688   6.857
54720SOL    HW264187  11.137   5.767   6.714
54721SOL     OW64188   9.738   6.010   6.106
54721SOL    HW164189   9.768   5.938   6.044
54721SOL    HW264190   9.699   5.970   6.189
54722SOL     OW64191  11.015   7.073   6.690
54722SOL    HW164192  10.922   7.048   6.663
54722SOL    HW264193  11.041   7.023   6.772
54723SOL     OW64194   9.627   6.133   6.866
54723SOL    HW164195   9.665   6.074   6.938
54723SOL    HW264196   9.667   6.107   6.778
54724SOL     OW64197  10.122   7.172   6.273
54724SOL    HW164198  10.154   7.182   6.179
54724SOL    HW264199  10.043   7.110   6.275
54725SOL     OW64200  10.734   5.800   6.698
54725SOL    HW164201  10.786   5.735   6.753
54725SOL    HW264202  10.685   5.863   6.759
54726SOL     OW64203  10.311   5.620   6.740
54726SOL    HW164204  10.248   5.548   6.709
54726SOL    HW264205  10.404   5.584   6.740
54727SOL     OW64206  10.080   6.916   5.887
54727SOL    HW164207  10.034   6.829   5.904
54727SOL    HW264208  10.171   6.913   5.928
54728SOL     OW64209   9.928   7.153   6.870
54728SOL    HW164210   9.923   7.235   6.927
54728SOL    HW264211  10.017   7.150   6.825
54729SOL     OW64212  10.662   5.638   5.754
54729SOL    HW164213  10.697   5.597   5.670
54729SOL    HW264214  10.572   5.600   5.774
54730SOL     OW64215  10.610   6.039   6.277
54730SOL    HW164216  10.551   6.119   6.281
54730SOL    HW264217  10.625   6.004   6.370
54731SOL     OW64218  10.903   5.807   6.468
54731SOL    HW164219  10.819   5.806   6.522
54731SOL    HW264220  10.905   5.890   6.412
54732SOL     OW64221   9.349   6.663   5.886
54732SOL    HW164222   9.448   6.652   5.877
54732SOL    HW264223   9.309   6.577   5.918
54733SOL     OW64224  10.185   7.232   5.923
54733SOL    HW164225  10.108   7.197   5.869
54733SOL    HW264226  10.153   7.303   5.985
54734SOL     OW64227   9.540   6.214   7.561
54734SOL    HW164228   9.447   6.212   7.598
54734SOL    HW264229   9.541   6.175   7.469
54735SOL     OW64230   9.535   5.861   8.444
54735SOL    HW164231   9.570   5.844   8.536
54735SOL    HW264232   9.447   5.816   8.432
54736SOL     OW64233   9.329   5.954   8.095
54736SOL    HW164234   9.247   5.997   8.134
54736SOL    HW264235   9.301   5.881   8.032
54737SOL     OW64236   9.879   6.861   8.613
54737SOL    HW164237   9.786   6.854   8.576
54737SOL    HW264238   9.890   6.950   8.657
54738SOL     OW64239  10.865   7.097   8.151
54738SOL    HW164240  10.808   7.081   8.232
54738SOL    HW264241  10.806   7.107   8.071
54739SOL     OW64242  10.445   6.289   8.165
54739SOL    HW164243  10.502   6.367   8.140
54739SOL    HW264244  10.385   6.315   8.241
54740SOL     OW64245  11.065   6.193   7.679
54740SOL    HW164246  11.053   6.180   7.580
54740SOL    HW264247  11.035   6.112   7.728
54741SOL     OW64248  10.078   6.730   8.471
54741SOL    HW164249  10.000   6.747   8.531
54741SOL    HW264250  10.112   6.817   8.435
54742SOL     OW64251  10.160   6.384   9.271
54742SOL    HW164252  10.156   6.460   9.336
54742SOL    HW264253  10.182   6.420   9.180
54743SOL     OW64254   9.995   6.598   8.113
54743SOL    HW164255  10.064   6.582   8.183
54743SOL    HW264256   9.922   6.655   8.151
54744SOL     OW64257   9.996   6.747   9.251
54744SOL    HW164258  10.056   6.826   9.265
54744SOL    HW264259   9.910   6.778   9.210
54745SOL     OW64260   9.645   7.021   8.509
54745SOL    HW164261   9.567   6.990   8.456
54745SOL    HW264262   9.703   7.079   8.452
54746SOL     OW64263  10.770   7.091   8.787
54746SOL    HW164264  10.794   7.185   8.813
54746SOL    HW264265  10.754   7.037   8.869
54747SOL     OW64266   9.748   5.978   8.947
54747SOL    HW164267   9.830   5.922   8.956
54747SOL    HW264268   9.667   5.920   8.951
54748SOL     OW64269  10.913   6.033   8.185
54748SOL    HW164270  10.839   6.079   8.135
54748SOL    HW264271  10.964   6.101   8.238
54749SOL     OW64272   9.541   7.299   7.931
54749SOL    HW164273   9.575   7.376   7.985
54749SOL    HW264274   9.585   7.299   7.841
54750SOL     OW64275  10.437   6.927   9.138
54750SOL    HW164276  10.484   6.927   9.226
54750SOL    HW264277  10.389   6.840   9.127
54751SOL     OW64278   9.540   7.020   7.986
54751SOL    HW164279   9.514   7.116   7.986
54751SOL    HW264280   9.469   6.966   8.031
54752SOL     OW64281   9.550   6.677   8.334
54752SOL    HW164282   9.564   6.593   8.386
54752SOL    HW264283   9.495   6.741   8.389
54753SOL     OW64284   9.930   7.372   8.887
54753SOL    HW164285   9.838   7.355   8.922
54753SOL    HW264286   9.958   7.464   8.913
54754SOL     OW64287   9.916   6.550   7.571
54754SOL    HW164288   9.923   6.634   7.517
54754SOL    HW264289   9.962   6.563   7.659
54755SOL     OW64290  10.904   5.700   8.928
54755SOL    HW164291  10.886   5.767   8.856
54755SOL    HW264292  10.901   5.746   9.017
54756SOL     OW64293   9.432   6.229   8.011
54756SOL    HW164294   9.387   6.141   8.028
54756SOL    HW264295   9.431   6.283   8.095
54757SOL     OW64296  11.152   7.353   7.807
54757SOL    HW164297  11.206   7.324   7.887
54757SOL    HW264298  11.182   7.443   7.778
54758SOL     OW64299   9.337   7.182   7.565
54758SOL    HW164300   9.318   7.086   7.586
54758SOL    HW264301   9.304   7.240   7.640
54759SOL     OW64302  10.999   6.508   8.060
54759SOL    HW164303  11.094   6.479   8.068
54759SOL    HW264304  10.991   6.573   7.985
54760SOL     OW64305  10.951   6.694   7.880
54760SOL    HW164306  11.037   6.696   7.828
54760SOL    HW264307  10.965   6.741   7.968
54761SOL     OW64308   9.423   6.323   9.045
54761SOL    HW164309   9.511   6.310   9.090
54761SOL    HW264310   9.410   6.420   9.023
54762SOL     OW64311   9.923   6.951   8.174
54762SOL    HW164312   9.874   6.864   8.183
54762SOL    HW264313   9.900   6.994   8.087
54763SOL     OW64314  10.603   6.814   8.871
54763SOL    HW164315  10.640   6.741   8.813
54763SOL    HW264316  10.655   6.819   8.956
54764SOL     OW64317  10.119   5.590   7.950
54764SOL    HW164318  10.159   5.681   7.941
54764SOL    HW264319  10.019   5.598   7.956
54765SOL     OW64320   9.507   6.562   8.712
54765SOL    HW164321   9.596   6.517   8.698
54765SOL    HW264322   9.434   6.497   8.693
54766SOL     OW64323  10.835   6.585   7.638
54766SOL    HW164324  10.772   6.509   7.651
54766SOL    HW264325  10.883   6.603   7.724
54767SOL     OW64326  10.497   7.378   9.064
54767SOL    HW164327  10.521   7.438   8.988
54767SOL    HW264328  10.504   7.283   9.034
54768SOL     OW64329   9.627   5.837   9.249
54768SOL    HW164330   9.698   5.908   9.255
54768SOL    HW264331   9.539   5.876   9.277
54769SOL     OW64332  10.776   7.003   8.401
54769SOL    HW164333  10.717   7.009   8.481
54769SOL    HW264334  10.761   6.915   8.355
54770SOL     OW64335  10.977   7.300   8.020
54770SOL    HW164336  10.936   7.277   7.932
54770SOL    HW264337  10.959   7.226   8.085
54771SOL     OW64338   9.908   6.315   7.718
54771SOL    HW164339   9.932   6.384   7.650
54771SOL    HW264340   9.830   6.348   7.772
54772SOL     OW64341  10.591   5.931   8.392
54772SOL    HW164342  10.505   5.881   8.379
54772SOL    HW264343  10.653   5.877   8.448
54773SOL     OW64344  10.886   7.248   7.755
54773SOL    HW164345  10.975   7.294   7.758
54773SOL    HW264346  10.865   7.224   7.660
54774SOL     OW64347  10.117   6.191   8.913
54774SOL    HW164348  10.070   6.188   9.002
54774SOL    HW264349  10.066   6.136   8.847
54775SOL     OW64350  10.704   6.055   9.122
54775SOL    HW164351  10.684   6.098   9.210
54775SOL    HW264352  10.782   5.993   9.131
54776SOL     OW64353  10.283   6.476   9.020
54776SOL    HW164354  10.329   6.392   8.991
54776SOL    HW264355  10.227   6.510   8.945
54777SOL     OW64356  10.301   5.996   8.690
54777SOL    HW164357  10.224   6.030   8.744
54777SOL    HW264358  10.267   5.945   8.611
54778SOL     OW64359  10.351   6.287   7.877
54778SOL    HW164360  10.377   6.283   7.973
54778SOL    HW264361  10.266   6.236   7.863
54779SOL     OW64362   9.386   6.397   8.237
54779SOL    HW164363   9.485   6.385   8.246
54779SOL    HW264364   9.362   6.492   8.258
54780SOL     OW64365   9.440   7.407   9.019
54780SOL    HW164366   9.430   7.392   9.118
54780SOL    HW264367   9.354   7.443   8.983
54781SOL     OW64368  10.175   5.934   7.643
54781SOL    HW164369  10.234   5.997   7.594
54781SOL    HW264370  10.194   5.840   7.614
54782SOL     OW64371  11.029   6.171   9.279
54782SOL    HW164372  11.003   6.260   9.243
54782SOL    HW264373  11.027   6.103   9.206
54783SOL     OW64374  10.672   6.730   7.993
54783SOL    HW164375  10.755   6.701   7.945
54783SOL    HW264376  10.623   6.797   7.937
54784SOL     OW64377   9.860   5.782   8.333
54784SOL    HW164378   9.855   5.777   8.433
54784SOL    HW264379   9.862   5.878   8.304
54785SOL     OW64380  10.318   7.042   7.925
54785SOL    HW164381  10.272   7.114   7.873
54785SOL    HW264382  10.314   7.062   8.023
54786SOL     OW64383   9.661   7.387   8.301
54786SOL    HW164384   9.711   7.301   8.307
54786SOL    HW264385   9.726   7.464   8.298
54787SOL     OW64386  11.105   6.652   8.321
54787SOL    HW164387  11.043   6.637   8.245
54787SOL    HW264388  11.053   6.663   8.406
54788SOL     OW64389  10.537   7.136   8.954
54788SOL    HW164390  10.543   7.059   9.018
54788SOL    HW264391  10.485   7.110   8.874
54789SOL     OW64392   9.631   6.529   7.690
54789SOL    HW164393   9.713   6.568   7.648
54789SOL    HW264394   9.604   6.447   7.641
54790SOL     OW64395  10.768   6.321   8.176
54790SOL    HW164396  10.763   6.256   8.251
54790SOL    HW264397  10.848   6.380   8.189
54791SOL     OW64398   9.771   6.852   9.175
54791SOL    HW164399   9.721   6.853   9.089
54791SOL    HW264400   9.708   6.834   9.251
54792SOL     OW64401  10.421   7.362   7.685
54792SOL    HW164402  10.361   7.300   7.735
54792SOL    HW264403  10.452   7.318   7.600
54793SOL     OW64404   9.512   5.871   8.946
54793SOL    HW164405   9.432   5.931   8.933
54793SOL    HW264406   9.502   5.822   9.032
54794SOL     OW64407  10.942   6.963   7.529
54794SOL    HW164408  10.910   7.057   7.519
54794SOL    HW264409  10.866   6.900   7.517
54795SOL     OW64410   9.774   7.329   7.771
54795SOL    HW164411   9.807   7.368   7.857
54795SOL    HW264412   9.850   7.322   7.706
54796SOL     OW64413  10.710   5.693   7.874
54796SOL    HW164414  10.686   5.656   7.784
54796SOL    HW264415  10.809   5.709   7.878
54797SOL     OW64416   9.559   7.371   8.689
54797SOL    HW164417   9.616   7.306   8.739
54797SOL    HW264418   9.543   7.338   8.596
54798SOL     OW64419  10.250   7.284   8.352
54798SOL    HW164420  10.330   7.227   8.373
54798SOL    HW264421  10.201   7.244   8.275
54799SOL     OW64422   9.692   6.286   7.928
54799SOL    HW164423   9.737   6.196   7.925
54799SOL    HW264424   9.598   6.275   7.961
54800SOL     OW64425  10.857   5.808   9.177
54800SOL    HW164426  10.852   5.845   9.269
54800SOL    HW264427  10.785   5.739   9.165
54801SOL     OW64428   9.924   5.708   7.565
54801SOL    HW164429  10.022   5.686   7.572
54801SOL    HW264430   9.893   5.691   7.472
54802SOL     OW64431  10.091   5.850   9.197
54802SOL    HW164432  10.158   5.789   9.240
54802SOL    HW264433  10.018   5.869   9.262
54803SOL     OW64434  10.198   7.100   8.643
54803SOL    HW164435  10.175   7.075   8.549
54803SOL    HW264436  10.259   7.031   8.682
54804SOL     OW64437  10.661   6.176   8.881
54804SOL    HW164438  10.689   6.133   8.966
54804SOL    HW264439  10.686   6.272   8.882
54805SOL     OW64440  10.113   6.988   8.372
54805SOL    HW164441  10.203   7.002   8.330
54805SOL    HW264442  10.042   6.990   8.301
54806SOL     OW64443  10.232   6.089   8.347
54806SOL    HW164444  10.207   6.080   8.251
54806SOL    HW264445  10.280   6.007   8.378
54807SOL     OW64446   9.849   5.650   7.960
54807SOL    HW164447   9.768   5.651   8.018
54807SOL    HW264448   9.852   5.733   7.905
54808SOL     OW64449  10.744   6.774   7.489
54808SOL    HW164450  10.776   6.698   7.546
54808SOL    HW264451  10.652   6.801   7.519
54809SOL     OW64452   9.607   5.621   7.619
54809SOL    HW164453   9.656   5.705   7.598
54809SOL    HW264454   9.669   5.556   7.664
54810SOL     OW64455  10.245   5.822   7.928
54810SOL    HW164456  10.197   5.863   7.850
54810SOL    HW264457  10.344   5.820   7.909
54811SOL     OW64458  10.386   6.269   8.912
54811SOL    HW164459  10.306   6.208   8.915
54811SOL    HW264460  10.467   6.216   8.888
54812SOL     OW64461  10.537   7.156   8.241
54812SOL    HW164462  10.558   7.230   8.176
54812SOL    HW264463  10.605   7.156   8.314
54813SOL     OW64464   9.769   6.738   8.189
54813SOL    HW164465   9.698   6.711   8.254
54813SOL    HW264466   9.743   6.710   8.096
54814SOL     OW64467  10.581   7.383   8.039
54814SOL    HW164468  10.625   7.447   7.975
54814SOL    HW264469  10.531   7.435   8.109
54815SOL     OW64470  10.342   6.135   7.464
54815SOL    HW164471  10.301   6.217   7.425
54815SOL    HW264472  10.406   6.161   7.537
54816SOL     OW64473   9.388   6.142   8.834
54816SOL    HW164474   9.480   6.141   8.793
54816SOL    HW264475   9.382   6.216   8.901
54817SOL     OW64476   9.871   5.808   8.595
54817SOL    HW164477   9.909   5.724   8.632
54817SOL    HW264478   9.783   5.827   8.639
54818SOL     OW64479  10.176   6.040   8.090
54818SOL    HW164480  10.144   6.112   8.028
54818SOL    HW264481  10.200   5.959   8.037
54819SOL     OW64482  10.327   5.625   8.201
54819SOL    HW164483  10.255   5.630   8.132
54819SOL    HW264484  10.303   5.556   8.270
54820SOL     OW64485  10.739   6.759   8.315
54820SOL    HW164486  10.684   6.675   8.308
54820SOL    HW264487  10.765   6.788   8.223
54821SOL     OW64488  10.776   6.176   8.440
54821SOL    HW164489  10.746   6.081   8.447
54821SOL    HW264490  10.849   6.192   8.506
54822SOL     OW64491  11.167   6.419   7.825
54822SOL    HW164492  11.209   6.355   7.889
54822SOL    HW264493  11.129   6.368   7.747
54823SOL     OW64494   9.798   6.971   7.622
54823SOL    HW164495   9.711   6.956   7.669
54823SOL    HW264496   9.781   6.997   7.527
54824SOL     OW64497  10.974   6.866   8.105
54824SOL    HW164498  11.073   6.874   8.119
54824SOL    HW264499  10.929   6.950   8.136
54825SOL     OW64500  10.700   6.161   7.526
54825SOL    HW164501  10.646   6.140   7.607
54825SOL    HW264502  10.791   6.120   7.535
54826SOL     OW64503   9.837   5.842   7.776
54826SOL    HW164504   9.864   5.783   7.701
54826SOL    HW264505   9.837   5.937   7.745
54827SOL     OW64506  11.064   6.809   9.036
54827SOL    HW164507  11.155   6.770   9.023
54827SOL    HW264508  11.072   6.905   9.060
54828SOL     OW64509  10.374   6.933   8.788
54828SOL    HW164510  10.294   6.910   8.843
54828SOL    HW264511  10.457   6.907   8.837
54829SOL     OW64512  10.902   7.215   9.073
54829SOL    HW164513  10.929   7.249   8.983
54829SOL    HW264514  10.981   7.177   9.119
54830SOL     OW64515  10.421   6.781   8.548
54830SOL    HW164516  10.381   6.825   8.629
54830SOL    HW264517  10.380   6.818   8.465
54831SOL     OW64518  10.948   6.685   8.527
54831SOL    HW164519  10.953   6.766   8.586
54831SOL    HW264520  10.862   6.687   8.476
54832SOL     OW64521  10.225   5.675   8.850
54832SOL    HW164522  10.250   5.655   8.755
54832SOL    HW264523  10.297   5.731   8.892
54833SOL     OW64524  10.290   6.702   9.167
54833SOL    HW164525  10.191   6.708   9.177
54833SOL    HW264526  10.313   6.622   9.111
54834SOL     OW64527  10.015   6.636   7.816
54834SOL    HW164528  10.001   6.643   7.915
54834SOL    HW264529  10.099   6.585   7.798
54835SOL     OW64530   9.720   6.399   8.699
54835SOL    HW164531   9.806   6.411   8.749
54835SOL    HW264532   9.678   6.312   8.726
54836SOL     OW64533  10.584   5.972   8.710
54836SOL    HW164534  10.605   6.046   8.774
54836SOL    HW264535  10.495   5.989   8.667
54837SOL     OW64536   9.374   7.150   8.779
54837SOL    HW164537   9.328   7.232   8.745
54837SOL    HW264538   9.472   7.169   8.788
54838SOL     OW64539   9.677   6.686   7.949
54838SOL    HW164540   9.670   6.769   7.893
54838SOL    HW264541   9.681   6.606   7.889
54839SOL     OW64542   9.876   6.123   8.313
54839SOL    HW164543   9.888   6.189   8.239
54839SOL    HW264544   9.922   6.157   8.396
54840SOL     OW64545  10.562   6.934   7.836
54840SOL    HW164546  10.612   7.011   7.876
54840SOL    HW264547  10.467   6.936   7.868
54841SOL     OW64548  10.582   7.031   8.590
54841SOL    HW164549  10.629   7.044   8.677
54841SOL    HW264550  10.516   6.957   8.599
54842SOL     OW64551  10.892   6.225   7.920
54842SOL    HW164552  10.861   6.286   7.993
54842SOL    HW264553  10.942   6.277   7.851
54843SOL     OW64554   9.664   7.096   8.777
54843SOL    HW164555   9.643   7.052   8.690
54843SOL    HW264556   9.761   7.122   8.780
54844SOL     OW64557   9.712   6.337   9.046
54844SOL    HW164558   9.780   6.392   8.999
54844SOL    HW264559   9.752   6.249   9.073
54845SOL     OW64560  10.897   6.365   9.118
54845SOL    HW164561  10.805   6.403   9.113
54845SOL    HW264562  10.957   6.412   9.053
54846SOL     OW64563  10.323   5.691   9.218
54846SOL    HW164564  10.329   5.776   9.166
54846SOL    HW264565  10.355   5.615   9.161
54847SOL     OW64566   9.814   5.636   9.188
54847SOL    HW164567   9.772   5.579   9.118
54847SOL    HW264568   9.748   5.705   9.220
54848SOL     OW64569   9.883   6.456   8.477
54848SOL    HW164570   9.927   6.545   8.468
54848SOL    HW264571   9.820   6.456   8.554
54849SOL     OW64572  10.670   6.448   8.493
54849SOL    HW164573  10.595   6.448   8.427
54849SOL    HW264574  10.707   6.356   8.502
54850SOL     OW64575  10.519   6.111   7.723
54850SOL    HW164576  10.532   6.027   7.777
54850SOL    HW264577  10.490   6.185   7.783
54851SOL     OW64578   9.617   5.799   8.679
54851SOL    HW164579   9.594   5.836   8.769
54851SOL    HW264580   9.587   5.704   8.673
54852SOL     OW64581   9.347   6.896   8.730
54852SOL    HW164582   9.400   6.847   8.798
54852SOL    HW264583   9.369   6.994   8.735
54853SOL     OW64584  10.042   6.220   8.512
54853SOL    HW164585  10.101   6.194   8.436
54853SOL    HW264586  10.014   6.316   8.501
54854SOL     OW64587  11.038   6.521   9.302
54854SOL    HW164588  10.992   6.514   9.213
54854SOL    HW264589  10.976   6.565   9.368
54855SOL     OW64590   9.617   5.649   8.066
54855SOL    HW164591   9.606   5.743   8.099
54855SOL    HW264592   9.612   5.586   8.143
54856SOL     OW64593  10.932   5.953   7.822
54856SOL    HW164594  10.934   5.877   7.886
54856SOL    HW264595  10.884   6.030   7.862
54857SOL     OW64596  10.333   6.352   8.414
54857SOL    HW164597  10.348   6.373   8.510
54857SOL    HW264598  10.303   6.257   8.405
54858SOL     OW64599  10.290   7.159   9.148
54858SOL    HW164600  10.270   7.203   9.060
54858SOL    HW264601  10.329   7.068   9.132
54859SOL     OW64602  11.169   7.104   9.053
54859SOL    HW164603  11.183   7.131   8.958
54859SOL    HW264604  11.252   7.126   9.106
54860SOL     OW64605   9.660   6.484   9.252
54860SOL    HW164606   9.736   6.528   9.300
54860SOL    HW264607   9.695   6.437   9.170
54861SOL     OW64608  10.850   5.860   7.573
54861SOL    HW164609  10.789   5.785   7.596
54861SOL    HW264610  10.872   5.912   7.656
54862SOL     OW64611  10.613   6.424   7.490
54862SOL    HW164612  10.647   6.331   7.505
54862SOL    HW264613  10.631   6.451   7.395
54863SOL     OW64614  10.378   6.919   8.297
54863SOL    HW164615  10.385   6.835   8.242
54863SOL    HW264616  10.440   6.988   8.261
54864SOL     OW64617   9.629   6.396   8.397
54864SOL    HW164618   9.722   6.432   8.402
54864SOL    HW264619   9.623   6.311   8.449
54865SOL     OW64620   9.649   6.095   8.454
54865SOL    HW164621   9.597   6.012   8.437
54865SOL    HW264622   9.726   6.100   8.390
54866SOL     OW64623  10.448   5.966   9.126
54866SOL    HW164624  10.403   6.029   9.190
54866SOL    HW264625  10.541   5.997   9.109
54867SOL     OW64626  10.470   5.793   8.925
54867SOL    HW164627  10.470   5.857   9.002
54867SOL    HW264628  10.498   5.841   8.842
54868SOL     OW64629   9.318   6.912   7.648
54868SOL    HW164630   9.225   6.933   7.617
54868SOL    HW264631   9.328   6.813   7.661
54869SOL     OW64632   9.398   7.387   8.375
54869SOL    HW164633   9.356   7.301   8.348
54869SOL    HW264634   9.492   7.390   8.341
54870SOL     OW64635   9.814   7.154   8.358
54870SOL    HW164636   9.880   7.228   8.367
54870SOL    HW264637   9.858   7.075   8.316
54871SOL     OW64638  10.312   6.382   8.686
54871SOL    HW164639  10.353   6.350   8.772
54871SOL    HW264640  10.216   6.355   8.683
54872SOL     OW64641   9.350   6.130   8.562
54872SOL    HW164642   9.435   6.097   8.521
54872SOL    HW264643   9.363   6.145   8.660
54873SOL     OW64644   9.499   6.106   9.170
54873SOL    HW164645   9.558   6.066   9.100
54873SOL    HW264646   9.441   6.177   9.129
54874SOL     OW64647  10.679   6.536   9.108
54874SOL    HW164648  10.718   6.625   9.128
54874SOL    HW264649  10.689   6.516   9.011
54875SOL     OW64650  10.125   6.158   7.773
54875SOL    HW164651  10.132   6.069   7.727
54875SOL    HW264652  10.031   6.192   7.765
54876SOL     OW64653  10.967   6.190   8.654
54876SOL    HW164654  10.929   6.121   8.716
54876SOL    HW264655  11.049   6.154   8.610
54877SOL     OW64656   9.562   7.150   9.192
54877SOL    HW164657   9.532   7.207   9.268
54877SOL    HW264658   9.555   7.053   9.218
54878SOL     OW64659   9.981   6.050   8.717
54878SOL    HW164660   9.947   5.961   8.687
54878SOL    HW264661  10.007   6.104   8.637
54879SOL     OW64662  10.240   7.264   8.913
54879SOL    HW164663  10.216   7.246   8.818
54879SOL    HW264664  10.270   7.358   8.923
54880SOL     OW64665   9.783   6.086   7.639
54880SOL    HW164666   9.844   6.166   7.643
54880SOL    HW264667   9.688   6.117   7.646
54881SOL     OW64668   9.469   6.723   8.914
54881SOL    HW164669   9.491   6.662   8.990
54881SOL    HW264670   9.479   6.674   8.828
54882SOL     OW64671  10.657   6.645   8.682
54882SOL    HW164672  10.681   6.582   8.608
54882SOL    HW264673  10.567   6.685   8.664
54883SOL     OW64674  10.612   6.441   7.757
54883SOL    HW164675  10.526   6.410   7.799
54883SOL    HW264676  10.608   6.427   7.658
54884SOL     OW64677  11.069   7.333   8.602
54884SOL    HW164678  11.130   7.363   8.529
54884SOL    HW264679  11.031   7.244   8.580
54885SOL     OW64680  10.562   7.317   8.576
54885SOL    HW164681  10.646   7.322   8.522
54885SOL    HW264682  10.539   7.221   8.594
54886SOL     OW64683   9.393   6.844   8.470
54886SOL    HW164684   9.388   6.843   8.570
54886SOL    HW264685   9.310   6.803   8.432
54887SOL     OW64686   9.998   7.248   9.164
54887SOL    HW164687   9.942   7.329   9.173
54887SOL    HW264688  10.050   7.252   9.078
54888SOL     OW64689  11.036   5.721   7.971
54888SOL    HW164690  11.109   5.704   7.904
54888SOL    HW264691  11.005   5.634   8.009
54889SOL     OW64692  10.698   7.159   7.925
54889SOL    HW164693  10.765   7.171   7.851
54889SOL    HW264694  10.658   7.248   7.948
54890SOL     OW64695   9.440   7.380   9.299
54890SOL    HW164696   9.399   7.306   9.352
54890SOL    HW264697   9.504   7.431   9.357
54891SOL     OW64698  10.590   6.513   8.120
54891SOL    HW164699  10.650   6.432   8.122
54891SOL    HW264700  10.630   6.582   8.060
54892SOL     OW64701  10.140   6.859   8.870
54892SOL    HW164702  10.135   6.892   8.965
54892SOL    HW264703  10.054   6.878   8.824
54893SOL     OW64704   9.982   7.202   7.602
54893SOL    HW164705   9.991   7.212   7.503
54893SOL    HW264706   9.942   7.113   7.623
54894SOL     OW64707  10.960   7.306   8.842
54894SOL    HW164708  11.013   7.316   8.758
54894SOL    HW264709  10.933   7.396   8.876
54895SOL     OW64710  11.151   5.761   8.411
54895SOL    HW164711  11.190   5.676   8.375
54895SOL    HW264712  11.053   5.763   8.392
54896SOL     OW64713   9.573   5.912   8.168
54896SOL    HW164714   9.494   5.963   8.134
54896SOL    HW264715   9.564   5.897   8.266
54897SOL     OW64716  10.504   7.198   7.479
54897SOL    HW164717  10.510   7.105   7.516
54897SOL    HW264718  10.445   7.198   7.399
54898SOL     OW64719  10.132   6.588   8.820
54898SOL    HW164720  10.172   6.587   8.728
54898SOL    HW264721  10.142   6.680   8.860
54899SOL     OW64722  10.226   6.496   7.739
54899SOL    HW164723  10.289   6.534   7.671
54899SOL    HW264724  10.266   6.413   7.778
54900SOL     OW64725  10.814   7.193   7.492
54900SOL    HW164726  10.722   7.230   7.499
54900SOL    HW264727  10.852   7.213   7.402
54901SOL     OW64728   9.682   6.874   8.938
54901SOL    HW164729   9.669   6.967   8.904
54901SOL    HW264730   9.598   6.822   8.925
54902SOL     OW64731  10.924   6.878   8.737
54902SOL    HW164732  10.984   6.881   8.817
54902SOL    HW264733  10.849   6.942   8.750
54903SOL     OW64734  10.349   6.684   8.144
54903SOL    HW164735  10.279   6.637   8.198
54903SOL    HW264736  10.408   6.616   8.101
54904SOL     OW64737  10.324   5.822   8.419
54904SOL    HW164738  10.316   5.786   8.326
54904SOL    HW264739  10.322   5.746   8.484
54905SOL     OW64740   9.900   7.073   7.939
54905SOL    HW164741   9.942   7.015   7.869
54905SOL    HW264742   9.856   7.152   7.895
54906SOL     OW64743  11.019   5.971   8.829
54906SOL    HW164744  11.092   6.040   8.833
54906SOL    HW264745  11.047   5.896   8.770
54907SOL     OW64746   9.565   6.934   7.738
54907SOL    HW164747   9.469   6.935   7.711
54907SOL    HW264748   9.577   6.987   7.822
54908SOL     OW64749   9.415   6.599   9.174
54908SOL    HW164750   9.338   6.566   9.228
54908SOL    HW264751   9.500   6.569   9.216
54909SOL     OW64752   9.982   5.789   8.937
54909SOL    HW164753  10.072   5.773   8.897
54909SOL    HW264754   9.990   5.794   9.036
54910SOL     OW64755   9.385   5.931   7.481
54910SOL    HW164756   9.293   5.903   7.452
54910SOL    HW264757   9.416   6.008   7.425
54911SOL     OW64758  10.750   6.442   8.846
54911SOL    HW164759  10.693   6.494   8.783
54911SOL    HW264760  10.846   6.454   8.822
54912SOL     OW64761   9.382   5.752   7.766
54912SOL    HW164762   9.365   5.835   7.712
54912SOL    HW264763   9.472   5.715   7.744
54913SOL     OW64764  10.493   6.921   7.567
54913SOL    HW164765  10.394   6.910   7.569
54913SOL    HW264766  10.527   6.936   7.660
54914SOL     OW64767   9.923   6.428   8.879
54914SOL    HW164768   9.979   6.509   8.862
54914SOL    HW264769   9.982   6.348   8.882
54915SOL     OW64770  10.803   7.353   8.407
54915SOL    HW164771  10.836   7.417   8.338
54915SOL    HW264772  10.869   7.347   8.482
54916SOL     OW64773  10.026   6.151   9.156
54916SOL    HW164774  10.045   6.216   9.230
54916SOL    HW264775  10.086   6.071   9.165
54917SOL     OW64776  10.760   6.806   9.081
54917SOL    HW164777  10.751   6.796   9.180
54917SOL    HW264778  10.856   6.799   9.055
54918SOL     OW64779   9.700   7.327   9.008
54918SOL    HW164780   9.609   7.368   9.006
54918SOL    HW264781   9.693   7.233   9.040
54919SOL     OW64782  10.984   6.469   8.702
54919SOL    HW164783  10.957   6.380   8.665
54919SOL    HW264784  10.985   6.537   8.629
54920SOL     OW64785  10.535   5.911   7.897
54920SOL    HW164786  10.600   5.837   7.886
54920SOL    HW264787  10.555   5.961   7.981
54921SOL     OW64788   9.904   6.331   8.100
54921SOL    HW164789   9.954   6.416   8.081
54921SOL    HW264790   9.816   6.333   8.052
54922SOL     OW64791  11.087   5.928   9.090
54922SOL    HW164792  11.070   5.959   8.996
54922SOL    HW264793  11.003   5.891   9.128
54923SOL     OW64794  11.040   6.520   8.965
54923SOL    HW164795  11.078   6.611   8.980
54923SOL    HW264796  11.032   6.503   8.866
54924SOL     OW64797  10.169   6.960   7.464
54924SOL    HW164798  10.123   6.975   7.552
54924SOL    HW264799  10.213   7.045   7.434
54925SOL     OW64800   9.971   7.376   8.401
54925SOL    HW164801   9.925   7.464   8.388
54925SOL    HW264802  10.070   7.388   8.394
54926SOL     OW64803  10.169   6.542   8.309
54926SOL    HW164804  10.223   6.473   8.357
54926SOL    HW264805  10.137   6.611   8.375
54927SOL     OW64806  10.393   6.570   7.535
54927SOL    HW164807  10.370   6.623   7.453
54927SOL    HW264808  10.474   6.514   7.516
54928SOL     OW64809  11.171   7.155   8.299
54928SOL    HW164810  11.100   7.143   8.229
54928SOL    HW264811  11.172   7.076   8.359
54929SOL     OW64812   9.531   6.900   9.292
54929SOL    HW164813   9.466   6.827   9.271
54929SOL    HW264814   9.535   6.914   9.390
54930SOL     OW64815   9.389   6.826   8.101
54930SOL    HW164816   9.388   6.779   8.189
54930SOL    HW264817   9.471   6.798   8.050
54931SOL     OW64818   9.982   6.977   9.072
54931SOL    HW164819   9.904   6.927   9.110
54931SOL    HW264820   9.979   7.072   9.103
54932SOL     OW64821  11.134   5.778   8.675
54932SOL    HW164822  11.130   5.688   8.719
54932SOL    HW264823  11.137   5.767   8.576
54933SOL     OW64824   9.738   6.010   7.968
54933SOL    HW164825   9.768   5.938   7.906
54933SOL    HW264826   9.699   5.970   8.051
54934SOL     OW64827  11.015   7.073   8.552
54934SOL    HW164828  10.922   7.048   8.525
54934SOL    HW264829  11.041   7.023   8.634
54935SOL     OW64830   9.627   6.133   8.728
54935SOL    HW164831   9.665   6.074   8.800
54935SOL    HW264832   9.667   6.107   8.640
54936SOL     OW64833  10.122   7.172   8.135
54936SOL    HW164834  10.154   7.182   8.041
54936SOL    HW264835  10.043   7.110   8.137
54937SOL     OW64836  10.734   5.800   8.560
54937SOL    HW164837  10.786   5.735   8.615
54937SOL    HW264838  10.685   5.863   8.621
54938SOL     OW64839  10.311   5.620   8.602
54938SOL    HW164840  10.248   5.548   8.571
54938SOL    HW264841  10.404   5.584   8.602
54939SOL     OW64842  10.080   6.916   7.749
54939SOL    HW164843  10.034   6.829   7.766
54939SOL    HW264844  10.171   6.913   7.790
54940SOL     OW64845   9.928   7.153   8.732
54940SOL    HW164846   9.923   7.235   8.789
54940SOL    HW264847  10.017   7.150   8.687
54941SOL     OW64848  10.662   5.638   7.616
54941SOL    HW164849  10.697   5.597   7.532
54941SOL    HW264850  10.572   5.600   7.636
54942SOL     OW64851  10.610   6.039   8.139
54942SOL    HW164852  10.551   6.119   8.143
54942SOL    HW264853  10.625   6.004   8.232
54943SOL     OW64854  10.903   5.807   8.330
54943SOL    HW164855  10.819   5.806   8.384
54943SOL    HW264856  10.905   5.890   8.274
54944SOL     OW64857   9.349   6.663   7.748
54944SOL    HW164858   9.448   6.652   7.739
54944SOL    HW264859   9.309   6.577   7.780
54945SOL     OW64860  10.185   7.232   7.785
54945SOL    HW164861  10.108   7.197   7.731
54945SOL    HW264862  10.153   7.303   7.847
54946SOL     OW64863   9.540   6.214   9.423
54946SOL    HW164864   9.447   6.212   9.460
54946SOL    HW264865   9.541   6.175   9.331
54947SOL     OW64866   9.535   5.861  10.306
54947SOL    HW164867   9.570   5.844  10.398
54947SOL    HW264868   9.447   5.816  10.294
54948SOL     OW64869   9.329   5.954   9.957
54948SOL    HW164870   9.247   5.997   9.996
54948SOL    HW264871   9.301   5.881   9.894
54949SOL     OW64872   9.879   6.861  10.475
54949SOL    HW164873   9.786   6.854  10.438
54949SOL    HW264874   9.890   6.950  10.519
54950SOL     OW64875  10.865   7.097  10.013
54950SOL    HW164876  10.808   7.081  10.094
54950SOL    HW264877  10.806   7.107   9.933
54951SOL     OW64878  10.445   6.289  10.027
54951SOL    HW164879  10.502   6.367  10.002
54951SOL    HW264880  10.385   6.315  10.103
54952SOL     OW64881  11.065   6.193   9.541
54952SOL    HW164882  11.053   6.180   9.442
54952SOL    HW264883  11.035   6.112   9.590
54953SOL     OW64884  10.078   6.730  10.333
54953SOL    HW164885  10.000   6.747  10.393
54953SOL    HW264886  10.112   6.817  10.297
54954SOL     OW64887  10.160   6.384  11.133
54954SOL    HW164888  10.156   6.460  11.198
54954SOL    HW264889  10.182   6.420  11.042
54955SOL     OW64890   9.995   6.598   9.975
54955SOL    HW164891  10.064   6.582  10.045
54955SOL    HW264892   9.922   6.655  10.013
54956SOL     OW64893   9.996   6.747  11.113
54956SOL    HW164894  10.056   6.826  11.127
54956SOL    HW264895   9.910   6.778  11.072
54957SOL     OW64896   9.645   7.021  10.371
54957SOL    HW164897   9.567   6.990  10.318
54957SOL    HW264898   9.703   7.079  10.314
54958SOL     OW64899  10.770   7.091  10.649
54958SOL    HW164900  10.794   7.185  10.675
54958SOL    HW264901  10.754   7.037  10.731
54959SOL     OW64902   9.748   5.978  10.809
54959SOL    HW164903   9.830   5.922  10.818
54959SOL    HW264904   9.667   5.920  10.813
54960SOL     OW64905  10.913   6.033  10.047
54960SOL    HW164906  10.839   6.079   9.997
54960SOL    HW264907  10.964   6.101  10.100
54961SOL     OW64908   9.541   7.299   9.793
54961SOL    HW164909   9.575   7.376   9.847
54961SOL    HW264910   9.585   7.299   9.703
54962SOL     OW64911  10.437   6.927  11.000
54962SOL    HW164912  10.484   6.927  11.088
54962SOL    HW264913  10.389   6.840  10.989
54963SOL     OW64914   9.540   7.020   9.848
54963SOL    HW164915   9.514   7.116   9.848
54963SOL    HW264916   9.469   6.966   9.893
54964SOL     OW64917   9.550   6.677  10.196
54964SOL    HW164918   9.564   6.593  10.248
54964SOL    HW264919   9.495   6.741  10.251
54965SOL     OW64920   9.930   7.372  10.749
54965SOL    HW164921   9.838   7.355  10.784
54965SOL    HW264922   9.958   7.464  10.775
54966SOL     OW64923   9.916   6.550   9.433
54966SOL    HW164924   9.923   6.634   9.379
54966SOL    HW264925   9.962   6.563   9.521
54967SOL     OW64926  10.904   5.700  10.790
54967SOL    HW164927  10.886   5.767  10.718
54967SOL    HW264928  10.901   5.746  10.879
54968SOL     OW64929   9.432   6.229   9.873
54968SOL    HW164930   9.387   6.141   9.890
54968SOL    HW264931   9.431   6.283   9.957
54969SOL     OW64932  11.152   7.353   9.669
54969SOL    HW164933  11.206   7.324   9.749
54969SOL    HW264934  11.182   7.443   9.640
54970SOL     OW64935   9.337   7.182   9.427
54970SOL    HW164936   9.318   7.086   9.448
54970SOL    HW264937   9.304   7.240   9.502
54971SOL     OW64938  10.999   6.508   9.922
54971SOL    HW164939  11.094   6.479   9.930
54971SOL    HW264940  10.991   6.573   9.847
54972SOL     OW64941  10.951   6.694   9.742
54972SOL    HW164942  11.037   6.696   9.690
54972SOL    HW264943  10.965   6.741   9.830
54973SOL     OW64944   9.423   6.323  10.907
54973SOL    HW164945   9.511   6.310  10.952
54973SOL    HW264946   9.410   6.420  10.885
54974SOL     OW64947   9.923   6.951  10.036
54974SOL    HW164948   9.874   6.864  10.045
54974SOL    HW264949   9.900   6.994   9.949
54975SOL     OW64950  10.603   6.814  10.733
54975SOL    HW164951  10.640   6.741  10.675
54975SOL    HW264952  10.655   6.819  10.818
54976SOL     OW64953  10.119   5.590   9.812
54976SOL    HW164954  10.159   5.681   9.803
54976SOL    HW264955  10.019   5.598   9.818
54977SOL     OW64956   9.507   6.562  10.574
54977SOL    HW164957   9.596   6.517  10.560
54977SOL    HW264958   9.434   6.497  10.555
54978SOL     OW64959  10.835   6.585   9.500
54978SOL    HW164960  10.772   6.509   9.513
54978SOL    HW264961  10.883   6.603   9.586
54979SOL     OW64962  10.497   7.378  10.926
54979SOL    HW164963  10.521   7.438  10.850
54979SOL    HW264964  10.504   7.283  10.896
54980SOL     OW64965   9.627   5.837  11.111
54980SOL    HW164966   9.698   5.908  11.117
54980SOL    HW264967   9.539   5.876  11.139
54981SOL     OW64968  10.776   7.003  10.263
54981SOL    HW164969  10.717   7.009  10.343
54981SOL    HW264970  10.761   6.915  10.217
54982SOL     OW64971  10.977   7.300   9.882
54982SOL    HW164972  10.936   7.277   9.794
54982SOL    HW264973  10.959   7.226   9.947
54983SOL     OW64974   9.908   6.315   9.580
54983SOL    HW164975   9.932   6.384   9.512
54983SOL    HW264976   9.830   6.348   9.634
54984SOL     OW64977  10.591   5.931  10.254
54984SOL    HW164978  10.505   5.881  10.241
54984SOL    HW264979  10.653   5.877  10.310
54985SOL     OW64980  10.886   7.248   9.617
54985SOL    HW164981  10.975   7.294   9.620
54985SOL    HW264982  10.865   7.224   9.522
54986SOL     OW64983  10.117   6.191  10.775
54986SOL    HW164984  10.070   6.188  10.864
54986SOL    HW264985  10.066   6.136  10.709
54987SOL     OW64986  10.704   6.055  10.984
54987SOL    HW164987  10.684   6.098  11.072
54987SOL    HW264988  10.782   5.993  10.993
54988SOL     OW64989  10.283   6.476  10.882
54988SOL    HW164990  10.329   6.392  10.853
54988SOL    HW264991  10.227   6.510  10.807
54989SOL     OW64992  10.301   5.996  10.552
54989SOL    HW164993  10.224   6.030  10.606
54989SOL    HW264994  10.267   5.945  10.473
54990SOL     OW64995  10.351   6.287   9.739
54990SOL    HW164996  10.377   6.283   9.835
54990SOL    HW264997  10.266   6.236   9.725
54991SOL     OW64998   9.386   6.397  10.099
54991SOL    HW164999   9.485   6.385  10.108
54991SOL    HW265000   9.362   6.492  10.120
54992SOL     OW65001   9.440   7.407  10.881
54992SOL    HW165002   9.430   7.392  10.980
54992SOL    HW265003   9.354   7.443  10.845
54993SOL     OW65004  10.175   5.934   9.505
54993SOL    HW165005  10.234   5.997   9.456
54993SOL    HW265006  10.194   5.840   9.476
54994SOL     OW65007  11.029   6.171  11.141
54994SOL    HW165008  11.003   6.260  11.105
54994SOL    HW265009  11.027   6.103  11.068
54995SOL     OW65010  10.672   6.730   9.855
54995SOL    HW165011  10.755   6.701   9.807
54995SOL    HW265012  10.623   6.797   9.799
54996SOL     OW65013   9.860   5.782  10.195
54996SOL    HW165014   9.855   5.777  10.295
54996SOL    HW265015   9.862   5.878  10.166
54997SOL     OW65016  10.318   7.042   9.787
54997SOL    HW165017  10.272   7.114   9.735
54997SOL    HW265018  10.314   7.062   9.885
54998SOL     OW65019   9.661   7.387  10.163
54998SOL    HW165020   9.711   7.301  10.169
54998SOL    HW265021   9.726   7.464  10.160
54999SOL     OW65022  11.105   6.652  10.183
54999SOL    HW165023  11.043   6.637  10.107
54999SOL    HW265024  11.053   6.663  10.268
55000SOL     OW65025  10.537   7.136  10.816
55000SOL    HW165026  10.543   7.059  10.880
55000SOL    HW265027  10.485   7.110  10.736
55001SOL     OW65028   9.631   6.529   9.552
55001SOL    HW165029   9.713   6.568   9.510
55001SOL    HW265030   9.604   6.447   9.503
55002SOL     OW65031  10.768   6.321  10.038
55002SOL    HW165032  10.763   6.256  10.113
55002SOL    HW265033  10.848   6.380  10.051
55003SOL     OW65034   9.771   6.852  11.037
55003SOL    HW165035   9.721   6.853  10.951
55003SOL    HW265036   9.708   6.834  11.113
55004SOL     OW65037  10.421   7.362   9.547
55004SOL    HW165038  10.361   7.300   9.597
55004SOL    HW265039  10.452   7.318   9.462
55005SOL     OW65040   9.512   5.871  10.808
55005SOL    HW165041   9.432   5.931  10.795
55005SOL    HW265042   9.502   5.822  10.894
55006SOL     OW65043  10.942   6.963   9.391
55006SOL    HW165044  10.910   7.057   9.381
55006SOL    HW265045  10.866   6.900   9.379
55007SOL     OW65046   9.774   7.329   9.633
55007SOL    HW165047   9.807   7.368   9.719
55007SOL    HW265048   9.850   7.322   9.568
55008SOL     OW65049  10.710   5.693   9.736
55008SOL    HW165050  10.686   5.656   9.646
55008SOL    HW265051  10.809   5.709   9.740
55009SOL     OW65052   9.559   7.371  10.551
55009SOL    HW165053   9.616   7.306  10.601
55009SOL    HW265054   9.543   7.338  10.458
55010SOL     OW65055  10.250   7.284  10.214
55010SOL    HW165056  10.330   7.227  10.235
55010SOL    HW265057  10.201   7.244  10.137
55011SOL     OW65058   9.692   6.286   9.790
55011SOL    HW165059   9.737   6.196   9.787
55011SOL    HW265060   9.598   6.275   9.823
55012SOL     OW65061  10.857   5.808  11.039
55012SOL    HW165062  10.852   5.845  11.131
55012SOL    HW265063  10.785   5.739  11.027
55013SOL     OW65064   9.924   5.708   9.427
55013SOL    HW165065  10.022   5.686   9.434
55013SOL    HW265066   9.893   5.691   9.334
55014SOL     OW65067  10.091   5.850  11.059
55014SOL    HW165068  10.158   5.789  11.102
55014SOL    HW265069  10.018   5.869  11.124
55015SOL     OW65070  10.198   7.100  10.505
55015SOL    HW165071  10.175   7.075  10.411
55015SOL    HW265072  10.259   7.031  10.544
55016SOL     OW65073  10.661   6.176  10.743
55016SOL    HW165074  10.689   6.133  10.828
55016SOL    HW265075  10.686   6.272  10.744
55017SOL     OW65076  10.113   6.988  10.234
55017SOL    HW165077  10.203   7.002  10.192
55017SOL    HW265078  10.042   6.990  10.163
55018SOL     OW65079  10.232   6.089  10.209
55018SOL    HW165080  10.207   6.080  10.113
55018SOL    HW265081  10.280   6.007  10.240
55019SOL     OW65082   9.849   5.650   9.822
55019SOL    HW165083   9.768   5.651   9.880
55019SOL    HW265084   9.852   5.733   9.767
55020SOL     OW65085  10.744   6.774   9.351
55020SOL    HW165086  10.776   6.698   9.408
55020SOL    HW265087  10.652   6.801   9.381
55021SOL     OW65088   9.607   5.621   9.481
55021SOL    HW165089   9.656   5.705   9.460
55021SOL    HW265090   9.669   5.556   9.526
55022SOL     OW65091  10.245   5.822   9.790
55022SOL    HW165092  10.197   5.863   9.712
55022SOL    HW265093  10.344   5.820   9.771
55023SOL     OW65094  10.386   6.269  10.774
55023SOL    HW165095  10.306   6.208  10.777
55023SOL    HW265096  10.467   6.216  10.750
55024SOL     OW65097  10.537   7.156  10.103
55024SOL    HW165098  10.558   7.230  10.038
55024SOL    HW265099  10.605   7.156  10.176
55025SOL     OW65100   9.769   6.738  10.051
55025SOL    HW165101   9.698   6.711  10.116
55025SOL    HW265102   9.743   6.710   9.958
55026SOL     OW65103  10.581   7.383   9.901
55026SOL    HW165104  10.625   7.447   9.837
55026SOL    HW265105  10.531   7.435   9.971
55027SOL     OW65106  10.342   6.135   9.326
55027SOL    HW165107  10.301   6.217   9.287
55027SOL    HW265108  10.406   6.161   9.399
55028SOL     OW65109   9.388   6.142  10.696
55028SOL    HW165110   9.480   6.141  10.655
55028SOL    HW265111   9.382   6.216  10.763
55029SOL     OW65112   9.871   5.808  10.457
55029SOL    HW165113   9.909   5.724  10.494
55029SOL    HW265114   9.783   5.827  10.501
55030SOL     OW65115  10.176   6.040   9.952
55030SOL    HW165116  10.144   6.112   9.890
55030SOL    HW265117  10.200   5.959   9.899
55031SOL     OW65118  10.327   5.625  10.063
55031SOL    HW165119  10.255   5.630   9.994
55031SOL    HW265120  10.303   5.556  10.132
55032SOL     OW65121  10.739   6.759  10.177
55032SOL    HW165122  10.684   6.675  10.170
55032SOL    HW265123  10.765   6.788  10.085
55033SOL     OW65124  10.776   6.176  10.302
55033SOL    HW165125  10.746   6.081  10.309
55033SOL    HW265126  10.849   6.192  10.368
55034SOL     OW65127  11.167   6.419   9.687
55034SOL    HW165128  11.209   6.355   9.751
55034SOL    HW265129  11.129   6.368   9.609
55035SOL     OW65130   9.798   6.971   9.484
55035SOL    HW165131   9.711   6.956   9.531
55035SOL    HW265132   9.781   6.997   9.389
55036SOL     OW65133  10.974   6.866   9.967
55036SOL    HW165134  11.073   6.874   9.981
55036SOL    HW265135  10.929   6.950   9.998
55037SOL     OW65136  10.700   6.161   9.388
55037SOL    HW165137  10.646   6.140   9.469
55037SOL    HW265138  10.791   6.120   9.397
55038SOL     OW65139   9.837   5.842   9.638
55038SOL    HW165140   9.864   5.783   9.563
55038SOL    HW265141   9.837   5.937   9.607
55039SOL     OW65142  11.064   6.809  10.898
55039SOL    HW165143  11.155   6.770  10.885
55039SOL    HW265144  11.072   6.905  10.922
55040SOL     OW65145  10.374   6.933  10.650
55040SOL    HW165146  10.294   6.910  10.705
55040SOL    HW265147  10.457   6.907  10.699
55041SOL     OW65148  10.902   7.215  10.935
55041SOL    HW165149  10.929   7.249  10.845
55041SOL    HW265150  10.981   7.177  10.981
55042SOL     OW65151  10.421   6.781  10.410
55042SOL    HW165152  10.381   6.825  10.491
55042SOL    HW265153  10.380   6.818  10.327
55043SOL     OW65154  10.948   6.685  10.389
55043SOL    HW165155  10.953   6.766  10.448
55043SOL    HW265156  10.862   6.687  10.338
55044SOL     OW65157  10.225   5.675  10.712
55044SOL    HW165158  10.250   5.655  10.617
55044SOL    HW265159  10.297   5.731  10.754
55045SOL     OW65160  10.290   6.702  11.029
55045SOL    HW165161  10.191   6.708  11.039
55045SOL    HW265162  10.313   6.622  10.973
55046SOL     OW65163  10.015   6.636   9.678
55046SOL    HW165164  10.001   6.643   9.777
55046SOL    HW265165  10.099   6.585   9.660
55047SOL     OW65166   9.720   6.399  10.561
55047SOL    HW165167   9.806   6.411  10.611
55047SOL    HW265168   9.678   6.312  10.588
55048SOL     OW65169  10.584   5.972  10.572
55048SOL    HW165170  10.605   6.046  10.636
55048SOL    HW265171  10.495   5.989  10.529
55049SOL     OW65172   9.374   7.150  10.641
55049SOL    HW165173   9.328   7.232  10.607
55049SOL    HW265174   9.472   7.169  10.650
55050SOL     OW65175   9.677   6.686   9.811
55050SOL    HW165176   9.670   6.769   9.755
55050SOL    HW265177   9.681   6.606   9.751
55051SOL     OW65178   9.876   6.123  10.175
55051SOL    HW165179   9.888   6.189  10.101
55051SOL    HW265180   9.922   6.157  10.258
55052SOL     OW65181  10.562   6.934   9.698
55052SOL    HW165182  10.612   7.011   9.738
55052SOL    HW265183  10.467   6.936   9.730
55053SOL     OW65184  10.582   7.031  10.452
55053SOL    HW165185  10.629   7.044  10.539
55053SOL    HW265186  10.516   6.957  10.461
55054SOL     OW65187  10.892   6.225   9.782
55054SOL    HW165188  10.861   6.286   9.855
55054SOL    HW265189  10.942   6.277   9.713
55055SOL     OW65190   9.664   7.096  10.639
55055SOL    HW165191   9.643   7.052  10.552
55055SOL    HW265192   9.761   7.122  10.642
55056SOL     OW65193   9.712   6.337  10.908
55056SOL    HW165194   9.780   6.392  10.861
55056SOL    HW265195   9.752   6.249  10.935
55057SOL     OW65196  10.897   6.365  10.980
55057SOL    HW165197  10.805   6.403  10.975
55057SOL    HW265198  10.957   6.412  10.915
55058SOL     OW65199  10.323   5.691  11.080
55058SOL    HW165200  10.329   5.776  11.028
55058SOL    HW265201  10.355   5.615  11.023
55059SOL     OW65202   9.814   5.636  11.050
55059SOL    HW165203   9.772   5.579  10.980
55059SOL    HW265204   9.748   5.705  11.082
55060SOL     OW65205   9.883   6.456  10.339
55060SOL    HW165206   9.927   6.545  10.330
55060SOL    HW265207   9.820   6.456  10.416
55061SOL     OW65208  10.670   6.448  10.355
55061SOL    HW165209  10.595   6.448  10.289
55061SOL    HW265210  10.707   6.356  10.364
55062SOL     OW65211  10.519   6.111   9.585
55062SOL    HW165212  10.532   6.027   9.639
55062SOL    HW265213  10.490   6.185   9.645
55063SOL     OW65214   9.617   5.799  10.541
55063SOL    HW165215   9.594   5.836  10.631
55063SOL    HW265216   9.587   5.704  10.535
55064SOL     OW65217   9.347   6.896  10.592
55064SOL    HW165218   9.400   6.847  10.660
55064SOL    HW265219   9.369   6.994  10.597
55065SOL     OW65220  10.042   6.220  10.374
55065SOL    HW165221  10.101   6.194  10.298
55065SOL    HW265222  10.014   6.316  10.363
55066SOL     OW65223  11.038   6.521  11.164
55066SOL    HW165224  10.992   6.514  11.075
55066SOL    HW265225  10.976   6.565  11.230
55067SOL     OW65226   9.617   5.649   9.928
55067SOL    HW165227   9.606   5.743   9.961
55067SOL    HW265228   9.612   5.586  10.005
55068SOL     OW65229  10.932   5.953   9.684
55068SOL    HW165230  10.934   5.877   9.748
55068SOL    HW265231  10.884   6.030   9.724
55069SOL     OW65232  10.333   6.352  10.276
55069SOL    HW165233  10.348   6.373  10.372
55069SOL    HW265234  10.303   6.257  10.267
55070SOL     OW65235  10.290   7.159  11.010
55070SOL    HW165236  10.270   7.203  10.922
55070SOL    HW265237  10.329   7.068  10.994
55071SOL     OW65238  11.169   7.104  10.915
55071SOL    HW165239  11.183   7.131  10.820
55071SOL    HW265240  11.252   7.126  10.968
55072SOL     OW65241   9.660   6.484  11.114
55072SOL    HW165242   9.736   6.528  11.162
55072SOL    HW265243   9.695   6.437  11.032
55073SOL     OW65244  10.850   5.860   9.435
55073SOL    HW165245  10.789   5.785   9.458
55073SOL    HW265246  10.872   5.912   9.518
55074SOL     OW65247  10.613   6.424   9.352
55074SOL    HW165248  10.647   6.331   9.367
55074SOL    HW265249  10.631   6.451   9.257
55075SOL     OW65250  10.378   6.919  10.159
55075SOL    HW165251  10.385   6.835  10.104
55075SOL    HW265252  10.440   6.988  10.123
55076SOL     OW65253   9.629   6.396  10.259
55076SOL    HW165254   9.722   6.432  10.264
55076SOL    HW265255   9.623   6.311  10.311
55077SOL     OW65256   9.649   6.095  10.316
55077SOL    HW165257   9.597   6.012  10.299
55077SOL    HW265258   9.726   6.100  10.252
55078SOL     OW65259  10.448   5.966  10.988
55078SOL    HW165260  10.403   6.029  11.052
55078SOL    HW265261  10.541   5.997  10.971
55079SOL     OW65262  10.470   5.793  10.787
55079SOL    HW165263  10.470   5.857  10.864
55079SOL    HW265264  10.498   5.841  10.704
55080SOL     OW65265   9.318   6.912   9.510
55080SOL    HW165266   9.225   6.933   9.479
55080SOL    HW265267   9.328   6.813   9.523
55081SOL     OW65268   9.398   7.387  10.237
55081SOL    HW165269   9.356   7.301  10.210
55081SOL    HW265270   9.492   7.390  10.203
55082SOL     OW65271   9.814   7.154  10.220
55082SOL    HW165272   9.880   7.228  10.229
55082SOL    HW265273   9.858   7.075  10.178
55083SOL     OW65274  10.312   6.382  10.548
55083SOL    HW165275  10.353   6.350  10.634
55083SOL    HW265276  10.216   6.355  10.545
55084SOL     OW65277   9.350   6.130  10.424
55084SOL    HW165278   9.435   6.097  10.383
55084SOL    HW265279   9.363   6.145  10.522
55085SOL     OW65280   9.499   6.106  11.032
55085SOL    HW165281   9.558   6.066  10.962
55085SOL    HW265282   9.441   6.177  10.991
55086SOL     OW65283  10.679   6.536  10.970
55086SOL    HW165284  10.718   6.625  10.990
55086SOL    HW265285  10.689   6.516  10.873
55087SOL     OW65286  10.125   6.158   9.635
55087SOL    HW165287  10.132   6.069   9.589
55087SOL    HW265288  10.031   6.192   9.627
55088SOL     OW65289  10.967   6.190  10.516
55088SOL    HW165290  10.929   6.121  10.578
55088SOL    HW265291  11.049   6.154  10.472
55089SOL     OW65292   9.562   7.150  11.054
55089SOL    HW165293   9.532   7.207  11.130
55089SOL    HW265294   9.555   7.053  11.080
55090SOL     OW65295   9.981   6.050  10.579
55090SOL    HW165296   9.947   5.961  10.549
55090SOL    HW265297  10.007   6.104  10.499
55091SOL     OW65298  10.240   7.264  10.775
55091SOL    HW165299  10.216   7.246  10.680
55091SOL    HW265300  10.270   7.358  10.785
55092SOL     OW65301   9.783   6.086   9.501
55092SOL    HW165302   9.844   6.166   9.505
55092SOL    HW265303   9.688   6.117   9.508
55093SOL     OW65304   9.469   6.723  10.776
55093SOL    HW165305   9.491   6.662  10.852
55093SOL    HW265306   9.479   6.674  10.690
55094SOL     OW65307  10.657   6.645  10.544
55094SOL    HW165308  10.681   6.582  10.470
55094SOL    HW265309  10.567   6.685  10.526
55095SOL     OW65310  10.612   6.441   9.619
55095SOL    HW165311  10.526   6.410   9.661
55095SOL    HW265312  10.608   6.427   9.520
55096SOL     OW65313  11.069   7.333  10.464
55096SOL    HW165314  11.130   7.363  10.391
55096SOL    HW265315  11.031   7.244  10.442
55097SOL     OW65316  10.562   7.317  10.438
55097SOL    HW165317  10.646   7.322  10.384
55097SOL    HW265318  10.539   7.221  10.456
55098SOL     OW65319   9.393   6.844  10.332
55098SOL    HW165320   9.388   6.843  10.432
55098SOL    HW265321   9.310   6.803  10.294
55099SOL     OW65322   9.998   7.248  11.026
55099SOL    HW165323   9.942   7.329  11.035
55099SOL    HW265324  10.050   7.252  10.940
55100SOL     OW65325  11.036   5.721   9.833
55100SOL    HW165326  11.109   5.704   9.766
55100SOL    HW265327  11.005   5.634   9.871
55101SOL     OW65328  10.698   7.159   9.787
55101SOL    HW165329  10.765   7.171   9.713
55101SOL    HW265330  10.658   7.248   9.810
55102SOL     OW65331   9.440   7.380  11.161
55102SOL    HW165332   9.399   7.306  11.214
55102SOL    HW265333   9.504   7.431  11.219
55103SOL     OW65334  10.590   6.513   9.982
55103SOL    HW165335  10.650   6.432   9.984
55103SOL    HW265336  10.630   6.582   9.922
55104SOL     OW65337  10.140   6.859  10.732
55104SOL    HW165338  10.135   6.892  10.827
55104SOL    HW265339  10.054   6.878  10.686
55105SOL     OW65340   9.982   7.202   9.464
55105SOL    HW165341   9.991   7.212   9.365
55105SOL    HW265342   9.942   7.113   9.485
55106SOL     OW65343  10.960   7.306  10.704
55106SOL    HW165344  11.013   7.316  10.620
55106SOL    HW265345  10.933   7.396  10.738
55107SOL     OW65346  11.151   5.761  10.273
55107SOL    HW165347  11.190   5.676  10.237
55107SOL    HW265348  11.053   5.763  10.254
55108SOL     OW65349   9.573   5.912  10.030
55108SOL    HW165350   9.494   5.963   9.996
55108SOL    HW265351   9.564   5.897  10.128
55109SOL     OW65352  10.504   7.198   9.341
55109SOL    HW165353  10.510   7.105   9.378
55109SOL    HW265354  10.445   7.198   9.261
55110SOL     OW65355  10.132   6.588  10.682
55110SOL    HW165356  10.172   6.587  10.590
55110SOL    HW265357  10.142   6.680  10.722
55111SOL     OW65358  10.226   6.496   9.601
55111SOL    HW165359  10.289   6.534   9.533
55111SOL    HW265360  10.266   6.413   9.640
55112SOL     OW65361  10.814   7.193   9.354
55112SOL    HW165362  10.722   7.230   9.361
55112SOL    HW265363  10.852   7.213   9.264
55113SOL     OW65364   9.682   6.874  10.800
55113SOL    HW165365   9.669   6.967  10.766
55113SOL    HW265366   9.598   6.822  10.787
55114SOL     OW65367  10.924   6.878  10.599
55114SOL    HW165368  10.984   6.881  10.679
55114SOL    HW265369  10.849   6.942  10.612
55115SOL     OW65370  10.349   6.684  10.006
55115SOL    HW165371  10.279   6.637  10.060
55115SOL    HW265372  10.408   6.616   9.963
55116SOL     OW65373  10.324   5.822  10.281
55116SOL    HW165374  10.316   5.786  10.188
55116SOL    HW265375  10.322   5.746  10.346
55117SOL     OW65376   9.900   7.073   9.801
55117SOL    HW165377   9.942   7.015   9.731
55117SOL    HW265378   9.856   7.152   9.757
55118SOL     OW65379  11.019   5.971  10.691
55118SOL    HW165380  11.092   6.040  10.695
55118SOL    HW265381  11.047   5.896  10.632
55119SOL     OW65382   9.565   6.934   9.600
55119SOL    HW165383   9.469   6.935   9.573
55119SOL    HW265384   9.577   6.987   9.684
55120SOL     OW65385   9.415   6.599  11.036
55120SOL    HW165386   9.338   6.566  11.090
55120SOL    HW265387   9.500   6.569  11.078
55121SOL     OW65388   9.982   5.789  10.799
55121SOL    HW165389  10.072   5.773  10.759
55121SOL    HW265390   9.990   5.794  10.898
55122SOL     OW65391   9.385   5.931   9.343
55122SOL    HW165392   9.293   5.903   9.314
55122SOL    HW265393   9.416   6.008   9.287
55123SOL     OW65394  10.750   6.442  10.708
55123SOL    HW165395  10.693   6.494  10.645
55123SOL    HW265396  10.846   6.454  10.684
55124SOL     OW65397   9.382   5.752   9.628
55124SOL    HW165398   9.365   5.835   9.574
55124SOL    HW265399   9.472   5.715   9.606
55125SOL     OW65400  10.493   6.921   9.429
55125SOL    HW165401  10.394   6.910   9.431
55125SOL    HW265402  10.527   6.936   9.522
55126SOL     OW65403   9.923   6.428  10.741
55126SOL    HW165404   9.979   6.509  10.724
55126SOL    HW265405   9.982   6.348  10.744
55127SOL     OW65406  10.803   7.353  10.269
55127SOL    HW165407  10.836   7.417  10.200
55127SOL    HW265408  10.869   7.347  10.344
55128SOL     OW65409  10.026   6.151  11.018
55128SOL    HW165410  10.045   6.216  11.092
55128SOL    HW265411  10.086   6.071  11.027
55129SOL     OW65412  10.760   6.806  10.943
55129SOL    HW165413  10.751   6.796  11.042
55129SOL    HW265414  10.856   6.799  10.917
55130SOL     OW65415   9.700   7.327  10.870
55130SOL    HW165416   9.609   7.368  10.868
55130SOL    HW265417   9.693   7.233  10.902
55131SOL     OW65418  10.984   6.469  10.564
55131SOL    HW165419  10.957   6.380  10.527
55131SOL    HW265420  10.985   6.537  10.491
55132SOL     OW65421  10.535   5.911   9.759
55132SOL    HW165422  10.600   5.837   9.748
55132SOL    HW265423  10.555   5.961   9.843
55133SOL     OW65424   9.904   6.331   9.962
55133SOL    HW165425   9.954   6.416   9.943
55133SOL    HW265426   9.816   6.333   9.914
55134SOL     OW65427  11.087   5.928  10.952
55134SOL    HW165428  11.070   5.959  10.858
55134SOL    HW265429  11.003   5.891  10.990
55135SOL     OW65430  11.040   6.520  10.827
55135SOL    HW165431  11.078   6.611  10.842
55135SOL    HW265432  11.032   6.503  10.728
55136SOL     OW65433  10.169   6.960   9.326
55136SOL    HW165434  10.123   6.975   9.414
55136SOL    HW265435  10.213   7.045   9.296
55137SOL     OW65436   9.971   7.376  10.263
55137SOL    HW165437   9.925   7.464  10.250
55137SOL    HW265438  10.070   7.388  10.256
55138SOL     OW65439  10.169   6.542  10.171
55138SOL    HW165440  10.223   6.473  10.219
55138SOL    HW265441  10.137   6.611  10.237
55139SOL     OW65442  10.393   6.570   9.397
55139SOL    HW165443  10.370   6.623   9.315
55139SOL    HW265444  10.474   6.514   9.378
55140SOL     OW65445  11.171   7.155  10.161
55140SOL    HW165446  11.100   7.143  10.091
55140SOL    HW265447  11.172   7.076  10.221
55141SOL     OW65448   9.531   6.900  11.154
55141SOL    HW165449   9.466   6.827  11.133
55141SOL    HW265450   9.535   6.914  11.252
55142SOL     OW65451   9.389   6.826   9.963
55142SOL    HW165452   9.388   6.779  10.051
55142SOL    HW265453   9.471   6.798   9.912
55143SOL     OW65454   9.982   6.977  10.934
55143SOL    HW165455   9.904   6.927  10.972
55143SOL    HW265456   9.979   7.072  10.965
55144SOL     OW65457  11.134   5.778  10.537
55144SOL    HW165458  11.130   5.688  10.581
55144SOL    HW265459  11.137   5.767  10.438
55145SOL     OW65460   9.738   6.010   9.830
55145SOL    HW165461   9.768   5.938   9.768
55145SOL    HW265462   9.699   5.970   9.913
55146SOL     OW65463  11.015   7.073  10.414
55146SOL    HW165464  10.922   7.048  10.387
55146SOL    HW265465  11.041   7.023  10.496
55147SOL     OW65466   9.627   6.133  10.590
55147SOL    HW165467   9.665   6.074  10.662
55147SOL    HW265468   9.667   6.107  10.502
55148SOL     OW65469  10.122   7.172   9.997
55148SOL    HW165470  10.154   7.182   9.903
55148SOL    HW265471  10.043   7.110   9.999
55149SOL     OW65472  10.734   5.800  10.422
55149SOL    HW165473  10.786   5.735  10.477
55149SOL    HW265474  10.685   5.863  10.483
55150SOL     OW65475  10.311   5.620  10.464
55150SOL    HW165476  10.248   5.548  10.433
55150SOL    HW265477  10.404   5.584  10.464
55151SOL     OW65478  10.080   6.916   9.611
55151SOL    HW165479  10.034   6.829   9.628
55151SOL    HW265480  10.171   6.913   9.652
55152SOL     OW65481   9.928   7.153  10.594
55152SOL    HW165482   9.923   7.235  10.651
55152SOL    HW265483  10.017   7.150  10.549
55153SOL     OW65484  10.662   5.638   9.478
55153SOL    HW165485  10.697   5.597   9.394
55153SOL    HW265486  10.572   5.600   9.498
55154SOL     OW65487  10.610   6.039  10.001
55154SOL    HW165488  10.551   6.119  10.005
55154SOL    HW265489  10.625   6.004  10.094
55155SOL     OW65490  10.903   5.807  10.192
55155SOL    HW165491  10.819   5.806  10.246
55155SOL    HW265492  10.905   5.890  10.136
55156SOL     OW65493   9.349   6.663   9.610
55156SOL    HW165494   9.448   6.652   9.601
55156SOL    HW265495   9.309   6.577   9.642
55157SOL     OW65496  10.185   7.232   9.647
55157SOL    HW165497  10.108   7.197   9.593
55157SOL    HW265498  10.153   7.303   9.709
55158SOL     OW65499   9.540   6.214  11.285
55158SOL    HW165500   9.447   6.212  11.322
55158SOL    HW265501   9.541   6.175  11.193
55159SOL     OW65502   9.535   5.861  12.168
55159SOL    HW165503   9.570   5.844  12.260
55159SOL    HW265504   9.447   5.816  12.156
55160SOL     OW65505   9.329   5.954  11.819
55160SOL    HW165506   9.247   5.997  11.858
55160SOL    HW265507   9.301   5.881  11.756
55161SOL     OW65508   9.879   6.861  12.337
55161SOL    HW165509   9.786   6.854  12.300
55161SOL    HW265510   9.890   6.950  12.381
55162SOL     OW65511  10.865   7.097  11.875
55162SOL    HW165512  10.808   7.081  11.956
55162SOL    HW265513  10.806   7.107  11.795
55163SOL     OW65514  10.445   6.289  11.889
55163SOL    HW165515  10.502   6.367  11.864
55163SOL    HW265516  10.385   6.315  11.965
55164SOL     OW65517  11.065   6.193  11.403
55164SOL    HW165518  11.053   6.180  11.304
55164SOL    HW265519  11.035   6.112  11.452
55165SOL     OW65520  10.078   6.730  12.195
55165SOL    HW165521  10.000   6.747  12.255
55165SOL    HW265522  10.112   6.817  12.159
55166SOL     OW65523   9.995   6.598  11.837
55166SOL    HW165524  10.064   6.582  11.907
55166SOL    HW265525   9.922   6.655  11.875
55167SOL     OW65526   9.645   7.021  12.233
55167SOL    HW165527   9.567   6.990  12.180
55167SOL    HW265528   9.703   7.079  12.176
55168SOL     OW65529  10.770   7.091  12.511
55168SOL    HW165530  10.794   7.185  12.537
55168SOL    HW265531  10.754   7.037  12.593
55169SOL     OW65532   9.748   5.978  12.671
55169SOL    HW165533   9.830   5.922  12.680
55169SOL    HW265534   9.667   5.920  12.675
55170SOL     OW65535  10.913   6.033  11.909
55170SOL    HW165536  10.839   6.079  11.859
55170SOL    HW265537  10.964   6.101  11.962
55171SOL     OW65538   9.541   7.299  11.655
55171SOL    HW165539   9.575   7.376  11.709
55171SOL    HW265540   9.585   7.299  11.565
55172SOL     OW65541   9.540   7.020  11.710
55172SOL    HW165542   9.514   7.116  11.710
55172SOL    HW265543   9.469   6.966  11.755
55173SOL     OW65544   9.550   6.677  12.058
55173SOL    HW165545   9.564   6.593  12.110
55173SOL    HW265546   9.495   6.741  12.113
55174SOL     OW65547   9.930   7.372  12.611
55174SOL    HW165548   9.838   7.355  12.646
55174SOL    HW265549   9.958   7.464  12.637
55175SOL     OW65550   9.916   6.550  11.295
55175SOL    HW165551   9.923   6.634  11.241
55175SOL    HW265552   9.962   6.563  11.383
55176SOL     OW65553  10.904   5.700  12.652
55176SOL    HW165554  10.886   5.767  12.580
55176SOL    HW265555  10.901   5.746  12.741
55177SOL     OW65556   9.432   6.229  11.735
55177SOL    HW165557   9.387   6.141  11.752
55177SOL    HW265558   9.431   6.283  11.819
55178SOL     OW65559  11.152   7.353  11.531
55178SOL    HW165560  11.206   7.324  11.611
55178SOL    HW265561  11.182   7.443  11.502
55179SOL     OW65562   9.337   7.182  11.289
55179SOL    HW165563   9.318   7.086  11.310
55179SOL    HW265564   9.304   7.240  11.364
55180SOL     OW65565  10.999   6.508  11.784
55180SOL    HW165566  11.094   6.479  11.792
55180SOL    HW265567  10.991   6.573  11.709
55181SOL     OW65568  10.951   6.694  11.604
55181SOL    HW165569  11.037   6.696  11.552
55181SOL    HW265570  10.965   6.741  11.692
55182SOL     OW65571   9.923   6.951  11.898
55182SOL    HW165572   9.874   6.864  11.907
55182SOL    HW265573   9.900   6.994  11.811
55183SOL     OW65574  10.119   5.590  11.674
55183SOL    HW165575  10.159   5.681  11.665
55183SOL    HW265576  10.019   5.598  11.680
55184SOL     OW65577   9.507   6.562  12.436
55184SOL    HW165578   9.596   6.517  12.422
55184SOL    HW265579   9.434   6.497  12.417
55185SOL     OW65580  10.835   6.585  11.362
55185SOL    HW165581  10.772   6.509  11.375
55185SOL    HW265582  10.883   6.603  11.448
55186SOL     OW65583   9.627   5.837  12.973
55186SOL    HW165584   9.698   5.908  12.979
55186SOL    HW265585   9.539   5.876  13.001
55187SOL     OW65586  10.776   7.003  12.125
55187SOL    HW165587  10.717   7.009  12.205
55187SOL    HW265588  10.761   6.915  12.079
55188SOL     OW65589  10.977   7.300  11.744
55188SOL    HW165590  10.936   7.277  11.656
55188SOL    HW265591  10.959   7.226  11.809
55189SOL     OW65592   9.908   6.315  11.442
55189SOL    HW165593   9.932   6.384  11.374
55189SOL    HW265594   9.830   6.348  11.496
55190SOL     OW65595  10.591   5.931  12.116
55190SOL    HW165596  10.505   5.881  12.103
55190SOL    HW265597  10.653   5.877  12.172
55191SOL     OW65598  10.886   7.248  11.479
55191SOL    HW165599  10.975   7.294  11.482
55191SOL    HW265600  10.865   7.224  11.384
55192SOL     OW65601  10.117   6.191  12.637
55192SOL    HW165602  10.070   6.188  12.726
55192SOL    HW265603  10.066   6.136  12.571
55193SOL     OW65604  10.301   5.996  12.414
55193SOL    HW165605  10.224   6.030  12.468
55193SOL    HW265606  10.267   5.945  12.335
55194SOL     OW65607  10.351   6.287  11.601
55194SOL    HW165608  10.377   6.283  11.697
55194SOL    HW265609  10.266   6.236  11.587
55195SOL     OW65610   9.386   6.397  11.961
55195SOL    HW165611   9.485   6.385  11.970
55195SOL    HW265612   9.362   6.492  11.982
55196SOL     OW65613   9.440   7.407  12.743
55196SOL    HW165614   9.430   7.392  12.842
55196SOL    HW265615   9.354   7.443  12.707
55197SOL     OW65616  10.175   5.934  11.367
55197SOL    HW165617  10.234   5.997  11.318
55197SOL    HW265618  10.194   5.840  11.338
55198SOL     OW65619  10.672   6.730  11.717
55198SOL    HW165620  10.755   6.701  11.669
55198SOL    HW265621  10.623   6.797  11.661
55199SOL     OW65622   9.860   5.782  12.057
55199SOL    HW165623   9.855   5.777  12.157
55199SOL    HW265624   9.862   5.878  12.028
55200SOL     OW65625  10.318   7.042  11.649
55200SOL    HW165626  10.272   7.114  11.597
55200SOL    HW265627  10.314   7.062  11.747
55201SOL     OW65628   9.661   7.387  12.025
55201SOL    HW165629   9.711   7.301  12.031
55201SOL    HW265630   9.726   7.464  12.022
55202SOL     OW65631  11.105   6.652  12.045
55202SOL    HW165632  11.043   6.637  11.969
55202SOL    HW265633  11.053   6.663  12.130
55203SOL     OW65634   9.631   6.529  11.414
55203SOL    HW165635   9.713   6.568  11.372
55203SOL    HW265636   9.604   6.447  11.365
55204SOL     OW65637  10.768   6.321  11.900
55204SOL    HW165638  10.763   6.256  11.975
55204SOL    HW265639  10.848   6.380  11.913
55205SOL     OW65640  10.421   7.362  11.409
55205SOL    HW165641  10.361   7.300  11.459
55205SOL    HW265642  10.452   7.318  11.324
55206SOL     OW65643  10.942   6.963  11.253
55206SOL    HW165644  10.910   7.057  11.243
55206SOL    HW265645  10.866   6.900  11.241
55207SOL     OW65646   9.774   7.329  11.495
55207SOL    HW165647   9.807   7.368  11.581
55207SOL    HW265648   9.850   7.322  11.430
55208SOL     OW65649  10.710   5.693  11.598
55208SOL    HW165650  10.686   5.656  11.508
55208SOL    HW265651  10.809   5.709  11.602
55209SOL     OW65652   9.559   7.371  12.413
55209SOL    HW165653   9.616   7.306  12.463
55209SOL    HW265654   9.543   7.338  12.320
55210SOL     OW65655  10.250   7.284  12.076
55210SOL    HW165656  10.330   7.227  12.097
55210SOL    HW265657  10.201   7.244  11.999
55211SOL     OW65658   9.692   6.286  11.652
55211SOL    HW165659   9.737   6.196  11.649
55211SOL    HW265660   9.598   6.275  11.685
55212SOL     OW65661   9.924   5.708  11.289
55212SOL    HW165662  10.022   5.686  11.296
55212SOL    HW265663   9.893   5.691  11.196
55213SOL     OW65664  10.198   7.100  12.367
55213SOL    HW165665  10.175   7.075  12.273
55213SOL    HW265666  10.259   7.031  12.406
55214SOL     OW65667  10.113   6.988  12.096
55214SOL    HW165668  10.203   7.002  12.054
55214SOL    HW265669  10.042   6.990  12.025
55215SOL     OW65670  10.232   6.089  12.071
55215SOL    HW165671  10.207   6.080  11.975
55215SOL    HW265672  10.280   6.007  12.102
55216SOL     OW65673   9.849   5.650  11.684
55216SOL    HW165674   9.768   5.651  11.742
55216SOL    HW265675   9.852   5.733  11.629
55217SOL     OW65676  10.744   6.774  11.213
55217SOL    HW165677  10.776   6.698  11.270
55217SOL    HW265678  10.652   6.801  11.243
55218SOL     OW65679   9.607   5.621  11.343
55218SOL    HW165680   9.656   5.705  11.322
55218SOL    HW265681   9.669   5.556  11.388
55219SOL     OW65682  10.245   5.822  11.652
55219SOL    HW165683  10.197   5.863  11.574
55219SOL    HW265684  10.344   5.820  11.633
55220SOL     OW65685  10.537   7.156  11.965
55220SOL    HW165686  10.558   7.230  11.900
55220SOL    HW265687  10.605   7.156  12.038
55221SOL     OW65688   9.769   6.738  11.913
55221SOL    HW165689   9.698   6.711  11.978
55221SOL    HW265690   9.743   6.710  11.820
55222SOL     OW65691  10.581   7.383  11.763
55222SOL    HW165692  10.625   7.447  11.699
55222SOL    HW265693  10.531   7.435  11.833
55223SOL     OW65694  10.342   6.135  11.188
55223SOL    HW165695  10.301   6.217  11.149
55223SOL    HW265696  10.406   6.161  11.261
55224SOL     OW65697   9.388   6.142  12.558
55224SOL    HW165698   9.480   6.141  12.517
55224SOL    HW265699   9.382   6.216  12.625
55225SOL     OW65700   9.871   5.808  12.319
55225SOL    HW165701   9.909   5.724  12.356
55225SOL    HW265702   9.783   5.827  12.363
55226SOL     OW65703  10.176   6.040  11.814
55226SOL    HW165704  10.144   6.112  11.752
55226SOL    HW265705  10.200   5.959  11.761
55227SOL     OW65706  10.327   5.625  11.925
55227SOL    HW165707  10.255   5.630  11.856
55227SOL    HW265708  10.303   5.556  11.994
55228SOL     OW65709  10.739   6.759  12.039
55228SOL    HW165710  10.684   6.675  12.032
55228SOL    HW265711  10.765   6.788  11.947
55229SOL     OW65712  10.776   6.176  12.164
55229SOL    HW165713  10.746   6.081  12.171
55229SOL    HW265714  10.849   6.192  12.230
55230SOL     OW65715  11.167   6.419  11.549
55230SOL    HW165716  11.209   6.355  11.613
55230SOL    HW265717  11.129   6.368  11.471
55231SOL     OW65718   9.798   6.971  11.346
55231SOL    HW165719   9.711   6.956  11.393
55231SOL    HW265720   9.781   6.997  11.251
55232SOL     OW65721  10.974   6.866  11.829
55232SOL    HW165722  11.073   6.874  11.843
55232SOL    HW265723  10.929   6.950  11.860
55233SOL     OW65724  10.700   6.161  11.250
55233SOL    HW165725  10.646   6.140  11.331
55233SOL    HW265726  10.791   6.120  11.259
55234SOL     OW65727   9.837   5.842  11.500
55234SOL    HW165728   9.864   5.783  11.425
55234SOL    HW265729   9.837   5.937  11.469
55235SOL     OW65730  10.374   6.933  12.512
55235SOL    HW165731  10.294   6.910  12.567
55235SOL    HW265732  10.457   6.907  12.561
55236SOL     OW65733  10.421   6.781  12.272
55236SOL    HW165734  10.381   6.825  12.353
55236SOL    HW265735  10.380   6.818  12.189
55237SOL     OW65736  10.948   6.685  12.251
55237SOL    HW165737  10.953   6.766  12.310
55237SOL    HW265738  10.862   6.687  12.200
55238SOL     OW65739  10.225   5.675  12.574
55238SOL    HW165740  10.250   5.655  12.479
55238SOL    HW265741  10.297   5.731  12.616
55239SOL     OW65742  10.015   6.636  11.540
55239SOL    HW165743  10.001   6.643  11.639
55239SOL    HW265744  10.099   6.585  11.522
55240SOL     OW65745   9.720   6.399  12.423
55240SOL    HW165746   9.806   6.411  12.473
55240SOL    HW265747   9.678   6.312  12.450
55241SOL     OW65748  10.584   5.972  12.434
55241SOL    HW165749  10.605   6.046  12.498
55241SOL    HW265750  10.495   5.989  12.391
55242SOL     OW65751   9.374   7.150  12.503
55242SOL    HW165752   9.328   7.232  12.469
55242SOL    HW265753   9.472   7.169  12.512
55243SOL     OW65754   9.677   6.686  11.673
55243SOL    HW165755   9.670   6.769  11.617
55243SOL    HW265756   9.681   6.606  11.613
55244SOL     OW65757   9.876   6.123  12.037
55244SOL    HW165758   9.888   6.189  11.963
55244SOL    HW265759   9.922   6.157  12.120
55245SOL     OW65760  10.562   6.934  11.560
55245SOL    HW165761  10.612   7.011  11.600
55245SOL    HW265762  10.467   6.936  11.592
55246SOL     OW65763  10.582   7.031  12.314
55246SOL    HW165764  10.629   7.044  12.401
55246SOL    HW265765  10.516   6.957  12.323
55247SOL     OW65766  10.892   6.225  11.644
55247SOL    HW165767  10.861   6.286  11.717
55247SOL    HW265768  10.942   6.277  11.575
55248SOL     OW65769   9.664   7.096  12.501
55248SOL    HW165770   9.643   7.052  12.414
55248SOL    HW265771   9.761   7.122  12.504
55249SOL     OW65772   9.712   6.337  12.770
55249SOL    HW165773   9.780   6.392  12.723
55249SOL    HW265774   9.752   6.249  12.797
55250SOL     OW65775  10.897   6.365  12.842
55250SOL    HW165776  10.805   6.403  12.837
55250SOL    HW265777  10.957   6.412  12.777
55251SOL     OW65778   9.883   6.456  12.201
55251SOL    HW165779   9.927   6.545  12.192
55251SOL    HW265780   9.820   6.456  12.278
55252SOL     OW65781  10.670   6.448  12.217
55252SOL    HW165782  10.595   6.448  12.151
55252SOL    HW265783  10.707   6.356  12.226
55253SOL     OW65784  10.519   6.111  11.447
55253SOL    HW165785  10.532   6.027  11.501
55253SOL    HW265786  10.490   6.185  11.507
55254SOL     OW65787   9.617   5.799  12.403
55254SOL    HW165788   9.594   5.836  12.493
55254SOL    HW265789   9.587   5.704  12.397
55255SOL     OW65790   9.347   6.896  12.454
55255SOL    HW165791   9.400   6.847  12.522
55255SOL    HW265792   9.369   6.994  12.459
55256SOL     OW65793  10.042   6.220  12.236
55256SOL    HW165794  10.101   6.194  12.160
55256SOL    HW265795  10.014   6.316  12.225
55257SOL     OW65796   9.617   5.649  11.790
55257SOL    HW165797   9.606   5.743  11.823
55257SOL    HW265798   9.612   5.586  11.867
55258SOL     OW65799  10.932   5.953  11.546
55258SOL    HW165800  10.934   5.877  11.610
55258SOL    HW265801  10.884   6.030  11.586
55259SOL     OW65802  10.333   6.352  12.138
55259SOL    HW165803  10.348   6.373  12.234
55259SOL    HW265804  10.303   6.257  12.129
55260SOL     OW65805  10.290   7.159  12.872
55260SOL    HW165806  10.270   7.203  12.784
55260SOL    HW265807  10.329   7.068  12.856
55261SOL     OW65808  10.850   5.860  11.297
55261SOL    HW165809  10.789   5.785  11.320
55261SOL    HW265810  10.872   5.912  11.380
55262SOL     OW65811  10.613   6.424  11.214
55262SOL    HW165812  10.647   6.331  11.229
55262SOL    HW265813  10.631   6.451  11.119
55263SOL     OW65814  10.378   6.919  12.021
55263SOL    HW165815  10.385   6.835  11.966
55263SOL    HW265816  10.440   6.988  11.985
55264SOL     OW65817   9.629   6.396  12.121
55264SOL    HW165818   9.722   6.432  12.126
55264SOL    HW265819   9.623   6.311  12.173
55265SOL     OW65820   9.649   6.095  12.178
55265SOL    HW165821   9.597   6.012  12.161
55265SOL    HW265822   9.726   6.100  12.114
55266SOL     OW65823  10.448   5.966  12.850
55266SOL    HW165824  10.403   6.029  12.914
55266SOL    HW265825  10.541   5.997  12.833
55267SOL     OW65826  10.470   5.793  12.649
55267SOL    HW165827  10.470   5.857  12.726
55267SOL    HW265828  10.498   5.841  12.566
55268SOL     OW65829   9.318   6.912  11.372
55268SOL    HW165830   9.225   6.933  11.341
55268SOL    HW265831   9.328   6.813  11.385
55269SOL     OW65832   9.398   7.387  12.099
55269SOL    HW165833   9.356   7.301  12.072
55269SOL    HW265834   9.492   7.390  12.065
55270SOL     OW65835   9.814   7.154  12.082
55270SOL    HW165836   9.880   7.228  12.091
55270SOL    HW265837   9.858   7.075  12.040
55271SOL     OW65838  10.312   6.382  12.410
55271SOL    HW165839  10.353   6.350  12.496
55271SOL    HW265840  10.216   6.355  12.407
55272SOL     OW65841   9.350   6.130  12.286
55272SOL    HW165842   9.435   6.097  12.245
55272SOL    HW265843   9.363   6.145  12.384
55273SOL     OW65844  10.125   6.158  11.497
55273SOL    HW165845  10.132   6.069  11.451
55273SOL    HW265846  10.031   6.192  11.489
55274SOL     OW65847  10.967   6.190  12.378
55274SOL    HW165848  10.929   6.121  12.440
55274SOL    HW265849  11.049   6.154  12.334
55275SOL     OW65850   9.981   6.050  12.441
55275SOL    HW165851   9.947   5.961  12.411
55275SOL    HW265852  10.007   6.104  12.361
55276SOL     OW65853  10.240   7.264  12.637
55276SOL    HW165854  10.216   7.246  12.542
55276SOL    HW265855  10.270   7.358  12.647
55277SOL     OW65856   9.783   6.086  11.363
55277SOL    HW165857   9.844   6.166  11.367
55277SOL    HW265858   9.688   6.117  11.370
55278SOL     OW65859   9.469   6.723  12.638
55278SOL    HW165860   9.491   6.662  12.714
55278SOL    HW265861   9.479   6.674  12.552
55279SOL     OW65862  10.657   6.645  12.406
55279SOL    HW165863  10.681   6.582  12.332
55279SOL    HW265864  10.567   6.685  12.388
55280SOL     OW65865  10.612   6.441  11.481
55280SOL    HW165866  10.526   6.410  11.523
55280SOL    HW265867  10.608   6.427  11.382
55281SOL     OW65868  11.069   7.333  12.326
55281SOL    HW165869  11.130   7.363  12.253
55281SOL    HW265870  11.031   7.244  12.304
55282SOL     OW65871  10.562   7.317  12.300
55282SOL    HW165872  10.646   7.322  12.246
55282SOL    HW265873  10.539   7.221  12.318
55283SOL     OW65874   9.393   6.844  12.194
55283SOL    HW165875   9.388   6.843  12.294
55283SOL    HW265876   9.310   6.803  12.156
55284SOL     OW65877  11.036   5.721  11.695
55284SOL    HW165878  11.109   5.704  11.628
55284SOL    HW265879  11.005   5.634  11.733
55285SOL     OW65880  10.698   7.159  11.649
55285SOL    HW165881  10.765   7.171  11.575
55285SOL    HW265882  10.658   7.248  11.672
55286SOL     OW65883  10.590   6.513  11.844
55286SOL    HW165884  10.650   6.432  11.846
55286SOL    HW265885  10.630   6.582  11.784
55287SOL     OW65886   9.982   7.202  11.326
55287SOL    HW165887   9.991   7.212  11.227
55287SOL    HW265888   9.942   7.113  11.347
55288SOL     OW65889  10.960   7.306  12.566
55288SOL    HW165890  11.013   7.316  12.482
55288SOL    HW265891  10.933   7.396  12.600
55289SOL     OW65892  11.151   5.761  12.135
55289SOL    HW165893  11.190   5.676  12.099
55289SOL    HW265894  11.053   5.763  12.116
55290SOL     OW65895   9.573   5.912  11.892
55290SOL    HW165896   9.494   5.963  11.858
55290SOL    HW265897   9.564   5.897  11.990
55291SOL     OW65898  10.504   7.198  11.203
55291SOL    HW165899  10.510   7.105  11.240
55291SOL    HW265900  10.445   7.198  11.123
55292SOL     OW65901  10.132   6.588  12.544
55292SOL    HW165902  10.172   6.587  12.452
55292SOL    HW265903  10.142   6.680  12.584
55293SOL     OW65904  10.226   6.496  11.463
55293SOL    HW165905  10.289   6.534  11.395
55293SOL    HW265906  10.266   6.413  11.502
55294SOL     OW65907  10.814   7.193  11.216
55294SOL    HW165908  10.722   7.230  11.223
55294SOL    HW265909  10.852   7.213  11.126
55295SOL     OW65910   9.682   6.874  12.662
55295SOL    HW165911   9.669   6.967  12.628
55295SOL    HW265912   9.598   6.822  12.649
55296SOL     OW65913  10.924   6.878  12.461
55296SOL    HW165914  10.984   6.881  12.541
55296SOL    HW265915  10.849   6.942  12.474
55297SOL     OW65916  10.349   6.684  11.868
55297SOL    HW165917  10.279   6.637  11.922
55297SOL    HW265918  10.408   6.616  11.825
55298SOL     OW65919  10.324   5.822  12.143
55298SOL    HW165920  10.316   5.786  12.050
55298SOL    HW265921  10.322   5.746  12.208
55299SOL     OW65922   9.900   7.073  11.663
55299SOL    HW165923   9.942   7.015  11.593
55299SOL    HW265924   9.856   7.152  11.619
55300SOL     OW65925  11.019   5.971  12.553
55300SOL    HW165926  11.092   6.040  12.557
55300SOL    HW265927  11.047   5.896  12.494
55301SOL     OW65928   9.565   6.934  11.462
55301SOL    HW165929   9.469   6.935  11.435
55301SOL    HW265930   9.577   6.987  11.546
55302SOL     OW65931   9.385   5.931  11.205
55302SOL    HW165932   9.293   5.903  11.176
55302SOL    HW265933   9.416   6.008  11.149
55303SOL     OW65934  10.750   6.442  12.570
55303SOL    HW165935  10.693   6.494  12.507
55303SOL    HW265936  10.846   6.454  12.546
55304SOL     OW65937   9.382   5.752  11.490
55304SOL    HW165938   9.365   5.835  11.436
55304SOL    HW265939   9.472   5.715  11.468
55305SOL     OW65940  10.493   6.921  11.291
55305SOL    HW165941  10.394   6.910  11.293
55305SOL    HW265942  10.527   6.936  11.384
55306SOL     OW65943   9.923   6.428  12.603
55306SOL    HW165944   9.979   6.509  12.586
55306SOL    HW265945   9.982   6.348  12.606
55307SOL     OW65946  10.803   7.353  12.131
55307SOL    HW165947  10.836   7.417  12.062
55307SOL    HW265948  10.869   7.347  12.206
55308SOL     OW65949   9.700   7.327  12.732
55308SOL    HW165950   9.609   7.368  12.730
55308SOL    HW265951   9.693   7.233  12.764
55309SOL     OW65952  10.984   6.469  12.426
55309SOL    HW165953  10.957   6.380  12.389
55309SOL    HW265954  10.985   6.537  12.353
55310SOL     OW65955  10.535   5.911  11.621
55310SOL    HW165956  10.600   5.837  11.610
55310SOL    HW265957  10.555   5.961  11.705
55311SOL     OW65958   9.904   6.331  11.824
55311SOL    HW165959   9.954   6.416  11.805
55311SOL    HW265960   9.816   6.333  11.776
55312SOL     OW65961  11.040   6.520  12.689
55312SOL    HW165962  11.078   6.611  12.704
55312SOL    HW265963  11.032   6.503  12.590
55313SOL     OW65964  10.169   6.960  11.188
55313SOL    HW165965  10.123   6.975  11.276
55313SOL    HW265966  10.213   7.045  11.158
55314SOL     OW65967   9.971   7.376  12.125
55314SOL    HW165968   9.925   7.464  12.112
55314SOL    HW265969  10.070   7.388  12.118
55315SOL     OW65970  10.169   6.542  12.033
55315SOL    HW165971  10.223   6.473  12.081
55315SOL    HW265972  10.137   6.611  12.099
55316SOL     OW65973  10.393   6.570  11.259
55316SOL    HW165974  10.370   6.623  11.177
55316SOL    HW265975  10.474   6.514  11.240
55317SOL     OW65976  11.171   7.155  12.023
55317SOL    HW165977  11.100   7.143  11.953
55317SOL    HW265978  11.172   7.076  12.083
55318SOL     OW65979   9.389   6.826  11.825
55318SOL    HW165980   9.388   6.779  11.913
55318SOL    HW265981   9.471   6.798  11.774
55319SOL     OW65982  11.134   5.778  12.399
55319SOL    HW165983  11.130   5.688  12.443
55319SOL    HW265984  11.137   5.767  12.300
55320SOL     OW65985   9.738   6.010  11.692
55320SOL    HW165986   9.768   5.938  11.630
55320SOL    HW265987   9.699   5.970  11.775
55321SOL     OW65988  11.015   7.073  12.276
55321SOL    HW165989  10.922   7.048  12.249
55321SOL    HW265990  11.041   7.023  12.358
55322SOL     OW65991   9.627   6.133  12.452
55322SOL    HW165992   9.665   6.074  12.524
55322SOL    HW265993   9.667   6.107  12.364
55323SOL     OW65994  10.122   7.172  11.859
55323SOL    HW165995  10.154   7.182  11.765
55323SOL    HW265996  10.043   7.110  11.861
55324SOL     OW65997  10.734   5.800  12.284
55324SOL    HW165998  10.786   5.735  12.339
55324SOL    HW265999  10.685   5.863  12.345
55325SOL     OW66000  10.311   5.620  12.326
55325SOL    HW166001  10.248   5.548  12.295
55325SOL    HW266002  10.404   5.584  12.326
55326SOL     OW66003  10.080   6.916  11.473
55326SOL    HW166004  10.034   6.829  11.490
55326SOL    HW266005  10.171   6.913  11.514
55327SOL     OW66006   9.928   7.153  12.456
55327SOL    HW166007   9.923   7.235  12.513
55327SOL    HW266008  10.017   7.150  12.411
55328SOL     OW66009  10.662   5.638  11.340
55328SOL    HW166010  10.697   5.597  11.256
55328SOL    HW266011  10.572   5.600  11.360
55329SOL     OW66012  10.610   6.039  11.863
55329SOL    HW166013  10.551   6.119  11.867
55329SOL    HW266014  10.625   6.004  11.956
55330SOL     OW66015  10.903   5.807  12.054
55330SOL    HW166016  10.819   5.806  12.108
55330SOL    HW266017  10.905   5.890  11.998
55331SOL     OW66018   9.349   6.663  11.472
55331SOL    HW166019   9.448   6.652  11.463
55331SOL    HW266020   9.309   6.577  11.504
55332SOL     OW66021  10.185   7.232  11.509
55332SOL    HW166022  10.108   7.197  11.455
55332SOL    HW266023  10.153   7.303  11.571
55333SOL     OW66024   9.540   8.076   0.113
55333SOL    HW166025   9.447   8.074   0.150
55333SOL    HW266026   9.541   8.037   0.021
55334SOL     OW66027   9.535   7.723   0.996
55334SOL    HW166028   9.570   7.706   1.088
55334SOL    HW266029   9.447   7.678   0.984
55335SOL     OW66030   9.329   7.816   0.647
55335SOL    HW166031   9.247   7.859   0.686
55335SOL    HW266032   9.301   7.743   0.584
55336SOL     OW66033   9.879   8.723   1.165
55336SOL    HW166034   9.786   8.716   1.128
55336SOL    HW266035   9.890   8.812   1.209
55337SOL     OW66036  10.865   8.959   0.703
55337SOL    HW166037  10.808   8.943   0.784
55337SOL    HW266038  10.806   8.969   0.623
55338SOL     OW66039  10.445   8.151   0.717
55338SOL    HW166040  10.502   8.229   0.692
55338SOL    HW266041  10.385   8.177   0.793
55339SOL     OW66042  11.065   8.055   0.231
55339SOL    HW166043  11.053   8.042   0.132
55339SOL    HW266044  11.035   7.974   0.280
55340SOL     OW66045  10.078   8.592   1.023
55340SOL    HW166046  10.000   8.609   1.083
55340SOL    HW266047  10.112   8.679   0.987
55341SOL     OW66048  10.160   8.246   1.823
55341SOL    HW166049  10.156   8.322   1.888
55341SOL    HW266050  10.182   8.282   1.732
55342SOL     OW66051   9.995   8.460   0.665
55342SOL    HW166052  10.064   8.444   0.735
55342SOL    HW266053   9.922   8.517   0.703
55343SOL     OW66054   9.996   8.609   1.803
55343SOL    HW166055  10.056   8.688   1.817
55343SOL    HW266056   9.910   8.640   1.762
55344SOL     OW66057   9.645   8.883   1.061
55344SOL    HW166058   9.567   8.852   1.008
55344SOL    HW266059   9.703   8.941   1.004
55345SOL     OW66060  10.770   8.953   1.339
55345SOL    HW166061  10.794   9.047   1.365
55345SOL    HW266062  10.754   8.899   1.421
55346SOL     OW66063   9.748   7.840   1.499
55346SOL    HW166064   9.830   7.784   1.508
55346SOL    HW266065   9.667   7.782   1.503
55347SOL     OW66066  10.913   7.895   0.737
55347SOL    HW166067  10.839   7.941   0.687
55347SOL    HW266068  10.964   7.963   0.790
55348SOL     OW66069   9.541   9.161   0.483
55348SOL    HW166070   9.575   9.238   0.537
55348SOL    HW266071   9.585   9.161   0.393
55349SOL     OW66072  10.437   8.789   1.690
55349SOL    HW166073  10.484   8.789   1.778
55349SOL    HW266074  10.389   8.702   1.679
55350SOL     OW66075   9.540   8.882   0.538
55350SOL    HW166076   9.514   8.978   0.538
55350SOL    HW266077   9.469   8.828   0.583
55351SOL     OW66078   9.550   8.539   0.886
55351SOL    HW166079   9.564   8.455   0.938
55351SOL    HW266080   9.495   8.603   0.941
55352SOL     OW66081   9.930   9.234   1.439
55352SOL    HW166082   9.838   9.217   1.474
55352SOL    HW266083   9.958   9.326   1.465
55353SOL     OW66084   9.916   8.412   0.123
55353SOL    HW166085   9.923   8.496   0.069
55353SOL    HW266086   9.962   8.425   0.211
55354SOL     OW66087  10.904   7.562   1.480
55354SOL    HW166088  10.886   7.629   1.408
55354SOL    HW266089  10.901   7.608   1.569
55355SOL     OW66090   9.432   8.091   0.563
55355SOL    HW166091   9.387   8.003   0.580
55355SOL    HW266092   9.431   8.145   0.647
55356SOL     OW66093  11.152   9.215   0.359
55356SOL    HW166094  11.206   9.186   0.439
55356SOL    HW266095  11.182   9.305   0.330
55357SOL     OW66096   9.337   9.044   0.117
55357SOL    HW166097   9.318   8.948   0.138
55357SOL    HW266098   9.304   9.102   0.192
55358SOL     OW66099  10.999   8.370   0.612
55358SOL    HW166100  11.094   8.341   0.620
55358SOL    HW266101  10.991   8.435   0.537
55359SOL     OW66102  10.951   8.556   0.432
55359SOL    HW166103  11.037   8.558   0.380
55359SOL    HW266104  10.965   8.603   0.520
55360SOL     OW66105   9.423   8.185   1.597
55360SOL    HW166106   9.511   8.172   1.642
55360SOL    HW266107   9.410   8.282   1.575
55361SOL     OW66108   9.923   8.813   0.726
55361SOL    HW166109   9.874   8.726   0.735
55361SOL    HW266110   9.900   8.856   0.639
55362SOL     OW66111  10.603   8.676   1.423
55362SOL    HW166112  10.640   8.603   1.365
55362SOL    HW266113  10.655   8.681   1.508
55363SOL     OW66114  10.119   7.452   0.502
55363SOL    HW166115  10.159   7.543   0.493
55363SOL    HW266116  10.019   7.460   0.508
55364SOL     OW66117   9.507   8.424   1.264
55364SOL    HW166118   9.596   8.379   1.250
55364SOL    HW266119   9.434   8.359   1.245
55365SOL     OW66120  10.835   8.447   0.190
55365SOL    HW166121  10.772   8.371   0.203
55365SOL    HW266122  10.883   8.465   0.276
55366SOL     OW66123  10.497   9.240   1.616
55366SOL    HW166124  10.521   9.300   1.540
55366SOL    HW266125  10.504   9.145   1.586
55367SOL     OW66126   9.627   7.699   1.801
55367SOL    HW166127   9.698   7.770   1.807
55367SOL    HW266128   9.539   7.738   1.829
55368SOL     OW66129  10.776   8.865   0.953
55368SOL    HW166130  10.717   8.871   1.033
55368SOL    HW266131  10.761   8.777   0.907
55369SOL     OW66132  10.977   9.162   0.572
55369SOL    HW166133  10.936   9.139   0.484
55369SOL    HW266134  10.959   9.088   0.637
55370SOL     OW66135   9.908   8.177   0.270
55370SOL    HW166136   9.932   8.246   0.202
55370SOL    HW266137   9.830   8.210   0.324
55371SOL     OW66138  10.591   7.793   0.944
55371SOL    HW166139  10.505   7.743   0.931
55371SOL    HW266140  10.653   7.739   1.000
55372SOL     OW66141  10.886   9.110   0.307
55372SOL    HW166142  10.975   9.156   0.310
55372SOL    HW266143  10.865   9.086   0.212
55373SOL     OW66144  10.117   8.053   1.465
55373SOL    HW166145  10.070   8.050   1.554
55373SOL    HW266146  10.066   7.998   1.399
55374SOL     OW66147  10.704   7.917   1.674
55374SOL    HW166148  10.684   7.960   1.762
55374SOL    HW266149  10.782   7.855   1.683
55375SOL     OW66150  10.283   8.338   1.572
55375SOL    HW166151  10.329   8.254   1.543
55375SOL    HW266152  10.227   8.372   1.497
55376SOL     OW66153  10.301   7.858   1.242
55376SOL    HW166154  10.224   7.892   1.296
55376SOL    HW266155  10.267   7.807   1.163
55377SOL     OW66156  10.351   8.149   0.429
55377SOL    HW166157  10.377   8.145   0.525
55377SOL    HW266158  10.266   8.098   0.415
55378SOL     OW66159   9.386   8.259   0.789
55378SOL    HW166160   9.485   8.247   0.798
55378SOL    HW266161   9.362   8.354   0.810
55379SOL     OW66162   9.440   9.269   1.571
55379SOL    HW166163   9.430   9.254   1.670
55379SOL    HW266164   9.354   9.305   1.535
55380SOL     OW66165  10.175   7.796   0.195
55380SOL    HW166166  10.234   7.859   0.146
55380SOL    HW266167  10.194   7.702   0.166
55381SOL     OW66168  11.029   8.033   1.831
55381SOL    HW166169  11.003   8.122   1.795
55381SOL    HW266170  11.027   7.965   1.758
55382SOL     OW66171  10.672   8.592   0.545
55382SOL    HW166172  10.755   8.563   0.497
55382SOL    HW266173  10.623   8.659   0.489
55383SOL     OW66174   9.860   7.644   0.885
55383SOL    HW166175   9.855   7.639   0.985
55383SOL    HW266176   9.862   7.740   0.856
55384SOL     OW66177  10.318   8.904   0.477
55384SOL    HW166178  10.272   8.976   0.425
55384SOL    HW266179  10.314   8.924   0.575
55385SOL     OW66180   9.661   9.249   0.853
55385SOL    HW166181   9.711   9.163   0.859
55385SOL    HW266182   9.726   9.326   0.850
55386SOL     OW66183  11.105   8.514   0.873
55386SOL    HW166184  11.043   8.499   0.797
55386SOL    HW266185  11.053   8.525   0.958
55387SOL     OW66186  10.537   8.998   1.506
55387SOL    HW166187  10.543   8.921   1.570
55387SOL    HW266188  10.485   8.972   1.426
55388SOL     OW66189   9.631   8.391   0.242
55388SOL    HW166190   9.713   8.430   0.200
55388SOL    HW266191   9.604   8.309   0.193
55389SOL     OW66192  10.768   8.183   0.728
55389SOL    HW166193  10.763   8.118   0.803
55389SOL    HW266194  10.848   8.242   0.741
55390SOL     OW66195   9.771   8.714   1.727
55390SOL    HW166196   9.721   8.715   1.641
55390SOL    HW266197   9.708   8.696   1.803
55391SOL     OW66198  10.421   9.224   0.237
55391SOL    HW166199  10.361   9.162   0.287
55391SOL    HW266200  10.452   9.180   0.152
55392SOL     OW66201   9.512   7.733   1.498
55392SOL    HW166202   9.432   7.793   1.485
55392SOL    HW266203   9.502   7.684   1.584
55393SOL     OW66204  10.942   8.825   0.081
55393SOL    HW166205  10.910   8.919   0.071
55393SOL    HW266206  10.866   8.762   0.069
55394SOL     OW66207   9.774   9.191   0.323
55394SOL    HW166208   9.807   9.230   0.409
55394SOL    HW266209   9.850   9.184   0.258
55395SOL     OW66210  10.710   7.555   0.426
55395SOL    HW166211  10.686   7.518   0.336
55395SOL    HW266212  10.809   7.571   0.430
55396SOL     OW66213   9.559   9.233   1.241
55396SOL    HW166214   9.616   9.168   1.291
55396SOL    HW266215   9.543   9.200   1.148
55397SOL     OW66216  10.250   9.146   0.904
55397SOL    HW166217  10.330   9.089   0.925
55397SOL    HW266218  10.201   9.106   0.827
55398SOL     OW66219   9.692   8.148   0.480
55398SOL    HW166220   9.737   8.058   0.477
55398SOL    HW266221   9.598   8.137   0.513
55399SOL     OW66222  10.857   7.670   1.729
55399SOL    HW166223  10.852   7.707   1.821
55399SOL    HW266224  10.785   7.601   1.717
55400SOL     OW66225   9.924   7.570   0.117
55400SOL    HW166226  10.022   7.548   0.124
55400SOL    HW266227   9.893   7.553   0.024
55401SOL     OW66228  10.091   7.712   1.749
55401SOL    HW166229  10.158   7.651   1.792
55401SOL    HW266230  10.018   7.731   1.814
55402SOL     OW66231  10.198   8.962   1.195
55402SOL    HW166232  10.175   8.937   1.101
55402SOL    HW266233  10.259   8.893   1.234
55403SOL     OW66234  10.661   8.038   1.433
55403SOL    HW166235  10.689   7.995   1.518
55403SOL    HW266236  10.686   8.134   1.434
55404SOL     OW66237  10.113   8.850   0.924
55404SOL    HW166238  10.203   8.864   0.882
55404SOL    HW266239  10.042   8.852   0.853
55405SOL     OW66240  10.232   7.951   0.899
55405SOL    HW166241  10.207   7.942   0.803
55405SOL    HW266242  10.280   7.869   0.930
55406SOL     OW66243   9.849   7.512   0.512
55406SOL    HW166244   9.768   7.513   0.570
55406SOL    HW266245   9.852   7.595   0.457
55407SOL     OW66246  10.744   8.636   0.041
55407SOL    HW166247  10.776   8.560   0.098
55407SOL    HW266248  10.652   8.663   0.071
55408SOL     OW66249   9.607   7.483   0.171
55408SOL    HW166250   9.656   7.567   0.150
55408SOL    HW266251   9.669   7.418   0.216
55409SOL     OW66252  10.245   7.684   0.480
55409SOL    HW166253  10.197   7.725   0.402
55409SOL    HW266254  10.344   7.682   0.461
55410SOL     OW66255  10.386   8.131   1.464
55410SOL    HW166256  10.306   8.070   1.467
55410SOL    HW266257  10.467   8.078   1.440
55411SOL     OW66258  10.537   9.018   0.793
55411SOL    HW166259  10.558   9.092   0.728
55411SOL    HW266260  10.605   9.018   0.866
55412SOL     OW66261   9.769   8.600   0.741
55412SOL    HW166262   9.698   8.573   0.806
55412SOL    HW266263   9.743   8.572   0.648
55413SOL     OW66264  10.581   9.245   0.591
55413SOL    HW166265  10.625   9.309   0.527
55413SOL    HW266266  10.531   9.297   0.661
55414SOL     OW66267  10.342   7.997   0.016
55414SOL    HW166268  10.301   8.079  -0.023
55414SOL    HW266269  10.406   8.023   0.089
55415SOL     OW66270   9.388   8.004   1.386
55415SOL    HW166271   9.480   8.003   1.345
55415SOL    HW266272   9.382   8.078   1.453
55416SOL     OW66273   9.871   7.670   1.147
55416SOL    HW166274   9.909   7.586   1.184
55416SOL    HW266275   9.783   7.689   1.191
55417SOL     OW66276  10.176   7.902   0.642
55417SOL    HW166277  10.144   7.974   0.580
55417SOL    HW266278  10.200   7.821   0.589
55418SOL     OW66279  10.327   7.487   0.753
55418SOL    HW166280  10.255   7.492   0.684
55418SOL    HW266281  10.303   7.418   0.822
55419SOL     OW66282  10.739   8.621   0.867
55419SOL    HW166283  10.684   8.537   0.860
55419SOL    HW266284  10.765   8.650   0.775
55420SOL     OW66285  10.776   8.038   0.992
55420SOL    HW166286  10.746   7.943   0.999
55420SOL    HW266287  10.849   8.054   1.058
55421SOL     OW66288  11.167   8.281   0.377
55421SOL    HW166289  11.209   8.217   0.441
55421SOL    HW266290  11.129   8.230   0.299
55422SOL     OW66291   9.798   8.833   0.174
55422SOL    HW166292   9.711   8.818   0.221
55422SOL    HW266293   9.781   8.859   0.079
55423SOL     OW66294  10.974   8.728   0.657
55423SOL    HW166295  11.073   8.736   0.671
55423SOL    HW266296  10.929   8.812   0.688
55424SOL     OW66297  10.700   8.023   0.078
55424SOL    HW166298  10.646   8.002   0.159
55424SOL    HW266299  10.791   7.982   0.087
55425SOL     OW66300   9.837   7.704   0.328
55425SOL    HW166301   9.864   7.645   0.253
55425SOL    HW266302   9.837   7.799   0.297
55426SOL     OW66303  11.064   8.671   1.588
55426SOL    HW166304  11.155   8.632   1.575
55426SOL    HW266305  11.072   8.767   1.612
55427SOL     OW66306  10.374   8.795   1.340
55427SOL    HW166307  10.294   8.772   1.395
55427SOL    HW266308  10.457   8.769   1.389
55428SOL     OW66309  10.902   9.077   1.625
55428SOL    HW166310  10.929   9.111   1.535
55428SOL    HW266311  10.981   9.039   1.671
55429SOL     OW66312  10.421   8.643   1.100
55429SOL    HW166313  10.381   8.687   1.181
55429SOL    HW266314  10.380   8.680   1.017
55430SOL     OW66315  10.948   8.547   1.079
55430SOL    HW166316  10.953   8.628   1.138
55430SOL    HW266317  10.862   8.549   1.028
55431SOL     OW66318  10.225   7.537   1.402
55431SOL    HW166319  10.250   7.517   1.307
55431SOL    HW266320  10.297   7.593   1.444
55432SOL     OW66321  10.290   8.564   1.719
55432SOL    HW166322  10.191   8.570   1.729
55432SOL    HW266323  10.313   8.484   1.663
55433SOL     OW66324  10.015   8.498   0.368
55433SOL    HW166325  10.001   8.505   0.467
55433SOL    HW266326  10.099   8.447   0.350
55434SOL     OW66327   9.720   8.261   1.251
55434SOL    HW166328   9.806   8.273   1.301
55434SOL    HW266329   9.678   8.174   1.278
55435SOL     OW66330  10.584   7.834   1.262
55435SOL    HW166331  10.605   7.908   1.326
55435SOL    HW266332  10.495   7.851   1.219
55436SOL     OW66333   9.374   9.012   1.331
55436SOL    HW166334   9.328   9.094   1.297
55436SOL    HW266335   9.472   9.031   1.340
55437SOL     OW66336   9.677   8.548   0.501
55437SOL    HW166337   9.670   8.631   0.445
55437SOL    HW266338   9.681   8.468   0.441
55438SOL     OW66339   9.876   7.985   0.865
55438SOL    HW166340   9.888   8.051   0.791
55438SOL    HW266341   9.922   8.019   0.948
55439SOL     OW66342  10.562   8.796   0.388
55439SOL    HW166343  10.612   8.873   0.428
55439SOL    HW266344  10.467   8.798   0.420
55440SOL     OW66345  10.582   8.893   1.142
55440SOL    HW166346  10.629   8.906   1.229
55440SOL    HW266347  10.516   8.819   1.151
55441SOL     OW66348  10.892   8.087   0.472
55441SOL    HW166349  10.861   8.148   0.545
55441SOL    HW266350  10.942   8.139   0.403
55442SOL     OW66351   9.664   8.958   1.329
55442SOL    HW166352   9.643   8.914   1.242
55442SOL    HW266353   9.761   8.984   1.332
55443SOL     OW66354   9.712   8.199   1.598
55443SOL    HW166355   9.780   8.254   1.551
55443SOL    HW266356   9.752   8.111   1.625
55444SOL     OW66357  10.897   8.227   1.670
55444SOL    HW166358  10.805   8.265   1.665
55444SOL    HW266359  10.957   8.274   1.605
55445SOL     OW66360  10.323   7.553   1.770
55445SOL    HW166361  10.329   7.638   1.718
55445SOL    HW266362  10.355   7.477   1.713
55446SOL     OW66363   9.814   7.498   1.740
55446SOL    HW166364   9.772   7.441   1.670
55446SOL    HW266365   9.748   7.567   1.772
55447SOL     OW66366   9.883   8.318   1.029
55447SOL    HW166367   9.927   8.407   1.020
55447SOL    HW266368   9.820   8.318   1.106
55448SOL     OW66369  10.670   8.310   1.045
55448SOL    HW166370  10.595   8.310   0.979
55448SOL    HW266371  10.707   8.218   1.054
55449SOL     OW66372  10.519   7.973   0.275
55449SOL    HW166373  10.532   7.889   0.329
55449SOL    HW266374  10.490   8.047   0.335
55450SOL     OW66375   9.617   7.661   1.231
55450SOL    HW166376   9.594   7.698   1.321
55450SOL    HW266377   9.587   7.566   1.225
55451SOL     OW66378   9.347   8.758   1.282
55451SOL    HW166379   9.400   8.709   1.350
55451SOL    HW266380   9.369   8.856   1.287
55452SOL     OW66381  10.042   8.082   1.064
55452SOL    HW166382  10.101   8.056   0.988
55452SOL    HW266383  10.014   8.178   1.053
55453SOL     OW66384  11.038   8.383   1.854
55453SOL    HW166385  10.992   8.376   1.765
55453SOL    HW266386  10.976   8.427   1.920
55454SOL     OW66387   9.617   7.511   0.618
55454SOL    HW166388   9.606   7.605   0.651
55454SOL    HW266389   9.612   7.448   0.695
55455SOL     OW66390  10.932   7.815   0.374
55455SOL    HW166391  10.934   7.739   0.438
55455SOL    HW266392  10.884   7.892   0.414
55456SOL     OW66393  10.333   8.214   0.966
55456SOL    HW166394  10.348   8.235   1.062
55456SOL    HW266395  10.303   8.119   0.957
55457SOL     OW66396  10.290   9.021   1.700
55457SOL    HW166397  10.270   9.065   1.612
55457SOL    HW266398  10.329   8.930   1.684
55458SOL     OW66399  11.169   8.966   1.605
55458SOL    HW166400  11.183   8.993   1.510
55458SOL    HW266401  11.252   8.988   1.658
55459SOL     OW66402   9.660   8.346   1.804
55459SOL    HW166403   9.736   8.390   1.852
55459SOL    HW266404   9.695   8.299   1.722
55460SOL     OW66405  10.850   7.722   0.125
55460SOL    HW166406  10.789   7.647   0.148
55460SOL    HW266407  10.872   7.774   0.208
55461SOL     OW66408  10.613   8.286   0.042
55461SOL    HW166409  10.647   8.193   0.057
55461SOL    HW266410  10.631   8.313  -0.053
55462SOL     OW66411  10.378   8.781   0.849
55462SOL    HW166412  10.385   8.697   0.794
55462SOL    HW266413  10.440   8.850   0.813
55463SOL     OW66414   9.629   8.258   0.949
55463SOL    HW166415   9.722   8.294   0.954
55463SOL    HW266416   9.623   8.173   1.001
55464SOL     OW66417   9.649   7.957   1.006
55464SOL    HW166418   9.597   7.874   0.989
55464SOL    HW266419   9.726   7.962   0.942
55465SOL     OW66420  10.448   7.828   1.678
55465SOL    HW166421  10.403   7.891   1.742
55465SOL    HW266422  10.541   7.859   1.661
55466SOL     OW66423  10.470   7.655   1.477
55466SOL    HW166424  10.470   7.719   1.554
55466SOL    HW266425  10.498   7.703   1.394
55467SOL     OW66426   9.318   8.774   0.200
55467SOL    HW166427   9.225   8.795   0.169
55467SOL    HW266428   9.328   8.675   0.213
55468SOL     OW66429   9.398   9.249   0.927
55468SOL    HW166430   9.356   9.163   0.900
55468SOL    HW266431   9.492   9.252   0.893
55469SOL     OW66432   9.814   9.016   0.910
55469SOL    HW166433   9.880   9.090   0.919
55469SOL    HW266434   9.858   8.937   0.868
55470SOL     OW66435  10.312   8.244   1.238
55470SOL    HW166436  10.353   8.212   1.324
55470SOL    HW266437  10.216   8.217   1.235
55471SOL     OW66438   9.350   7.992   1.114
55471SOL    HW166439   9.435   7.959   1.073
55471SOL    HW266440   9.363   8.007   1.212
55472SOL     OW66441   9.499   7.968   1.722
55472SOL    HW166442   9.558   7.928   1.652
55472SOL    HW266443   9.441   8.039   1.681
55473SOL     OW66444  10.679   8.398   1.660
55473SOL    HW166445  10.718   8.487   1.680
55473SOL    HW266446  10.689   8.378   1.563
55474SOL     OW66447  10.125   8.020   0.325
55474SOL    HW166448  10.132   7.931   0.279
55474SOL    HW266449  10.031   8.054   0.317
55475SOL     OW66450  10.967   8.052   1.206
55475SOL    HW166451  10.929   7.983   1.268
55475SOL    HW266452  11.049   8.016   1.162
55476SOL     OW66453   9.562   9.012   1.744
55476SOL    HW166454   9.532   9.069   1.820
55476SOL    HW266455   9.555   8.915   1.770
55477SOL     OW66456   9.981   7.912   1.269
55477SOL    HW166457   9.947   7.823   1.239
55477SOL    HW266458  10.007   7.966   1.189
55478SOL     OW66459  10.240   9.126   1.465
55478SOL    HW166460  10.216   9.108   1.370
55478SOL    HW266461  10.270   9.220   1.475
55479SOL     OW66462   9.783   7.948   0.191
55479SOL    HW166463   9.844   8.028   0.195
55479SOL    HW266464   9.688   7.979   0.198
55480SOL     OW66465   9.469   8.585   1.466
55480SOL    HW166466   9.491   8.524   1.542
55480SOL    HW266467   9.479   8.536   1.380
55481SOL     OW66468  10.657   8.507   1.234
55481SOL    HW166469  10.681   8.444   1.160
55481SOL    HW266470  10.567   8.547   1.216
55482SOL     OW66471  10.612   8.303   0.309
55482SOL    HW166472  10.526   8.272   0.351
55482SOL    HW266473  10.608   8.289   0.210
55483SOL     OW66474  11.069   9.195   1.154
55483SOL    HW166475  11.130   9.225   1.081
55483SOL    HW266476  11.031   9.106   1.132
55484SOL     OW66477  10.562   9.179   1.128
55484SOL    HW166478  10.646   9.184   1.074
55484SOL    HW266479  10.539   9.083   1.146
55485SOL     OW66480   9.393   8.706   1.022
55485SOL    HW166481   9.388   8.705   1.122
55485SOL    HW266482   9.310   8.665   0.984
55486SOL     OW66483   9.998   9.110   1.716
55486SOL    HW166484   9.942   9.191   1.725
55486SOL    HW266485  10.050   9.114   1.630
55487SOL     OW66486  10.213   7.534   0.133
55487SOL    HW166487  10.264   7.535   0.047
55487SOL    HW266488  10.269   7.492   0.204
55488SOL     OW66489  11.036   7.583   0.523
55488SOL    HW166490  11.109   7.566   0.456
55488SOL    HW266491  11.005   7.496   0.561
55489SOL     OW66492  10.698   9.021   0.477
55489SOL    HW166493  10.765   9.033   0.403
55489SOL    HW266494  10.658   9.110   0.500
55490SOL     OW66495   9.440   9.242   1.851
55490SOL    HW166496   9.399   9.168   1.904
55490SOL    HW266497   9.504   9.293   1.909
55491SOL     OW66498  10.590   8.375   0.672
55491SOL    HW166499  10.650   8.294   0.674
55491SOL    HW266500  10.630   8.444   0.612
55492SOL     OW66501  10.140   8.721   1.422
55492SOL    HW166502  10.135   8.754   1.517
55492SOL    HW266503  10.054   8.740   1.376
55493SOL     OW66504   9.982   9.064   0.154
55493SOL    HW166505   9.991   9.074   0.055
55493SOL    HW266506   9.942   8.975   0.175
55494SOL     OW66507  10.960   9.168   1.394
55494SOL    HW166508  11.013   9.178   1.310
55494SOL    HW266509  10.933   9.258   1.428
55495SOL     OW66510  11.151   7.623   0.963
55495SOL    HW166511  11.190   7.538   0.927
55495SOL    HW266512  11.053   7.625   0.944
55496SOL     OW66513   9.573   7.774   0.720
55496SOL    HW166514   9.494   7.825   0.686
55496SOL    HW266515   9.564   7.759   0.818
55497SOL     OW66516  10.504   9.060   0.031
55497SOL    HW166517  10.510   8.967   0.068
55497SOL    HW266518  10.445   9.060  -0.049
55498SOL     OW66519  10.132   8.450   1.372
55498SOL    HW166520  10.172   8.449   1.280
55498SOL    HW266521  10.142   8.542   1.412
55499SOL     OW66522  10.226   8.358   0.291
55499SOL    HW166523  10.289   8.396   0.223
55499SOL    HW266524  10.266   8.275   0.330
55500SOL     OW66525  10.814   9.055   0.044
55500SOL    HW166526  10.722   9.092   0.051
55500SOL    HW266527  10.852   9.075  -0.046
55501SOL     OW66528   9.682   8.736   1.490
55501SOL    HW166529   9.669   8.829   1.456
55501SOL    HW266530   9.598   8.684   1.477
55502SOL     OW66531  10.924   8.740   1.289
55502SOL    HW166532  10.984   8.743   1.369
55502SOL    HW266533  10.849   8.804   1.302
55503SOL     OW66534  10.349   8.546   0.696
55503SOL    HW166535  10.279   8.499   0.750
55503SOL    HW266536  10.408   8.478   0.653
55504SOL     OW66537  10.324   7.684   0.971
55504SOL    HW166538  10.316   7.648   0.878
55504SOL    HW266539  10.322   7.608   1.036
55505SOL     OW66540   9.900   8.935   0.491
55505SOL    HW166541   9.942   8.877   0.421
55505SOL    HW266542   9.856   9.014   0.447
55506SOL     OW66543  11.019   7.833   1.381
55506SOL    HW166544  11.092   7.902   1.385
55506SOL    HW266545  11.047   7.758   1.322
55507SOL     OW66546   9.565   8.796   0.290
55507SOL    HW166547   9.469   8.797   0.263
55507SOL    HW266548   9.577   8.849   0.374
55508SOL     OW66549   9.415   8.461   1.726
55508SOL    HW166550   9.338   8.428   1.780
55508SOL    HW266551   9.500   8.431   1.768
55509SOL     OW66552   9.982   7.651   1.489
55509SOL    HW166553  10.072   7.635   1.449
55509SOL    HW266554   9.990   7.656   1.588
55510SOL     OW66555  10.750   8.304   1.398
55510SOL    HW166556  10.693   8.356   1.335
55510SOL    HW266557  10.846   8.316   1.374
55511SOL     OW66558   9.382   7.614   0.318
55511SOL    HW166559   9.365   7.697   0.264
55511SOL    HW266560   9.472   7.577   0.296
55512SOL     OW66561  10.493   8.783   0.119
55512SOL    HW166562  10.394   8.772   0.121
55512SOL    HW266563  10.527   8.798   0.212
55513SOL     OW66564   9.923   8.290   1.431
55513SOL    HW166565   9.979   8.371   1.414
55513SOL    HW266566   9.982   8.210   1.434
55514SOL     OW66567  10.803   9.215   0.959
55514SOL    HW166568  10.836   9.279   0.890
55514SOL    HW266569  10.869   9.209   1.034
55515SOL     OW66570  10.026   8.013   1.708
55515SOL    HW166571  10.045   8.078   1.782
55515SOL    HW266572  10.086   7.933   1.717
55516SOL     OW66573  10.760   8.668   1.633
55516SOL    HW166574  10.751   8.658   1.732
55516SOL    HW266575  10.856   8.661   1.607
55517SOL     OW66576   9.700   9.189   1.560
55517SOL    HW166577   9.609   9.230   1.558
55517SOL    HW266578   9.693   9.095   1.592
55518SOL     OW66579  10.984   8.331   1.254
55518SOL    HW166580  10.957   8.242   1.217
55518SOL    HW266581  10.985   8.399   1.181
55519SOL     OW66582  10.535   7.773   0.449
55519SOL    HW166583  10.600   7.699   0.438
55519SOL    HW266584  10.555   7.823   0.533
55520SOL     OW66585   9.904   8.193   0.652
55520SOL    HW166586   9.954   8.278   0.633
55520SOL    HW266587   9.816   8.195   0.604
55521SOL     OW66588  11.087   7.790   1.642
55521SOL    HW166589  11.070   7.821   1.548
55521SOL    HW266590  11.003   7.753   1.680
55522SOL     OW66591  11.040   8.382   1.517
55522SOL    HW166592  11.078   8.473   1.532
55522SOL    HW266593  11.032   8.365   1.418
55523SOL     OW66594  10.169   8.822   0.016
55523SOL    HW166595  10.123   8.837   0.104
55523SOL    HW266596  10.213   8.907  -0.014
55524SOL     OW66597   9.971   9.238   0.953
55524SOL    HW166598   9.925   9.326   0.940
55524SOL    HW266599  10.070   9.250   0.946
55525SOL     OW66600  10.169   8.404   0.861
55525SOL    HW166601  10.223   8.335   0.909
55525SOL    HW266602  10.137   8.473   0.927
55526SOL     OW66603  10.393   8.432   0.087
55526SOL    HW166604  10.370   8.485   0.005
55526SOL    HW266605  10.474   8.376   0.068
55527SOL     OW66606  11.171   9.017   0.851
55527SOL    HW166607  11.100   9.005   0.781
55527SOL    HW266608  11.172   8.938   0.911
55528SOL     OW66609   9.531   8.762   1.844
55528SOL    HW166610   9.466   8.689   1.823
55528SOL    HW266611   9.535   8.776   1.942
55529SOL     OW66612   9.389   8.688   0.653
55529SOL    HW166613   9.388   8.641   0.741
55529SOL    HW266614   9.471   8.660   0.602
55530SOL     OW66615   9.982   8.839   1.624
55530SOL    HW166616   9.904   8.789   1.662
55530SOL    HW266617   9.979   8.934   1.655
55531SOL     OW66618  11.134   7.640   1.227
55531SOL    HW166619  11.130   7.550   1.271
55531SOL    HW266620  11.137   7.629   1.128
55532SOL     OW66621   9.738   7.872   0.520
55532SOL    HW166622   9.768   7.800   0.458
55532SOL    HW266623   9.699   7.832   0.603
55533SOL     OW66624  11.015   8.935   1.104
55533SOL    HW166625  10.922   8.910   1.077
55533SOL    HW266626  11.041   8.885   1.186
55534SOL     OW66627   9.627   7.995   1.280
55534SOL    HW166628   9.665   7.936   1.352
55534SOL    HW266629   9.667   7.969   1.192
55535SOL     OW66630  10.122   9.034   0.687
55535SOL    HW166631  10.154   9.044   0.593
55535SOL    HW266632  10.043   8.972   0.689
55536SOL     OW66633  10.734   7.662   1.112
55536SOL    HW166634  10.786   7.597   1.167
55536SOL    HW266635  10.685   7.725   1.173
55537SOL     OW66636  10.311   7.482   1.154
55537SOL    HW166637  10.248   7.410   1.123
55537SOL    HW266638  10.404   7.446   1.154
55538SOL     OW66639  10.080   8.778   0.301
55538SOL    HW166640  10.034   8.691   0.318
55538SOL    HW266641  10.171   8.775   0.342
55539SOL     OW66642   9.928   9.015   1.284
55539SOL    HW166643   9.923   9.097   1.341
55539SOL    HW266644  10.017   9.012   1.239
55540SOL     OW66645  10.662   7.500   0.168
55540SOL    HW166646  10.697   7.459   0.084
55540SOL    HW266647  10.572   7.462   0.188
55541SOL     OW66648  10.610   7.901   0.691
55541SOL    HW166649  10.551   7.981   0.695
55541SOL    HW266650  10.625   7.866   0.784
55542SOL     OW66651  10.903   7.669   0.882
55542SOL    HW166652  10.819   7.668   0.936
55542SOL    HW266653  10.905   7.752   0.826
55543SOL     OW66654   9.349   8.525   0.300
55543SOL    HW166655   9.448   8.514   0.291
55543SOL    HW266656   9.309   8.439   0.332
55544SOL     OW66657  10.185   9.094   0.337
55544SOL    HW166658  10.108   9.059   0.283
55544SOL    HW266659  10.153   9.165   0.399
55545SOL     OW66660   9.540   8.076   1.975
55545SOL    HW166661   9.447   8.074   2.012
55545SOL    HW266662   9.541   8.037   1.883
55546SOL     OW66663   9.535   7.723   2.858
55546SOL    HW166664   9.570   7.706   2.950
55546SOL    HW266665   9.447   7.678   2.846
55547SOL     OW66666   9.329   7.816   2.509
55547SOL    HW166667   9.247   7.859   2.548
55547SOL    HW266668   9.301   7.743   2.446
55548SOL     OW66669   9.879   8.723   3.027
55548SOL    HW166670   9.786   8.716   2.990
55548SOL    HW266671   9.890   8.812   3.071
55549SOL     OW66672  10.865   8.959   2.565
55549SOL    HW166673  10.808   8.943   2.646
55549SOL    HW266674  10.806   8.969   2.485
55550SOL     OW66675  10.445   8.151   2.579
55550SOL    HW166676  10.502   8.229   2.554
55550SOL    HW266677  10.385   8.177   2.655
55551SOL     OW66678  11.065   8.055   2.093
55551SOL    HW166679  11.053   8.042   1.994
55551SOL    HW266680  11.035   7.974   2.142
55552SOL     OW66681  10.078   8.592   2.885
55552SOL    HW166682  10.000   8.609   2.945
55552SOL    HW266683  10.112   8.679   2.849
55553SOL     OW66684  10.160   8.246   3.685
55553SOL    HW166685  10.156   8.322   3.750
55553SOL    HW266686  10.182   8.282   3.594
55554SOL     OW66687   9.995   8.460   2.527
55554SOL    HW166688  10.064   8.444   2.597
55554SOL    HW266689   9.922   8.517   2.565
55555SOL     OW66690   9.996   8.609   3.665
55555SOL    HW166691  10.056   8.688   3.679
55555SOL    HW266692   9.910   8.640   3.624
55556SOL     OW66693   9.645   8.883   2.923
55556SOL    HW166694   9.567   8.852   2.870
55556SOL    HW266695   9.703   8.941   2.866
55557SOL     OW66696  10.770   8.953   3.201
55557SOL    HW166697  10.794   9.047   3.227
55557SOL    HW266698  10.754   8.899   3.283
55558SOL     OW66699   9.748   7.840   3.361
55558SOL    HW166700   9.830   7.784   3.370
55558SOL    HW266701   9.667   7.782   3.365
55559SOL     OW66702  10.913   7.895   2.599
55559SOL    HW166703  10.839   7.941   2.549
55559SOL    HW266704  10.964   7.963   2.652
55560SOL     OW66705   9.541   9.161   2.345
55560SOL    HW166706   9.575   9.238   2.399
55560SOL    HW266707   9.585   9.161   2.255
55561SOL     OW66708  10.437   8.789   3.552
55561SOL    HW166709  10.484   8.789   3.640
55561SOL    HW266710  10.389   8.702   3.541
55562SOL     OW66711   9.540   8.882   2.400
55562SOL    HW166712   9.514   8.978   2.400
55562SOL    HW266713   9.469   8.828   2.445
55563SOL     OW66714   9.550   8.539   2.748
55563SOL    HW166715   9.564   8.455   2.800
55563SOL    HW266716   9.495   8.603   2.803
55564SOL     OW66717   9.930   9.234   3.301
55564SOL    HW166718   9.838   9.217   3.336
55564SOL    HW266719   9.958   9.326   3.327
55565SOL     OW66720   9.916   8.412   1.985
55565SOL    HW166721   9.923   8.496   1.931
55565SOL    HW266722   9.962   8.425   2.073
55566SOL     OW66723  10.904   7.562   3.342
55566SOL    HW166724  10.886   7.629   3.270
55566SOL    HW266725  10.901   7.608   3.431
55567SOL     OW66726   9.432   8.091   2.425
55567SOL    HW166727   9.387   8.003   2.442
55567SOL    HW266728   9.431   8.145   2.509
55568SOL     OW66729  11.152   9.215   2.221
55568SOL    HW166730  11.206   9.186   2.301
55568SOL    HW266731  11.182   9.305   2.192
55569SOL     OW66732   9.337   9.044   1.979
55569SOL    HW166733   9.318   8.948   2.000
55569SOL    HW266734   9.304   9.102   2.054
55570SOL     OW66735  10.999   8.370   2.474
55570SOL    HW166736  11.094   8.341   2.482
55570SOL    HW266737  10.991   8.435   2.399
55571SOL     OW66738  10.951   8.556   2.294
55571SOL    HW166739  11.037   8.558   2.242
55571SOL    HW266740  10.965   8.603   2.382
55572SOL     OW66741   9.423   8.185   3.459
55572SOL    HW166742   9.511   8.172   3.504
55572SOL    HW266743   9.410   8.282   3.437
55573SOL     OW66744   9.923   8.813   2.588
55573SOL    HW166745   9.874   8.726   2.597
55573SOL    HW266746   9.900   8.856   2.501
55574SOL     OW66747  10.603   8.676   3.285
55574SOL    HW166748  10.640   8.603   3.227
55574SOL    HW266749  10.655   8.681   3.370
55575SOL     OW66750  10.119   7.452   2.364
55575SOL    HW166751  10.159   7.543   2.355
55575SOL    HW266752  10.019   7.460   2.370
55576SOL     OW66753   9.507   8.424   3.126
55576SOL    HW166754   9.596   8.379   3.112
55576SOL    HW266755   9.434   8.359   3.107
55577SOL     OW66756  10.835   8.447   2.052
55577SOL    HW166757  10.772   8.371   2.065
55577SOL    HW266758  10.883   8.465   2.138
55578SOL     OW66759  10.497   9.240   3.478
55578SOL    HW166760  10.521   9.300   3.402
55578SOL    HW266761  10.504   9.145   3.448
55579SOL     OW66762   9.627   7.699   3.663
55579SOL    HW166763   9.698   7.770   3.669
55579SOL    HW266764   9.539   7.738   3.691
55580SOL     OW66765  10.776   8.865   2.815
55580SOL    HW166766  10.717   8.871   2.895
55580SOL    HW266767  10.761   8.777   2.769
55581SOL     OW66768  10.977   9.162   2.434
55581SOL    HW166769  10.936   9.139   2.346
55581SOL    HW266770  10.959   9.088   2.499
55582SOL     OW66771   9.908   8.177   2.132
55582SOL    HW166772   9.932   8.246   2.064
55582SOL    HW266773   9.830   8.210   2.186
55583SOL     OW66774  10.591   7.793   2.806
55583SOL    HW166775  10.505   7.743   2.793
55583SOL    HW266776  10.653   7.739   2.862
55584SOL     OW66777  10.886   9.110   2.169
55584SOL    HW166778  10.975   9.156   2.172
55584SOL    HW266779  10.865   9.086   2.074
55585SOL     OW66780  10.117   8.053   3.327
55585SOL    HW166781  10.070   8.050   3.416
55585SOL    HW266782  10.066   7.998   3.261
55586SOL     OW66783  10.704   7.917   3.536
55586SOL    HW166784  10.684   7.960   3.624
55586SOL    HW266785  10.782   7.855   3.545
55587SOL     OW66786  10.283   8.338   3.434
55587SOL    HW166787  10.329   8.254   3.405
55587SOL    HW266788  10.227   8.372   3.359
55588SOL     OW66789  10.301   7.858   3.104
55588SOL    HW166790  10.224   7.892   3.158
55588SOL    HW266791  10.267   7.807   3.025
55589SOL     OW66792  10.351   8.149   2.291
55589SOL    HW166793  10.377   8.145   2.387
55589SOL    HW266794  10.266   8.098   2.277
55590SOL     OW66795   9.386   8.259   2.651
55590SOL    HW166796   9.485   8.247   2.660
55590SOL    HW266797   9.362   8.354   2.672
55591SOL     OW66798   9.440   9.269   3.433
55591SOL    HW166799   9.430   9.254   3.532
55591SOL    HW266800   9.354   9.305   3.397
55592SOL     OW66801  10.175   7.796   2.057
55592SOL    HW166802  10.234   7.859   2.008
55592SOL    HW266803  10.194   7.702   2.028
55593SOL     OW66804  11.029   8.033   3.693
55593SOL    HW166805  11.003   8.122   3.657
55593SOL    HW266806  11.027   7.965   3.620
55594SOL     OW66807  10.672   8.592   2.407
55594SOL    HW166808  10.755   8.563   2.359
55594SOL    HW266809  10.623   8.659   2.351
55595SOL     OW66810   9.860   7.644   2.747
55595SOL    HW166811   9.855   7.639   2.847
55595SOL    HW266812   9.862   7.740   2.718
55596SOL     OW66813  10.318   8.904   2.339
55596SOL    HW166814  10.272   8.976   2.287
55596SOL    HW266815  10.314   8.924   2.437
55597SOL     OW66816   9.661   9.249   2.715
55597SOL    HW166817   9.711   9.163   2.721
55597SOL    HW266818   9.726   9.326   2.712
55598SOL     OW66819  11.105   8.514   2.735
55598SOL    HW166820  11.043   8.499   2.659
55598SOL    HW266821  11.053   8.525   2.820
55599SOL     OW66822  10.537   8.998   3.368
55599SOL    HW166823  10.543   8.921   3.432
55599SOL    HW266824  10.485   8.972   3.288
55600SOL     OW66825   9.631   8.391   2.104
55600SOL    HW166826   9.713   8.430   2.062
55600SOL    HW266827   9.604   8.309   2.055
55601SOL     OW66828  10.768   8.183   2.590
55601SOL    HW166829  10.763   8.118   2.665
55601SOL    HW266830  10.848   8.242   2.603
55602SOL     OW66831   9.771   8.714   3.589
55602SOL    HW166832   9.721   8.715   3.503
55602SOL    HW266833   9.708   8.696   3.665
55603SOL     OW66834  10.421   9.224   2.099
55603SOL    HW166835  10.361   9.162   2.149
55603SOL    HW266836  10.452   9.180   2.014
55604SOL     OW66837   9.512   7.733   3.360
55604SOL    HW166838   9.432   7.793   3.347
55604SOL    HW266839   9.502   7.684   3.446
55605SOL     OW66840  10.942   8.825   1.943
55605SOL    HW166841  10.910   8.919   1.933
55605SOL    HW266842  10.866   8.762   1.931
55606SOL     OW66843   9.774   9.191   2.185
55606SOL    HW166844   9.807   9.230   2.271
55606SOL    HW266845   9.850   9.184   2.120
55607SOL     OW66846  10.710   7.555   2.288
55607SOL    HW166847  10.686   7.518   2.198
55607SOL    HW266848  10.809   7.571   2.292
55608SOL     OW66849   9.559   9.233   3.103
55608SOL    HW166850   9.616   9.168   3.153
55608SOL    HW266851   9.543   9.200   3.010
55609SOL     OW66852  10.250   9.146   2.766
55609SOL    HW166853  10.330   9.089   2.787
55609SOL    HW266854  10.201   9.106   2.689
55610SOL     OW66855   9.692   8.148   2.342
55610SOL    HW166856   9.737   8.058   2.339
55610SOL    HW266857   9.598   8.137   2.375
55611SOL     OW66858  10.857   7.670   3.591
55611SOL    HW166859  10.852   7.707   3.683
55611SOL    HW266860  10.785   7.601   3.579
55612SOL     OW66861   9.924   7.570   1.979
55612SOL    HW166862  10.022   7.548   1.986
55612SOL    HW266863   9.893   7.553   1.886
55613SOL     OW66864  10.091   7.712   3.611
55613SOL    HW166865  10.158   7.651   3.654
55613SOL    HW266866  10.018   7.731   3.676
55614SOL     OW66867  10.198   8.962   3.057
55614SOL    HW166868  10.175   8.937   2.963
55614SOL    HW266869  10.259   8.893   3.096
55615SOL     OW66870  10.661   8.038   3.295
55615SOL    HW166871  10.689   7.995   3.380
55615SOL    HW266872  10.686   8.134   3.296
55616SOL     OW66873  10.113   8.850   2.786
55616SOL    HW166874  10.203   8.864   2.744
55616SOL    HW266875  10.042   8.852   2.715
55617SOL     OW66876  10.232   7.951   2.761
55617SOL    HW166877  10.207   7.942   2.665
55617SOL    HW266878  10.280   7.869   2.792
55618SOL     OW66879   9.849   7.512   2.374
55618SOL    HW166880   9.768   7.513   2.432
55618SOL    HW266881   9.852   7.595   2.319
55619SOL     OW66882  10.744   8.636   1.903
55619SOL    HW166883  10.776   8.560   1.960
55619SOL    HW266884  10.652   8.663   1.933
55620SOL     OW66885   9.607   7.483   2.033
55620SOL    HW166886   9.656   7.567   2.012
55620SOL    HW266887   9.669   7.418   2.078
55621SOL     OW66888  10.245   7.684   2.342
55621SOL    HW166889  10.197   7.725   2.264
55621SOL    HW266890  10.344   7.682   2.323
55622SOL     OW66891  10.386   8.131   3.326
55622SOL    HW166892  10.306   8.070   3.329
55622SOL    HW266893  10.467   8.078   3.302
55623SOL     OW66894  10.537   9.018   2.655
55623SOL    HW166895  10.558   9.092   2.590
55623SOL    HW266896  10.605   9.018   2.728
55624SOL     OW66897   9.769   8.600   2.603
55624SOL    HW166898   9.698   8.573   2.668
55624SOL    HW266899   9.743   8.572   2.510
55625SOL     OW66900  10.581   9.245   2.453
55625SOL    HW166901  10.625   9.309   2.389
55625SOL    HW266902  10.531   9.297   2.523
55626SOL     OW66903  10.342   7.997   1.878
55626SOL    HW166904  10.301   8.079   1.839
55626SOL    HW266905  10.406   8.023   1.951
55627SOL     OW66906   9.388   8.004   3.248
55627SOL    HW166907   9.480   8.003   3.207
55627SOL    HW266908   9.382   8.078   3.315
55628SOL     OW66909   9.871   7.670   3.009
55628SOL    HW166910   9.909   7.586   3.046
55628SOL    HW266911   9.783   7.689   3.053
55629SOL     OW66912  10.176   7.902   2.504
55629SOL    HW166913  10.144   7.974   2.442
55629SOL    HW266914  10.200   7.821   2.451
55630SOL     OW66915  10.327   7.487   2.615
55630SOL    HW166916  10.255   7.492   2.546
55630SOL    HW266917  10.303   7.418   2.684
55631SOL     OW66918  10.739   8.621   2.729
55631SOL    HW166919  10.684   8.537   2.722
55631SOL    HW266920  10.765   8.650   2.637
55632SOL     OW66921  10.776   8.038   2.854
55632SOL    HW166922  10.746   7.943   2.861
55632SOL    HW266923  10.849   8.054   2.920
55633SOL     OW66924  11.167   8.281   2.239
55633SOL    HW166925  11.209   8.217   2.303
55633SOL    HW266926  11.129   8.230   2.161
55634SOL     OW66927   9.798   8.833   2.036
55634SOL    HW166928   9.711   8.818   2.083
55634SOL    HW266929   9.781   8.859   1.941
55635SOL     OW66930  10.974   8.728   2.519
55635SOL    HW166931  11.073   8.736   2.533
55635SOL    HW266932  10.929   8.812   2.550
55636SOL     OW66933  10.700   8.023   1.940
55636SOL    HW166934  10.646   8.002   2.021
55636SOL    HW266935  10.791   7.982   1.949
55637SOL     OW66936   9.837   7.704   2.190
55637SOL    HW166937   9.864   7.645   2.115
55637SOL    HW266938   9.837   7.799   2.159
55638SOL     OW66939  11.064   8.671   3.450
55638SOL    HW166940  11.155   8.632   3.437
55638SOL    HW266941  11.072   8.767   3.474
55639SOL     OW66942  10.374   8.795   3.202
55639SOL    HW166943  10.294   8.772   3.257
55639SOL    HW266944  10.457   8.769   3.251
55640SOL     OW66945  10.902   9.077   3.487
55640SOL    HW166946  10.929   9.111   3.397
55640SOL    HW266947  10.981   9.039   3.533
55641SOL     OW66948  10.421   8.643   2.962
55641SOL    HW166949  10.381   8.687   3.043
55641SOL    HW266950  10.380   8.680   2.879
55642SOL     OW66951  10.948   8.547   2.941
55642SOL    HW166952  10.953   8.628   3.000
55642SOL    HW266953  10.862   8.549   2.890
55643SOL     OW66954  10.225   7.537   3.264
55643SOL    HW166955  10.250   7.517   3.169
55643SOL    HW266956  10.297   7.593   3.306
55644SOL     OW66957  10.290   8.564   3.581
55644SOL    HW166958  10.191   8.570   3.591
55644SOL    HW266959  10.313   8.484   3.525
55645SOL     OW66960  10.015   8.498   2.230
55645SOL    HW166961  10.001   8.505   2.329
55645SOL    HW266962  10.099   8.447   2.212
55646SOL     OW66963   9.720   8.261   3.113
55646SOL    HW166964   9.806   8.273   3.163
55646SOL    HW266965   9.678   8.174   3.140
55647SOL     OW66966  10.584   7.834   3.124
55647SOL    HW166967  10.605   7.908   3.188
55647SOL    HW266968  10.495   7.851   3.081
55648SOL     OW66969   9.374   9.012   3.193
55648SOL    HW166970   9.328   9.094   3.159
55648SOL    HW266971   9.472   9.031   3.202
55649SOL     OW66972   9.677   8.548   2.363
55649SOL    HW166973   9.670   8.631   2.307
55649SOL    HW266974   9.681   8.468   2.303
55650SOL     OW66975   9.876   7.985   2.727
55650SOL    HW166976   9.888   8.051   2.653
55650SOL    HW266977   9.922   8.019   2.810
55651SOL     OW66978  10.562   8.796   2.250
55651SOL    HW166979  10.612   8.873   2.290
55651SOL    HW266980  10.467   8.798   2.282
55652SOL     OW66981  10.582   8.893   3.004
55652SOL    HW166982  10.629   8.906   3.091
55652SOL    HW266983  10.516   8.819   3.013
55653SOL     OW66984  10.892   8.087   2.334
55653SOL    HW166985  10.861   8.148   2.407
55653SOL    HW266986  10.942   8.139   2.265
55654SOL     OW66987   9.664   8.958   3.191
55654SOL    HW166988   9.643   8.914   3.104
55654SOL    HW266989   9.761   8.984   3.194
55655SOL     OW66990   9.712   8.199   3.460
55655SOL    HW166991   9.780   8.254   3.413
55655SOL    HW266992   9.752   8.111   3.487
55656SOL     OW66993  10.897   8.227   3.532
55656SOL    HW166994  10.805   8.265   3.527
55656SOL    HW266995  10.957   8.274   3.467
55657SOL     OW66996  10.323   7.553   3.632
55657SOL    HW166997  10.329   7.638   3.580
55657SOL    HW266998  10.355   7.477   3.575
55658SOL     OW66999   9.814   7.498   3.602
55658SOL    HW167000   9.772   7.441   3.532
55658SOL    HW267001   9.748   7.567   3.634
55659SOL     OW67002   9.883   8.318   2.891
55659SOL    HW167003   9.927   8.407   2.882
55659SOL    HW267004   9.820   8.318   2.968
55660SOL     OW67005  10.670   8.310   2.907
55660SOL    HW167006  10.595   8.310   2.841
55660SOL    HW267007  10.707   8.218   2.916
55661SOL     OW67008  10.519   7.973   2.137
55661SOL    HW167009  10.532   7.889   2.191
55661SOL    HW267010  10.490   8.047   2.197
55662SOL     OW67011   9.617   7.661   3.093
55662SOL    HW167012   9.594   7.698   3.183
55662SOL    HW267013   9.587   7.566   3.087
55663SOL     OW67014   9.347   8.758   3.144
55663SOL    HW167015   9.400   8.709   3.212
55663SOL    HW267016   9.369   8.856   3.149
55664SOL     OW67017  10.042   8.082   2.926
55664SOL    HW167018  10.101   8.056   2.850
55664SOL    HW267019  10.014   8.178   2.915
55665SOL     OW67020  11.038   8.383   3.716
55665SOL    HW167021  10.992   8.376   3.627
55665SOL    HW267022  10.976   8.427   3.782
55666SOL     OW67023   9.617   7.511   2.480
55666SOL    HW167024   9.606   7.605   2.513
55666SOL    HW267025   9.612   7.448   2.557
55667SOL     OW67026  10.932   7.815   2.236
55667SOL    HW167027  10.934   7.739   2.300
55667SOL    HW267028  10.884   7.892   2.276
55668SOL     OW67029  10.333   8.214   2.828
55668SOL    HW167030  10.348   8.235   2.924
55668SOL    HW267031  10.303   8.119   2.819
55669SOL     OW67032  10.290   9.021   3.562
55669SOL    HW167033  10.270   9.065   3.474
55669SOL    HW267034  10.329   8.930   3.546
55670SOL     OW67035  11.169   8.966   3.467
55670SOL    HW167036  11.183   8.993   3.372
55670SOL    HW267037  11.252   8.988   3.520
55671SOL     OW67038   9.660   8.346   3.666
55671SOL    HW167039   9.736   8.390   3.714
55671SOL    HW267040   9.695   8.299   3.584
55672SOL     OW67041  10.850   7.722   1.987
55672SOL    HW167042  10.789   7.647   2.010
55672SOL    HW267043  10.872   7.774   2.070
55673SOL     OW67044  10.613   8.286   1.904
55673SOL    HW167045  10.647   8.193   1.919
55673SOL    HW267046  10.631   8.313   1.809
55674SOL     OW67047  10.378   8.781   2.711
55674SOL    HW167048  10.385   8.697   2.656
55674SOL    HW267049  10.440   8.850   2.675
55675SOL     OW67050   9.629   8.258   2.811
55675SOL    HW167051   9.722   8.294   2.816
55675SOL    HW267052   9.623   8.173   2.863
55676SOL     OW67053   9.649   7.957   2.868
55676SOL    HW167054   9.597   7.874   2.851
55676SOL    HW267055   9.726   7.962   2.804
55677SOL     OW67056  10.448   7.828   3.540
55677SOL    HW167057  10.403   7.891   3.604
55677SOL    HW267058  10.541   7.859   3.523
55678SOL     OW67059  10.470   7.655   3.339
55678SOL    HW167060  10.470   7.719   3.416
55678SOL    HW267061  10.498   7.703   3.256
55679SOL     OW67062   9.318   8.774   2.062
55679SOL    HW167063   9.225   8.795   2.031
55679SOL    HW267064   9.328   8.675   2.075
55680SOL     OW67065   9.398   9.249   2.789
55680SOL    HW167066   9.356   9.163   2.762
55680SOL    HW267067   9.492   9.252   2.755
55681SOL     OW67068   9.814   9.016   2.772
55681SOL    HW167069   9.880   9.090   2.781
55681SOL    HW267070   9.858   8.937   2.730
55682SOL     OW67071  10.312   8.244   3.100
55682SOL    HW167072  10.353   8.212   3.186
55682SOL    HW267073  10.216   8.217   3.097
55683SOL     OW67074   9.350   7.992   2.976
55683SOL    HW167075   9.435   7.959   2.935
55683SOL    HW267076   9.363   8.007   3.074
55684SOL     OW67077   9.499   7.968   3.584
55684SOL    HW167078   9.558   7.928   3.514
55684SOL    HW267079   9.441   8.039   3.543
55685SOL     OW67080  10.679   8.398   3.522
55685SOL    HW167081  10.718   8.487   3.542
55685SOL    HW267082  10.689   8.378   3.425
55686SOL     OW67083  10.125   8.020   2.187
55686SOL    HW167084  10.132   7.931   2.141
55686SOL    HW267085  10.031   8.054   2.179
55687SOL     OW67086  10.967   8.052   3.068
55687SOL    HW167087  10.929   7.983   3.130
55687SOL    HW267088  11.049   8.016   3.024
55688SOL     OW67089   9.562   9.012   3.606
55688SOL    HW167090   9.532   9.069   3.682
55688SOL    HW267091   9.555   8.915   3.632
55689SOL     OW67092   9.981   7.912   3.131
55689SOL    HW167093   9.947   7.823   3.101
55689SOL    HW267094  10.007   7.966   3.051
55690SOL     OW67095  10.240   9.126   3.327
55690SOL    HW167096  10.216   9.108   3.232
55690SOL    HW267097  10.270   9.220   3.337
55691SOL     OW67098   9.783   7.948   2.053
55691SOL    HW167099   9.844   8.028   2.057
55691SOL    HW267100   9.688   7.979   2.060
55692SOL     OW67101   9.469   8.585   3.328
55692SOL    HW167102   9.491   8.524   3.404
55692SOL    HW267103   9.479   8.536   3.242
55693SOL     OW67104  10.657   8.507   3.096
55693SOL    HW167105  10.681   8.444   3.022
55693SOL    HW267106  10.567   8.547   3.078
55694SOL     OW67107  10.612   8.303   2.171
55694SOL    HW167108  10.526   8.272   2.213
55694SOL    HW267109  10.608   8.289   2.072
55695SOL     OW67110  11.069   9.195   3.016
55695SOL    HW167111  11.130   9.225   2.943
55695SOL    HW267112  11.031   9.106   2.994
55696SOL     OW67113  10.562   9.179   2.990
55696SOL    HW167114  10.646   9.184   2.936
55696SOL    HW267115  10.539   9.083   3.008
55697SOL     OW67116   9.393   8.706   2.884
55697SOL    HW167117   9.388   8.705   2.984
55697SOL    HW267118   9.310   8.665   2.846
55698SOL     OW67119   9.998   9.110   3.578
55698SOL    HW167120   9.942   9.191   3.587
55698SOL    HW267121  10.050   9.114   3.492
55699SOL     OW67122  11.036   7.583   2.385
55699SOL    HW167123  11.109   7.566   2.318
55699SOL    HW267124  11.005   7.496   2.423
55700SOL     OW67125  10.698   9.021   2.339
55700SOL    HW167126  10.765   9.033   2.265
55700SOL    HW267127  10.658   9.110   2.362
55701SOL     OW67128   9.440   9.242   3.713
55701SOL    HW167129   9.399   9.168   3.766
55701SOL    HW267130   9.504   9.293   3.771
55702SOL     OW67131  10.590   8.375   2.534
55702SOL    HW167132  10.650   8.294   2.536
55702SOL    HW267133  10.630   8.444   2.474
55703SOL     OW67134  10.140   8.721   3.284
55703SOL    HW167135  10.135   8.754   3.379
55703SOL    HW267136  10.054   8.740   3.238
55704SOL     OW67137   9.982   9.064   2.016
55704SOL    HW167138   9.991   9.074   1.917
55704SOL    HW267139   9.942   8.975   2.037
55705SOL     OW67140  10.960   9.168   3.256
55705SOL    HW167141  11.013   9.178   3.172
55705SOL    HW267142  10.933   9.258   3.290
55706SOL     OW67143  11.151   7.623   2.825
55706SOL    HW167144  11.190   7.538   2.789
55706SOL    HW267145  11.053   7.625   2.806
55707SOL     OW67146   9.573   7.774   2.582
55707SOL    HW167147   9.494   7.825   2.548
55707SOL    HW267148   9.564   7.759   2.680
55708SOL     OW67149  10.504   9.060   1.893
55708SOL    HW167150  10.510   8.967   1.930
55708SOL    HW267151  10.445   9.060   1.813
55709SOL     OW67152  10.132   8.450   3.234
55709SOL    HW167153  10.172   8.449   3.142
55709SOL    HW267154  10.142   8.542   3.274
55710SOL     OW67155  10.226   8.358   2.153
55710SOL    HW167156  10.289   8.396   2.085
55710SOL    HW267157  10.266   8.275   2.192
55711SOL     OW67158  10.814   9.055   1.906
55711SOL    HW167159  10.722   9.092   1.913
55711SOL    HW267160  10.852   9.075   1.816
55712SOL     OW67161   9.682   8.736   3.352
55712SOL    HW167162   9.669   8.829   3.318
55712SOL    HW267163   9.598   8.684   3.339
55713SOL     OW67164  10.924   8.740   3.151
55713SOL    HW167165  10.984   8.743   3.231
55713SOL    HW267166  10.849   8.804   3.164
55714SOL     OW67167  10.349   8.546   2.558
55714SOL    HW167168  10.279   8.499   2.612
55714SOL    HW267169  10.408   8.478   2.515
55715SOL     OW67170  10.324   7.684   2.833
55715SOL    HW167171  10.316   7.648   2.740
55715SOL    HW267172  10.322   7.608   2.898
55716SOL     OW67173   9.900   8.935   2.353
55716SOL    HW167174   9.942   8.877   2.283
55716SOL    HW267175   9.856   9.014   2.309
55717SOL     OW67176  11.019   7.833   3.243
55717SOL    HW167177  11.092   7.902   3.247
55717SOL    HW267178  11.047   7.758   3.184
55718SOL     OW67179   9.565   8.796   2.152
55718SOL    HW167180   9.469   8.797   2.125
55718SOL    HW267181   9.577   8.849   2.236
55719SOL     OW67182   9.415   8.461   3.588
55719SOL    HW167183   9.338   8.428   3.642
55719SOL    HW267184   9.500   8.431   3.630
55720SOL     OW67185   9.982   7.651   3.351
55720SOL    HW167186  10.072   7.635   3.311
55720SOL    HW267187   9.990   7.656   3.450
55721SOL     OW67188   9.385   7.793   1.895
55721SOL    HW167189   9.293   7.765   1.866
55721SOL    HW267190   9.416   7.870   1.839
55722SOL     OW67191  10.750   8.304   3.260
55722SOL    HW167192  10.693   8.356   3.197
55722SOL    HW267193  10.846   8.316   3.236
55723SOL     OW67194   9.382   7.614   2.180
55723SOL    HW167195   9.365   7.697   2.126
55723SOL    HW267196   9.472   7.577   2.158
55724SOL     OW67197  10.493   8.783   1.981
55724SOL    HW167198  10.394   8.772   1.983
55724SOL    HW267199  10.527   8.798   2.074
55725SOL     OW67200   9.923   8.290   3.293
55725SOL    HW167201   9.979   8.371   3.276
55725SOL    HW267202   9.982   8.210   3.296
55726SOL     OW67203  10.803   9.215   2.821
55726SOL    HW167204  10.836   9.279   2.752
55726SOL    HW267205  10.869   9.209   2.896
55727SOL     OW67206  10.026   8.013   3.570
55727SOL    HW167207  10.045   8.078   3.644
55727SOL    HW267208  10.086   7.933   3.579
55728SOL     OW67209  10.760   8.668   3.495
55728SOL    HW167210  10.751   8.658   3.594
55728SOL    HW267211  10.856   8.661   3.469
55729SOL     OW67212   9.700   9.189   3.422
55729SOL    HW167213   9.609   9.230   3.420
55729SOL    HW267214   9.693   9.095   3.454
55730SOL     OW67215  10.984   8.331   3.116
55730SOL    HW167216  10.957   8.242   3.079
55730SOL    HW267217  10.985   8.399   3.043
55731SOL     OW67218  10.535   7.773   2.311
55731SOL    HW167219  10.600   7.699   2.300
55731SOL    HW267220  10.555   7.823   2.395
55732SOL     OW67221   9.904   8.193   2.514
55732SOL    HW167222   9.954   8.278   2.495
55732SOL    HW267223   9.816   8.195   2.466
55733SOL     OW67224  11.087   7.790   3.504
55733SOL    HW167225  11.070   7.821   3.410
55733SOL    HW267226  11.003   7.753   3.542
55734SOL     OW67227  11.040   8.382   3.379
55734SOL    HW167228  11.078   8.473   3.394
55734SOL    HW267229  11.032   8.365   3.280
55735SOL     OW67230  10.169   8.822   1.878
55735SOL    HW167231  10.123   8.837   1.966
55735SOL    HW267232  10.213   8.907   1.848
55736SOL     OW67233   9.971   9.238   2.815
55736SOL    HW167234   9.925   9.326   2.802
55736SOL    HW267235  10.070   9.250   2.808
55737SOL     OW67236  10.169   8.404   2.723
55737SOL    HW167237  10.223   8.335   2.771
55737SOL    HW267238  10.137   8.473   2.789
55738SOL     OW67239  10.393   8.432   1.949
55738SOL    HW167240  10.370   8.485   1.867
55738SOL    HW267241  10.474   8.376   1.930
55739SOL     OW67242  11.171   9.017   2.713
55739SOL    HW167243  11.100   9.005   2.643
55739SOL    HW267244  11.172   8.938   2.773
55740SOL     OW67245   9.531   8.762   3.706
55740SOL    HW167246   9.466   8.689   3.685
55740SOL    HW267247   9.535   8.776   3.804
55741SOL     OW67248   9.389   8.688   2.515
55741SOL    HW167249   9.388   8.641   2.603
55741SOL    HW267250   9.471   8.660   2.464
55742SOL     OW67251   9.982   8.839   3.486
55742SOL    HW167252   9.904   8.789   3.524
55742SOL    HW267253   9.979   8.934   3.517
55743SOL     OW67254  11.134   7.640   3.089
55743SOL    HW167255  11.130   7.550   3.133
55743SOL    HW267256  11.137   7.629   2.990
55744SOL     OW67257   9.738   7.872   2.382
55744SOL    HW167258   9.768   7.800   2.320
55744SOL    HW267259   9.699   7.832   2.465
55745SOL     OW67260  11.015   8.935   2.966
55745SOL    HW167261  10.922   8.910   2.939
55745SOL    HW267262  11.041   8.885   3.048
55746SOL     OW67263   9.627   7.995   3.142
55746SOL    HW167264   9.665   7.936   3.214
55746SOL    HW267265   9.667   7.969   3.054
55747SOL     OW67266  10.122   9.034   2.549
55747SOL    HW167267  10.154   9.044   2.455
55747SOL    HW267268  10.043   8.972   2.551
55748SOL     OW67269  10.734   7.662   2.974
55748SOL    HW167270  10.786   7.597   3.029
55748SOL    HW267271  10.685   7.725   3.035
55749SOL     OW67272  10.311   7.482   3.016
55749SOL    HW167273  10.248   7.410   2.985
55749SOL    HW267274  10.404   7.446   3.016
55750SOL     OW67275  10.080   8.778   2.163
55750SOL    HW167276  10.034   8.691   2.180
55750SOL    HW267277  10.171   8.775   2.204
55751SOL     OW67278   9.928   9.015   3.146
55751SOL    HW167279   9.923   9.097   3.203
55751SOL    HW267280  10.017   9.012   3.101
55752SOL     OW67281  10.662   7.500   2.030
55752SOL    HW167282  10.697   7.459   1.946
55752SOL    HW267283  10.572   7.462   2.050
55753SOL     OW67284  10.610   7.901   2.553
55753SOL    HW167285  10.551   7.981   2.557
55753SOL    HW267286  10.625   7.866   2.646
55754SOL     OW67287  10.903   7.669   2.744
55754SOL    HW167288  10.819   7.668   2.798
55754SOL    HW267289  10.905   7.752   2.688
55755SOL     OW67290   9.349   8.525   2.162
55755SOL    HW167291   9.448   8.514   2.153
55755SOL    HW267292   9.309   8.439   2.194
55756SOL     OW67293  10.185   9.094   2.199
55756SOL    HW167294  10.108   9.059   2.145
55756SOL    HW267295  10.153   9.165   2.261
55757SOL     OW67296   9.540   8.076   3.837
55757SOL    HW167297   9.447   8.074   3.874
55757SOL    HW267298   9.541   8.037   3.745
55758SOL     OW67299   9.535   7.723   4.720
55758SOL    HW167300   9.570   7.706   4.812
55758SOL    HW267301   9.447   7.678   4.708
55759SOL     OW67302   9.329   7.816   4.371
55759SOL    HW167303   9.247   7.859   4.410
55759SOL    HW267304   9.301   7.743   4.308
55760SOL     OW67305   9.879   8.723   4.889
55760SOL    HW167306   9.786   8.716   4.852
55760SOL    HW267307   9.890   8.812   4.933
55761SOL     OW67308  10.865   8.959   4.427
55761SOL    HW167309  10.808   8.943   4.508
55761SOL    HW267310  10.806   8.969   4.347
55762SOL     OW67311  10.445   8.151   4.441
55762SOL    HW167312  10.502   8.229   4.416
55762SOL    HW267313  10.385   8.177   4.517
55763SOL     OW67314  11.065   8.055   3.955
55763SOL    HW167315  11.053   8.042   3.856
55763SOL    HW267316  11.035   7.974   4.004
55764SOL     OW67317  10.078   8.592   4.747
55764SOL    HW167318  10.000   8.609   4.807
55764SOL    HW267319  10.112   8.679   4.711
55765SOL     OW67320  10.160   8.246   5.547
55765SOL    HW167321  10.156   8.322   5.612
55765SOL    HW267322  10.182   8.282   5.456
55766SOL     OW67323   9.995   8.460   4.389
55766SOL    HW167324  10.064   8.444   4.459
55766SOL    HW267325   9.922   8.517   4.427
55767SOL     OW67326   9.996   8.609   5.527
55767SOL    HW167327  10.056   8.688   5.541
55767SOL    HW267328   9.910   8.640   5.486
55768SOL     OW67329   9.645   8.883   4.785
55768SOL    HW167330   9.567   8.852   4.732
55768SOL    HW267331   9.703   8.941   4.728
55769SOL     OW67332  10.770   8.953   5.063
55769SOL    HW167333  10.794   9.047   5.089
55769SOL    HW267334  10.754   8.899   5.145
55770SOL     OW67335   9.748   7.840   5.223
55770SOL    HW167336   9.830   7.784   5.232
55770SOL    HW267337   9.667   7.782   5.227
55771SOL     OW67338  10.913   7.895   4.461
55771SOL    HW167339  10.839   7.941   4.411
55771SOL    HW267340  10.964   7.963   4.514
55772SOL     OW67341   9.541   9.161   4.207
55772SOL    HW167342   9.575   9.238   4.261
55772SOL    HW267343   9.585   9.161   4.117
55773SOL     OW67344  10.437   8.789   5.414
55773SOL    HW167345  10.484   8.789   5.502
55773SOL    HW267346  10.389   8.702   5.403
55774SOL     OW67347   9.540   8.882   4.262
55774SOL    HW167348   9.514   8.978   4.262
55774SOL    HW267349   9.469   8.828   4.307
55775SOL     OW67350   9.550   8.539   4.610
55775SOL    HW167351   9.564   8.455   4.662
55775SOL    HW267352   9.495   8.603   4.665
55776SOL     OW67353   9.930   9.234   5.163
55776SOL    HW167354   9.838   9.217   5.198
55776SOL    HW267355   9.958   9.326   5.189
55777SOL     OW67356   9.916   8.412   3.847
55777SOL    HW167357   9.923   8.496   3.793
55777SOL    HW267358   9.962   8.425   3.935
55778SOL     OW67359  10.904   7.562   5.204
55778SOL    HW167360  10.886   7.629   5.132
55778SOL    HW267361  10.901   7.608   5.293
55779SOL     OW67362   9.432   8.091   4.287
55779SOL    HW167363   9.387   8.003   4.304
55779SOL    HW267364   9.431   8.145   4.371
55780SOL     OW67365  11.152   9.215   4.083
55780SOL    HW167366  11.206   9.186   4.163
55780SOL    HW267367  11.182   9.305   4.054
55781SOL     OW67368   9.337   9.044   3.841
55781SOL    HW167369   9.318   8.948   3.862
55781SOL    HW267370   9.304   9.102   3.916
55782SOL     OW67371  10.999   8.370   4.336
55782SOL    HW167372  11.094   8.341   4.344
55782SOL    HW267373  10.991   8.435   4.261
55783SOL     OW67374  10.951   8.556   4.156
55783SOL    HW167375  11.037   8.558   4.104
55783SOL    HW267376  10.965   8.603   4.244
55784SOL     OW67377   9.423   8.185   5.321
55784SOL    HW167378   9.511   8.172   5.366
55784SOL    HW267379   9.410   8.282   5.299
55785SOL     OW67380   9.923   8.813   4.450
55785SOL    HW167381   9.874   8.726   4.459
55785SOL    HW267382   9.900   8.856   4.363
55786SOL     OW67383  10.603   8.676   5.147
55786SOL    HW167384  10.640   8.603   5.089
55786SOL    HW267385  10.655   8.681   5.232
55787SOL     OW67386  10.119   7.452   4.226
55787SOL    HW167387  10.159   7.543   4.217
55787SOL    HW267388  10.019   7.460   4.232
55788SOL     OW67389   9.507   8.424   4.988
55788SOL    HW167390   9.596   8.379   4.974
55788SOL    HW267391   9.434   8.359   4.969
55789SOL     OW67392  10.835   8.447   3.914
55789SOL    HW167393  10.772   8.371   3.927
55789SOL    HW267394  10.883   8.465   4.000
55790SOL     OW67395  10.497   9.240   5.340
55790SOL    HW167396  10.521   9.300   5.264
55790SOL    HW267397  10.504   9.145   5.310
55791SOL     OW67398   9.627   7.699   5.525
55791SOL    HW167399   9.698   7.770   5.531
55791SOL    HW267400   9.539   7.738   5.553
55792SOL     OW67401  10.776   8.865   4.677
55792SOL    HW167402  10.717   8.871   4.757
55792SOL    HW267403  10.761   8.777   4.631
55793SOL     OW67404  10.977   9.162   4.296
55793SOL    HW167405  10.936   9.139   4.208
55793SOL    HW267406  10.959   9.088   4.361
55794SOL     OW67407   9.908   8.177   3.994
55794SOL    HW167408   9.932   8.246   3.926
55794SOL    HW267409   9.830   8.210   4.048
55795SOL     OW67410  10.591   7.793   4.668
55795SOL    HW167411  10.505   7.743   4.655
55795SOL    HW267412  10.653   7.739   4.724
55796SOL     OW67413  10.886   9.110   4.031
55796SOL    HW167414  10.975   9.156   4.034
55796SOL    HW267415  10.865   9.086   3.936
55797SOL     OW67416  10.117   8.053   5.189
55797SOL    HW167417  10.070   8.050   5.278
55797SOL    HW267418  10.066   7.998   5.123
55798SOL     OW67419  10.704   7.917   5.398
55798SOL    HW167420  10.684   7.960   5.486
55798SOL    HW267421  10.782   7.855   5.407
55799SOL     OW67422  10.283   8.338   5.296
55799SOL    HW167423  10.329   8.254   5.267
55799SOL    HW267424  10.227   8.372   5.221
55800SOL     OW67425  10.301   7.858   4.966
55800SOL    HW167426  10.224   7.892   5.020
55800SOL    HW267427  10.267   7.807   4.887
55801SOL     OW67428  10.351   8.149   4.153
55801SOL    HW167429  10.377   8.145   4.249
55801SOL    HW267430  10.266   8.098   4.139
55802SOL     OW67431   9.386   8.259   4.513
55802SOL    HW167432   9.485   8.247   4.522
55802SOL    HW267433   9.362   8.354   4.534
55803SOL     OW67434   9.440   9.269   5.295
55803SOL    HW167435   9.430   9.254   5.394
55803SOL    HW267436   9.354   9.305   5.259
55804SOL     OW67437  10.175   7.796   3.919
55804SOL    HW167438  10.234   7.859   3.870
55804SOL    HW267439  10.194   7.702   3.890
55805SOL     OW67440  11.029   8.033   5.555
55805SOL    HW167441  11.003   8.122   5.519
55805SOL    HW267442  11.027   7.965   5.482
55806SOL     OW67443  10.672   8.592   4.269
55806SOL    HW167444  10.755   8.563   4.221
55806SOL    HW267445  10.623   8.659   4.213
55807SOL     OW67446   9.860   7.644   4.609
55807SOL    HW167447   9.855   7.639   4.709
55807SOL    HW267448   9.862   7.740   4.580
55808SOL     OW67449  10.318   8.904   4.201
55808SOL    HW167450  10.272   8.976   4.149
55808SOL    HW267451  10.314   8.924   4.299
55809SOL     OW67452   9.661   9.249   4.577
55809SOL    HW167453   9.711   9.163   4.583
55809SOL    HW267454   9.726   9.326   4.574
55810SOL     OW67455  11.105   8.514   4.597
55810SOL    HW167456  11.043   8.499   4.521
55810SOL    HW267457  11.053   8.525   4.682
55811SOL     OW67458  10.537   8.998   5.230
55811SOL    HW167459  10.543   8.921   5.294
55811SOL    HW267460  10.485   8.972   5.150
55812SOL     OW67461   9.631   8.391   3.966
55812SOL    HW167462   9.713   8.430   3.924
55812SOL    HW267463   9.604   8.309   3.917
55813SOL     OW67464  10.768   8.183   4.452
55813SOL    HW167465  10.763   8.118   4.527
55813SOL    HW267466  10.848   8.242   4.465
55814SOL     OW67467   9.771   8.714   5.451
55814SOL    HW167468   9.721   8.715   5.365
55814SOL    HW267469   9.708   8.696   5.527
55815SOL     OW67470  10.421   9.224   3.961
55815SOL    HW167471  10.361   9.162   4.011
55815SOL    HW267472  10.452   9.180   3.876
55816SOL     OW67473   9.512   7.733   5.222
55816SOL    HW167474   9.432   7.793   5.209
55816SOL    HW267475   9.502   7.684   5.308
55817SOL     OW67476  10.942   8.825   3.805
55817SOL    HW167477  10.910   8.919   3.795
55817SOL    HW267478  10.866   8.762   3.793
55818SOL     OW67479   9.774   9.191   4.047
55818SOL    HW167480   9.807   9.230   4.133
55818SOL    HW267481   9.850   9.184   3.982
55819SOL     OW67482  10.710   7.555   4.150
55819SOL    HW167483  10.686   7.518   4.060
55819SOL    HW267484  10.809   7.571   4.154
55820SOL     OW67485   9.559   9.233   4.965
55820SOL    HW167486   9.616   9.168   5.015
55820SOL    HW267487   9.543   9.200   4.872
55821SOL     OW67488  10.250   9.146   4.628
55821SOL    HW167489  10.330   9.089   4.649
55821SOL    HW267490  10.201   9.106   4.551
55822SOL     OW67491   9.692   8.148   4.204
55822SOL    HW167492   9.737   8.058   4.201
55822SOL    HW267493   9.598   8.137   4.237
55823SOL     OW67494  10.857   7.670   5.453
55823SOL    HW167495  10.852   7.707   5.545
55823SOL    HW267496  10.785   7.601   5.441
55824SOL     OW67497   9.924   7.570   3.841
55824SOL    HW167498  10.022   7.548   3.848
55824SOL    HW267499   9.893   7.553   3.748
55825SOL     OW67500  10.091   7.712   5.473
55825SOL    HW167501  10.158   7.651   5.516
55825SOL    HW267502  10.018   7.731   5.538
55826SOL     OW67503  10.198   8.962   4.919
55826SOL    HW167504  10.175   8.937   4.825
55826SOL    HW267505  10.259   8.893   4.958
55827SOL     OW67506  10.661   8.038   5.157
55827SOL    HW167507  10.689   7.995   5.242
55827SOL    HW267508  10.686   8.134   5.158
55828SOL     OW67509  10.113   8.850   4.648
55828SOL    HW167510  10.203   8.864   4.606
55828SOL    HW267511  10.042   8.852   4.577
55829SOL     OW67512  10.232   7.951   4.623
55829SOL    HW167513  10.207   7.942   4.527
55829SOL    HW267514  10.280   7.869   4.654
55830SOL     OW67515   9.849   7.512   4.236
55830SOL    HW167516   9.768   7.513   4.294
55830SOL    HW267517   9.852   7.595   4.181
55831SOL     OW67518  10.744   8.636   3.765
55831SOL    HW167519  10.776   8.560   3.822
55831SOL    HW267520  10.652   8.663   3.795
55832SOL     OW67521   9.607   7.483   3.895
55832SOL    HW167522   9.656   7.567   3.874
55832SOL    HW267523   9.669   7.418   3.940
55833SOL     OW67524  10.245   7.684   4.204
55833SOL    HW167525  10.197   7.725   4.126
55833SOL    HW267526  10.344   7.682   4.185
55834SOL     OW67527  10.386   8.131   5.188
55834SOL    HW167528  10.306   8.070   5.191
55834SOL    HW267529  10.467   8.078   5.164
55835SOL     OW67530  10.537   9.018   4.517
55835SOL    HW167531  10.558   9.092   4.452
55835SOL    HW267532  10.605   9.018   4.590
55836SOL     OW67533   9.769   8.600   4.465
55836SOL    HW167534   9.698   8.573   4.530
55836SOL    HW267535   9.743   8.572   4.372
55837SOL     OW67536  10.581   9.245   4.315
55837SOL    HW167537  10.625   9.309   4.251
55837SOL    HW267538  10.531   9.297   4.385
55838SOL     OW67539  10.342   7.997   3.740
55838SOL    HW167540  10.301   8.079   3.701
55838SOL    HW267541  10.406   8.023   3.813
55839SOL     OW67542   9.388   8.004   5.110
55839SOL    HW167543   9.480   8.003   5.069
55839SOL    HW267544   9.382   8.078   5.177
55840SOL     OW67545   9.871   7.670   4.871
55840SOL    HW167546   9.909   7.586   4.908
55840SOL    HW267547   9.783   7.689   4.915
55841SOL     OW67548  10.176   7.902   4.366
55841SOL    HW167549  10.144   7.974   4.304
55841SOL    HW267550  10.200   7.821   4.313
55842SOL     OW67551  10.327   7.487   4.477
55842SOL    HW167552  10.255   7.492   4.408
55842SOL    HW267553  10.303   7.418   4.546
55843SOL     OW67554  10.739   8.621   4.591
55843SOL    HW167555  10.684   8.537   4.584
55843SOL    HW267556  10.765   8.650   4.499
55844SOL     OW67557  10.776   8.038   4.716
55844SOL    HW167558  10.746   7.943   4.723
55844SOL    HW267559  10.849   8.054   4.782
55845SOL     OW67560  11.167   8.281   4.101
55845SOL    HW167561  11.209   8.217   4.165
55845SOL    HW267562  11.129   8.230   4.023
55846SOL     OW67563   9.798   8.833   3.898
55846SOL    HW167564   9.711   8.818   3.945
55846SOL    HW267565   9.781   8.859   3.803
55847SOL     OW67566  10.974   8.728   4.381
55847SOL    HW167567  11.073   8.736   4.395
55847SOL    HW267568  10.929   8.812   4.412
55848SOL     OW67569  10.700   8.023   3.802
55848SOL    HW167570  10.646   8.002   3.883
55848SOL    HW267571  10.791   7.982   3.811
55849SOL     OW67572   9.837   7.704   4.052
55849SOL    HW167573   9.864   7.645   3.977
55849SOL    HW267574   9.837   7.799   4.021
55850SOL     OW67575  11.064   8.671   5.312
55850SOL    HW167576  11.155   8.632   5.299
55850SOL    HW267577  11.072   8.767   5.336
55851SOL     OW67578  10.374   8.795   5.064
55851SOL    HW167579  10.294   8.772   5.119
55851SOL    HW267580  10.457   8.769   5.113
55852SOL     OW67581  10.902   9.077   5.349
55852SOL    HW167582  10.929   9.111   5.259
55852SOL    HW267583  10.981   9.039   5.395
55853SOL     OW67584  10.421   8.643   4.824
55853SOL    HW167585  10.381   8.687   4.905
55853SOL    HW267586  10.380   8.680   4.741
55854SOL     OW67587  10.948   8.547   4.803
55854SOL    HW167588  10.953   8.628   4.862
55854SOL    HW267589  10.862   8.549   4.752
55855SOL     OW67590  10.225   7.537   5.126
55855SOL    HW167591  10.250   7.517   5.031
55855SOL    HW267592  10.297   7.593   5.168
55856SOL     OW67593  10.290   8.564   5.443
55856SOL    HW167594  10.191   8.570   5.453
55856SOL    HW267595  10.313   8.484   5.387
55857SOL     OW67596  10.015   8.498   4.092
55857SOL    HW167597  10.001   8.505   4.191
55857SOL    HW267598  10.099   8.447   4.074
55858SOL     OW67599   9.720   8.261   4.975
55858SOL    HW167600   9.806   8.273   5.025
55858SOL    HW267601   9.678   8.174   5.002
55859SOL     OW67602  10.584   7.834   4.986
55859SOL    HW167603  10.605   7.908   5.050
55859SOL    HW267604  10.495   7.851   4.943
55860SOL     OW67605   9.374   9.012   5.055
55860SOL    HW167606   9.328   9.094   5.021
55860SOL    HW267607   9.472   9.031   5.064
55861SOL     OW67608   9.677   8.548   4.225
55861SOL    HW167609   9.670   8.631   4.169
55861SOL    HW267610   9.681   8.468   4.165
55862SOL     OW67611   9.876   7.985   4.589
55862SOL    HW167612   9.888   8.051   4.515
55862SOL    HW267613   9.922   8.019   4.672
55863SOL     OW67614  10.562   8.796   4.112
55863SOL    HW167615  10.612   8.873   4.152
55863SOL    HW267616  10.467   8.798   4.144
55864SOL     OW67617  10.582   8.893   4.866
55864SOL    HW167618  10.629   8.906   4.953
55864SOL    HW267619  10.516   8.819   4.875
55865SOL     OW67620  10.892   8.087   4.196
55865SOL    HW167621  10.861   8.148   4.269
55865SOL    HW267622  10.942   8.139   4.127
55866SOL     OW67623   9.664   8.958   5.053
55866SOL    HW167624   9.643   8.914   4.966
55866SOL    HW267625   9.761   8.984   5.056
55867SOL     OW67626   9.712   8.199   5.322
55867SOL    HW167627   9.780   8.254   5.275
55867SOL    HW267628   9.752   8.111   5.349
55868SOL     OW67629  10.897   8.227   5.394
55868SOL    HW167630  10.805   8.265   5.389
55868SOL    HW267631  10.957   8.274   5.329
55869SOL     OW67632  10.323   7.553   5.494
55869SOL    HW167633  10.329   7.638   5.442
55869SOL    HW267634  10.355   7.477   5.437
55870SOL     OW67635   9.814   7.498   5.464
55870SOL    HW167636   9.772   7.441   5.394
55870SOL    HW267637   9.748   7.567   5.496
55871SOL     OW67638   9.883   8.318   4.753
55871SOL    HW167639   9.927   8.407   4.744
55871SOL    HW267640   9.820   8.318   4.830
55872SOL     OW67641  10.670   8.310   4.769
55872SOL    HW167642  10.595   8.310   4.703
55872SOL    HW267643  10.707   8.218   4.778
55873SOL     OW67644  10.519   7.973   3.999
55873SOL    HW167645  10.532   7.889   4.053
55873SOL    HW267646  10.490   8.047   4.059
55874SOL     OW67647   9.617   7.661   4.955
55874SOL    HW167648   9.594   7.698   5.045
55874SOL    HW267649   9.587   7.566   4.949
55875SOL     OW67650   9.347   8.758   5.006
55875SOL    HW167651   9.400   8.709   5.074
55875SOL    HW267652   9.369   8.856   5.011
55876SOL     OW67653  10.042   8.082   4.788
55876SOL    HW167654  10.101   8.056   4.712
55876SOL    HW267655  10.014   8.178   4.777
55877SOL     OW67656  11.038   8.383   5.578
55877SOL    HW167657  10.992   8.376   5.489
55877SOL    HW267658  10.976   8.427   5.644
55878SOL     OW67659   9.617   7.511   4.342
55878SOL    HW167660   9.606   7.605   4.375
55878SOL    HW267661   9.612   7.448   4.419
55879SOL     OW67662  10.932   7.815   4.098
55879SOL    HW167663  10.934   7.739   4.162
55879SOL    HW267664  10.884   7.892   4.138
55880SOL     OW67665  10.333   8.214   4.690
55880SOL    HW167666  10.348   8.235   4.786
55880SOL    HW267667  10.303   8.119   4.681
55881SOL     OW67668  10.290   9.021   5.424
55881SOL    HW167669  10.270   9.065   5.336
55881SOL    HW267670  10.329   8.930   5.408
55882SOL     OW67671  11.169   8.966   5.329
55882SOL    HW167672  11.183   8.993   5.234
55882SOL    HW267673  11.252   8.988   5.382
55883SOL     OW67674   9.660   8.346   5.528
55883SOL    HW167675   9.736   8.390   5.576
55883SOL    HW267676   9.695   8.299   5.446
55884SOL     OW67677  10.850   7.722   3.849
55884SOL    HW167678  10.789   7.647   3.872
55884SOL    HW267679  10.872   7.774   3.932
55885SOL     OW67680  10.613   8.286   3.766
55885SOL    HW167681  10.647   8.193   3.781
55885SOL    HW267682  10.631   8.313   3.671
55886SOL     OW67683  10.378   8.781   4.573
55886SOL    HW167684  10.385   8.697   4.518
55886SOL    HW267685  10.440   8.850   4.537
55887SOL     OW67686   9.629   8.258   4.673
55887SOL    HW167687   9.722   8.294   4.678
55887SOL    HW267688   9.623   8.173   4.725
55888SOL     OW67689   9.649   7.957   4.730
55888SOL    HW167690   9.597   7.874   4.713
55888SOL    HW267691   9.726   7.962   4.666
55889SOL     OW67692  10.448   7.828   5.402
55889SOL    HW167693  10.403   7.891   5.466
55889SOL    HW267694  10.541   7.859   5.385
55890SOL     OW67695  10.470   7.655   5.201
55890SOL    HW167696  10.470   7.719   5.278
55890SOL    HW267697  10.498   7.703   5.118
55891SOL     OW67698   9.318   8.774   3.924
55891SOL    HW167699   9.225   8.795   3.893
55891SOL    HW267700   9.328   8.675   3.937
55892SOL     OW67701   9.398   9.249   4.651
55892SOL    HW167702   9.356   9.163   4.624
55892SOL    HW267703   9.492   9.252   4.617
55893SOL     OW67704   9.814   9.016   4.634
55893SOL    HW167705   9.880   9.090   4.643
55893SOL    HW267706   9.858   8.937   4.592
55894SOL     OW67707  10.312   8.244   4.962
55894SOL    HW167708  10.353   8.212   5.048
55894SOL    HW267709  10.216   8.217   4.959
55895SOL     OW67710   9.350   7.992   4.838
55895SOL    HW167711   9.435   7.959   4.797
55895SOL    HW267712   9.363   8.007   4.936
55896SOL     OW67713   9.499   7.968   5.446
55896SOL    HW167714   9.558   7.928   5.376
55896SOL    HW267715   9.441   8.039   5.405
55897SOL     OW67716  10.679   8.398   5.384
55897SOL    HW167717  10.718   8.487   5.404
55897SOL    HW267718  10.689   8.378   5.287
55898SOL     OW67719  10.125   8.020   4.049
55898SOL    HW167720  10.132   7.931   4.003
55898SOL    HW267721  10.031   8.054   4.041
55899SOL     OW67722  10.967   8.052   4.930
55899SOL    HW167723  10.929   7.983   4.992
55899SOL    HW267724  11.049   8.016   4.886
55900SOL     OW67725   9.562   9.012   5.468
55900SOL    HW167726   9.532   9.069   5.544
55900SOL    HW267727   9.555   8.915   5.494
55901SOL     OW67728   9.981   7.912   4.993
55901SOL    HW167729   9.947   7.823   4.963
55901SOL    HW267730  10.007   7.966   4.913
55902SOL     OW67731  10.240   9.126   5.189
55902SOL    HW167732  10.216   9.108   5.094
55902SOL    HW267733  10.270   9.220   5.199
55903SOL     OW67734   9.783   7.948   3.915
55903SOL    HW167735   9.844   8.028   3.919
55903SOL    HW267736   9.688   7.979   3.922
55904SOL     OW67737   9.469   8.585   5.190
55904SOL    HW167738   9.491   8.524   5.266
55904SOL    HW267739   9.479   8.536   5.104
55905SOL     OW67740  10.657   8.507   4.958
55905SOL    HW167741  10.681   8.444   4.884
55905SOL    HW267742  10.567   8.547   4.940
55906SOL     OW67743  10.612   8.303   4.033
55906SOL    HW167744  10.526   8.272   4.075
55906SOL    HW267745  10.608   8.289   3.934
55907SOL     OW67746  11.069   9.195   4.878
55907SOL    HW167747  11.130   9.225   4.805
55907SOL    HW267748  11.031   9.106   4.856
55908SOL     OW67749  10.562   9.179   4.852
55908SOL    HW167750  10.646   9.184   4.798
55908SOL    HW267751  10.539   9.083   4.870
55909SOL     OW67752   9.393   8.706   4.746
55909SOL    HW167753   9.388   8.705   4.846
55909SOL    HW267754   9.310   8.665   4.708
55910SOL     OW67755   9.998   9.110   5.440
55910SOL    HW167756   9.942   9.191   5.449
55910SOL    HW267757  10.050   9.114   5.354
55911SOL     OW67758  11.036   7.583   4.247
55911SOL    HW167759  11.109   7.566   4.180
55911SOL    HW267760  11.005   7.496   4.285
55912SOL     OW67761  10.698   9.021   4.201
55912SOL    HW167762  10.765   9.033   4.127
55912SOL    HW267763  10.658   9.110   4.224
55913SOL     OW67764   9.440   9.242   5.575
55913SOL    HW167765   9.399   9.168   5.628
55913SOL    HW267766   9.504   9.293   5.633
55914SOL     OW67767  10.590   8.375   4.396
55914SOL    HW167768  10.650   8.294   4.398
55914SOL    HW267769  10.630   8.444   4.336
55915SOL     OW67770  10.140   8.721   5.146
55915SOL    HW167771  10.135   8.754   5.241
55915SOL    HW267772  10.054   8.740   5.100
55916SOL     OW67773   9.982   9.064   3.878
55916SOL    HW167774   9.991   9.074   3.779
55916SOL    HW267775   9.942   8.975   3.899
55917SOL     OW67776  10.960   9.168   5.118
55917SOL    HW167777  11.013   9.178   5.034
55917SOL    HW267778  10.933   9.258   5.152
55918SOL     OW67779  11.151   7.623   4.687
55918SOL    HW167780  11.190   7.538   4.651
55918SOL    HW267781  11.053   7.625   4.668
55919SOL     OW67782   9.573   7.774   4.444
55919SOL    HW167783   9.494   7.825   4.410
55919SOL    HW267784   9.564   7.759   4.542
55920SOL     OW67785  10.504   9.060   3.755
55920SOL    HW167786  10.510   8.967   3.792
55920SOL    HW267787  10.445   9.060   3.675
55921SOL     OW67788  10.132   8.450   5.096
55921SOL    HW167789  10.172   8.449   5.004
55921SOL    HW267790  10.142   8.542   5.136
55922SOL     OW67791  10.226   8.358   4.015
55922SOL    HW167792  10.289   8.396   3.947
55922SOL    HW267793  10.266   8.275   4.054
55923SOL     OW67794  10.814   9.055   3.768
55923SOL    HW167795  10.722   9.092   3.775
55923SOL    HW267796  10.852   9.075   3.678
55924SOL     OW67797   9.682   8.736   5.214
55924SOL    HW167798   9.669   8.829   5.180
55924SOL    HW267799   9.598   8.684   5.201
55925SOL     OW67800  10.924   8.740   5.013
55925SOL    HW167801  10.984   8.743   5.093
55925SOL    HW267802  10.849   8.804   5.026
55926SOL     OW67803  10.349   8.546   4.420
55926SOL    HW167804  10.279   8.499   4.474
55926SOL    HW267805  10.408   8.478   4.377
55927SOL     OW67806  10.324   7.684   4.695
55927SOL    HW167807  10.316   7.648   4.602
55927SOL    HW267808  10.322   7.608   4.760
55928SOL     OW67809   9.900   8.935   4.215
55928SOL    HW167810   9.942   8.877   4.145
55928SOL    HW267811   9.856   9.014   4.171
55929SOL     OW67812  11.019   7.833   5.105
55929SOL    HW167813  11.092   7.902   5.109
55929SOL    HW267814  11.047   7.758   5.046
55930SOL     OW67815   9.565   8.796   4.014
55930SOL    HW167816   9.469   8.797   3.987
55930SOL    HW267817   9.577   8.849   4.098
55931SOL     OW67818   9.415   8.461   5.450
55931SOL    HW167819   9.338   8.428   5.504
55931SOL    HW267820   9.500   8.431   5.492
55932SOL     OW67821   9.982   7.651   5.213
55932SOL    HW167822  10.072   7.635   5.173
55932SOL    HW267823   9.990   7.656   5.312
55933SOL     OW67824   9.385   7.793   3.757
55933SOL    HW167825   9.293   7.765   3.728
55933SOL    HW267826   9.416   7.870   3.701
55934SOL     OW67827  10.750   8.304   5.122
55934SOL    HW167828  10.693   8.356   5.059
55934SOL    HW267829  10.846   8.316   5.098
55935SOL     OW67830   9.382   7.614   4.042
55935SOL    HW167831   9.365   7.697   3.988
55935SOL    HW267832   9.472   7.577   4.020
55936SOL     OW67833  10.493   8.783   3.843
55936SOL    HW167834  10.394   8.772   3.845
55936SOL    HW267835  10.527   8.798   3.936
55937SOL     OW67836   9.923   8.290   5.155
55937SOL    HW167837   9.979   8.371   5.138
55937SOL    HW267838   9.982   8.210   5.158
55938SOL     OW67839  10.803   9.215   4.683
55938SOL    HW167840  10.836   9.279   4.614
55938SOL    HW267841  10.869   9.209   4.758
55939SOL     OW67842  10.026   8.013   5.432
55939SOL    HW167843  10.045   8.078   5.506
55939SOL    HW267844  10.086   7.933   5.441
55940SOL     OW67845  10.760   8.668   5.357
55940SOL    HW167846  10.751   8.658   5.456
55940SOL    HW267847  10.856   8.661   5.331
55941SOL     OW67848   9.700   9.189   5.284
55941SOL    HW167849   9.609   9.230   5.282
55941SOL    HW267850   9.693   9.095   5.316
55942SOL     OW67851  10.984   8.331   4.978
55942SOL    HW167852  10.957   8.242   4.941
55942SOL    HW267853  10.985   8.399   4.905
55943SOL     OW67854  10.535   7.773   4.173
55943SOL    HW167855  10.600   7.699   4.162
55943SOL    HW267856  10.555   7.823   4.257
55944SOL     OW67857   9.904   8.193   4.376
55944SOL    HW167858   9.954   8.278   4.357
55944SOL    HW267859   9.816   8.195   4.328
55945SOL     OW67860  11.087   7.790   5.366
55945SOL    HW167861  11.070   7.821   5.272
55945SOL    HW267862  11.003   7.753   5.404
55946SOL     OW67863  11.040   8.382   5.241
55946SOL    HW167864  11.078   8.473   5.256
55946SOL    HW267865  11.032   8.365   5.142
55947SOL     OW67866  10.169   8.822   3.740
55947SOL    HW167867  10.123   8.837   3.828
55947SOL    HW267868  10.213   8.907   3.710
55948SOL     OW67869   9.971   9.238   4.677
55948SOL    HW167870   9.925   9.326   4.664
55948SOL    HW267871  10.070   9.250   4.670
55949SOL     OW67872  10.169   8.404   4.585
55949SOL    HW167873  10.223   8.335   4.633
55949SOL    HW267874  10.137   8.473   4.651
55950SOL     OW67875  10.393   8.432   3.811
55950SOL    HW167876  10.370   8.485   3.729
55950SOL    HW267877  10.474   8.376   3.792
55951SOL     OW67878  11.171   9.017   4.575
55951SOL    HW167879  11.100   9.005   4.505
55951SOL    HW267880  11.172   8.938   4.635
55952SOL     OW67881   9.531   8.762   5.568
55952SOL    HW167882   9.466   8.689   5.547
55952SOL    HW267883   9.535   8.776   5.666
55953SOL     OW67884   9.389   8.688   4.377
55953SOL    HW167885   9.388   8.641   4.465
55953SOL    HW267886   9.471   8.660   4.326
55954SOL     OW67887   9.982   8.839   5.348
55954SOL    HW167888   9.904   8.789   5.386
55954SOL    HW267889   9.979   8.934   5.379
55955SOL     OW67890  11.134   7.640   4.951
55955SOL    HW167891  11.130   7.550   4.995
55955SOL    HW267892  11.137   7.629   4.852
55956SOL     OW67893   9.738   7.872   4.244
55956SOL    HW167894   9.768   7.800   4.182
55956SOL    HW267895   9.699   7.832   4.327
55957SOL     OW67896  11.015   8.935   4.828
55957SOL    HW167897  10.922   8.910   4.801
55957SOL    HW267898  11.041   8.885   4.910
55958SOL     OW67899   9.627   7.995   5.004
55958SOL    HW167900   9.665   7.936   5.076
55958SOL    HW267901   9.667   7.969   4.916
55959SOL     OW67902  10.122   9.034   4.411
55959SOL    HW167903  10.154   9.044   4.317
55959SOL    HW267904  10.043   8.972   4.413
55960SOL     OW67905  10.734   7.662   4.836
55960SOL    HW167906  10.786   7.597   4.891
55960SOL    HW267907  10.685   7.725   4.897
55961SOL     OW67908  10.311   7.482   4.878
55961SOL    HW167909  10.248   7.410   4.847
55961SOL    HW267910  10.404   7.446   4.878
55962SOL     OW67911  10.080   8.778   4.025
55962SOL    HW167912  10.034   8.691   4.042
55962SOL    HW267913  10.171   8.775   4.066
55963SOL     OW67914   9.928   9.015   5.008
55963SOL    HW167915   9.923   9.097   5.065
55963SOL    HW267916  10.017   9.012   4.963
55964SOL     OW67917  10.662   7.500   3.892
55964SOL    HW167918  10.697   7.459   3.808
55964SOL    HW267919  10.572   7.462   3.912
55965SOL     OW67920  10.610   7.901   4.415
55965SOL    HW167921  10.551   7.981   4.419
55965SOL    HW267922  10.625   7.866   4.508
55966SOL     OW67923  10.903   7.669   4.606
55966SOL    HW167924  10.819   7.668   4.660
55966SOL    HW267925  10.905   7.752   4.550
55967SOL     OW67926   9.349   8.525   4.024
55967SOL    HW167927   9.448   8.514   4.015
55967SOL    HW267928   9.309   8.439   4.056
55968SOL     OW67929  10.185   9.094   4.061
55968SOL    HW167930  10.108   9.059   4.007
55968SOL    HW267931  10.153   9.165   4.123
55969SOL     OW67932   9.540   8.076   5.699
55969SOL    HW167933   9.447   8.074   5.736
55969SOL    HW267934   9.541   8.037   5.607
55970SOL     OW67935   9.535   7.723   6.582
55970SOL    HW167936   9.570   7.706   6.674
55970SOL    HW267937   9.447   7.678   6.570
55971SOL     OW67938   9.329   7.816   6.233
55971SOL    HW167939   9.247   7.859   6.272
55971SOL    HW267940   9.301   7.743   6.170
55972SOL     OW67941   9.879   8.723   6.751
55972SOL    HW167942   9.786   8.716   6.714
55972SOL    HW267943   9.890   8.812   6.795
55973SOL     OW67944  10.865   8.959   6.289
55973SOL    HW167945  10.808   8.943   6.370
55973SOL    HW267946  10.806   8.969   6.209
55974SOL     OW67947  10.445   8.151   6.303
55974SOL    HW167948  10.502   8.229   6.278
55974SOL    HW267949  10.385   8.177   6.379
55975SOL     OW67950  11.065   8.055   5.817
55975SOL    HW167951  11.053   8.042   5.718
55975SOL    HW267952  11.035   7.974   5.866
55976SOL     OW67953  10.078   8.592   6.609
55976SOL    HW167954  10.000   8.609   6.669
55976SOL    HW267955  10.112   8.679   6.573
55977SOL     OW67956  10.160   8.246   7.409
55977SOL    HW167957  10.156   8.322   7.474
55977SOL    HW267958  10.182   8.282   7.318
55978SOL     OW67959   9.995   8.460   6.251
55978SOL    HW167960  10.064   8.444   6.321
55978SOL    HW267961   9.922   8.517   6.289
55979SOL     OW67962   9.996   8.609   7.389
55979SOL    HW167963  10.056   8.688   7.403
55979SOL    HW267964   9.910   8.640   7.348
55980SOL     OW67965   9.645   8.883   6.647
55980SOL    HW167966   9.567   8.852   6.594
55980SOL    HW267967   9.703   8.941   6.590
55981SOL     OW67968  10.770   8.953   6.925
55981SOL    HW167969  10.794   9.047   6.951
55981SOL    HW267970  10.754   8.899   7.007
55982SOL     OW67971   9.748   7.840   7.085
55982SOL    HW167972   9.830   7.784   7.094
55982SOL    HW267973   9.667   7.782   7.089
55983SOL     OW67974  10.913   7.895   6.323
55983SOL    HW167975  10.839   7.941   6.273
55983SOL    HW267976  10.964   7.963   6.376
55984SOL     OW67977   9.541   9.161   6.069
55984SOL    HW167978   9.575   9.238   6.123
55984SOL    HW267979   9.585   9.161   5.979
55985SOL     OW67980  10.437   8.789   7.276
55985SOL    HW167981  10.484   8.789   7.364
55985SOL    HW267982  10.389   8.702   7.265
55986SOL     OW67983   9.540   8.882   6.124
55986SOL    HW167984   9.514   8.978   6.124
55986SOL    HW267985   9.469   8.828   6.169
55987SOL     OW67986   9.550   8.539   6.472
55987SOL    HW167987   9.564   8.455   6.524
55987SOL    HW267988   9.495   8.603   6.527
55988SOL     OW67989   9.930   9.234   7.025
55988SOL    HW167990   9.838   9.217   7.060
55988SOL    HW267991   9.958   9.326   7.051
55989SOL     OW67992   9.916   8.412   5.709
55989SOL    HW167993   9.923   8.496   5.655
55989SOL    HW267994   9.962   8.425   5.797
55990SOL     OW67995  10.904   7.562   7.066
55990SOL    HW167996  10.886   7.629   6.994
55990SOL    HW267997  10.901   7.608   7.155
55991SOL     OW67998   9.432   8.091   6.149
55991SOL    HW167999   9.387   8.003   6.166
55991SOL    HW268000   9.431   8.145   6.233
55992SOL     OW68001  11.152   9.215   5.945
55992SOL    HW168002  11.206   9.186   6.025
55992SOL    HW268003  11.182   9.305   5.916
55993SOL     OW68004   9.337   9.044   5.703
55993SOL    HW168005   9.318   8.948   5.724
55993SOL    HW268006   9.304   9.102   5.778
55994SOL     OW68007  10.999   8.370   6.198
55994SOL    HW168008  11.094   8.341   6.206
55994SOL    HW268009  10.991   8.435   6.123
55995SOL     OW68010  10.951   8.556   6.018
55995SOL    HW168011  11.037   8.558   5.966
55995SOL    HW268012  10.965   8.603   6.106
55996SOL     OW68013   9.423   8.185   7.183
55996SOL    HW168014   9.511   8.172   7.228
55996SOL    HW268015   9.410   8.282   7.161
55997SOL     OW68016   9.923   8.813   6.312
55997SOL    HW168017   9.874   8.726   6.321
55997SOL    HW268018   9.900   8.856   6.225
55998SOL     OW68019  10.603   8.676   7.009
55998SOL    HW168020  10.640   8.603   6.951
55998SOL    HW268021  10.655   8.681   7.094
55999SOL     OW68022  10.119   7.452   6.088
55999SOL    HW168023  10.159   7.543   6.079
55999SOL    HW268024  10.019   7.460   6.094
56000SOL     OW68025   9.507   8.424   6.850
56000SOL    HW168026   9.596   8.379   6.836
56000SOL    HW268027   9.434   8.359   6.831
56001SOL     OW68028  10.835   8.447   5.776
56001SOL    HW168029  10.772   8.371   5.789
56001SOL    HW268030  10.883   8.465   5.862
56002SOL     OW68031  10.497   9.240   7.202
56002SOL    HW168032  10.521   9.300   7.126
56002SOL    HW268033  10.504   9.145   7.172
56003SOL     OW68034   9.627   7.699   7.387
56003SOL    HW168035   9.698   7.770   7.393
56003SOL    HW268036   9.539   7.738   7.415
56004SOL     OW68037  10.776   8.865   6.539
56004SOL    HW168038  10.717   8.871   6.619
56004SOL    HW268039  10.761   8.777   6.493
56005SOL     OW68040  10.977   9.162   6.158
56005SOL    HW168041  10.936   9.139   6.070
56005SOL    HW268042  10.959   9.088   6.223
56006SOL     OW68043   9.908   8.177   5.856
56006SOL    HW168044   9.932   8.246   5.788
56006SOL    HW268045   9.830   8.210   5.910
56007SOL     OW68046  10.591   7.793   6.530
56007SOL    HW168047  10.505   7.743   6.517
56007SOL    HW268048  10.653   7.739   6.586
56008SOL     OW68049  10.886   9.110   5.893
56008SOL    HW168050  10.975   9.156   5.896
56008SOL    HW268051  10.865   9.086   5.798
56009SOL     OW68052  10.117   8.053   7.051
56009SOL    HW168053  10.070   8.050   7.140
56009SOL    HW268054  10.066   7.998   6.985
56010SOL     OW68055  10.704   7.917   7.260
56010SOL    HW168056  10.684   7.960   7.348
56010SOL    HW268057  10.782   7.855   7.269
56011SOL     OW68058  10.283   8.338   7.158
56011SOL    HW168059  10.329   8.254   7.129
56011SOL    HW268060  10.227   8.372   7.083
56012SOL     OW68061  10.301   7.858   6.828
56012SOL    HW168062  10.224   7.892   6.882
56012SOL    HW268063  10.267   7.807   6.749
56013SOL     OW68064  10.351   8.149   6.015
56013SOL    HW168065  10.377   8.145   6.111
56013SOL    HW268066  10.266   8.098   6.001
56014SOL     OW68067   9.386   8.259   6.375
56014SOL    HW168068   9.485   8.247   6.384
56014SOL    HW268069   9.362   8.354   6.396
56015SOL     OW68070   9.440   9.269   7.157
56015SOL    HW168071   9.430   9.254   7.256
56015SOL    HW268072   9.354   9.305   7.121
56016SOL     OW68073  10.175   7.796   5.781
56016SOL    HW168074  10.234   7.859   5.732
56016SOL    HW268075  10.194   7.702   5.752
56017SOL     OW68076  11.029   8.033   7.417
56017SOL    HW168077  11.003   8.122   7.381
56017SOL    HW268078  11.027   7.965   7.344
56018SOL     OW68079  10.672   8.592   6.131
56018SOL    HW168080  10.755   8.563   6.083
56018SOL    HW268081  10.623   8.659   6.075
56019SOL     OW68082   9.860   7.644   6.471
56019SOL    HW168083   9.855   7.639   6.571
56019SOL    HW268084   9.862   7.740   6.442
56020SOL     OW68085  10.318   8.904   6.063
56020SOL    HW168086  10.272   8.976   6.011
56020SOL    HW268087  10.314   8.924   6.161
56021SOL     OW68088   9.661   9.249   6.439
56021SOL    HW168089   9.711   9.163   6.445
56021SOL    HW268090   9.726   9.326   6.436
56022SOL     OW68091  11.105   8.514   6.459
56022SOL    HW168092  11.043   8.499   6.383
56022SOL    HW268093  11.053   8.525   6.544
56023SOL     OW68094  10.537   8.998   7.092
56023SOL    HW168095  10.543   8.921   7.156
56023SOL    HW268096  10.485   8.972   7.012
56024SOL     OW68097   9.631   8.391   5.828
56024SOL    HW168098   9.713   8.430   5.786
56024SOL    HW268099   9.604   8.309   5.779
56025SOL     OW68100  10.768   8.183   6.314
56025SOL    HW168101  10.763   8.118   6.389
56025SOL    HW268102  10.848   8.242   6.327
56026SOL     OW68103   9.771   8.714   7.313
56026SOL    HW168104   9.721   8.715   7.227
56026SOL    HW268105   9.708   8.696   7.389
56027SOL     OW68106  10.421   9.224   5.823
56027SOL    HW168107  10.361   9.162   5.873
56027SOL    HW268108  10.452   9.180   5.738
56028SOL     OW68109   9.512   7.733   7.084
56028SOL    HW168110   9.432   7.793   7.071
56028SOL    HW268111   9.502   7.684   7.170
56029SOL     OW68112  10.942   8.825   5.667
56029SOL    HW168113  10.910   8.919   5.657
56029SOL    HW268114  10.866   8.762   5.655
56030SOL     OW68115   9.774   9.191   5.909
56030SOL    HW168116   9.807   9.230   5.995
56030SOL    HW268117   9.850   9.184   5.844
56031SOL     OW68118  10.710   7.555   6.012
56031SOL    HW168119  10.686   7.518   5.922
56031SOL    HW268120  10.809   7.571   6.016
56032SOL     OW68121   9.559   9.233   6.827
56032SOL    HW168122   9.616   9.168   6.877
56032SOL    HW268123   9.543   9.200   6.734
56033SOL     OW68124  10.250   9.146   6.490
56033SOL    HW168125  10.330   9.089   6.511
56033SOL    HW268126  10.201   9.106   6.413
56034SOL     OW68127   9.692   8.148   6.066
56034SOL    HW168128   9.737   8.058   6.063
56034SOL    HW268129   9.598   8.137   6.099
56035SOL     OW68130  10.857   7.670   7.315
56035SOL    HW168131  10.852   7.707   7.407
56035SOL    HW268132  10.785   7.601   7.303
56036SOL     OW68133   9.924   7.570   5.703
56036SOL    HW168134  10.022   7.548   5.710
56036SOL    HW268135   9.893   7.553   5.610
56037SOL     OW68136  10.091   7.712   7.335
56037SOL    HW168137  10.158   7.651   7.378
56037SOL    HW268138  10.018   7.731   7.400
56038SOL     OW68139  10.198   8.962   6.781
56038SOL    HW168140  10.175   8.937   6.687
56038SOL    HW268141  10.259   8.893   6.820
56039SOL     OW68142  10.661   8.038   7.019
56039SOL    HW168143  10.689   7.995   7.104
56039SOL    HW268144  10.686   8.134   7.020
56040SOL     OW68145  10.113   8.850   6.510
56040SOL    HW168146  10.203   8.864   6.468
56040SOL    HW268147  10.042   8.852   6.439
56041SOL     OW68148  10.232   7.951   6.485
56041SOL    HW168149  10.207   7.942   6.389
56041SOL    HW268150  10.280   7.869   6.516
56042SOL     OW68151   9.849   7.512   6.098
56042SOL    HW168152   9.768   7.513   6.156
56042SOL    HW268153   9.852   7.595   6.043
56043SOL     OW68154  10.744   8.636   5.627
56043SOL    HW168155  10.776   8.560   5.684
56043SOL    HW268156  10.652   8.663   5.657
56044SOL     OW68157   9.607   7.483   5.757
56044SOL    HW168158   9.656   7.567   5.736
56044SOL    HW268159   9.669   7.418   5.802
56045SOL     OW68160  10.245   7.684   6.066
56045SOL    HW168161  10.197   7.725   5.988
56045SOL    HW268162  10.344   7.682   6.047
56046SOL     OW68163  10.386   8.131   7.050
56046SOL    HW168164  10.306   8.070   7.053
56046SOL    HW268165  10.467   8.078   7.026
56047SOL     OW68166  10.537   9.018   6.379
56047SOL    HW168167  10.558   9.092   6.314
56047SOL    HW268168  10.605   9.018   6.452
56048SOL     OW68169   9.769   8.600   6.327
56048SOL    HW168170   9.698   8.573   6.392
56048SOL    HW268171   9.743   8.572   6.234
56049SOL     OW68172  10.581   9.245   6.177
56049SOL    HW168173  10.625   9.309   6.113
56049SOL    HW268174  10.531   9.297   6.247
56050SOL     OW68175  10.342   7.997   5.602
56050SOL    HW168176  10.301   8.079   5.563
56050SOL    HW268177  10.406   8.023   5.675
56051SOL     OW68178   9.388   8.004   6.972
56051SOL    HW168179   9.480   8.003   6.931
56051SOL    HW268180   9.382   8.078   7.039
56052SOL     OW68181   9.871   7.670   6.733
56052SOL    HW168182   9.909   7.586   6.770
56052SOL    HW268183   9.783   7.689   6.777
56053SOL     OW68184  10.176   7.902   6.228
56053SOL    HW168185  10.144   7.974   6.166
56053SOL    HW268186  10.200   7.821   6.175
56054SOL     OW68187  10.327   7.487   6.339
56054SOL    HW168188  10.255   7.492   6.270
56054SOL    HW268189  10.303   7.418   6.408
56055SOL     OW68190  10.739   8.621   6.453
56055SOL    HW168191  10.684   8.537   6.446
56055SOL    HW268192  10.765   8.650   6.361
56056SOL     OW68193  10.776   8.038   6.578
56056SOL    HW168194  10.746   7.943   6.585
56056SOL    HW268195  10.849   8.054   6.644
56057SOL     OW68196  11.167   8.281   5.963
56057SOL    HW168197  11.209   8.217   6.027
56057SOL    HW268198  11.129   8.230   5.885
56058SOL     OW68199   9.798   8.833   5.760
56058SOL    HW168200   9.711   8.818   5.807
56058SOL    HW268201   9.781   8.859   5.665
56059SOL     OW68202  10.974   8.728   6.243
56059SOL    HW168203  11.073   8.736   6.257
56059SOL    HW268204  10.929   8.812   6.274
56060SOL     OW68205  10.700   8.023   5.664
56060SOL    HW168206  10.646   8.002   5.745
56060SOL    HW268207  10.791   7.982   5.673
56061SOL     OW68208   9.837   7.704   5.914
56061SOL    HW168209   9.864   7.645   5.839
56061SOL    HW268210   9.837   7.799   5.883
56062SOL     OW68211  11.064   8.671   7.174
56062SOL    HW168212  11.155   8.632   7.161
56062SOL    HW268213  11.072   8.767   7.198
56063SOL     OW68214  10.374   8.795   6.926
56063SOL    HW168215  10.294   8.772   6.981
56063SOL    HW268216  10.457   8.769   6.975
56064SOL     OW68217  10.902   9.077   7.211
56064SOL    HW168218  10.929   9.111   7.121
56064SOL    HW268219  10.981   9.039   7.257
56065SOL     OW68220  10.421   8.643   6.686
56065SOL    HW168221  10.381   8.687   6.767
56065SOL    HW268222  10.380   8.680   6.603
56066SOL     OW68223  10.948   8.547   6.665
56066SOL    HW168224  10.953   8.628   6.724
56066SOL    HW268225  10.862   8.549   6.614
56067SOL     OW68226  10.225   7.537   6.988
56067SOL    HW168227  10.250   7.517   6.893
56067SOL    HW268228  10.297   7.593   7.030
56068SOL     OW68229  10.290   8.564   7.305
56068SOL    HW168230  10.191   8.570   7.315
56068SOL    HW268231  10.313   8.484   7.249
56069SOL     OW68232  10.015   8.498   5.954
56069SOL    HW168233  10.001   8.505   6.053
56069SOL    HW268234  10.099   8.447   5.936
56070SOL     OW68235   9.720   8.261   6.837
56070SOL    HW168236   9.806   8.273   6.887
56070SOL    HW268237   9.678   8.174   6.864
56071SOL     OW68238  10.584   7.834   6.848
56071SOL    HW168239  10.605   7.908   6.912
56071SOL    HW268240  10.495   7.851   6.805
56072SOL     OW68241   9.374   9.012   6.917
56072SOL    HW168242   9.328   9.094   6.883
56072SOL    HW268243   9.472   9.031   6.926
56073SOL     OW68244   9.677   8.548   6.087
56073SOL    HW168245   9.670   8.631   6.031
56073SOL    HW268246   9.681   8.468   6.027
56074SOL     OW68247   9.876   7.985   6.451
56074SOL    HW168248   9.888   8.051   6.377
56074SOL    HW268249   9.922   8.019   6.534
56075SOL     OW68250  10.562   8.796   5.974
56075SOL    HW168251  10.612   8.873   6.014
56075SOL    HW268252  10.467   8.798   6.006
56076SOL     OW68253  10.582   8.893   6.728
56076SOL    HW168254  10.629   8.906   6.815
56076SOL    HW268255  10.516   8.819   6.737
56077SOL     OW68256  10.892   8.087   6.058
56077SOL    HW168257  10.861   8.148   6.131
56077SOL    HW268258  10.942   8.139   5.989
56078SOL     OW68259   9.664   8.958   6.915
56078SOL    HW168260   9.643   8.914   6.828
56078SOL    HW268261   9.761   8.984   6.918
56079SOL     OW68262   9.712   8.199   7.184
56079SOL    HW168263   9.780   8.254   7.137
56079SOL    HW268264   9.752   8.111   7.211
56080SOL     OW68265  10.897   8.227   7.256
56080SOL    HW168266  10.805   8.265   7.251
56080SOL    HW268267  10.957   8.274   7.191
56081SOL     OW68268  10.323   7.553   7.356
56081SOL    HW168269  10.329   7.638   7.304
56081SOL    HW268270  10.355   7.477   7.299
56082SOL     OW68271   9.814   7.498   7.326
56082SOL    HW168272   9.772   7.441   7.256
56082SOL    HW268273   9.748   7.567   7.358
56083SOL     OW68274   9.883   8.318   6.615
56083SOL    HW168275   9.927   8.407   6.606
56083SOL    HW268276   9.820   8.318   6.692
56084SOL     OW68277  10.670   8.310   6.631
56084SOL    HW168278  10.595   8.310   6.565
56084SOL    HW268279  10.707   8.218   6.640
56085SOL     OW68280  10.519   7.973   5.861
56085SOL    HW168281  10.532   7.889   5.915
56085SOL    HW268282  10.490   8.047   5.921
56086SOL     OW68283   9.617   7.661   6.817
56086SOL    HW168284   9.594   7.698   6.907
56086SOL    HW268285   9.587   7.566   6.811
56087SOL     OW68286   9.347   8.758   6.868
56087SOL    HW168287   9.400   8.709   6.936
56087SOL    HW268288   9.369   8.856   6.873
56088SOL     OW68289  10.042   8.082   6.650
56088SOL    HW168290  10.101   8.056   6.574
56088SOL    HW268291  10.014   8.178   6.639
56089SOL     OW68292  11.038   8.383   7.440
56089SOL    HW168293  10.992   8.376   7.351
56089SOL    HW268294  10.976   8.427   7.506
56090SOL     OW68295   9.617   7.511   6.204
56090SOL    HW168296   9.606   7.605   6.237
56090SOL    HW268297   9.612   7.448   6.281
56091SOL     OW68298  10.932   7.815   5.960
56091SOL    HW168299  10.934   7.739   6.024
56091SOL    HW268300  10.884   7.892   6.000
56092SOL     OW68301  10.333   8.214   6.552
56092SOL    HW168302  10.348   8.235   6.648
56092SOL    HW268303  10.303   8.119   6.543
56093SOL     OW68304  10.290   9.021   7.286
56093SOL    HW168305  10.270   9.065   7.198
56093SOL    HW268306  10.329   8.930   7.270
56094SOL     OW68307  11.169   8.966   7.191
56094SOL    HW168308  11.183   8.993   7.096
56094SOL    HW268309  11.252   8.988   7.244
56095SOL     OW68310   9.660   8.346   7.390
56095SOL    HW168311   9.736   8.390   7.438
56095SOL    HW268312   9.695   8.299   7.308
56096SOL     OW68313  10.850   7.722   5.711
56096SOL    HW168314  10.789   7.647   5.734
56096SOL    HW268315  10.872   7.774   5.794
56097SOL     OW68316  10.613   8.286   5.628
56097SOL    HW168317  10.647   8.193   5.643
56097SOL    HW268318  10.631   8.313   5.533
56098SOL     OW68319  10.378   8.781   6.435
56098SOL    HW168320  10.385   8.697   6.380
56098SOL    HW268321  10.440   8.850   6.399
56099SOL     OW68322   9.629   8.258   6.535
56099SOL    HW168323   9.722   8.294   6.540
56099SOL    HW268324   9.623   8.173   6.587
56100SOL     OW68325   9.649   7.957   6.592
56100SOL    HW168326   9.597   7.874   6.575
56100SOL    HW268327   9.726   7.962   6.528
56101SOL     OW68328  10.448   7.828   7.264
56101SOL    HW168329  10.403   7.891   7.328
56101SOL    HW268330  10.541   7.859   7.247
56102SOL     OW68331  10.470   7.655   7.063
56102SOL    HW168332  10.470   7.719   7.140
56102SOL    HW268333  10.498   7.703   6.980
56103SOL     OW68334   9.318   8.774   5.786
56103SOL    HW168335   9.225   8.795   5.755
56103SOL    HW268336   9.328   8.675   5.799
56104SOL     OW68337   9.398   9.249   6.513
56104SOL    HW168338   9.356   9.163   6.486
56104SOL    HW268339   9.492   9.252   6.479
56105SOL     OW68340   9.814   9.016   6.496
56105SOL    HW168341   9.880   9.090   6.505
56105SOL    HW268342   9.858   8.937   6.454
56106SOL     OW68343  10.312   8.244   6.824
56106SOL    HW168344  10.353   8.212   6.910
56106SOL    HW268345  10.216   8.217   6.821
56107SOL     OW68346   9.350   7.992   6.700
56107SOL    HW168347   9.435   7.959   6.659
56107SOL    HW268348   9.363   8.007   6.798
56108SOL     OW68349   9.499   7.968   7.308
56108SOL    HW168350   9.558   7.928   7.238
56108SOL    HW268351   9.441   8.039   7.267
56109SOL     OW68352  10.679   8.398   7.246
56109SOL    HW168353  10.718   8.487   7.266
56109SOL    HW268354  10.689   8.378   7.149
56110SOL     OW68355  10.125   8.020   5.911
56110SOL    HW168356  10.132   7.931   5.865
56110SOL    HW268357  10.031   8.054   5.903
56111SOL     OW68358  10.967   8.052   6.792
56111SOL    HW168359  10.929   7.983   6.854
56111SOL    HW268360  11.049   8.016   6.748
56112SOL     OW68361   9.562   9.012   7.330
56112SOL    HW168362   9.532   9.069   7.406
56112SOL    HW268363   9.555   8.915   7.356
56113SOL     OW68364   9.981   7.912   6.855
56113SOL    HW168365   9.947   7.823   6.825
56113SOL    HW268366  10.007   7.966   6.775
56114SOL     OW68367  10.240   9.126   7.051
56114SOL    HW168368  10.216   9.108   6.956
56114SOL    HW268369  10.270   9.220   7.061
56115SOL     OW68370   9.783   7.948   5.777
56115SOL    HW168371   9.844   8.028   5.781
56115SOL    HW268372   9.688   7.979   5.784
56116SOL     OW68373   9.469   8.585   7.052
56116SOL    HW168374   9.491   8.524   7.128
56116SOL    HW268375   9.479   8.536   6.966
56117SOL     OW68376  10.657   8.507   6.820
56117SOL    HW168377  10.681   8.444   6.746
56117SOL    HW268378  10.567   8.547   6.802
56118SOL     OW68379  10.612   8.303   5.895
56118SOL    HW168380  10.526   8.272   5.937
56118SOL    HW268381  10.608   8.289   5.796
56119SOL     OW68382  11.069   9.195   6.740
56119SOL    HW168383  11.130   9.225   6.667
56119SOL    HW268384  11.031   9.106   6.718
56120SOL     OW68385  10.562   9.179   6.714
56120SOL    HW168386  10.646   9.184   6.660
56120SOL    HW268387  10.539   9.083   6.732
56121SOL     OW68388   9.393   8.706   6.608
56121SOL    HW168389   9.388   8.705   6.708
56121SOL    HW268390   9.310   8.665   6.570
56122SOL     OW68391   9.998   9.110   7.302
56122SOL    HW168392   9.942   9.191   7.311
56122SOL    HW268393  10.050   9.114   7.216
56123SOL     OW68394  11.036   7.583   6.109
56123SOL    HW168395  11.109   7.566   6.042
56123SOL    HW268396  11.005   7.496   6.147
56124SOL     OW68397  10.698   9.021   6.063
56124SOL    HW168398  10.765   9.033   5.989
56124SOL    HW268399  10.658   9.110   6.086
56125SOL     OW68400   9.440   9.242   7.437
56125SOL    HW168401   9.399   9.168   7.490
56125SOL    HW268402   9.504   9.293   7.495
56126SOL     OW68403  10.590   8.375   6.258
56126SOL    HW168404  10.650   8.294   6.260
56126SOL    HW268405  10.630   8.444   6.198
56127SOL     OW68406  10.140   8.721   7.008
56127SOL    HW168407  10.135   8.754   7.103
56127SOL    HW268408  10.054   8.740   6.962
56128SOL     OW68409   9.982   9.064   5.740
56128SOL    HW168410   9.991   9.074   5.641
56128SOL    HW268411   9.942   8.975   5.761
56129SOL     OW68412  10.960   9.168   6.980
56129SOL    HW168413  11.013   9.178   6.896
56129SOL    HW268414  10.933   9.258   7.014
56130SOL     OW68415  11.151   7.623   6.549
56130SOL    HW168416  11.190   7.538   6.513
56130SOL    HW268417  11.053   7.625   6.530
56131SOL     OW68418   9.573   7.774   6.306
56131SOL    HW168419   9.494   7.825   6.272
56131SOL    HW268420   9.564   7.759   6.404
56132SOL     OW68421  10.504   9.060   5.617
56132SOL    HW168422  10.510   8.967   5.654
56132SOL    HW268423  10.445   9.060   5.537
56133SOL     OW68424  10.132   8.450   6.958
56133SOL    HW168425  10.172   8.449   6.866
56133SOL    HW268426  10.142   8.542   6.998
56134SOL     OW68427  10.226   8.358   5.877
56134SOL    HW168428  10.289   8.396   5.809
56134SOL    HW268429  10.266   8.275   5.916
56135SOL     OW68430  10.814   9.055   5.630
56135SOL    HW168431  10.722   9.092   5.637
56135SOL    HW268432  10.852   9.075   5.540
56136SOL     OW68433   9.682   8.736   7.076
56136SOL    HW168434   9.669   8.829   7.042
56136SOL    HW268435   9.598   8.684   7.063
56137SOL     OW68436  10.924   8.740   6.875
56137SOL    HW168437  10.984   8.743   6.955
56137SOL    HW268438  10.849   8.804   6.888
56138SOL     OW68439  10.349   8.546   6.282
56138SOL    HW168440  10.279   8.499   6.336
56138SOL    HW268441  10.408   8.478   6.239
56139SOL     OW68442  10.324   7.684   6.557
56139SOL    HW168443  10.316   7.648   6.464
56139SOL    HW268444  10.322   7.608   6.622
56140SOL     OW68445   9.900   8.935   6.077
56140SOL    HW168446   9.942   8.877   6.007
56140SOL    HW268447   9.856   9.014   6.033
56141SOL     OW68448  11.019   7.833   6.967
56141SOL    HW168449  11.092   7.902   6.971
56141SOL    HW268450  11.047   7.758   6.908
56142SOL     OW68451   9.565   8.796   5.876
56142SOL    HW168452   9.469   8.797   5.849
56142SOL    HW268453   9.577   8.849   5.960
56143SOL     OW68454   9.415   8.461   7.312
56143SOL    HW168455   9.338   8.428   7.366
56143SOL    HW268456   9.500   8.431   7.354
56144SOL     OW68457   9.982   7.651   7.075
56144SOL    HW168458  10.072   7.635   7.035
56144SOL    HW268459   9.990   7.656   7.174
56145SOL     OW68460   9.385   7.793   5.619
56145SOL    HW168461   9.293   7.765   5.590
56145SOL    HW268462   9.416   7.870   5.563
56146SOL     OW68463  10.750   8.304   6.984
56146SOL    HW168464  10.693   8.356   6.921
56146SOL    HW268465  10.846   8.316   6.960
56147SOL     OW68466   9.382   7.614   5.904
56147SOL    HW168467   9.365   7.697   5.850
56147SOL    HW268468   9.472   7.577   5.882
56148SOL     OW68469  10.493   8.783   5.705
56148SOL    HW168470  10.394   8.772   5.707
56148SOL    HW268471  10.527   8.798   5.798
56149SOL     OW68472   9.923   8.290   7.017
56149SOL    HW168473   9.979   8.371   7.000
56149SOL    HW268474   9.982   8.210   7.020
56150SOL     OW68475  10.803   9.215   6.545
56150SOL    HW168476  10.836   9.279   6.476
56150SOL    HW268477  10.869   9.209   6.620
56151SOL     OW68478  10.026   8.013   7.294
56151SOL    HW168479  10.045   8.078   7.368
56151SOL    HW268480  10.086   7.933   7.303
56152SOL     OW68481  10.760   8.668   7.219
56152SOL    HW168482  10.751   8.658   7.318
56152SOL    HW268483  10.856   8.661   7.193
56153SOL     OW68484   9.700   9.189   7.146
56153SOL    HW168485   9.609   9.230   7.144
56153SOL    HW268486   9.693   9.095   7.178
56154SOL     OW68487  10.984   8.331   6.840
56154SOL    HW168488  10.957   8.242   6.803
56154SOL    HW268489  10.985   8.399   6.767
56155SOL     OW68490  10.535   7.773   6.035
56155SOL    HW168491  10.600   7.699   6.024
56155SOL    HW268492  10.555   7.823   6.119
56156SOL     OW68493   9.904   8.193   6.238
56156SOL    HW168494   9.954   8.278   6.219
56156SOL    HW268495   9.816   8.195   6.190
56157SOL     OW68496  11.087   7.790   7.228
56157SOL    HW168497  11.070   7.821   7.134
56157SOL    HW268498  11.003   7.753   7.266
56158SOL     OW68499  11.040   8.382   7.103
56158SOL    HW168500  11.078   8.473   7.118
56158SOL    HW268501  11.032   8.365   7.004
56159SOL     OW68502  10.169   8.822   5.602
56159SOL    HW168503  10.123   8.837   5.690
56159SOL    HW268504  10.213   8.907   5.572
56160SOL     OW68505   9.971   9.238   6.539
56160SOL    HW168506   9.925   9.326   6.526
56160SOL    HW268507  10.070   9.250   6.532
56161SOL     OW68508  10.169   8.404   6.447
56161SOL    HW168509  10.223   8.335   6.495
56161SOL    HW268510  10.137   8.473   6.513
56162SOL     OW68511  10.393   8.432   5.673
56162SOL    HW168512  10.370   8.485   5.591
56162SOL    HW268513  10.474   8.376   5.654
56163SOL     OW68514  11.171   9.017   6.437
56163SOL    HW168515  11.100   9.005   6.367
56163SOL    HW268516  11.172   8.938   6.497
56164SOL     OW68517   9.531   8.762   7.430
56164SOL    HW168518   9.466   8.689   7.409
56164SOL    HW268519   9.535   8.776   7.528
56165SOL     OW68520   9.389   8.688   6.239
56165SOL    HW168521   9.388   8.641   6.327
56165SOL    HW268522   9.471   8.660   6.188
56166SOL     OW68523   9.982   8.839   7.210
56166SOL    HW168524   9.904   8.789   7.248
56166SOL    HW268525   9.979   8.934   7.241
56167SOL     OW68526  11.134   7.640   6.813
56167SOL    HW168527  11.130   7.550   6.857
56167SOL    HW268528  11.137   7.629   6.714
56168SOL     OW68529   9.738   7.872   6.106
56168SOL    HW168530   9.768   7.800   6.044
56168SOL    HW268531   9.699   7.832   6.189
56169SOL     OW68532  11.015   8.935   6.690
56169SOL    HW168533  10.922   8.910   6.663
56169SOL    HW268534  11.041   8.885   6.772
56170SOL     OW68535   9.627   7.995   6.866
56170SOL    HW168536   9.665   7.936   6.938
56170SOL    HW268537   9.667   7.969   6.778
56171SOL     OW68538  10.122   9.034   6.273
56171SOL    HW168539  10.154   9.044   6.179
56171SOL    HW268540  10.043   8.972   6.275
56172SOL     OW68541  10.734   7.662   6.698
56172SOL    HW168542  10.786   7.597   6.753
56172SOL    HW268543  10.685   7.725   6.759
56173SOL     OW68544  10.311   7.482   6.740
56173SOL    HW168545  10.248   7.410   6.709
56173SOL    HW268546  10.404   7.446   6.740
56174SOL     OW68547  10.080   8.778   5.887
56174SOL    HW168548  10.034   8.691   5.904
56174SOL    HW268549  10.171   8.775   5.928
56175SOL     OW68550   9.928   9.015   6.870
56175SOL    HW168551   9.923   9.097   6.927
56175SOL    HW268552  10.017   9.012   6.825
56176SOL     OW68553  10.662   7.500   5.754
56176SOL    HW168554  10.697   7.459   5.670
56176SOL    HW268555  10.572   7.462   5.774
56177SOL     OW68556  10.610   7.901   6.277
56177SOL    HW168557  10.551   7.981   6.281
56177SOL    HW268558  10.625   7.866   6.370
56178SOL     OW68559  10.903   7.669   6.468
56178SOL    HW168560  10.819   7.668   6.522
56178SOL    HW268561  10.905   7.752   6.412
56179SOL     OW68562   9.349   8.525   5.886
56179SOL    HW168563   9.448   8.514   5.877
56179SOL    HW268564   9.309   8.439   5.918
56180SOL     OW68565  10.185   9.094   5.923
56180SOL    HW168566  10.108   9.059   5.869
56180SOL    HW268567  10.153   9.165   5.985
56181SOL     OW68568   9.540   8.076   7.561
56181SOL    HW168569   9.447   8.074   7.598
56181SOL    HW268570   9.541   8.037   7.469
56182SOL     OW68571   9.535   7.723   8.444
56182SOL    HW168572   9.570   7.706   8.536
56182SOL    HW268573   9.447   7.678   8.432
56183SOL     OW68574   9.329   7.816   8.095
56183SOL    HW168575   9.247   7.859   8.134
56183SOL    HW268576   9.301   7.743   8.032
56184SOL     OW68577   9.879   8.723   8.613
56184SOL    HW168578   9.786   8.716   8.576
56184SOL    HW268579   9.890   8.812   8.657
56185SOL     OW68580  10.865   8.959   8.151
56185SOL    HW168581  10.808   8.943   8.232
56185SOL    HW268582  10.806   8.969   8.071
56186SOL     OW68583  10.445   8.151   8.165
56186SOL    HW168584  10.502   8.229   8.140
56186SOL    HW268585  10.385   8.177   8.241
56187SOL     OW68586  11.065   8.055   7.679
56187SOL    HW168587  11.053   8.042   7.580
56187SOL    HW268588  11.035   7.974   7.728
56188SOL     OW68589  10.078   8.592   8.471
56188SOL    HW168590  10.000   8.609   8.531
56188SOL    HW268591  10.112   8.679   8.435
56189SOL     OW68592  10.160   8.246   9.271
56189SOL    HW168593  10.156   8.322   9.336
56189SOL    HW268594  10.182   8.282   9.180
56190SOL     OW68595   9.995   8.460   8.113
56190SOL    HW168596  10.064   8.444   8.183
56190SOL    HW268597   9.922   8.517   8.151
56191SOL     OW68598   9.996   8.609   9.251
56191SOL    HW168599  10.056   8.688   9.265
56191SOL    HW268600   9.910   8.640   9.210
56192SOL     OW68601   9.645   8.883   8.509
56192SOL    HW168602   9.567   8.852   8.456
56192SOL    HW268603   9.703   8.941   8.452
56193SOL     OW68604  10.770   8.953   8.787
56193SOL    HW168605  10.794   9.047   8.813
56193SOL    HW268606  10.754   8.899   8.869
56194SOL     OW68607   9.748   7.840   8.947
56194SOL    HW168608   9.830   7.784   8.956
56194SOL    HW268609   9.667   7.782   8.951
56195SOL     OW68610  10.913   7.895   8.185
56195SOL    HW168611  10.839   7.941   8.135
56195SOL    HW268612  10.964   7.963   8.238
56196SOL     OW68613   9.541   9.161   7.931
56196SOL    HW168614   9.575   9.238   7.985
56196SOL    HW268615   9.585   9.161   7.841
56197SOL     OW68616  10.437   8.789   9.138
56197SOL    HW168617  10.484   8.789   9.226
56197SOL    HW268618  10.389   8.702   9.127
56198SOL     OW68619   9.540   8.882   7.986
56198SOL    HW168620   9.514   8.978   7.986
56198SOL    HW268621   9.469   8.828   8.031
56199SOL     OW68622   9.550   8.539   8.334
56199SOL    HW168623   9.564   8.455   8.386
56199SOL    HW268624   9.495   8.603   8.389
56200SOL     OW68625   9.930   9.234   8.887
56200SOL    HW168626   9.838   9.217   8.922
56200SOL    HW268627   9.958   9.326   8.913
56201SOL     OW68628   9.916   8.412   7.571
56201SOL    HW168629   9.923   8.496   7.517
56201SOL    HW268630   9.962   8.425   7.659
56202SOL     OW68631  10.904   7.562   8.928
56202SOL    HW168632  10.886   7.629   8.856
56202SOL    HW268633  10.901   7.608   9.017
56203SOL     OW68634   9.432   8.091   8.011
56203SOL    HW168635   9.387   8.003   8.028
56203SOL    HW268636   9.431   8.145   8.095
56204SOL     OW68637  11.152   9.215   7.807
56204SOL    HW168638  11.206   9.186   7.887
56204SOL    HW268639  11.182   9.305   7.778
56205SOL     OW68640   9.337   9.044   7.565
56205SOL    HW168641   9.318   8.948   7.586
56205SOL    HW268642   9.304   9.102   7.640
56206SOL     OW68643  10.999   8.370   8.060
56206SOL    HW168644  11.094   8.341   8.068
56206SOL    HW268645  10.991   8.435   7.985
56207SOL     OW68646  10.951   8.556   7.880
56207SOL    HW168647  11.037   8.558   7.828
56207SOL    HW268648  10.965   8.603   7.968
56208SOL     OW68649   9.423   8.185   9.045
56208SOL    HW168650   9.511   8.172   9.090
56208SOL    HW268651   9.410   8.282   9.023
56209SOL     OW68652   9.923   8.813   8.174
56209SOL    HW168653   9.874   8.726   8.183
56209SOL    HW268654   9.900   8.856   8.087
56210SOL     OW68655  10.603   8.676   8.871
56210SOL    HW168656  10.640   8.603   8.813
56210SOL    HW268657  10.655   8.681   8.956
56211SOL     OW68658  10.119   7.452   7.950
56211SOL    HW168659  10.159   7.543   7.941
56211SOL    HW268660  10.019   7.460   7.956
56212SOL     OW68661   9.507   8.424   8.712
56212SOL    HW168662   9.596   8.379   8.698
56212SOL    HW268663   9.434   8.359   8.693
56213SOL     OW68664  10.835   8.447   7.638
56213SOL    HW168665  10.772   8.371   7.651
56213SOL    HW268666  10.883   8.465   7.724
56214SOL     OW68667  10.497   9.240   9.064
56214SOL    HW168668  10.521   9.300   8.988
56214SOL    HW268669  10.504   9.145   9.034
56215SOL     OW68670   9.627   7.699   9.249
56215SOL    HW168671   9.698   7.770   9.255
56215SOL    HW268672   9.539   7.738   9.277
56216SOL     OW68673  10.776   8.865   8.401
56216SOL    HW168674  10.717   8.871   8.481
56216SOL    HW268675  10.761   8.777   8.355
56217SOL     OW68676  10.977   9.162   8.020
56217SOL    HW168677  10.936   9.139   7.932
56217SOL    HW268678  10.959   9.088   8.085
56218SOL     OW68679   9.908   8.177   7.718
56218SOL    HW168680   9.932   8.246   7.650
56218SOL    HW268681   9.830   8.210   7.772
56219SOL     OW68682  10.591   7.793   8.392
56219SOL    HW168683  10.505   7.743   8.379
56219SOL    HW268684  10.653   7.739   8.448
56220SOL     OW68685  10.886   9.110   7.755
56220SOL    HW168686  10.975   9.156   7.758
56220SOL    HW268687  10.865   9.086   7.660
56221SOL     OW68688  10.117   8.053   8.913
56221SOL    HW168689  10.070   8.050   9.002
56221SOL    HW268690  10.066   7.998   8.847
56222SOL     OW68691  10.704   7.917   9.122
56222SOL    HW168692  10.684   7.960   9.210
56222SOL    HW268693  10.782   7.855   9.131
56223SOL     OW68694  10.283   8.338   9.020
56223SOL    HW168695  10.329   8.254   8.991
56223SOL    HW268696  10.227   8.372   8.945
56224SOL     OW68697  10.301   7.858   8.690
56224SOL    HW168698  10.224   7.892   8.744
56224SOL    HW268699  10.267   7.807   8.611
56225SOL     OW68700  10.351   8.149   7.877
56225SOL    HW168701  10.377   8.145   7.973
56225SOL    HW268702  10.266   8.098   7.863
56226SOL     OW68703   9.386   8.259   8.237
56226SOL    HW168704   9.485   8.247   8.246
56226SOL    HW268705   9.362   8.354   8.258
56227SOL     OW68706   9.440   9.269   9.019
56227SOL    HW168707   9.430   9.254   9.118
56227SOL    HW268708   9.354   9.305   8.983
56228SOL     OW68709  10.175   7.796   7.643
56228SOL    HW168710  10.234   7.859   7.594
56228SOL    HW268711  10.194   7.702   7.614
56229SOL     OW68712  11.029   8.033   9.279
56229SOL    HW168713  11.003   8.122   9.243
56229SOL    HW268714  11.027   7.965   9.206
56230SOL     OW68715  10.672   8.592   7.993
56230SOL    HW168716  10.755   8.563   7.945
56230SOL    HW268717  10.623   8.659   7.937
56231SOL     OW68718   9.860   7.644   8.333
56231SOL    HW168719   9.855   7.639   8.433
56231SOL    HW268720   9.862   7.740   8.304
56232SOL     OW68721  10.318   8.904   7.925
56232SOL    HW168722  10.272   8.976   7.873
56232SOL    HW268723  10.314   8.924   8.023
56233SOL     OW68724   9.661   9.249   8.301
56233SOL    HW168725   9.711   9.163   8.307
56233SOL    HW268726   9.726   9.326   8.298
56234SOL     OW68727  11.105   8.514   8.321
56234SOL    HW168728  11.043   8.499   8.245
56234SOL    HW268729  11.053   8.525   8.406
56235SOL     OW68730  10.537   8.998   8.954
56235SOL    HW168731  10.543   8.921   9.018
56235SOL    HW268732  10.485   8.972   8.874
56236SOL     OW68733   9.631   8.391   7.690
56236SOL    HW168734   9.713   8.430   7.648
56236SOL    HW268735   9.604   8.309   7.641
56237SOL     OW68736  10.768   8.183   8.176
56237SOL    HW168737  10.763   8.118   8.251
56237SOL    HW268738  10.848   8.242   8.189
56238SOL     OW68739   9.771   8.714   9.175
56238SOL    HW168740   9.721   8.715   9.089
56238SOL    HW268741   9.708   8.696   9.251
56239SOL     OW68742  10.421   9.224   7.685
56239SOL    HW168743  10.361   9.162   7.735
56239SOL    HW268744  10.452   9.180   7.600
56240SOL     OW68745   9.512   7.733   8.946
56240SOL    HW168746   9.432   7.793   8.933
56240SOL    HW268747   9.502   7.684   9.032
56241SOL     OW68748  10.942   8.825   7.529
56241SOL    HW168749  10.910   8.919   7.519
56241SOL    HW268750  10.866   8.762   7.517
56242SOL     OW68751   9.774   9.191   7.771
56242SOL    HW168752   9.807   9.230   7.857
56242SOL    HW268753   9.850   9.184   7.706
56243SOL     OW68754  10.710   7.555   7.874
56243SOL    HW168755  10.686   7.518   7.784
56243SOL    HW268756  10.809   7.571   7.878
56244SOL     OW68757   9.559   9.233   8.689
56244SOL    HW168758   9.616   9.168   8.739
56244SOL    HW268759   9.543   9.200   8.596
56245SOL     OW68760  10.250   9.146   8.352
56245SOL    HW168761  10.330   9.089   8.373
56245SOL    HW268762  10.201   9.106   8.275
56246SOL     OW68763   9.692   8.148   7.928
56246SOL    HW168764   9.737   8.058   7.925
56246SOL    HW268765   9.598   8.137   7.961
56247SOL     OW68766  10.857   7.670   9.177
56247SOL    HW168767  10.852   7.707   9.269
56247SOL    HW268768  10.785   7.601   9.165
56248SOL     OW68769   9.924   7.570   7.565
56248SOL    HW168770  10.022   7.548   7.572
56248SOL    HW268771   9.893   7.553   7.472
56249SOL     OW68772  10.091   7.712   9.197
56249SOL    HW168773  10.158   7.651   9.240
56249SOL    HW268774  10.018   7.731   9.262
56250SOL     OW68775  10.198   8.962   8.643
56250SOL    HW168776  10.175   8.937   8.549
56250SOL    HW268777  10.259   8.893   8.682
56251SOL     OW68778  10.661   8.038   8.881
56251SOL    HW168779  10.689   7.995   8.966
56251SOL    HW268780  10.686   8.134   8.882
56252SOL     OW68781  10.113   8.850   8.372
56252SOL    HW168782  10.203   8.864   8.330
56252SOL    HW268783  10.042   8.852   8.301
56253SOL     OW68784  10.232   7.951   8.347
56253SOL    HW168785  10.207   7.942   8.251
56253SOL    HW268786  10.280   7.869   8.378
56254SOL     OW68787   9.849   7.512   7.960
56254SOL    HW168788   9.768   7.513   8.018
56254SOL    HW268789   9.852   7.595   7.905
56255SOL     OW68790  10.744   8.636   7.489
56255SOL    HW168791  10.776   8.560   7.546
56255SOL    HW268792  10.652   8.663   7.519
56256SOL     OW68793   9.607   7.483   7.619
56256SOL    HW168794   9.656   7.567   7.598
56256SOL    HW268795   9.669   7.418   7.664
56257SOL     OW68796  10.245   7.684   7.928
56257SOL    HW168797  10.197   7.725   7.850
56257SOL    HW268798  10.344   7.682   7.909
56258SOL     OW68799  10.386   8.131   8.912
56258SOL    HW168800  10.306   8.070   8.915
56258SOL    HW268801  10.467   8.078   8.888
56259SOL     OW68802  10.537   9.018   8.241
56259SOL    HW168803  10.558   9.092   8.176
56259SOL    HW268804  10.605   9.018   8.314
56260SOL     OW68805   9.769   8.600   8.189
56260SOL    HW168806   9.698   8.573   8.254
56260SOL    HW268807   9.743   8.572   8.096
56261SOL     OW68808  10.581   9.245   8.039
56261SOL    HW168809  10.625   9.309   7.975
56261SOL    HW268810  10.531   9.297   8.109
56262SOL     OW68811  10.342   7.997   7.464
56262SOL    HW168812  10.301   8.079   7.425
56262SOL    HW268813  10.406   8.023   7.537
56263SOL     OW68814   9.388   8.004   8.834
56263SOL    HW168815   9.480   8.003   8.793
56263SOL    HW268816   9.382   8.078   8.901
56264SOL     OW68817   9.871   7.670   8.595
56264SOL    HW168818   9.909   7.586   8.632
56264SOL    HW268819   9.783   7.689   8.639
56265SOL     OW68820  10.176   7.902   8.090
56265SOL    HW168821  10.144   7.974   8.028
56265SOL    HW268822  10.200   7.821   8.037
56266SOL     OW68823  10.327   7.487   8.201
56266SOL    HW168824  10.255   7.492   8.132
56266SOL    HW268825  10.303   7.418   8.270
56267SOL     OW68826  10.739   8.621   8.315
56267SOL    HW168827  10.684   8.537   8.308
56267SOL    HW268828  10.765   8.650   8.223
56268SOL     OW68829  10.776   8.038   8.440
56268SOL    HW168830  10.746   7.943   8.447
56268SOL    HW268831  10.849   8.054   8.506
56269SOL     OW68832  11.167   8.281   7.825
56269SOL    HW168833  11.209   8.217   7.889
56269SOL    HW268834  11.129   8.230   7.747
56270SOL     OW68835   9.798   8.833   7.622
56270SOL    HW168836   9.711   8.818   7.669
56270SOL    HW268837   9.781   8.859   7.527
56271SOL     OW68838  10.974   8.728   8.105
56271SOL    HW168839  11.073   8.736   8.119
56271SOL    HW268840  10.929   8.812   8.136
56272SOL     OW68841  10.700   8.023   7.526
56272SOL    HW168842  10.646   8.002   7.607
56272SOL    HW268843  10.791   7.982   7.535
56273SOL     OW68844   9.837   7.704   7.776
56273SOL    HW168845   9.864   7.645   7.701
56273SOL    HW268846   9.837   7.799   7.745
56274SOL     OW68847  11.064   8.671   9.036
56274SOL    HW168848  11.155   8.632   9.023
56274SOL    HW268849  11.072   8.767   9.060
56275SOL     OW68850  10.374   8.795   8.788
56275SOL    HW168851  10.294   8.772   8.843
56275SOL    HW268852  10.457   8.769   8.837
56276SOL     OW68853  10.902   9.077   9.073
56276SOL    HW168854  10.929   9.111   8.983
56276SOL    HW268855  10.981   9.039   9.119
56277SOL     OW68856  10.421   8.643   8.548
56277SOL    HW168857  10.381   8.687   8.629
56277SOL    HW268858  10.380   8.680   8.465
56278SOL     OW68859  10.948   8.547   8.527
56278SOL    HW168860  10.953   8.628   8.586
56278SOL    HW268861  10.862   8.549   8.476
56279SOL     OW68862  10.225   7.537   8.850
56279SOL    HW168863  10.250   7.517   8.755
56279SOL    HW268864  10.297   7.593   8.892
56280SOL     OW68865  10.290   8.564   9.167
56280SOL    HW168866  10.191   8.570   9.177
56280SOL    HW268867  10.313   8.484   9.111
56281SOL     OW68868  10.015   8.498   7.816
56281SOL    HW168869  10.001   8.505   7.915
56281SOL    HW268870  10.099   8.447   7.798
56282SOL     OW68871   9.720   8.261   8.699
56282SOL    HW168872   9.806   8.273   8.749
56282SOL    HW268873   9.678   8.174   8.726
56283SOL     OW68874  10.584   7.834   8.710
56283SOL    HW168875  10.605   7.908   8.774
56283SOL    HW268876  10.495   7.851   8.667
56284SOL     OW68877   9.374   9.012   8.779
56284SOL    HW168878   9.328   9.094   8.745
56284SOL    HW268879   9.472   9.031   8.788
56285SOL     OW68880   9.677   8.548   7.949
56285SOL    HW168881   9.670   8.631   7.893
56285SOL    HW268882   9.681   8.468   7.889
56286SOL     OW68883   9.876   7.985   8.313
56286SOL    HW168884   9.888   8.051   8.239
56286SOL    HW268885   9.922   8.019   8.396
56287SOL     OW68886  10.562   8.796   7.836
56287SOL    HW168887  10.612   8.873   7.876
56287SOL    HW268888  10.467   8.798   7.868
56288SOL     OW68889  10.582   8.893   8.590
56288SOL    HW168890  10.629   8.906   8.677
56288SOL    HW268891  10.516   8.819   8.599
56289SOL     OW68892  10.892   8.087   7.920
56289SOL    HW168893  10.861   8.148   7.993
56289SOL    HW268894  10.942   8.139   7.851
56290SOL     OW68895   9.664   8.958   8.777
56290SOL    HW168896   9.643   8.914   8.690
56290SOL    HW268897   9.761   8.984   8.780
56291SOL     OW68898   9.712   8.199   9.046
56291SOL    HW168899   9.780   8.254   8.999
56291SOL    HW268900   9.752   8.111   9.073
56292SOL     OW68901  10.897   8.227   9.118
56292SOL    HW168902  10.805   8.265   9.113
56292SOL    HW268903  10.957   8.274   9.053
56293SOL     OW68904  10.323   7.553   9.218
56293SOL    HW168905  10.329   7.638   9.166
56293SOL    HW268906  10.355   7.477   9.161
56294SOL     OW68907   9.814   7.498   9.188
56294SOL    HW168908   9.772   7.441   9.118
56294SOL    HW268909   9.748   7.567   9.220
56295SOL     OW68910   9.883   8.318   8.477
56295SOL    HW168911   9.927   8.407   8.468
56295SOL    HW268912   9.820   8.318   8.554
56296SOL     OW68913  10.670   8.310   8.493
56296SOL    HW168914  10.595   8.310   8.427
56296SOL    HW268915  10.707   8.218   8.502
56297SOL     OW68916  10.519   7.973   7.723
56297SOL    HW168917  10.532   7.889   7.777
56297SOL    HW268918  10.490   8.047   7.783
56298SOL     OW68919   9.617   7.661   8.679
56298SOL    HW168920   9.594   7.698   8.769
56298SOL    HW268921   9.587   7.566   8.673
56299SOL     OW68922   9.347   8.758   8.730
56299SOL    HW168923   9.400   8.709   8.798
56299SOL    HW268924   9.369   8.856   8.735
56300SOL     OW68925  10.042   8.082   8.512
56300SOL    HW168926  10.101   8.056   8.436
56300SOL    HW268927  10.014   8.178   8.501
56301SOL     OW68928  11.038   8.383   9.302
56301SOL    HW168929  10.992   8.376   9.213
56301SOL    HW268930  10.976   8.427   9.368
56302SOL     OW68931   9.617   7.511   8.066
56302SOL    HW168932   9.606   7.605   8.099
56302SOL    HW268933   9.612   7.448   8.143
56303SOL     OW68934  10.932   7.815   7.822
56303SOL    HW168935  10.934   7.739   7.886
56303SOL    HW268936  10.884   7.892   7.862
56304SOL     OW68937  10.333   8.214   8.414
56304SOL    HW168938  10.348   8.235   8.510
56304SOL    HW268939  10.303   8.119   8.405
56305SOL     OW68940  10.290   9.021   9.148
56305SOL    HW168941  10.270   9.065   9.060
56305SOL    HW268942  10.329   8.930   9.132
56306SOL     OW68943  11.169   8.966   9.053
56306SOL    HW168944  11.183   8.993   8.958
56306SOL    HW268945  11.252   8.988   9.106
56307SOL     OW68946   9.660   8.346   9.252
56307SOL    HW168947   9.736   8.390   9.300
56307SOL    HW268948   9.695   8.299   9.170
56308SOL     OW68949  10.850   7.722   7.573
56308SOL    HW168950  10.789   7.647   7.596
56308SOL    HW268951  10.872   7.774   7.656
56309SOL     OW68952  10.613   8.286   7.490
56309SOL    HW168953  10.647   8.193   7.505
56309SOL    HW268954  10.631   8.313   7.395
56310SOL     OW68955  10.378   8.781   8.297
56310SOL    HW168956  10.385   8.697   8.242
56310SOL    HW268957  10.440   8.850   8.261
56311SOL     OW68958   9.629   8.258   8.397
56311SOL    HW168959   9.722   8.294   8.402
56311SOL    HW268960   9.623   8.173   8.449
56312SOL     OW68961   9.649   7.957   8.454
56312SOL    HW168962   9.597   7.874   8.437
56312SOL    HW268963   9.726   7.962   8.390
56313SOL     OW68964  10.448   7.828   9.126
56313SOL    HW168965  10.403   7.891   9.190
56313SOL    HW268966  10.541   7.859   9.109
56314SOL     OW68967  10.470   7.655   8.925
56314SOL    HW168968  10.470   7.719   9.002
56314SOL    HW268969  10.498   7.703   8.842
56315SOL     OW68970   9.318   8.774   7.648
56315SOL    HW168971   9.225   8.795   7.617
56315SOL    HW268972   9.328   8.675   7.661
56316SOL     OW68973   9.398   9.249   8.375
56316SOL    HW168974   9.356   9.163   8.348
56316SOL    HW268975   9.492   9.252   8.341
56317SOL     OW68976   9.814   9.016   8.358
56317SOL    HW168977   9.880   9.090   8.367
56317SOL    HW268978   9.858   8.937   8.316
56318SOL     OW68979  10.312   8.244   8.686
56318SOL    HW168980  10.353   8.212   8.772
56318SOL    HW268981  10.216   8.217   8.683
56319SOL     OW68982   9.350   7.992   8.562
56319SOL    HW168983   9.435   7.959   8.521
56319SOL    HW268984   9.363   8.007   8.660
56320SOL     OW68985   9.499   7.968   9.170
56320SOL    HW168986   9.558   7.928   9.100
56320SOL    HW268987   9.441   8.039   9.129
56321SOL     OW68988  10.679   8.398   9.108
56321SOL    HW168989  10.718   8.487   9.128
56321SOL    HW268990  10.689   8.378   9.011
56322SOL     OW68991  10.125   8.020   7.773
56322SOL    HW168992  10.132   7.931   7.727
56322SOL    HW268993  10.031   8.054   7.765
56323SOL     OW68994  10.967   8.052   8.654
56323SOL    HW168995  10.929   7.983   8.716
56323SOL    HW268996  11.049   8.016   8.610
56324SOL     OW68997   9.562   9.012   9.192
56324SOL    HW168998   9.532   9.069   9.268
56324SOL    HW268999   9.555   8.915   9.218
56325SOL     OW69000   9.981   7.912   8.717
56325SOL    HW169001   9.947   7.823   8.687
56325SOL    HW269002  10.007   7.966   8.637
56326SOL     OW69003  10.240   9.126   8.913
56326SOL    HW169004  10.216   9.108   8.818
56326SOL    HW269005  10.270   9.220   8.923
56327SOL     OW69006   9.783   7.948   7.639
56327SOL    HW169007   9.844   8.028   7.643
56327SOL    HW269008   9.688   7.979   7.646
56328SOL     OW69009   9.469   8.585   8.914
56328SOL    HW169010   9.491   8.524   8.990
56328SOL    HW269011   9.479   8.536   8.828
56329SOL     OW69012  10.657   8.507   8.682
56329SOL    HW169013  10.681   8.444   8.608
56329SOL    HW269014  10.567   8.547   8.664
56330SOL     OW69015  10.612   8.303   7.757
56330SOL    HW169016  10.526   8.272   7.799
56330SOL    HW269017  10.608   8.289   7.658
56331SOL     OW69018  11.069   9.195   8.602
56331SOL    HW169019  11.130   9.225   8.529
56331SOL    HW269020  11.031   9.106   8.580
56332SOL     OW69021  10.562   9.179   8.576
56332SOL    HW169022  10.646   9.184   8.522
56332SOL    HW269023  10.539   9.083   8.594
56333SOL     OW69024   9.393   8.706   8.470
56333SOL    HW169025   9.388   8.705   8.570
56333SOL    HW269026   9.310   8.665   8.432
56334SOL     OW69027   9.998   9.110   9.164
56334SOL    HW169028   9.942   9.191   9.173
56334SOL    HW269029  10.050   9.114   9.078
56335SOL     OW69030  11.036   7.583   7.971
56335SOL    HW169031  11.109   7.566   7.904
56335SOL    HW269032  11.005   7.496   8.009
56336SOL     OW69033  10.698   9.021   7.925
56336SOL    HW169034  10.765   9.033   7.851
56336SOL    HW269035  10.658   9.110   7.948
56337SOL     OW69036   9.440   9.242   9.299
56337SOL    HW169037   9.399   9.168   9.352
56337SOL    HW269038   9.504   9.293   9.357
56338SOL     OW69039  10.590   8.375   8.120
56338SOL    HW169040  10.650   8.294   8.122
56338SOL    HW269041  10.630   8.444   8.060
56339SOL     OW69042  10.140   8.721   8.870
56339SOL    HW169043  10.135   8.754   8.965
56339SOL    HW269044  10.054   8.740   8.824
56340SOL     OW69045   9.982   9.064   7.602
56340SOL    HW169046   9.991   9.074   7.503
56340SOL    HW269047   9.942   8.975   7.623
56341SOL     OW69048  10.960   9.168   8.842
56341SOL    HW169049  11.013   9.178   8.758
56341SOL    HW269050  10.933   9.258   8.876
56342SOL     OW69051  11.151   7.623   8.411
56342SOL    HW169052  11.190   7.538   8.375
56342SOL    HW269053  11.053   7.625   8.392
56343SOL     OW69054   9.573   7.774   8.168
56343SOL    HW169055   9.494   7.825   8.134
56343SOL    HW269056   9.564   7.759   8.266
56344SOL     OW69057  10.504   9.060   7.479
56344SOL    HW169058  10.510   8.967   7.516
56344SOL    HW269059  10.445   9.060   7.399
56345SOL     OW69060  10.132   8.450   8.820
56345SOL    HW169061  10.172   8.449   8.728
56345SOL    HW269062  10.142   8.542   8.860
56346SOL     OW69063  10.226   8.358   7.739
56346SOL    HW169064  10.289   8.396   7.671
56346SOL    HW269065  10.266   8.275   7.778
56347SOL     OW69066  10.814   9.055   7.492
56347SOL    HW169067  10.722   9.092   7.499
56347SOL    HW269068  10.852   9.075   7.402
56348SOL     OW69069   9.682   8.736   8.938
56348SOL    HW169070   9.669   8.829   8.904
56348SOL    HW269071   9.598   8.684   8.925
56349SOL     OW69072  10.924   8.740   8.737
56349SOL    HW169073  10.984   8.743   8.817
56349SOL    HW269074  10.849   8.804   8.750
56350SOL     OW69075  10.349   8.546   8.144
56350SOL    HW169076  10.279   8.499   8.198
56350SOL    HW269077  10.408   8.478   8.101
56351SOL     OW69078  10.324   7.684   8.419
56351SOL    HW169079  10.316   7.648   8.326
56351SOL    HW269080  10.322   7.608   8.484
56352SOL     OW69081   9.900   8.935   7.939
56352SOL    HW169082   9.942   8.877   7.869
56352SOL    HW269083   9.856   9.014   7.895
56353SOL     OW69084  11.019   7.833   8.829
56353SOL    HW169085  11.092   7.902   8.833
56353SOL    HW269086  11.047   7.758   8.770
56354SOL     OW69087   9.565   8.796   7.738
56354SOL    HW169088   9.469   8.797   7.711
56354SOL    HW269089   9.577   8.849   7.822
56355SOL     OW69090   9.415   8.461   9.174
56355SOL    HW169091   9.338   8.428   9.228
56355SOL    HW269092   9.500   8.431   9.216
56356SOL     OW69093   9.982   7.651   8.937
56356SOL    HW169094  10.072   7.635   8.897
56356SOL    HW269095   9.990   7.656   9.036
56357SOL     OW69096   9.385   7.793   7.481
56357SOL    HW169097   9.293   7.765   7.452
56357SOL    HW269098   9.416   7.870   7.425
56358SOL     OW69099  10.750   8.304   8.846
56358SOL    HW169100  10.693   8.356   8.783
56358SOL    HW269101  10.846   8.316   8.822
56359SOL     OW69102   9.382   7.614   7.766
56359SOL    HW169103   9.365   7.697   7.712
56359SOL    HW269104   9.472   7.577   7.744
56360SOL     OW69105  10.493   8.783   7.567
56360SOL    HW169106  10.394   8.772   7.569
56360SOL    HW269107  10.527   8.798   7.660
56361SOL     OW69108   9.923   8.290   8.879
56361SOL    HW169109   9.979   8.371   8.862
56361SOL    HW269110   9.982   8.210   8.882
56362SOL     OW69111  10.803   9.215   8.407
56362SOL    HW169112  10.836   9.279   8.338
56362SOL    HW269113  10.869   9.209   8.482
56363SOL     OW69114  10.026   8.013   9.156
56363SOL    HW169115  10.045   8.078   9.230
56363SOL    HW269116  10.086   7.933   9.165
56364SOL     OW69117  10.760   8.668   9.081
56364SOL    HW169118  10.751   8.658   9.180
56364SOL    HW269119  10.856   8.661   9.055
56365SOL     OW69120   9.700   9.189   9.008
56365SOL    HW169121   9.609   9.230   9.006
56365SOL    HW269122   9.693   9.095   9.040
56366SOL     OW69123  10.984   8.331   8.702
56366SOL    HW169124  10.957   8.242   8.665
56366SOL    HW269125  10.985   8.399   8.629
56367SOL     OW69126  10.535   7.773   7.897
56367SOL    HW169127  10.600   7.699   7.886
56367SOL    HW269128  10.555   7.823   7.981
56368SOL     OW69129   9.904   8.193   8.100
56368SOL    HW169130   9.954   8.278   8.081
56368SOL    HW269131   9.816   8.195   8.052
56369SOL     OW69132  11.087   7.790   9.090
56369SOL    HW169133  11.070   7.821   8.996
56369SOL    HW269134  11.003   7.753   9.128
56370SOL     OW69135  11.040   8.382   8.965
56370SOL    HW169136  11.078   8.473   8.980
56370SOL    HW269137  11.032   8.365   8.866
56371SOL     OW69138  10.169   8.822   7.464
56371SOL    HW169139  10.123   8.837   7.552
56371SOL    HW269140  10.213   8.907   7.434
56372SOL     OW69141   9.971   9.238   8.401
56372SOL    HW169142   9.925   9.326   8.388
56372SOL    HW269143  10.070   9.250   8.394
56373SOL     OW69144  10.169   8.404   8.309
56373SOL    HW169145  10.223   8.335   8.357
56373SOL    HW269146  10.137   8.473   8.375
56374SOL     OW69147  10.393   8.432   7.535
56374SOL    HW169148  10.370   8.485   7.453
56374SOL    HW269149  10.474   8.376   7.516
56375SOL     OW69150  11.171   9.017   8.299
56375SOL    HW169151  11.100   9.005   8.229
56375SOL    HW269152  11.172   8.938   8.359
56376SOL     OW69153   9.531   8.762   9.292
56376SOL    HW169154   9.466   8.689   9.271
56376SOL    HW269155   9.535   8.776   9.390
56377SOL     OW69156   9.389   8.688   8.101
56377SOL    HW169157   9.388   8.641   8.189
56377SOL    HW269158   9.471   8.660   8.050
56378SOL     OW69159   9.982   8.839   9.072
56378SOL    HW169160   9.904   8.789   9.110
56378SOL    HW269161   9.979   8.934   9.103
56379SOL     OW69162  11.134   7.640   8.675
56379SOL    HW169163  11.130   7.550   8.719
56379SOL    HW269164  11.137   7.629   8.576
56380SOL     OW69165   9.738   7.872   7.968
56380SOL    HW169166   9.768   7.800   7.906
56380SOL    HW269167   9.699   7.832   8.051
56381SOL     OW69168  11.015   8.935   8.552
56381SOL    HW169169  10.922   8.910   8.525
56381SOL    HW269170  11.041   8.885   8.634
56382SOL     OW69171   9.627   7.995   8.728
56382SOL    HW169172   9.665   7.936   8.800
56382SOL    HW269173   9.667   7.969   8.640
56383SOL     OW69174  10.122   9.034   8.135
56383SOL    HW169175  10.154   9.044   8.041
56383SOL    HW269176  10.043   8.972   8.137
56384SOL     OW69177  10.734   7.662   8.560
56384SOL    HW169178  10.786   7.597   8.615
56384SOL    HW269179  10.685   7.725   8.621
56385SOL     OW69180  10.311   7.482   8.602
56385SOL    HW169181  10.248   7.410   8.571
56385SOL    HW269182  10.404   7.446   8.602
56386SOL     OW69183  10.080   8.778   7.749
56386SOL    HW169184  10.034   8.691   7.766
56386SOL    HW269185  10.171   8.775   7.790
56387SOL     OW69186   9.928   9.015   8.732
56387SOL    HW169187   9.923   9.097   8.789
56387SOL    HW269188  10.017   9.012   8.687
56388SOL     OW69189  10.662   7.500   7.616
56388SOL    HW169190  10.697   7.459   7.532
56388SOL    HW269191  10.572   7.462   7.636
56389SOL     OW69192  10.610   7.901   8.139
56389SOL    HW169193  10.551   7.981   8.143
56389SOL    HW269194  10.625   7.866   8.232
56390SOL     OW69195  10.903   7.669   8.330
56390SOL    HW169196  10.819   7.668   8.384
56390SOL    HW269197  10.905   7.752   8.274
56391SOL     OW69198   9.349   8.525   7.748
56391SOL    HW169199   9.448   8.514   7.739
56391SOL    HW269200   9.309   8.439   7.780
56392SOL     OW69201  10.185   9.094   7.785
56392SOL    HW169202  10.108   9.059   7.731
56392SOL    HW269203  10.153   9.165   7.847
56393SOL     OW69204   9.540   8.076   9.423
56393SOL    HW169205   9.447   8.074   9.460
56393SOL    HW269206   9.541   8.037   9.331
56394SOL     OW69207   9.535   7.723  10.306
56394SOL    HW169208   9.570   7.706  10.398
56394SOL    HW269209   9.447   7.678  10.294
56395SOL     OW69210   9.329   7.816   9.957
56395SOL    HW169211   9.247   7.859   9.996
56395SOL    HW269212   9.301   7.743   9.894
56396SOL     OW69213   9.879   8.723  10.475
56396SOL    HW169214   9.786   8.716  10.438
56396SOL    HW269215   9.890   8.812  10.519
56397SOL     OW69216  10.865   8.959  10.013
56397SOL    HW169217  10.808   8.943  10.094
56397SOL    HW269218  10.806   8.969   9.933
56398SOL     OW69219  10.445   8.151  10.027
56398SOL    HW169220  10.502   8.229  10.002
56398SOL    HW269221  10.385   8.177  10.103
56399SOL     OW69222  11.065   8.055   9.541
56399SOL    HW169223  11.053   8.042   9.442
56399SOL    HW269224  11.035   7.974   9.590
56400SOL     OW69225  10.078   8.592  10.333
56400SOL    HW169226  10.000   8.609  10.393
56400SOL    HW269227  10.112   8.679  10.297
56401SOL     OW69228  10.160   8.246  11.133
56401SOL    HW169229  10.156   8.322  11.198
56401SOL    HW269230  10.182   8.282  11.042
56402SOL     OW69231   9.995   8.460   9.975
56402SOL    HW169232  10.064   8.444  10.045
56402SOL    HW269233   9.922   8.517  10.013
56403SOL     OW69234   9.996   8.609  11.113
56403SOL    HW169235  10.056   8.688  11.127
56403SOL    HW269236   9.910   8.640  11.072
56404SOL     OW69237   9.645   8.883  10.371
56404SOL    HW169238   9.567   8.852  10.318
56404SOL    HW269239   9.703   8.941  10.314
56405SOL     OW69240  10.770   8.953  10.649
56405SOL    HW169241  10.794   9.047  10.675
56405SOL    HW269242  10.754   8.899  10.731
56406SOL     OW69243   9.748   7.840  10.809
56406SOL    HW169244   9.830   7.784  10.818
56406SOL    HW269245   9.667   7.782  10.813
56407SOL     OW69246  10.913   7.895  10.047
56407SOL    HW169247  10.839   7.941   9.997
56407SOL    HW269248  10.964   7.963  10.100
56408SOL     OW69249   9.541   9.161   9.793
56408SOL    HW169250   9.575   9.238   9.847
56408SOL    HW269251   9.585   9.161   9.703
56409SOL     OW69252  10.437   8.789  11.000
56409SOL    HW169253  10.484   8.789  11.088
56409SOL    HW269254  10.389   8.702  10.989
56410SOL     OW69255   9.540   8.882   9.848
56410SOL    HW169256   9.514   8.978   9.848
56410SOL    HW269257   9.469   8.828   9.893
56411SOL     OW69258   9.550   8.539  10.196
56411SOL    HW169259   9.564   8.455  10.248
56411SOL    HW269260   9.495   8.603  10.251
56412SOL     OW69261   9.930   9.234  10.749
56412SOL    HW169262   9.838   9.217  10.784
56412SOL    HW269263   9.958   9.326  10.775
56413SOL     OW69264   9.916   8.412   9.433
56413SOL    HW169265   9.923   8.496   9.379
56413SOL    HW269266   9.962   8.425   9.521
56414SOL     OW69267  10.904   7.562  10.790
56414SOL    HW169268  10.886   7.629  10.718
56414SOL    HW269269  10.901   7.608  10.879
56415SOL     OW69270   9.432   8.091   9.873
56415SOL    HW169271   9.387   8.003   9.890
56415SOL    HW269272   9.431   8.145   9.957
56416SOL     OW69273  11.152   9.215   9.669
56416SOL    HW169274  11.206   9.186   9.749
56416SOL    HW269275  11.182   9.305   9.640
56417SOL     OW69276   9.337   9.044   9.427
56417SOL    HW169277   9.318   8.948   9.448
56417SOL    HW269278   9.304   9.102   9.502
56418SOL     OW69279  10.999   8.370   9.922
56418SOL    HW169280  11.094   8.341   9.930
56418SOL    HW269281  10.991   8.435   9.847
56419SOL     OW69282  10.951   8.556   9.742
56419SOL    HW169283  11.037   8.558   9.690
56419SOL    HW269284  10.965   8.603   9.830
56420SOL     OW69285   9.423   8.185  10.907
56420SOL    HW169286   9.511   8.172  10.952
56420SOL    HW269287   9.410   8.282  10.885
56421SOL     OW69288   9.923   8.813  10.036
56421SOL    HW169289   9.874   8.726  10.045
56421SOL    HW269290   9.900   8.856   9.949
56422SOL     OW69291  10.603   8.676  10.733
56422SOL    HW169292  10.640   8.603  10.675
56422SOL    HW269293  10.655   8.681  10.818
56423SOL     OW69294  10.119   7.452   9.812
56423SOL    HW169295  10.159   7.543   9.803
56423SOL    HW269296  10.019   7.460   9.818
56424SOL     OW69297   9.507   8.424  10.574
56424SOL    HW169298   9.596   8.379  10.560
56424SOL    HW269299   9.434   8.359  10.555
56425SOL     OW69300  10.835   8.447   9.500
56425SOL    HW169301  10.772   8.371   9.513
56425SOL    HW269302  10.883   8.465   9.586
56426SOL     OW69303  10.497   9.240  10.926
56426SOL    HW169304  10.521   9.300  10.850
56426SOL    HW269305  10.504   9.145  10.896
56427SOL     OW69306   9.627   7.699  11.111
56427SOL    HW169307   9.698   7.770  11.117
56427SOL    HW269308   9.539   7.738  11.139
56428SOL     OW69309  10.776   8.865  10.263
56428SOL    HW169310  10.717   8.871  10.343
56428SOL    HW269311  10.761   8.777  10.217
56429SOL     OW69312  10.977   9.162   9.882
56429SOL    HW169313  10.936   9.139   9.794
56429SOL    HW269314  10.959   9.088   9.947
56430SOL     OW69315   9.908   8.177   9.580
56430SOL    HW169316   9.932   8.246   9.512
56430SOL    HW269317   9.830   8.210   9.634
56431SOL     OW69318  10.591   7.793  10.254
56431SOL    HW169319  10.505   7.743  10.241
56431SOL    HW269320  10.653   7.739  10.310
56432SOL     OW69321  10.886   9.110   9.617
56432SOL    HW169322  10.975   9.156   9.620
56432SOL    HW269323  10.865   9.086   9.522
56433SOL     OW69324  10.117   8.053  10.775
56433SOL    HW169325  10.070   8.050  10.864
56433SOL    HW269326  10.066   7.998  10.709
56434SOL     OW69327  10.704   7.917  10.984
56434SOL    HW169328  10.684   7.960  11.072
56434SOL    HW269329  10.782   7.855  10.993
56435SOL     OW69330  10.283   8.338  10.882
56435SOL    HW169331  10.329   8.254  10.853
56435SOL    HW269332  10.227   8.372  10.807
56436SOL     OW69333  10.301   7.858  10.552
56436SOL    HW169334  10.224   7.892  10.606
56436SOL    HW269335  10.267   7.807  10.473
56437SOL     OW69336  10.351   8.149   9.739
56437SOL    HW169337  10.377   8.145   9.835
56437SOL    HW269338  10.266   8.098   9.725
56438SOL     OW69339   9.386   8.259  10.099
56438SOL    HW169340   9.485   8.247  10.108
56438SOL    HW269341   9.362   8.354  10.120
56439SOL     OW69342   9.440   9.269  10.881
56439SOL    HW169343   9.430   9.254  10.980
56439SOL    HW269344   9.354   9.305  10.845
56440SOL     OW69345  10.175   7.796   9.505
56440SOL    HW169346  10.234   7.859   9.456
56440SOL    HW269347  10.194   7.702   9.476
56441SOL     OW69348  11.029   8.033  11.141
56441SOL    HW169349  11.003   8.122  11.105
56441SOL    HW269350  11.027   7.965  11.068
56442SOL     OW69351  10.672   8.592   9.855
56442SOL    HW169352  10.755   8.563   9.807
56442SOL    HW269353  10.623   8.659   9.799
56443SOL     OW69354   9.860   7.644  10.195
56443SOL    HW169355   9.855   7.639  10.295
56443SOL    HW269356   9.862   7.740  10.166
56444SOL     OW69357  10.318   8.904   9.787
56444SOL    HW169358  10.272   8.976   9.735
56444SOL    HW269359  10.314   8.924   9.885
56445SOL     OW69360   9.661   9.249  10.163
56445SOL    HW169361   9.711   9.163  10.169
56445SOL    HW269362   9.726   9.326  10.160
56446SOL     OW69363  11.105   8.514  10.183
56446SOL    HW169364  11.043   8.499  10.107
56446SOL    HW269365  11.053   8.525  10.268
56447SOL     OW69366  10.537   8.998  10.816
56447SOL    HW169367  10.543   8.921  10.880
56447SOL    HW269368  10.485   8.972  10.736
56448SOL     OW69369   9.631   8.391   9.552
56448SOL    HW169370   9.713   8.430   9.510
56448SOL    HW269371   9.604   8.309   9.503
56449SOL     OW69372  10.768   8.183  10.038
56449SOL    HW169373  10.763   8.118  10.113
56449SOL    HW269374  10.848   8.242  10.051
56450SOL     OW69375   9.771   8.714  11.037
56450SOL    HW169376   9.721   8.715  10.951
56450SOL    HW269377   9.708   8.696  11.113
56451SOL     OW69378  10.421   9.224   9.547
56451SOL    HW169379  10.361   9.162   9.597
56451SOL    HW269380  10.452   9.180   9.462
56452SOL     OW69381   9.512   7.733  10.808
56452SOL    HW169382   9.432   7.793  10.795
56452SOL    HW269383   9.502   7.684  10.894
56453SOL     OW69384  10.942   8.825   9.391
56453SOL    HW169385  10.910   8.919   9.381
56453SOL    HW269386  10.866   8.762   9.379
56454SOL     OW69387   9.774   9.191   9.633
56454SOL    HW169388   9.807   9.230   9.719
56454SOL    HW269389   9.850   9.184   9.568
56455SOL     OW69390  10.710   7.555   9.736
56455SOL    HW169391  10.686   7.518   9.646
56455SOL    HW269392  10.809   7.571   9.740
56456SOL     OW69393   9.559   9.233  10.551
56456SOL    HW169394   9.616   9.168  10.601
56456SOL    HW269395   9.543   9.200  10.458
56457SOL     OW69396  10.250   9.146  10.214
56457SOL    HW169397  10.330   9.089  10.235
56457SOL    HW269398  10.201   9.106  10.137
56458SOL     OW69399   9.692   8.148   9.790
56458SOL    HW169400   9.737   8.058   9.787
56458SOL    HW269401   9.598   8.137   9.823
56459SOL     OW69402  10.857   7.670  11.039
56459SOL    HW169403  10.852   7.707  11.131
56459SOL    HW269404  10.785   7.601  11.027
56460SOL     OW69405   9.924   7.570   9.427
56460SOL    HW169406  10.022   7.548   9.434
56460SOL    HW269407   9.893   7.553   9.334
56461SOL     OW69408  10.091   7.712  11.059
56461SOL    HW169409  10.158   7.651  11.102
56461SOL    HW269410  10.018   7.731  11.124
56462SOL     OW69411  10.198   8.962  10.505
56462SOL    HW169412  10.175   8.937  10.411
56462SOL    HW269413  10.259   8.893  10.544
56463SOL     OW69414  10.661   8.038  10.743
56463SOL    HW169415  10.689   7.995  10.828
56463SOL    HW269416  10.686   8.134  10.744
56464SOL     OW69417  10.113   8.850  10.234
56464SOL    HW169418  10.203   8.864  10.192
56464SOL    HW269419  10.042   8.852  10.163
56465SOL     OW69420  10.232   7.951  10.209
56465SOL    HW169421  10.207   7.942  10.113
56465SOL    HW269422  10.280   7.869  10.240
56466SOL     OW69423   9.849   7.512   9.822
56466SOL    HW169424   9.768   7.513   9.880
56466SOL    HW269425   9.852   7.595   9.767
56467SOL     OW69426  10.744   8.636   9.351
56467SOL    HW169427  10.776   8.560   9.408
56467SOL    HW269428  10.652   8.663   9.381
56468SOL     OW69429   9.607   7.483   9.481
56468SOL    HW169430   9.656   7.567   9.460
56468SOL    HW269431   9.669   7.418   9.526
56469SOL     OW69432  10.245   7.684   9.790
56469SOL    HW169433  10.197   7.725   9.712
56469SOL    HW269434  10.344   7.682   9.771
56470SOL     OW69435  10.386   8.131  10.774
56470SOL    HW169436  10.306   8.070  10.777
56470SOL    HW269437  10.467   8.078  10.750
56471SOL     OW69438  10.537   9.018  10.103
56471SOL    HW169439  10.558   9.092  10.038
56471SOL    HW269440  10.605   9.018  10.176
56472SOL     OW69441   9.769   8.600  10.051
56472SOL    HW169442   9.698   8.573  10.116
56472SOL    HW269443   9.743   8.572   9.958
56473SOL     OW69444  10.581   9.245   9.901
56473SOL    HW169445  10.625   9.309   9.837
56473SOL    HW269446  10.531   9.297   9.971
56474SOL     OW69447  10.342   7.997   9.326
56474SOL    HW169448  10.301   8.079   9.287
56474SOL    HW269449  10.406   8.023   9.399
56475SOL     OW69450   9.388   8.004  10.696
56475SOL    HW169451   9.480   8.003  10.655
56475SOL    HW269452   9.382   8.078  10.763
56476SOL     OW69453   9.871   7.670  10.457
56476SOL    HW169454   9.909   7.586  10.494
56476SOL    HW269455   9.783   7.689  10.501
56477SOL     OW69456  10.176   7.902   9.952
56477SOL    HW169457  10.144   7.974   9.890
56477SOL    HW269458  10.200   7.821   9.899
56478SOL     OW69459  10.327   7.487  10.063
56478SOL    HW169460  10.255   7.492   9.994
56478SOL    HW269461  10.303   7.418  10.132
56479SOL     OW69462  10.739   8.621  10.177
56479SOL    HW169463  10.684   8.537  10.170
56479SOL    HW269464  10.765   8.650  10.085
56480SOL     OW69465  10.776   8.038  10.302
56480SOL    HW169466  10.746   7.943  10.309
56480SOL    HW269467  10.849   8.054  10.368
56481SOL     OW69468  11.167   8.281   9.687
56481SOL    HW169469  11.209   8.217   9.751
56481SOL    HW269470  11.129   8.230   9.609
56482SOL     OW69471   9.798   8.833   9.484
56482SOL    HW169472   9.711   8.818   9.531
56482SOL    HW269473   9.781   8.859   9.389
56483SOL     OW69474  10.974   8.728   9.967
56483SOL    HW169475  11.073   8.736   9.981
56483SOL    HW269476  10.929   8.812   9.998
56484SOL     OW69477  10.700   8.023   9.388
56484SOL    HW169478  10.646   8.002   9.469
56484SOL    HW269479  10.791   7.982   9.397
56485SOL     OW69480   9.837   7.704   9.638
56485SOL    HW169481   9.864   7.645   9.563
56485SOL    HW269482   9.837   7.799   9.607
56486SOL     OW69483  11.064   8.671  10.898
56486SOL    HW169484  11.155   8.632  10.885
56486SOL    HW269485  11.072   8.767  10.922
56487SOL     OW69486  10.374   8.795  10.650
56487SOL    HW169487  10.294   8.772  10.705
56487SOL    HW269488  10.457   8.769  10.699
56488SOL     OW69489  10.902   9.077  10.935
56488SOL    HW169490  10.929   9.111  10.845
56488SOL    HW269491  10.981   9.039  10.981
56489SOL     OW69492  10.421   8.643  10.410
56489SOL    HW169493  10.381   8.687  10.491
56489SOL    HW269494  10.380   8.680  10.327
56490SOL     OW69495  10.948   8.547  10.389
56490SOL    HW169496  10.953   8.628  10.448
56490SOL    HW269497  10.862   8.549  10.338
56491SOL     OW69498  10.225   7.537  10.712
56491SOL    HW169499  10.250   7.517  10.617
56491SOL    HW269500  10.297   7.593  10.754
56492SOL     OW69501  10.290   8.564  11.029
56492SOL    HW169502  10.191   8.570  11.039
56492SOL    HW269503  10.313   8.484  10.973
56493SOL     OW69504  10.015   8.498   9.678
56493SOL    HW169505  10.001   8.505   9.777
56493SOL    HW269506  10.099   8.447   9.660
56494SOL     OW69507   9.720   8.261  10.561
56494SOL    HW169508   9.806   8.273  10.611
56494SOL    HW269509   9.678   8.174  10.588
56495SOL     OW69510  10.584   7.834  10.572
56495SOL    HW169511  10.605   7.908  10.636
56495SOL    HW269512  10.495   7.851  10.529
56496SOL     OW69513   9.374   9.012  10.641
56496SOL    HW169514   9.328   9.094  10.607
56496SOL    HW269515   9.472   9.031  10.650
56497SOL     OW69516   9.677   8.548   9.811
56497SOL    HW169517   9.670   8.631   9.755
56497SOL    HW269518   9.681   8.468   9.751
56498SOL     OW69519   9.876   7.985  10.175
56498SOL    HW169520   9.888   8.051  10.101
56498SOL    HW269521   9.922   8.019  10.258
56499SOL     OW69522  10.562   8.796   9.698
56499SOL    HW169523  10.612   8.873   9.738
56499SOL    HW269524  10.467   8.798   9.730
56500SOL     OW69525  10.582   8.893  10.452
56500SOL    HW169526  10.629   8.906  10.539
56500SOL    HW269527  10.516   8.819  10.461
56501SOL     OW69528  10.892   8.087   9.782
56501SOL    HW169529  10.861   8.148   9.855
56501SOL    HW269530  10.942   8.139   9.713
56502SOL     OW69531   9.664   8.958  10.639
56502SOL    HW169532   9.643   8.914  10.552
56502SOL    HW269533   9.761   8.984  10.642
56503SOL     OW69534   9.712   8.199  10.908
56503SOL    HW169535   9.780   8.254  10.861
56503SOL    HW269536   9.752   8.111  10.935
56504SOL     OW69537  10.897   8.227  10.980
56504SOL    HW169538  10.805   8.265  10.975
56504SOL    HW269539  10.957   8.274  10.915
56505SOL     OW69540  10.323   7.553  11.080
56505SOL    HW169541  10.329   7.638  11.028
56505SOL    HW269542  10.355   7.477  11.023
56506SOL     OW69543   9.814   7.498  11.050
56506SOL    HW169544   9.772   7.441  10.980
56506SOL    HW269545   9.748   7.567  11.082
56507SOL     OW69546   9.883   8.318  10.339
56507SOL    HW169547   9.927   8.407  10.330
56507SOL    HW269548   9.820   8.318  10.416
56508SOL     OW69549  10.670   8.310  10.355
56508SOL    HW169550  10.595   8.310  10.289
56508SOL    HW269551  10.707   8.218  10.364
56509SOL     OW69552  10.519   7.973   9.585
56509SOL    HW169553  10.532   7.889   9.639
56509SOL    HW269554  10.490   8.047   9.645
56510SOL     OW69555   9.617   7.661  10.541
56510SOL    HW169556   9.594   7.698  10.631
56510SOL    HW269557   9.587   7.566  10.535
56511SOL     OW69558   9.347   8.758  10.592
56511SOL    HW169559   9.400   8.709  10.660
56511SOL    HW269560   9.369   8.856  10.597
56512SOL     OW69561  10.042   8.082  10.374
56512SOL    HW169562  10.101   8.056  10.298
56512SOL    HW269563  10.014   8.178  10.363
56513SOL     OW69564  11.038   8.383  11.164
56513SOL    HW169565  10.992   8.376  11.075
56513SOL    HW269566  10.976   8.427  11.230
56514SOL     OW69567   9.617   7.511   9.928
56514SOL    HW169568   9.606   7.605   9.961
56514SOL    HW269569   9.612   7.448  10.005
56515SOL     OW69570  10.932   7.815   9.684
56515SOL    HW169571  10.934   7.739   9.748
56515SOL    HW269572  10.884   7.892   9.724
56516SOL     OW69573  10.333   8.214  10.276
56516SOL    HW169574  10.348   8.235  10.372
56516SOL    HW269575  10.303   8.119  10.267
56517SOL     OW69576  10.290   9.021  11.010
56517SOL    HW169577  10.270   9.065  10.922
56517SOL    HW269578  10.329   8.930  10.994
56518SOL     OW69579  11.169   8.966  10.915
56518SOL    HW169580  11.183   8.993  10.820
56518SOL    HW269581  11.252   8.988  10.968
56519SOL     OW69582   9.660   8.346  11.114
56519SOL    HW169583   9.736   8.390  11.162
56519SOL    HW269584   9.695   8.299  11.032
56520SOL     OW69585  10.850   7.722   9.435
56520SOL    HW169586  10.789   7.647   9.458
56520SOL    HW269587  10.872   7.774   9.518
56521SOL     OW69588  10.613   8.286   9.352
56521SOL    HW169589  10.647   8.193   9.367
56521SOL    HW269590  10.631   8.313   9.257
56522SOL     OW69591  10.378   8.781  10.159
56522SOL    HW169592  10.385   8.697  10.104
56522SOL    HW269593  10.440   8.850  10.123
56523SOL     OW69594   9.629   8.258  10.259
56523SOL    HW169595   9.722   8.294  10.264
56523SOL    HW269596   9.623   8.173  10.311
56524SOL     OW69597   9.649   7.957  10.316
56524SOL    HW169598   9.597   7.874  10.299
56524SOL    HW269599   9.726   7.962  10.252
56525SOL     OW69600  10.448   7.828  10.988
56525SOL    HW169601  10.403   7.891  11.052
56525SOL    HW269602  10.541   7.859  10.971
56526SOL     OW69603  10.470   7.655  10.787
56526SOL    HW169604  10.470   7.719  10.864
56526SOL    HW269605  10.498   7.703  10.704
56527SOL     OW69606   9.318   8.774   9.510
56527SOL    HW169607   9.225   8.795   9.479
56527SOL    HW269608   9.328   8.675   9.523
56528SOL     OW69609   9.398   9.249  10.237
56528SOL    HW169610   9.356   9.163  10.210
56528SOL    HW269611   9.492   9.252  10.203
56529SOL     OW69612   9.814   9.016  10.220
56529SOL    HW169613   9.880   9.090  10.229
56529SOL    HW269614   9.858   8.937  10.178
56530SOL     OW69615  10.312   8.244  10.548
56530SOL    HW169616  10.353   8.212  10.634
56530SOL    HW269617  10.216   8.217  10.545
56531SOL     OW69618   9.350   7.992  10.424
56531SOL    HW169619   9.435   7.959  10.383
56531SOL    HW269620   9.363   8.007  10.522
56532SOL     OW69621   9.499   7.968  11.032
56532SOL    HW169622   9.558   7.928  10.962
56532SOL    HW269623   9.441   8.039  10.991
56533SOL     OW69624  10.679   8.398  10.970
56533SOL    HW169625  10.718   8.487  10.990
56533SOL    HW269626  10.689   8.378  10.873
56534SOL     OW69627  10.125   8.020   9.635
56534SOL    HW169628  10.132   7.931   9.589
56534SOL    HW269629  10.031   8.054   9.627
56535SOL     OW69630  10.967   8.052  10.516
56535SOL    HW169631  10.929   7.983  10.578
56535SOL    HW269632  11.049   8.016  10.472
56536SOL     OW69633   9.562   9.012  11.054
56536SOL    HW169634   9.532   9.069  11.130
56536SOL    HW269635   9.555   8.915  11.080
56537SOL     OW69636   9.981   7.912  10.579
56537SOL    HW169637   9.947   7.823  10.549
56537SOL    HW269638  10.007   7.966  10.499
56538SOL     OW69639  10.240   9.126  10.775
56538SOL    HW169640  10.216   9.108  10.680
56538SOL    HW269641  10.270   9.220  10.785
56539SOL     OW69642   9.783   7.948   9.501
56539SOL    HW169643   9.844   8.028   9.505
56539SOL    HW269644   9.688   7.979   9.508
56540SOL     OW69645   9.469   8.585  10.776
56540SOL    HW169646   9.491   8.524  10.852
56540SOL    HW269647   9.479   8.536  10.690
56541SOL     OW69648  10.657   8.507  10.544
56541SOL    HW169649  10.681   8.444  10.470
56541SOL    HW269650  10.567   8.547  10.526
56542SOL     OW69651  10.612   8.303   9.619
56542SOL    HW169652  10.526   8.272   9.661
56542SOL    HW269653  10.608   8.289   9.520
56543SOL     OW69654  11.069   9.195  10.464
56543SOL    HW169655  11.130   9.225  10.391
56543SOL    HW269656  11.031   9.106  10.442
56544SOL     OW69657  10.562   9.179  10.438
56544SOL    HW169658  10.646   9.184  10.384
56544SOL    HW269659  10.539   9.083  10.456
56545SOL     OW69660   9.393   8.706  10.332
56545SOL    HW169661   9.388   8.705  10.432
56545SOL    HW269662   9.310   8.665  10.294
56546SOL     OW69663   9.998   9.110  11.026
56546SOL    HW169664   9.942   9.191  11.035
56546SOL    HW269665  10.050   9.114  10.940
56547SOL     OW69666  11.036   7.583   9.833
56547SOL    HW169667  11.109   7.566   9.766
56547SOL    HW269668  11.005   7.496   9.871
56548SOL     OW69669  10.698   9.021   9.787
56548SOL    HW169670  10.765   9.033   9.713
56548SOL    HW269671  10.658   9.110   9.810
56549SOL     OW69672   9.440   9.242  11.161
56549SOL    HW169673   9.399   9.168  11.214
56549SOL    HW269674   9.504   9.293  11.219
56550SOL     OW69675  10.590   8.375   9.982
56550SOL    HW169676  10.650   8.294   9.984
56550SOL    HW269677  10.630   8.444   9.922
56551SOL     OW69678  10.140   8.721  10.732
56551SOL    HW169679  10.135   8.754  10.827
56551SOL    HW269680  10.054   8.740  10.686
56552SOL     OW69681   9.982   9.064   9.464
56552SOL    HW169682   9.991   9.074   9.365
56552SOL    HW269683   9.942   8.975   9.485
56553SOL     OW69684  10.960   9.168  10.704
56553SOL    HW169685  11.013   9.178  10.620
56553SOL    HW269686  10.933   9.258  10.738
56554SOL     OW69687  11.151   7.623  10.273
56554SOL    HW169688  11.190   7.538  10.237
56554SOL    HW269689  11.053   7.625  10.254
56555SOL     OW69690   9.573   7.774  10.030
56555SOL    HW169691   9.494   7.825   9.996
56555SOL    HW269692   9.564   7.759  10.128
56556SOL     OW69693  10.504   9.060   9.341
56556SOL    HW169694  10.510   8.967   9.378
56556SOL    HW269695  10.445   9.060   9.261
56557SOL     OW69696  10.132   8.450  10.682
56557SOL    HW169697  10.172   8.449  10.590
56557SOL    HW269698  10.142   8.542  10.722
56558SOL     OW69699  10.226   8.358   9.601
56558SOL    HW169700  10.289   8.396   9.533
56558SOL    HW269701  10.266   8.275   9.640
56559SOL     OW69702  10.814   9.055   9.354
56559SOL    HW169703  10.722   9.092   9.361
56559SOL    HW269704  10.852   9.075   9.264
56560SOL     OW69705   9.682   8.736  10.800
56560SOL    HW169706   9.669   8.829  10.766
56560SOL    HW269707   9.598   8.684  10.787
56561SOL     OW69708  10.924   8.740  10.599
56561SOL    HW169709  10.984   8.743  10.679
56561SOL    HW269710  10.849   8.804  10.612
56562SOL     OW69711  10.349   8.546  10.006
56562SOL    HW169712  10.279   8.499  10.060
56562SOL    HW269713  10.408   8.478   9.963
56563SOL     OW69714  10.324   7.684  10.281
56563SOL    HW169715  10.316   7.648  10.188
56563SOL    HW269716  10.322   7.608  10.346
56564SOL     OW69717   9.900   8.935   9.801
56564SOL    HW169718   9.942   8.877   9.731
56564SOL    HW269719   9.856   9.014   9.757
56565SOL     OW69720  11.019   7.833  10.691
56565SOL    HW169721  11.092   7.902  10.695
56565SOL    HW269722  11.047   7.758  10.632
56566SOL     OW69723   9.565   8.796   9.600
56566SOL    HW169724   9.469   8.797   9.573
56566SOL    HW269725   9.577   8.849   9.684
56567SOL     OW69726   9.415   8.461  11.036
56567SOL    HW169727   9.338   8.428  11.090
56567SOL    HW269728   9.500   8.431  11.078
56568SOL     OW69729   9.982   7.651  10.799
56568SOL    HW169730  10.072   7.635  10.759
56568SOL    HW269731   9.990   7.656  10.898
56569SOL     OW69732   9.385   7.793   9.343
56569SOL    HW169733   9.293   7.765   9.314
56569SOL    HW269734   9.416   7.870   9.287
56570SOL     OW69735  10.750   8.304  10.708
56570SOL    HW169736  10.693   8.356  10.645
56570SOL    HW269737  10.846   8.316  10.684
56571SOL     OW69738   9.382   7.614   9.628
56571SOL    HW169739   9.365   7.697   9.574
56571SOL    HW269740   9.472   7.577   9.606
56572SOL     OW69741  10.493   8.783   9.429
56572SOL    HW169742  10.394   8.772   9.431
56572SOL    HW269743  10.527   8.798   9.522
56573SOL     OW69744   9.923   8.290  10.741
56573SOL    HW169745   9.979   8.371  10.724
56573SOL    HW269746   9.982   8.210  10.744
56574SOL     OW69747  10.803   9.215  10.269
56574SOL    HW169748  10.836   9.279  10.200
56574SOL    HW269749  10.869   9.209  10.344
56575SOL     OW69750  10.026   8.013  11.018
56575SOL    HW169751  10.045   8.078  11.092
56575SOL    HW269752  10.086   7.933  11.027
56576SOL     OW69753  10.760   8.668  10.943
56576SOL    HW169754  10.751   8.658  11.042
56576SOL    HW269755  10.856   8.661  10.917
56577SOL     OW69756   9.700   9.189  10.870
56577SOL    HW169757   9.609   9.230  10.868
56577SOL    HW269758   9.693   9.095  10.902
56578SOL     OW69759  10.984   8.331  10.564
56578SOL    HW169760  10.957   8.242  10.527
56578SOL    HW269761  10.985   8.399  10.491
56579SOL     OW69762  10.535   7.773   9.759
56579SOL    HW169763  10.600   7.699   9.748
56579SOL    HW269764  10.555   7.823   9.843
56580SOL     OW69765   9.904   8.193   9.962
56580SOL    HW169766   9.954   8.278   9.943
56580SOL    HW269767   9.816   8.195   9.914
56581SOL     OW69768  11.087   7.790  10.952
56581SOL    HW169769  11.070   7.821  10.858
56581SOL    HW269770  11.003   7.753  10.990
56582SOL     OW69771  11.040   8.382  10.827
56582SOL    HW169772  11.078   8.473  10.842
56582SOL    HW269773  11.032   8.365  10.728
56583SOL     OW69774  10.169   8.822   9.326
56583SOL    HW169775  10.123   8.837   9.414
56583SOL    HW269776  10.213   8.907   9.296
56584SOL     OW69777   9.971   9.238  10.263
56584SOL    HW169778   9.925   9.326  10.250
56584SOL    HW269779  10.070   9.250  10.256
56585SOL     OW69780  10.169   8.404  10.171
56585SOL    HW169781  10.223   8.335  10.219
56585SOL    HW269782  10.137   8.473  10.237
56586SOL     OW69783  10.393   8.432   9.397
56586SOL    HW169784  10.370   8.485   9.315
56586SOL    HW269785  10.474   8.376   9.378
56587SOL     OW69786  11.171   9.017  10.161
56587SOL    HW169787  11.100   9.005  10.091
56587SOL    HW269788  11.172   8.938  10.221
56588SOL     OW69789   9.531   8.762  11.154
56588SOL    HW169790   9.466   8.689  11.133
56588SOL    HW269791   9.535   8.776  11.252
56589SOL     OW69792   9.389   8.688   9.963
56589SOL    HW169793   9.388   8.641  10.051
56589SOL    HW269794   9.471   8.660   9.912
56590SOL     OW69795   9.982   8.839  10.934
56590SOL    HW169796   9.904   8.789  10.972
56590SOL    HW269797   9.979   8.934  10.965
56591SOL     OW69798  11.134   7.640  10.537
56591SOL    HW169799  11.130   7.550  10.581
56591SOL    HW269800  11.137   7.629  10.438
56592SOL     OW69801   9.738   7.872   9.830
56592SOL    HW169802   9.768   7.800   9.768
56592SOL    HW269803   9.699   7.832   9.913
56593SOL     OW69804  11.015   8.935  10.414
56593SOL    HW169805  10.922   8.910  10.387
56593SOL    HW269806  11.041   8.885  10.496
56594SOL     OW69807   9.627   7.995  10.590
56594SOL    HW169808   9.665   7.936  10.662
56594SOL    HW269809   9.667   7.969  10.502
56595SOL     OW69810  10.122   9.034   9.997
56595SOL    HW169811  10.154   9.044   9.903
56595SOL    HW269812  10.043   8.972   9.999
56596SOL     OW69813  10.734   7.662  10.422
56596SOL    HW169814  10.786   7.597  10.477
56596SOL    HW269815  10.685   7.725  10.483
56597SOL     OW69816  10.311   7.482  10.464
56597SOL    HW169817  10.248   7.410  10.433
56597SOL    HW269818  10.404   7.446  10.464
56598SOL     OW69819  10.080   8.778   9.611
56598SOL    HW169820  10.034   8.691   9.628
56598SOL    HW269821  10.171   8.775   9.652
56599SOL     OW69822   9.928   9.015  10.594
56599SOL    HW169823   9.923   9.097  10.651
56599SOL    HW269824  10.017   9.012  10.549
56600SOL     OW69825  10.662   7.500   9.478
56600SOL    HW169826  10.697   7.459   9.394
56600SOL    HW269827  10.572   7.462   9.498
56601SOL     OW69828  10.610   7.901  10.001
56601SOL    HW169829  10.551   7.981  10.005
56601SOL    HW269830  10.625   7.866  10.094
56602SOL     OW69831  10.903   7.669  10.192
56602SOL    HW169832  10.819   7.668  10.246
56602SOL    HW269833  10.905   7.752  10.136
56603SOL     OW69834   9.349   8.525   9.610
56603SOL    HW169835   9.448   8.514   9.601
56603SOL    HW269836   9.309   8.439   9.642
56604SOL     OW69837  10.185   9.094   9.647
56604SOL    HW169838  10.108   9.059   9.593
56604SOL    HW269839  10.153   9.165   9.709
56605SOL     OW69840   9.540   8.076  11.285
56605SOL    HW169841   9.447   8.074  11.322
56605SOL    HW269842   9.541   8.037  11.193
56606SOL     OW69843   9.535   7.723  12.168
56606SOL    HW169844   9.570   7.706  12.260
56606SOL    HW269845   9.447   7.678  12.156
56607SOL     OW69846   9.329   7.816  11.819
56607SOL    HW169847   9.247   7.859  11.858
56607SOL    HW269848   9.301   7.743  11.756
56608SOL     OW69849   9.879   8.723  12.337
56608SOL    HW169850   9.786   8.716  12.300
56608SOL    HW269851   9.890   8.812  12.381
56609SOL     OW69852  10.865   8.959  11.875
56609SOL    HW169853  10.808   8.943  11.956
56609SOL    HW269854  10.806   8.969  11.795
56610SOL     OW69855  10.445   8.151  11.889
56610SOL    HW169856  10.502   8.229  11.864
56610SOL    HW269857  10.385   8.177  11.965
56611SOL     OW69858  11.065   8.055  11.403
56611SOL    HW169859  11.053   8.042  11.304
56611SOL    HW269860  11.035   7.974  11.452
56612SOL     OW69861  10.078   8.592  12.195
56612SOL    HW169862  10.000   8.609  12.255
56612SOL    HW269863  10.112   8.679  12.159
56613SOL     OW69864   9.995   8.460  11.837
56613SOL    HW169865  10.064   8.444  11.907
56613SOL    HW269866   9.922   8.517  11.875
56614SOL     OW69867   9.645   8.883  12.233
56614SOL    HW169868   9.567   8.852  12.180
56614SOL    HW269869   9.703   8.941  12.176
56615SOL     OW69870  10.770   8.953  12.511
56615SOL    HW169871  10.794   9.047  12.537
56615SOL    HW269872  10.754   8.899  12.593
56616SOL     OW69873   9.748   7.840  12.671
56616SOL    HW169874   9.830   7.784  12.680
56616SOL    HW269875   9.667   7.782  12.675
56617SOL     OW69876  10.913   7.895  11.909
56617SOL    HW169877  10.839   7.941  11.859
56617SOL    HW269878  10.964   7.963  11.962
56618SOL     OW69879   9.541   9.161  11.655
56618SOL    HW169880   9.575   9.238  11.709
56618SOL    HW269881   9.585   9.161  11.565
56619SOL     OW69882   9.540   8.882  11.710
56619SOL    HW169883   9.514   8.978  11.710
56619SOL    HW269884   9.469   8.828  11.755
56620SOL     OW69885   9.550   8.539  12.058
56620SOL    HW169886   9.564   8.455  12.110
56620SOL    HW269887   9.495   8.603  12.113
56621SOL     OW69888   9.930   9.234  12.611
56621SOL    HW169889   9.838   9.217  12.646
56621SOL    HW269890   9.958   9.326  12.637
56622SOL     OW69891   9.916   8.412  11.295
56622SOL    HW169892   9.923   8.496  11.241
56622SOL    HW269893   9.962   8.425  11.383
56623SOL     OW69894  10.904   7.562  12.652
56623SOL    HW169895  10.886   7.629  12.580
56623SOL    HW269896  10.901   7.608  12.741
56624SOL     OW69897   9.432   8.091  11.735
56624SOL    HW169898   9.387   8.003  11.752
56624SOL    HW269899   9.431   8.145  11.819
56625SOL     OW69900  11.152   9.215  11.531
56625SOL    HW169901  11.206   9.186  11.611
56625SOL    HW269902  11.182   9.305  11.502
56626SOL     OW69903   9.337   9.044  11.289
56626SOL    HW169904   9.318   8.948  11.310
56626SOL    HW269905   9.304   9.102  11.364
56627SOL     OW69906  10.999   8.370  11.784
56627SOL    HW169907  11.094   8.341  11.792
56627SOL    HW269908  10.991   8.435  11.709
56628SOL     OW69909  10.951   8.556  11.604
56628SOL    HW169910  11.037   8.558  11.552
56628SOL    HW269911  10.965   8.603  11.692
56629SOL     OW69912   9.923   8.813  11.898
56629SOL    HW169913   9.874   8.726  11.907
56629SOL    HW269914   9.900   8.856  11.811
56630SOL     OW69915  10.119   7.452  11.674
56630SOL    HW169916  10.159   7.543  11.665
56630SOL    HW269917  10.019   7.460  11.680
56631SOL     OW69918   9.507   8.424  12.436
56631SOL    HW169919   9.596   8.379  12.422
56631SOL    HW269920   9.434   8.359  12.417
56632SOL     OW69921  10.835   8.447  11.362
56632SOL    HW169922  10.772   8.371  11.375
56632SOL    HW269923  10.883   8.465  11.448
56633SOL     OW69924   9.627   7.699  12.973
56633SOL    HW169925   9.698   7.770  12.979
56633SOL    HW269926   9.539   7.738  13.001
56634SOL     OW69927  10.776   8.865  12.125
56634SOL    HW169928  10.717   8.871  12.205
56634SOL    HW269929  10.761   8.777  12.079
56635SOL     OW69930  10.977   9.162  11.744
56635SOL    HW169931  10.936   9.139  11.656
56635SOL    HW269932  10.959   9.088  11.809
56636SOL     OW69933   9.908   8.177  11.442
56636SOL    HW169934   9.932   8.246  11.374
56636SOL    HW269935   9.830   8.210  11.496
56637SOL     OW69936  10.591   7.793  12.116
56637SOL    HW169937  10.505   7.743  12.103
56637SOL    HW269938  10.653   7.739  12.172
56638SOL     OW69939  10.886   9.110  11.479
56638SOL    HW169940  10.975   9.156  11.482
56638SOL    HW269941  10.865   9.086  11.384
56639SOL     OW69942  10.117   8.053  12.637
56639SOL    HW169943  10.070   8.050  12.726
56639SOL    HW269944  10.066   7.998  12.571
56640SOL     OW69945  10.301   7.858  12.414
56640SOL    HW169946  10.224   7.892  12.468
56640SOL    HW269947  10.267   7.807  12.335
56641SOL     OW69948  10.351   8.149  11.601
56641SOL    HW169949  10.377   8.145  11.697
56641SOL    HW269950  10.266   8.098  11.587
56642SOL     OW69951   9.386   8.259  11.961
56642SOL    HW169952   9.485   8.247  11.970
56642SOL    HW269953   9.362   8.354  11.982
56643SOL     OW69954   9.440   9.269  12.743
56643SOL    HW169955   9.430   9.254  12.842
56643SOL    HW269956   9.354   9.305  12.707
56644SOL     OW69957  10.175   7.796  11.367
56644SOL    HW169958  10.234   7.859  11.318
56644SOL    HW269959  10.194   7.702  11.338
56645SOL     OW69960  10.672   8.592  11.717
56645SOL    HW169961  10.755   8.563  11.669
56645SOL    HW269962  10.623   8.659  11.661
56646SOL     OW69963   9.860   7.644  12.057
56646SOL    HW169964   9.855   7.639  12.157
56646SOL    HW269965   9.862   7.740  12.028
56647SOL     OW69966  10.318   8.904  11.649
56647SOL    HW169967  10.272   8.976  11.597
56647SOL    HW269968  10.314   8.924  11.747
56648SOL     OW69969   9.661   9.249  12.025
56648SOL    HW169970   9.711   9.163  12.031
56648SOL    HW269971   9.726   9.326  12.022
56649SOL     OW69972  11.105   8.514  12.045
56649SOL    HW169973  11.043   8.499  11.969
56649SOL    HW269974  11.053   8.525  12.130
56650SOL     OW69975   9.631   8.391  11.414
56650SOL    HW169976   9.713   8.430  11.372
56650SOL    HW269977   9.604   8.309  11.365
56651SOL     OW69978  10.768   8.183  11.900
56651SOL    HW169979  10.763   8.118  11.975
56651SOL    HW269980  10.848   8.242  11.913
56652SOL     OW69981  10.421   9.224  11.409
56652SOL    HW169982  10.361   9.162  11.459
56652SOL    HW269983  10.452   9.180  11.324
56653SOL     OW69984   9.512   7.733  12.670
56653SOL    HW169985   9.432   7.793  12.657
56653SOL    HW269986   9.502   7.684  12.756
56654SOL     OW69987  10.942   8.825  11.253
56654SOL    HW169988  10.910   8.919  11.243
56654SOL    HW269989  10.866   8.762  11.241
56655SOL     OW69990   9.774   9.191  11.495
56655SOL    HW169991   9.807   9.230  11.581
56655SOL    HW269992   9.850   9.184  11.430
56656SOL     OW69993  10.710   7.555  11.598
56656SOL    HW169994  10.686   7.518  11.508
56656SOL    HW269995  10.809   7.571  11.602
56657SOL     OW69996   9.559   9.233  12.413
56657SOL    HW169997   9.616   9.168  12.463
56657SOL    HW269998   9.543   9.200  12.320
56658SOL     OW69999  10.250   9.146  12.076
56658SOL    HW170000  10.330   9.089  12.097
56658SOL    HW270001  10.201   9.106  11.999
56659SOL     OW70002   9.692   8.148  11.652
56659SOL    HW170003   9.737   8.058  11.649
56659SOL    HW270004   9.598   8.137  11.685
56660SOL     OW70005   9.924   7.570  11.289
56660SOL    HW170006  10.022   7.548  11.296
56660SOL    HW270007   9.893   7.553  11.196
56661SOL     OW70008  10.198   8.962  12.367
56661SOL    HW170009  10.175   8.937  12.273
56661SOL    HW270010  10.259   8.893  12.406
56662SOL     OW70011  10.113   8.850  12.096
56662SOL    HW170012  10.203   8.864  12.054
56662SOL    HW270013  10.042   8.852  12.025
56663SOL     OW70014  10.232   7.951  12.071
56663SOL    HW170015  10.207   7.942  11.975
56663SOL    HW270016  10.280   7.869  12.102
56664SOL     OW70017   9.849   7.512  11.684
56664SOL    HW170018   9.768   7.513  11.742
56664SOL    HW270019   9.852   7.595  11.629
56665SOL     OW70020  10.744   8.636  11.213
56665SOL    HW170021  10.776   8.560  11.270
56665SOL    HW270022  10.652   8.663  11.243
56666SOL     OW70023   9.607   7.483  11.343
56666SOL    HW170024   9.656   7.567  11.322
56666SOL    HW270025   9.669   7.418  11.388
56667SOL     OW70026  10.245   7.684  11.652
56667SOL    HW170027  10.197   7.725  11.574
56667SOL    HW270028  10.344   7.682  11.633
56668SOL     OW70029  10.537   9.018  11.965
56668SOL    HW170030  10.558   9.092  11.900
56668SOL    HW270031  10.605   9.018  12.038
56669SOL     OW70032   9.769   8.600  11.913
56669SOL    HW170033   9.698   8.573  11.978
56669SOL    HW270034   9.743   8.572  11.820
56670SOL     OW70035  10.581   9.245  11.763
56670SOL    HW170036  10.625   9.309  11.699
56670SOL    HW270037  10.531   9.297  11.833
56671SOL     OW70038  10.342   7.997  11.188
56671SOL    HW170039  10.301   8.079  11.149
56671SOL    HW270040  10.406   8.023  11.261
56672SOL     OW70041   9.388   8.004  12.558
56672SOL    HW170042   9.480   8.003  12.517
56672SOL    HW270043   9.382   8.078  12.625
56673SOL     OW70044   9.871   7.670  12.319
56673SOL    HW170045   9.909   7.586  12.356
56673SOL    HW270046   9.783   7.689  12.363
56674SOL     OW70047  10.176   7.902  11.814
56674SOL    HW170048  10.144   7.974  11.752
56674SOL    HW270049  10.200   7.821  11.761
56675SOL     OW70050  10.327   7.487  11.925
56675SOL    HW170051  10.255   7.492  11.856
56675SOL    HW270052  10.303   7.418  11.994
56676SOL     OW70053  10.739   8.621  12.039
56676SOL    HW170054  10.684   8.537  12.032
56676SOL    HW270055  10.765   8.650  11.947
56677SOL     OW70056  10.776   8.038  12.164
56677SOL    HW170057  10.746   7.943  12.171
56677SOL    HW270058  10.849   8.054  12.230
56678SOL     OW70059  11.167   8.281  11.549
56678SOL    HW170060  11.209   8.217  11.613
56678SOL    HW270061  11.129   8.230  11.471
56679SOL     OW70062   9.798   8.833  11.346
56679SOL    HW170063   9.711   8.818  11.393
56679SOL    HW270064   9.781   8.859  11.251
56680SOL     OW70065  10.974   8.728  11.829
56680SOL    HW170066  11.073   8.736  11.843
56680SOL    HW270067  10.929   8.812  11.860
56681SOL     OW70068  10.700   8.023  11.250
56681SOL    HW170069  10.646   8.002  11.331
56681SOL    HW270070  10.791   7.982  11.259
56682SOL     OW70071   9.837   7.704  11.500
56682SOL    HW170072   9.864   7.645  11.425
56682SOL    HW270073   9.837   7.799  11.469
56683SOL     OW70074  10.374   8.795  12.512
56683SOL    HW170075  10.294   8.772  12.567
56683SOL    HW270076  10.457   8.769  12.561
56684SOL     OW70077  10.421   8.643  12.272
56684SOL    HW170078  10.381   8.687  12.353
56684SOL    HW270079  10.380   8.680  12.189
56685SOL     OW70080  10.948   8.547  12.251
56685SOL    HW170081  10.953   8.628  12.310
56685SOL    HW270082  10.862   8.549  12.200
56686SOL     OW70083  10.225   7.537  12.574
56686SOL    HW170084  10.250   7.517  12.479
56686SOL    HW270085  10.297   7.593  12.616
56687SOL     OW70086  10.015   8.498  11.540
56687SOL    HW170087  10.001   8.505  11.639
56687SOL    HW270088  10.099   8.447  11.522
56688SOL     OW70089   9.720   8.261  12.423
56688SOL    HW170090   9.806   8.273  12.473
56688SOL    HW270091   9.678   8.174  12.450
56689SOL     OW70092  10.584   7.834  12.434
56689SOL    HW170093  10.605   7.908  12.498
56689SOL    HW270094  10.495   7.851  12.391
56690SOL     OW70095   9.374   9.012  12.503
56690SOL    HW170096   9.328   9.094  12.469
56690SOL    HW270097   9.472   9.031  12.512
56691SOL     OW70098   9.677   8.548  11.673
56691SOL    HW170099   9.670   8.631  11.617
56691SOL    HW270100   9.681   8.468  11.613
56692SOL     OW70101   9.876   7.985  12.037
56692SOL    HW170102   9.888   8.051  11.963
56692SOL    HW270103   9.922   8.019  12.120
56693SOL     OW70104  10.562   8.796  11.560
56693SOL    HW170105  10.612   8.873  11.600
56693SOL    HW270106  10.467   8.798  11.592
56694SOL     OW70107  10.582   8.893  12.314
56694SOL    HW170108  10.629   8.906  12.401
56694SOL    HW270109  10.516   8.819  12.323
56695SOL     OW70110  10.892   8.087  11.644
56695SOL    HW170111  10.861   8.148  11.717
56695SOL    HW270112  10.942   8.139  11.575
56696SOL     OW70113   9.664   8.958  12.501
56696SOL    HW170114   9.643   8.914  12.414
56696SOL    HW270115   9.761   8.984  12.504
56697SOL     OW70116   9.712   8.199  12.770
56697SOL    HW170117   9.780   8.254  12.723
56697SOL    HW270118   9.752   8.111  12.797
56698SOL     OW70119  10.897   8.227  12.842
56698SOL    HW170120  10.805   8.265  12.837
56698SOL    HW270121  10.957   8.274  12.777
56699SOL     OW70122   9.883   8.318  12.201
56699SOL    HW170123   9.927   8.407  12.192
56699SOL    HW270124   9.820   8.318  12.278
56700SOL     OW70125  10.670   8.310  12.217
56700SOL    HW170126  10.595   8.310  12.151
56700SOL    HW270127  10.707   8.218  12.226
56701SOL     OW70128  10.519   7.973  11.447
56701SOL    HW170129  10.532   7.889  11.501
56701SOL    HW270130  10.490   8.047  11.507
56702SOL     OW70131   9.617   7.661  12.403
56702SOL    HW170132   9.594   7.698  12.493
56702SOL    HW270133   9.587   7.566  12.397
56703SOL     OW70134   9.347   8.758  12.454
56703SOL    HW170135   9.400   8.709  12.522
56703SOL    HW270136   9.369   8.856  12.459
56704SOL     OW70137  10.042   8.082  12.236
56704SOL    HW170138  10.101   8.056  12.160
56704SOL    HW270139  10.014   8.178  12.225
56705SOL     OW70140   9.617   7.511  11.790
56705SOL    HW170141   9.606   7.605  11.823
56705SOL    HW270142   9.612   7.448  11.867
56706SOL     OW70143  10.932   7.815  11.546
56706SOL    HW170144  10.934   7.739  11.610
56706SOL    HW270145  10.884   7.892  11.586
56707SOL     OW70146  10.333   8.214  12.138
56707SOL    HW170147  10.348   8.235  12.234
56707SOL    HW270148  10.303   8.119  12.129
56708SOL     OW70149  10.290   9.021  12.872
56708SOL    HW170150  10.270   9.065  12.784
56708SOL    HW270151  10.329   8.930  12.856
56709SOL     OW70152  10.850   7.722  11.297
56709SOL    HW170153  10.789   7.647  11.320
56709SOL    HW270154  10.872   7.774  11.380
56710SOL     OW70155  10.613   8.286  11.214
56710SOL    HW170156  10.647   8.193  11.229
56710SOL    HW270157  10.631   8.313  11.119
56711SOL     OW70158  10.378   8.781  12.021
56711SOL    HW170159  10.385   8.697  11.966
56711SOL    HW270160  10.440   8.850  11.985
56712SOL     OW70161   9.629   8.258  12.121
56712SOL    HW170162   9.722   8.294  12.126
56712SOL    HW270163   9.623   8.173  12.173
56713SOL     OW70164   9.649   7.957  12.178
56713SOL    HW170165   9.597   7.874  12.161
56713SOL    HW270166   9.726   7.962  12.114
56714SOL     OW70167  10.448   7.828  12.850
56714SOL    HW170168  10.403   7.891  12.914
56714SOL    HW270169  10.541   7.859  12.833
56715SOL     OW70170  10.470   7.655  12.649
56715SOL    HW170171  10.470   7.719  12.726
56715SOL    HW270172  10.498   7.703  12.566
56716SOL     OW70173   9.318   8.774  11.372
56716SOL    HW170174   9.225   8.795  11.341
56716SOL    HW270175   9.328   8.675  11.385
56717SOL     OW70176   9.398   9.249  12.099
56717SOL    HW170177   9.356   9.163  12.072
56717SOL    HW270178   9.492   9.252  12.065
56718SOL     OW70179   9.814   9.016  12.082
56718SOL    HW170180   9.880   9.090  12.091
56718SOL    HW270181   9.858   8.937  12.040
56719SOL     OW70182  10.312   8.244  12.410
56719SOL    HW170183  10.353   8.212  12.496
56719SOL    HW270184  10.216   8.217  12.407
56720SOL     OW70185   9.350   7.992  12.286
56720SOL    HW170186   9.435   7.959  12.245
56720SOL    HW270187   9.363   8.007  12.384
56721SOL     OW70188  10.125   8.020  11.497
56721SOL    HW170189  10.132   7.931  11.451
56721SOL    HW270190  10.031   8.054  11.489
56722SOL     OW70191  10.967   8.052  12.378
56722SOL    HW170192  10.929   7.983  12.440
56722SOL    HW270193  11.049   8.016  12.334
56723SOL     OW70194   9.981   7.912  12.441
56723SOL    HW170195   9.947   7.823  12.411
56723SOL    HW270196  10.007   7.966  12.361
56724SOL     OW70197  10.240   9.126  12.637
56724SOL    HW170198  10.216   9.108  12.542
56724SOL    HW270199  10.270   9.220  12.647
56725SOL     OW70200   9.783   7.948  11.363
56725SOL    HW170201   9.844   8.028  11.367
56725SOL    HW270202   9.688   7.979  11.370
56726SOL     OW70203   9.469   8.585  12.638
56726SOL    HW170204   9.491   8.524  12.714
56726SOL    HW270205   9.479   8.536  12.552
56727SOL     OW70206  10.657   8.507  12.406
56727SOL    HW170207  10.681   8.444  12.332
56727SOL    HW270208  10.567   8.547  12.388
56728SOL     OW70209  10.612   8.303  11.481
56728SOL    HW170210  10.526   8.272  11.523
56728SOL    HW270211  10.608   8.289  11.382
56729SOL     OW70212  11.069   9.195  12.326
56729SOL    HW170213  11.130   9.225  12.253
56729SOL    HW270214  11.031   9.106  12.304
56730SOL     OW70215  10.562   9.179  12.300
56730SOL    HW170216  10.646   9.184  12.246
56730SOL    HW270217  10.539   9.083  12.318
56731SOL     OW70218   9.393   8.706  12.194
56731SOL    HW170219   9.388   8.705  12.294
56731SOL    HW270220   9.310   8.665  12.156
56732SOL     OW70221  11.036   7.583  11.695
56732SOL    HW170222  11.109   7.566  11.628
56732SOL    HW270223  11.005   7.496  11.733
56733SOL     OW70224  10.698   9.021  11.649
56733SOL    HW170225  10.765   9.033  11.575
56733SOL    HW270226  10.658   9.110  11.672
56734SOL     OW70227  10.590   8.375  11.844
56734SOL    HW170228  10.650   8.294  11.846
56734SOL    HW270229  10.630   8.444  11.784
56735SOL     OW70230   9.982   9.064  11.326
56735SOL    HW170231   9.991   9.074  11.227
56735SOL    HW270232   9.942   8.975  11.347
56736SOL     OW70233  10.960   9.168  12.566
56736SOL    HW170234  11.013   9.178  12.482
56736SOL    HW270235  10.933   9.258  12.600
56737SOL     OW70236  11.151   7.623  12.135
56737SOL    HW170237  11.190   7.538  12.099
56737SOL    HW270238  11.053   7.625  12.116
56738SOL     OW70239   9.573   7.774  11.892
56738SOL    HW170240   9.494   7.825  11.858
56738SOL    HW270241   9.564   7.759  11.990
56739SOL     OW70242  10.504   9.060  11.203
56739SOL    HW170243  10.510   8.967  11.240
56739SOL    HW270244  10.445   9.060  11.123
56740SOL     OW70245  10.132   8.450  12.544
56740SOL    HW170246  10.172   8.449  12.452
56740SOL    HW270247  10.142   8.542  12.584
56741SOL     OW70248  10.226   8.358  11.463
56741SOL    HW170249  10.289   8.396  11.395
56741SOL    HW270250  10.266   8.275  11.502
56742SOL     OW70251  10.814   9.055  11.216
56742SOL    HW170252  10.722   9.092  11.223
56742SOL    HW270253  10.852   9.075  11.126
56743SOL     OW70254   9.682   8.736  12.662
56743SOL    HW170255   9.669   8.829  12.628
56743SOL    HW270256   9.598   8.684  12.649
56744SOL     OW70257  10.924   8.740  12.461
56744SOL    HW170258  10.984   8.743  12.541
56744SOL    HW270259  10.849   8.804  12.474
56745SOL     OW70260  10.349   8.546  11.868
56745SOL    HW170261  10.279   8.499  11.922
56745SOL    HW270262  10.408   8.478  11.825
56746SOL     OW70263  10.324   7.684  12.143
56746SOL    HW170264  10.316   7.648  12.050
56746SOL    HW270265  10.322   7.608  12.208
56747SOL     OW70266   9.900   8.935  11.663
56747SOL    HW170267   9.942   8.877  11.593
56747SOL    HW270268   9.856   9.014  11.619
56748SOL     OW70269  11.019   7.833  12.553
56748SOL    HW170270  11.092   7.902  12.557
56748SOL    HW270271  11.047   7.758  12.494
56749SOL     OW70272   9.565   8.796  11.462
56749SOL    HW170273   9.469   8.797  11.435
56749SOL    HW270274   9.577   8.849  11.546
56750SOL     OW70275   9.385   7.793  11.205
56750SOL    HW170276   9.293   7.765  11.176
56750SOL    HW270277   9.416   7.870  11.149
56751SOL     OW70278  10.750   8.304  12.570
56751SOL    HW170279  10.693   8.356  12.507
56751SOL    HW270280  10.846   8.316  12.546
56752SOL     OW70281   9.382   7.614  11.490
56752SOL    HW170282   9.365   7.697  11.436
56752SOL    HW270283   9.472   7.577  11.468
56753SOL     OW70284  10.493   8.783  11.291
56753SOL    HW170285  10.394   8.772  11.293
56753SOL    HW270286  10.527   8.798  11.384
56754SOL     OW70287   9.923   8.290  12.603
56754SOL    HW170288   9.979   8.371  12.586
56754SOL    HW270289   9.982   8.210  12.606
56755SOL     OW70290  10.803   9.215  12.131
56755SOL    HW170291  10.836   9.279  12.062
56755SOL    HW270292  10.869   9.209  12.206
56756SOL     OW70293   9.700   9.189  12.732
56756SOL    HW170294   9.609   9.230  12.730
56756SOL    HW270295   9.693   9.095  12.764
56757SOL     OW70296  10.984   8.331  12.426
56757SOL    HW170297  10.957   8.242  12.389
56757SOL    HW270298  10.985   8.399  12.353
56758SOL     OW70299  10.535   7.773  11.621
56758SOL    HW170300  10.600   7.699  11.610
56758SOL    HW270301  10.555   7.823  11.705
56759SOL     OW70302   9.904   8.193  11.824
56759SOL    HW170303   9.954   8.278  11.805
56759SOL    HW270304   9.816   8.195  11.776
56760SOL     OW70305  11.087   7.790  12.814
56760SOL    HW170306  11.070   7.821  12.720
56760SOL    HW270307  11.003   7.753  12.852
56761SOL     OW70308  11.040   8.382  12.689
56761SOL    HW170309  11.078   8.473  12.704
56761SOL    HW270310  11.032   8.365  12.590
56762SOL     OW70311  10.169   8.822  11.188
56762SOL    HW170312  10.123   8.837  11.276
56762SOL    HW270313  10.213   8.907  11.158
56763SOL     OW70314   9.971   9.238  12.125
56763SOL    HW170315   9.925   9.326  12.112
56763SOL    HW270316  10.070   9.250  12.118
56764SOL     OW70317  10.169   8.404  12.033
56764SOL    HW170318  10.223   8.335  12.081
56764SOL    HW270319  10.137   8.473  12.099
56765SOL     OW70320  10.393   8.432  11.259
56765SOL    HW170321  10.370   8.485  11.177
56765SOL    HW270322  10.474   8.376  11.240
56766SOL     OW70323  11.171   9.017  12.023
56766SOL    HW170324  11.100   9.005  11.953
56766SOL    HW270325  11.172   8.938  12.083
56767SOL     OW70326   9.389   8.688  11.825
56767SOL    HW170327   9.388   8.641  11.913
56767SOL    HW270328   9.471   8.660  11.774
56768SOL     OW70329  11.134   7.640  12.399
56768SOL    HW170330  11.130   7.550  12.443
56768SOL    HW270331  11.137   7.629  12.300
56769SOL     OW70332   9.738   7.872  11.692
56769SOL    HW170333   9.768   7.800  11.630
56769SOL    HW270334   9.699   7.832  11.775
56770SOL     OW70335  11.015   8.935  12.276
56770SOL    HW170336  10.922   8.910  12.249
56770SOL    HW270337  11.041   8.885  12.358
56771SOL     OW70338   9.627   7.995  12.452
56771SOL    HW170339   9.665   7.936  12.524
56771SOL    HW270340   9.667   7.969  12.364
56772SOL     OW70341  10.122   9.034  11.859
56772SOL    HW170342  10.154   9.044  11.765
56772SOL    HW270343  10.043   8.972  11.861
56773SOL     OW70344  10.734   7.662  12.284
56773SOL    HW170345  10.786   7.597  12.339
56773SOL    HW270346  10.685   7.725  12.345
56774SOL     OW70347  10.311   7.482  12.326
56774SOL    HW170348  10.248   7.410  12.295
56774SOL    HW270349  10.404   7.446  12.326
56775SOL     OW70350  10.080   8.778  11.473
56775SOL    HW170351  10.034   8.691  11.490
56775SOL    HW270352  10.171   8.775  11.514
56776SOL     OW70353   9.928   9.015  12.456
56776SOL    HW170354   9.923   9.097  12.513
56776SOL    HW270355  10.017   9.012  12.411
56777SOL     OW70356  10.662   7.500  11.340
56777SOL    HW170357  10.697   7.459  11.256
56777SOL    HW270358  10.572   7.462  11.360
56778SOL     OW70359  10.610   7.901  11.863
56778SOL    HW170360  10.551   7.981  11.867
56778SOL    HW270361  10.625   7.866  11.956
56779SOL     OW70362  10.903   7.669  12.054
56779SOL    HW170363  10.819   7.668  12.108
56779SOL    HW270364  10.905   7.752  11.998
56780SOL     OW70365   9.349   8.525  11.472
56780SOL    HW170366   9.448   8.514  11.463
56780SOL    HW270367   9.309   8.439  11.504
56781SOL     OW70368  10.185   9.094  11.509
56781SOL    HW170369  10.108   9.059  11.455
56781SOL    HW270370  10.153   9.165  11.571
56782SOL     OW70371   9.540   9.938   0.113
56782SOL    HW170372   9.447   9.936   0.150
56782SOL    HW270373   9.541   9.899   0.021
56783SOL     OW70374   9.535   9.585   0.996
56783SOL    HW170375   9.570   9.568   1.088
56783SOL    HW270376   9.447   9.540   0.984
56784SOL     OW70377   9.329   9.678   0.647
56784SOL    HW170378   9.247   9.721   0.686
56784SOL    HW270379   9.301   9.605   0.584
56785SOL     OW70380   9.879  10.585   1.165
56785SOL    HW170381   9.786  10.578   1.128
56785SOL    HW270382   9.890  10.674   1.209
56786SOL     OW70383  10.865  10.821   0.703
56786SOL    HW170384  10.808  10.805   0.784
56786SOL    HW270385  10.806  10.831   0.623
56787SOL     OW70386  10.445  10.013   0.717
56787SOL    HW170387  10.502  10.091   0.692
56787SOL    HW270388  10.385  10.039   0.793
56788SOL     OW70389  11.065   9.917   0.231
56788SOL    HW170390  11.053   9.904   0.132
56788SOL    HW270391  11.035   9.836   0.280
56789SOL     OW70392  10.078  10.454   1.023
56789SOL    HW170393  10.000  10.471   1.083
56789SOL    HW270394  10.112  10.541   0.987
56790SOL     OW70395  10.160  10.108   1.823
56790SOL    HW170396  10.156  10.184   1.888
56790SOL    HW270397  10.182  10.144   1.732
56791SOL     OW70398   9.995  10.322   0.665
56791SOL    HW170399  10.064  10.306   0.735
56791SOL    HW270400   9.922  10.379   0.703
56792SOL     OW70401   9.996  10.471   1.803
56792SOL    HW170402  10.056  10.550   1.817
56792SOL    HW270403   9.910  10.502   1.762
56793SOL     OW70404   9.645  10.745   1.061
56793SOL    HW170405   9.567  10.714   1.008
56793SOL    HW270406   9.703  10.803   1.004
56794SOL     OW70407  10.770  10.815   1.339
56794SOL    HW170408  10.794  10.909   1.365
56794SOL    HW270409  10.754  10.761   1.421
56795SOL     OW70410   9.748   9.702   1.499
56795SOL    HW170411   9.830   9.646   1.508
56795SOL    HW270412   9.667   9.644   1.503
56796SOL     OW70413  10.913   9.757   0.737
56796SOL    HW170414  10.839   9.803   0.687
56796SOL    HW270415  10.964   9.825   0.790
56797SOL     OW70416   9.541  11.023   0.483
56797SOL    HW170417   9.575  11.100   0.537
56797SOL    HW270418   9.585  11.023   0.393
56798SOL     OW70419  10.437  10.651   1.690
56798SOL    HW170420  10.484  10.651   1.778
56798SOL    HW270421  10.389  10.564   1.679
56799SOL     OW70422   9.540  10.744   0.538
56799SOL    HW170423   9.514  10.840   0.538
56799SOL    HW270424   9.469  10.690   0.583
56800SOL     OW70425   9.550  10.401   0.886
56800SOL    HW170426   9.564  10.317   0.938
56800SOL    HW270427   9.495  10.465   0.941
56801SOL     OW70428   9.930  11.096   1.439
56801SOL    HW170429   9.838  11.079   1.474
56801SOL    HW270430   9.958  11.188   1.465
56802SOL     OW70431   9.916  10.274   0.123
56802SOL    HW170432   9.923  10.358   0.069
56802SOL    HW270433   9.962  10.287   0.211
56803SOL     OW70434  10.904   9.424   1.480
56803SOL    HW170435  10.886   9.491   1.408
56803SOL    HW270436  10.901   9.470   1.569
56804SOL     OW70437   9.432   9.953   0.563
56804SOL    HW170438   9.387   9.865   0.580
56804SOL    HW270439   9.431  10.007   0.647
56805SOL     OW70440  11.152  11.077   0.359
56805SOL    HW170441  11.206  11.048   0.439
56805SOL    HW270442  11.182  11.167   0.330
56806SOL     OW70443   9.337  10.906   0.117
56806SOL    HW170444   9.318  10.810   0.138
56806SOL    HW270445   9.304  10.964   0.192
56807SOL     OW70446  10.999  10.232   0.612
56807SOL    HW170447  11.094  10.203   0.620
56807SOL    HW270448  10.991  10.297   0.537
56808SOL     OW70449  10.951  10.418   0.432
56808SOL    HW170450  11.037  10.420   0.380
56808SOL    HW270451  10.965  10.465   0.520
56809SOL     OW70452   9.423  10.047   1.597
56809SOL    HW170453   9.511  10.034   1.642
56809SOL    HW270454   9.410  10.144   1.575
56810SOL     OW70455   9.923  10.675   0.726
56810SOL    HW170456   9.874  10.588   0.735
56810SOL    HW270457   9.900  10.718   0.639
56811SOL     OW70458  10.603  10.538   1.423
56811SOL    HW170459  10.640  10.465   1.365
56811SOL    HW270460  10.655  10.543   1.508
56812SOL     OW70461  10.119   9.314   0.502
56812SOL    HW170462  10.159   9.405   0.493
56812SOL    HW270463  10.019   9.322   0.508
56813SOL     OW70464   9.507  10.286   1.264
56813SOL    HW170465   9.596  10.241   1.250
56813SOL    HW270466   9.434  10.221   1.245
56814SOL     OW70467  10.835  10.309   0.190
56814SOL    HW170468  10.772  10.233   0.203
56814SOL    HW270469  10.883  10.327   0.276
56815SOL     OW70470  10.497  11.102   1.616
56815SOL    HW170471  10.521  11.162   1.540
56815SOL    HW270472  10.504  11.007   1.586
56816SOL     OW70473   9.627   9.561   1.801
56816SOL    HW170474   9.698   9.632   1.807
56816SOL    HW270475   9.539   9.600   1.829
56817SOL     OW70476  10.776  10.727   0.953
56817SOL    HW170477  10.717  10.733   1.033
56817SOL    HW270478  10.761  10.639   0.907
56818SOL     OW70479  10.977  11.024   0.572
56818SOL    HW170480  10.936  11.001   0.484
56818SOL    HW270481  10.959  10.950   0.637
56819SOL     OW70482   9.908  10.039   0.270
56819SOL    HW170483   9.932  10.108   0.202
56819SOL    HW270484   9.830  10.072   0.324
56820SOL     OW70485  10.591   9.655   0.944
56820SOL    HW170486  10.505   9.605   0.931
56820SOL    HW270487  10.653   9.601   1.000
56821SOL     OW70488  10.886  10.972   0.307
56821SOL    HW170489  10.975  11.018   0.310
56821SOL    HW270490  10.865  10.948   0.212
56822SOL     OW70491  10.117   9.915   1.465
56822SOL    HW170492  10.070   9.912   1.554
56822SOL    HW270493  10.066   9.860   1.399
56823SOL     OW70494  10.704   9.779   1.674
56823SOL    HW170495  10.684   9.822   1.762
56823SOL    HW270496  10.782   9.717   1.683
56824SOL     OW70497  10.283  10.200   1.572
56824SOL    HW170498  10.329  10.116   1.543
56824SOL    HW270499  10.227  10.234   1.497
56825SOL     OW70500  10.301   9.720   1.242
56825SOL    HW170501  10.224   9.754   1.296
56825SOL    HW270502  10.267   9.669   1.163
56826SOL     OW70503  10.351  10.011   0.429
56826SOL    HW170504  10.377  10.007   0.525
56826SOL    HW270505  10.266   9.960   0.415
56827SOL     OW70506   9.386  10.121   0.789
56827SOL    HW170507   9.485  10.109   0.798
56827SOL    HW270508   9.362  10.216   0.810
56828SOL     OW70509   9.440  11.131   1.571
56828SOL    HW170510   9.430  11.116   1.670
56828SOL    HW270511   9.354  11.167   1.535
56829SOL     OW70512  10.175   9.658   0.195
56829SOL    HW170513  10.234   9.721   0.146
56829SOL    HW270514  10.194   9.564   0.166
56830SOL     OW70515  11.029   9.895   1.831
56830SOL    HW170516  11.003   9.984   1.795
56830SOL    HW270517  11.027   9.827   1.758
56831SOL     OW70518  10.672  10.454   0.545
56831SOL    HW170519  10.755  10.425   0.497
56831SOL    HW270520  10.623  10.521   0.489
56832SOL     OW70521   9.860   9.506   0.885
56832SOL    HW170522   9.855   9.501   0.985
56832SOL    HW270523   9.862   9.602   0.856
56833SOL     OW70524  10.318  10.766   0.477
56833SOL    HW170525  10.272  10.838   0.425
56833SOL    HW270526  10.314  10.786   0.575
56834SOL     OW70527   9.661  11.111   0.853
56834SOL    HW170528   9.711  11.025   0.859
56834SOL    HW270529   9.726  11.188   0.850
56835SOL     OW70530  11.105  10.376   0.873
56835SOL    HW170531  11.043  10.361   0.797
56835SOL    HW270532  11.053  10.387   0.958
56836SOL     OW70533  10.537  10.860   1.506
56836SOL    HW170534  10.543  10.783   1.570
56836SOL    HW270535  10.485  10.834   1.426
56837SOL     OW70536   9.631  10.253   0.242
56837SOL    HW170537   9.713  10.292   0.200
56837SOL    HW270538   9.604  10.171   0.193
56838SOL     OW70539  10.768  10.045   0.728
56838SOL    HW170540  10.763   9.980   0.803
56838SOL    HW270541  10.848  10.104   0.741
56839SOL     OW70542   9.771  10.576   1.727
56839SOL    HW170543   9.721  10.577   1.641
56839SOL    HW270544   9.708  10.558   1.803
56840SOL     OW70545  10.421  11.086   0.237
56840SOL    HW170546  10.361  11.024   0.287
56840SOL    HW270547  10.452  11.042   0.152
56841SOL     OW70548   9.512   9.595   1.498
56841SOL    HW170549   9.432   9.655   1.485
56841SOL    HW270550   9.502   9.546   1.584
56842SOL     OW70551  10.942  10.687   0.081
56842SOL    HW170552  10.910  10.781   0.071
56842SOL    HW270553  10.866  10.624   0.069
56843SOL     OW70554   9.774  11.053   0.323
56843SOL    HW170555   9.807  11.092   0.409
56843SOL    HW270556   9.850  11.046   0.258
56844SOL     OW70557  10.710   9.417   0.426
56844SOL    HW170558  10.686   9.380   0.336
56844SOL    HW270559  10.809   9.433   0.430
56845SOL     OW70560   9.559  11.095   1.241
56845SOL    HW170561   9.616  11.030   1.291
56845SOL    HW270562   9.543  11.062   1.148
56846SOL     OW70563  10.250  11.008   0.904
56846SOL    HW170564  10.330  10.951   0.925
56846SOL    HW270565  10.201  10.968   0.827
56847SOL     OW70566   9.692  10.010   0.480
56847SOL    HW170567   9.737   9.920   0.477
56847SOL    HW270568   9.598   9.999   0.513
56848SOL     OW70569  10.857   9.532   1.729
56848SOL    HW170570  10.852   9.569   1.821
56848SOL    HW270571  10.785   9.463   1.717
56849SOL     OW70572   9.924   9.432   0.117
56849SOL    HW170573  10.022   9.410   0.124
56849SOL    HW270574   9.893   9.415   0.024
56850SOL     OW70575  10.091   9.574   1.749
56850SOL    HW170576  10.158   9.513   1.792
56850SOL    HW270577  10.018   9.593   1.814
56851SOL     OW70578  10.198  10.824   1.195
56851SOL    HW170579  10.175  10.799   1.101
56851SOL    HW270580  10.259  10.755   1.234
56852SOL     OW70581  10.661   9.900   1.433
56852SOL    HW170582  10.689   9.857   1.518
56852SOL    HW270583  10.686   9.996   1.434
56853SOL     OW70584  10.113  10.712   0.924
56853SOL    HW170585  10.203  10.726   0.882
56853SOL    HW270586  10.042  10.714   0.853
56854SOL     OW70587  10.232   9.813   0.899
56854SOL    HW170588  10.207   9.804   0.803
56854SOL    HW270589  10.280   9.731   0.930
56855SOL     OW70590   9.849   9.374   0.512
56855SOL    HW170591   9.768   9.375   0.570
56855SOL    HW270592   9.852   9.457   0.457
56856SOL     OW70593  10.744  10.498   0.041
56856SOL    HW170594  10.776  10.422   0.098
56856SOL    HW270595  10.652  10.525   0.071
56857SOL     OW70596   9.607   9.345   0.171
56857SOL    HW170597   9.656   9.429   0.150
56857SOL    HW270598   9.669   9.280   0.216
56858SOL     OW70599  10.245   9.546   0.480
56858SOL    HW170600  10.197   9.587   0.402
56858SOL    HW270601  10.344   9.544   0.461
56859SOL     OW70602  10.386   9.993   1.464
56859SOL    HW170603  10.306   9.932   1.467
56859SOL    HW270604  10.467   9.940   1.440
56860SOL     OW70605  10.537  10.880   0.793
56860SOL    HW170606  10.558  10.954   0.728
56860SOL    HW270607  10.605  10.880   0.866
56861SOL     OW70608   9.769  10.462   0.741
56861SOL    HW170609   9.698  10.435   0.806
56861SOL    HW270610   9.743  10.434   0.648
56862SOL     OW70611  10.581  11.107   0.591
56862SOL    HW170612  10.625  11.171   0.527
56862SOL    HW270613  10.531  11.159   0.661
56863SOL     OW70614  10.342   9.859   0.016
56863SOL    HW170615  10.301   9.941  -0.023
56863SOL    HW270616  10.406   9.885   0.089
56864SOL     OW70617   9.388   9.866   1.386
56864SOL    HW170618   9.480   9.865   1.345
56864SOL    HW270619   9.382   9.940   1.453
56865SOL     OW70620   9.871   9.532   1.147
56865SOL    HW170621   9.909   9.448   1.184
56865SOL    HW270622   9.783   9.551   1.191
56866SOL     OW70623  10.176   9.764   0.642
56866SOL    HW170624  10.144   9.836   0.580
56866SOL    HW270625  10.200   9.683   0.589
56867SOL     OW70626  10.327   9.349   0.753
56867SOL    HW170627  10.255   9.354   0.684
56867SOL    HW270628  10.303   9.280   0.822
56868SOL     OW70629  10.739  10.483   0.867
56868SOL    HW170630  10.684  10.399   0.860
56868SOL    HW270631  10.765  10.512   0.775
56869SOL     OW70632  10.776   9.900   0.992
56869SOL    HW170633  10.746   9.805   0.999
56869SOL    HW270634  10.849   9.916   1.058
56870SOL     OW70635  11.167  10.143   0.377
56870SOL    HW170636  11.209  10.079   0.441
56870SOL    HW270637  11.129  10.092   0.299
56871SOL     OW70638   9.798  10.695   0.174
56871SOL    HW170639   9.711  10.680   0.221
56871SOL    HW270640   9.781  10.721   0.079
56872SOL     OW70641  10.974  10.590   0.657
56872SOL    HW170642  11.073  10.598   0.671
56872SOL    HW270643  10.929  10.674   0.688
56873SOL     OW70644  10.700   9.885   0.078
56873SOL    HW170645  10.646   9.864   0.159
56873SOL    HW270646  10.791   9.844   0.087
56874SOL     OW70647   9.837   9.566   0.328
56874SOL    HW170648   9.864   9.507   0.253
56874SOL    HW270649   9.837   9.661   0.297
56875SOL     OW70650  11.064  10.533   1.588
56875SOL    HW170651  11.155  10.494   1.575
56875SOL    HW270652  11.072  10.629   1.612
56876SOL     OW70653  10.374  10.657   1.340
56876SOL    HW170654  10.294  10.634   1.395
56876SOL    HW270655  10.457  10.631   1.389
56877SOL     OW70656  10.902  10.939   1.625
56877SOL    HW170657  10.929  10.973   1.535
56877SOL    HW270658  10.981  10.901   1.671
56878SOL     OW70659  10.421  10.505   1.100
56878SOL    HW170660  10.381  10.549   1.181
56878SOL    HW270661  10.380  10.542   1.017
56879SOL     OW70662  10.948  10.409   1.079
56879SOL    HW170663  10.953  10.490   1.138
56879SOL    HW270664  10.862  10.411   1.028
56880SOL     OW70665  10.225   9.399   1.402
56880SOL    HW170666  10.250   9.379   1.307
56880SOL    HW270667  10.297   9.455   1.444
56881SOL     OW70668  10.290  10.426   1.719
56881SOL    HW170669  10.191  10.432   1.729
56881SOL    HW270670  10.313  10.346   1.663
56882SOL     OW70671  10.015  10.360   0.368
56882SOL    HW170672  10.001  10.367   0.467
56882SOL    HW270673  10.099  10.309   0.350
56883SOL     OW70674   9.720  10.123   1.251
56883SOL    HW170675   9.806  10.135   1.301
56883SOL    HW270676   9.678  10.036   1.278
56884SOL     OW70677  10.584   9.696   1.262
56884SOL    HW170678  10.605   9.770   1.326
56884SOL    HW270679  10.495   9.713   1.219
56885SOL     OW70680   9.374  10.874   1.331
56885SOL    HW170681   9.328  10.956   1.297
56885SOL    HW270682   9.472  10.893   1.340
56886SOL     OW70683   9.677  10.410   0.501
56886SOL    HW170684   9.670  10.493   0.445
56886SOL    HW270685   9.681  10.330   0.441
56887SOL     OW70686   9.876   9.847   0.865
56887SOL    HW170687   9.888   9.913   0.791
56887SOL    HW270688   9.922   9.881   0.948
56888SOL     OW70689  10.562  10.658   0.388
56888SOL    HW170690  10.612  10.735   0.428
56888SOL    HW270691  10.467  10.660   0.420
56889SOL     OW70692  10.582  10.755   1.142
56889SOL    HW170693  10.629  10.768   1.229
56889SOL    HW270694  10.516  10.681   1.151
56890SOL     OW70695  10.892   9.949   0.472
56890SOL    HW170696  10.861  10.010   0.545
56890SOL    HW270697  10.942  10.001   0.403
56891SOL     OW70698   9.664  10.820   1.329
56891SOL    HW170699   9.643  10.776   1.242
56891SOL    HW270700   9.761  10.846   1.332
56892SOL     OW70701   9.712  10.061   1.598
56892SOL    HW170702   9.780  10.116   1.551
56892SOL    HW270703   9.752   9.973   1.625
56893SOL     OW70704  10.897  10.089   1.670
56893SOL    HW170705  10.805  10.127   1.665
56893SOL    HW270706  10.957  10.136   1.605
56894SOL     OW70707  10.323   9.415   1.770
56894SOL    HW170708  10.329   9.500   1.718
56894SOL    HW270709  10.355   9.339   1.713
56895SOL     OW70710   9.814   9.360   1.740
56895SOL    HW170711   9.772   9.303   1.670
56895SOL    HW270712   9.748   9.429   1.772
56896SOL     OW70713   9.883  10.180   1.029
56896SOL    HW170714   9.927  10.269   1.020
56896SOL    HW270715   9.820  10.180   1.106
56897SOL     OW70716  10.670  10.172   1.045
56897SOL    HW170717  10.595  10.172   0.979
56897SOL    HW270718  10.707  10.080   1.054
56898SOL     OW70719  10.519   9.835   0.275
56898SOL    HW170720  10.532   9.751   0.329
56898SOL    HW270721  10.490   9.909   0.335
56899SOL     OW70722   9.617   9.523   1.231
56899SOL    HW170723   9.594   9.560   1.321
56899SOL    HW270724   9.587   9.428   1.225
56900SOL     OW70725   9.347  10.620   1.282
56900SOL    HW170726   9.400  10.571   1.350
56900SOL    HW270727   9.369  10.718   1.287
56901SOL     OW70728  10.042   9.944   1.064
56901SOL    HW170729  10.101   9.918   0.988
56901SOL    HW270730  10.014  10.040   1.053
56902SOL     OW70731  11.038  10.245   1.854
56902SOL    HW170732  10.992  10.238   1.765
56902SOL    HW270733  10.976  10.289   1.920
56903SOL     OW70734   9.617   9.373   0.618
56903SOL    HW170735   9.606   9.467   0.651
56903SOL    HW270736   9.612   9.310   0.695
56904SOL     OW70737  10.932   9.677   0.374
56904SOL    HW170738  10.934   9.601   0.438
56904SOL    HW270739  10.884   9.754   0.414
56905SOL     OW70740  10.333  10.076   0.966
56905SOL    HW170741  10.348  10.097   1.062
56905SOL    HW270742  10.303   9.981   0.957
56906SOL     OW70743  10.290  10.883   1.700
56906SOL    HW170744  10.270  10.927   1.612
56906SOL    HW270745  10.329  10.792   1.684
56907SOL     OW70746  11.169  10.828   1.605
56907SOL    HW170747  11.183  10.855   1.510
56907SOL    HW270748  11.252  10.850   1.658
56908SOL     OW70749   9.660  10.208   1.804
56908SOL    HW170750   9.736  10.252   1.852
56908SOL    HW270751   9.695  10.161   1.722
56909SOL     OW70752  10.850   9.584   0.125
56909SOL    HW170753  10.789   9.509   0.148
56909SOL    HW270754  10.872   9.636   0.208
56910SOL     OW70755  10.613  10.148   0.042
56910SOL    HW170756  10.647  10.055   0.057
56910SOL    HW270757  10.631  10.175  -0.053
56911SOL     OW70758  10.378  10.643   0.849
56911SOL    HW170759  10.385  10.559   0.794
56911SOL    HW270760  10.440  10.712   0.813
56912SOL     OW70761   9.629  10.120   0.949
56912SOL    HW170762   9.722  10.156   0.954
56912SOL    HW270763   9.623  10.035   1.001
56913SOL     OW70764   9.649   9.819   1.006
56913SOL    HW170765   9.597   9.736   0.989
56913SOL    HW270766   9.726   9.824   0.942
56914SOL     OW70767  10.448   9.690   1.678
56914SOL    HW170768  10.403   9.753   1.742
56914SOL    HW270769  10.541   9.721   1.661
56915SOL     OW70770  10.470   9.517   1.477
56915SOL    HW170771  10.470   9.581   1.554
56915SOL    HW270772  10.498   9.565   1.394
56916SOL     OW70773   9.318  10.636   0.200
56916SOL    HW170774   9.225  10.657   0.169
56916SOL    HW270775   9.328  10.537   0.213
56917SOL     OW70776   9.398  11.111   0.927
56917SOL    HW170777   9.356  11.025   0.900
56917SOL    HW270778   9.492  11.114   0.893
56918SOL     OW70779   9.814  10.878   0.910
56918SOL    HW170780   9.880  10.952   0.919
56918SOL    HW270781   9.858  10.799   0.868
56919SOL     OW70782  10.312  10.106   1.238
56919SOL    HW170783  10.353  10.074   1.324
56919SOL    HW270784  10.216  10.079   1.235
56920SOL     OW70785   9.350   9.854   1.114
56920SOL    HW170786   9.435   9.821   1.073
56920SOL    HW270787   9.363   9.869   1.212
56921SOL     OW70788   9.499   9.830   1.722
56921SOL    HW170789   9.558   9.790   1.652
56921SOL    HW270790   9.441   9.901   1.681
56922SOL     OW70791  10.679  10.260   1.660
56922SOL    HW170792  10.718  10.349   1.680
56922SOL    HW270793  10.689  10.240   1.563
56923SOL     OW70794  10.125   9.882   0.325
56923SOL    HW170795  10.132   9.793   0.279
56923SOL    HW270796  10.031   9.916   0.317
56924SOL     OW70797  10.967   9.914   1.206
56924SOL    HW170798  10.929   9.845   1.268
56924SOL    HW270799  11.049   9.878   1.162
56925SOL     OW70800   9.562  10.874   1.744
56925SOL    HW170801   9.532  10.931   1.820
56925SOL    HW270802   9.555  10.777   1.770
56926SOL     OW70803   9.981   9.774   1.269
56926SOL    HW170804   9.947   9.685   1.239
56926SOL    HW270805  10.007   9.828   1.189
56927SOL     OW70806  10.240  10.988   1.465
56927SOL    HW170807  10.216  10.970   1.370
56927SOL    HW270808  10.270  11.082   1.475
56928SOL     OW70809   9.783   9.810   0.191
56928SOL    HW170810   9.844   9.890   0.195
56928SOL    HW270811   9.688   9.841   0.198
56929SOL     OW70812   9.469  10.447   1.466
56929SOL    HW170813   9.491  10.386   1.542
56929SOL    HW270814   9.479  10.398   1.380
56930SOL     OW70815  10.657  10.369   1.234
56930SOL    HW170816  10.681  10.306   1.160
56930SOL    HW270817  10.567  10.409   1.216
56931SOL     OW70818  10.612  10.165   0.309
56931SOL    HW170819  10.526  10.134   0.351
56931SOL    HW270820  10.608  10.151   0.210
56932SOL     OW70821  11.069  11.057   1.154
56932SOL    HW170822  11.130  11.087   1.081
56932SOL    HW270823  11.031  10.968   1.132
56933SOL     OW70824  10.562  11.041   1.128
56933SOL    HW170825  10.646  11.046   1.074
56933SOL    HW270826  10.539  10.945   1.146
56934SOL     OW70827   9.393  10.568   1.022
56934SOL    HW170828   9.388  10.567   1.122
56934SOL    HW270829   9.310  10.527   0.984
56935SOL     OW70830   9.998  10.972   1.716
56935SOL    HW170831   9.942  11.053   1.725
56935SOL    HW270832  10.050  10.976   1.630
56936SOL     OW70833  10.213   9.396   0.133
56936SOL    HW170834  10.264   9.397   0.047
56936SOL    HW270835  10.269   9.354   0.204
56937SOL     OW70836  11.036   9.445   0.523
56937SOL    HW170837  11.109   9.428   0.456
56937SOL    HW270838  11.005   9.358   0.561
56938SOL     OW70839  10.698  10.883   0.477
56938SOL    HW170840  10.765  10.895   0.403
56938SOL    HW270841  10.658  10.972   0.500
56939SOL     OW70842   9.440  11.104   1.851
56939SOL    HW170843   9.399  11.030   1.904
56939SOL    HW270844   9.504  11.155   1.909
56940SOL     OW70845  10.590  10.237   0.672
56940SOL    HW170846  10.650  10.156   0.674
56940SOL    HW270847  10.630  10.306   0.612
56941SOL     OW70848  10.140  10.583   1.422
56941SOL    HW170849  10.135  10.616   1.517
56941SOL    HW270850  10.054  10.602   1.376
56942SOL     OW70851   9.982  10.926   0.154
56942SOL    HW170852   9.991  10.936   0.055
56942SOL    HW270853   9.942  10.837   0.175
56943SOL     OW70854  10.960  11.030   1.394
56943SOL    HW170855  11.013  11.040   1.310
56943SOL    HW270856  10.933  11.120   1.428
56944SOL     OW70857  11.151   9.485   0.963
56944SOL    HW170858  11.190   9.400   0.927
56944SOL    HW270859  11.053   9.487   0.944
56945SOL     OW70860   9.573   9.636   0.720
56945SOL    HW170861   9.494   9.687   0.686
56945SOL    HW270862   9.564   9.621   0.818
56946SOL     OW70863  10.504  10.922   0.031
56946SOL    HW170864  10.510  10.829   0.068
56946SOL    HW270865  10.445  10.922  -0.049
56947SOL     OW70866  10.132  10.312   1.372
56947SOL    HW170867  10.172  10.311   1.280
56947SOL    HW270868  10.142  10.404   1.412
56948SOL     OW70869  10.226  10.220   0.291
56948SOL    HW170870  10.289  10.258   0.223
56948SOL    HW270871  10.266  10.137   0.330
56949SOL     OW70872  10.814  10.917   0.044
56949SOL    HW170873  10.722  10.954   0.051
56949SOL    HW270874  10.852  10.937  -0.046
56950SOL     OW70875   9.682  10.598   1.490
56950SOL    HW170876   9.669  10.691   1.456
56950SOL    HW270877   9.598  10.546   1.477
56951SOL     OW70878  10.924  10.602   1.289
56951SOL    HW170879  10.984  10.605   1.369
56951SOL    HW270880  10.849  10.666   1.302
56952SOL     OW70881  10.349  10.408   0.696
56952SOL    HW170882  10.279  10.361   0.750
56952SOL    HW270883  10.408  10.340   0.653
56953SOL     OW70884  10.324   9.546   0.971
56953SOL    HW170885  10.316   9.510   0.878
56953SOL    HW270886  10.322   9.470   1.036
56954SOL     OW70887   9.900  10.797   0.491
56954SOL    HW170888   9.942  10.739   0.421
56954SOL    HW270889   9.856  10.876   0.447
56955SOL     OW70890  11.019   9.695   1.381
56955SOL    HW170891  11.092   9.764   1.385
56955SOL    HW270892  11.047   9.620   1.322
56956SOL     OW70893   9.565  10.658   0.290
56956SOL    HW170894   9.469  10.659   0.263
56956SOL    HW270895   9.577  10.711   0.374
56957SOL     OW70896   9.415  10.323   1.726
56957SOL    HW170897   9.338  10.290   1.780
56957SOL    HW270898   9.500  10.293   1.768
56958SOL     OW70899   9.982   9.513   1.489
56958SOL    HW170900  10.072   9.497   1.449
56958SOL    HW270901   9.990   9.518   1.588
56959SOL     OW70902  10.750  10.166   1.398
56959SOL    HW170903  10.693  10.218   1.335
56959SOL    HW270904  10.846  10.178   1.374
56960SOL     OW70905   9.382   9.476   0.318
56960SOL    HW170906   9.365   9.559   0.264
56960SOL    HW270907   9.472   9.439   0.296
56961SOL     OW70908  10.493  10.645   0.119
56961SOL    HW170909  10.394  10.634   0.121
56961SOL    HW270910  10.527  10.660   0.212
56962SOL     OW70911   9.923  10.152   1.431
56962SOL    HW170912   9.979  10.233   1.414
56962SOL    HW270913   9.982  10.072   1.434
56963SOL     OW70914  10.803  11.077   0.959
56963SOL    HW170915  10.836  11.141   0.890
56963SOL    HW270916  10.869  11.071   1.034
56964SOL     OW70917  10.026   9.875   1.708
56964SOL    HW170918  10.045   9.940   1.782
56964SOL    HW270919  10.086   9.795   1.717
56965SOL     OW70920  10.760  10.530   1.633
56965SOL    HW170921  10.751  10.520   1.732
56965SOL    HW270922  10.856  10.523   1.607
56966SOL     OW70923   9.700  11.051   1.560
56966SOL    HW170924   9.609  11.092   1.558
56966SOL    HW270925   9.693  10.957   1.592
56967SOL     OW70926  10.984  10.193   1.254
56967SOL    HW170927  10.957  10.104   1.217
56967SOL    HW270928  10.985  10.261   1.181
56968SOL     OW70929  10.535   9.635   0.449
56968SOL    HW170930  10.600   9.561   0.438
56968SOL    HW270931  10.555   9.685   0.533
56969SOL     OW70932   9.904  10.055   0.652
56969SOL    HW170933   9.954  10.140   0.633
56969SOL    HW270934   9.816  10.057   0.604
56970SOL     OW70935  11.087   9.652   1.642
56970SOL    HW170936  11.070   9.683   1.548
56970SOL    HW270937  11.003   9.615   1.680
56971SOL     OW70938  11.040  10.244   1.517
56971SOL    HW170939  11.078  10.335   1.532
56971SOL    HW270940  11.032  10.227   1.418
56972SOL     OW70941  10.169  10.684   0.016
56972SOL    HW170942  10.123  10.699   0.104
56972SOL    HW270943  10.213  10.769  -0.014
56973SOL     OW70944   9.971  11.100   0.953
56973SOL    HW170945   9.925  11.188   0.940
56973SOL    HW270946  10.070  11.112   0.946
56974SOL     OW70947  10.169  10.266   0.861
56974SOL    HW170948  10.223  10.197   0.909
56974SOL    HW270949  10.137  10.335   0.927
56975SOL     OW70950  10.393  10.294   0.087
56975SOL    HW170951  10.370  10.347   0.005
56975SOL    HW270952  10.474  10.238   0.068
56976SOL     OW70953  11.171  10.879   0.851
56976SOL    HW170954  11.100  10.867   0.781
56976SOL    HW270955  11.172  10.800   0.911
56977SOL     OW70956   9.531  10.624   1.844
56977SOL    HW170957   9.466  10.551   1.823
56977SOL    HW270958   9.535  10.638   1.942
56978SOL     OW70959   9.389  10.550   0.653
56978SOL    HW170960   9.388  10.503   0.741
56978SOL    HW270961   9.471  10.522   0.602
56979SOL     OW70962   9.982  10.701   1.624
56979SOL    HW170963   9.904  10.651   1.662
56979SOL    HW270964   9.979  10.796   1.655
56980SOL     OW70965  11.134   9.502   1.227
56980SOL    HW170966  11.130   9.412   1.271
56980SOL    HW270967  11.137   9.491   1.128
56981SOL     OW70968   9.738   9.734   0.520
56981SOL    HW170969   9.768   9.662   0.458
56981SOL    HW270970   9.699   9.694   0.603
56982SOL     OW70971  11.015  10.797   1.104
56982SOL    HW170972  10.922  10.772   1.077
56982SOL    HW270973  11.041  10.747   1.186
56983SOL     OW70974   9.627   9.857   1.280
56983SOL    HW170975   9.665   9.798   1.352
56983SOL    HW270976   9.667   9.831   1.192
56984SOL     OW70977  10.122  10.896   0.687
56984SOL    HW170978  10.154  10.906   0.593
56984SOL    HW270979  10.043  10.834   0.689
56985SOL     OW70980  10.734   9.524   1.112
56985SOL    HW170981  10.786   9.459   1.167
56985SOL    HW270982  10.685   9.587   1.173
56986SOL     OW70983  10.311   9.344   1.154
56986SOL    HW170984  10.248   9.272   1.123
56986SOL    HW270985  10.404   9.308   1.154
56987SOL     OW70986  10.080  10.640   0.301
56987SOL    HW170987  10.034  10.553   0.318
56987SOL    HW270988  10.171  10.637   0.342
56988SOL     OW70989   9.928  10.877   1.284
56988SOL    HW170990   9.923  10.959   1.341
56988SOL    HW270991  10.017  10.874   1.239
56989SOL     OW70992  10.662   9.362   0.168
56989SOL    HW170993  10.697   9.321   0.084
56989SOL    HW270994  10.572   9.324   0.188
56990SOL     OW70995  10.610   9.763   0.691
56990SOL    HW170996  10.551   9.843   0.695
56990SOL    HW270997  10.625   9.728   0.784
56991SOL     OW70998  10.903   9.531   0.882
56991SOL    HW170999  10.819   9.530   0.936
56991SOL    HW271000  10.905   9.614   0.826
56992SOL     OW71001   9.349  10.387   0.300
56992SOL    HW171002   9.448  10.376   0.291
56992SOL    HW271003   9.309  10.301   0.332
56993SOL     OW71004  10.185  10.956   0.337
56993SOL    HW171005  10.108  10.921   0.283
56993SOL    HW271006  10.153  11.027   0.399
56994SOL     OW71007   9.540   9.938   1.975
56994SOL    HW171008   9.447   9.936   2.012
56994SOL    HW271009   9.541   9.899   1.883
56995SOL     OW71010   9.535   9.585   2.858
56995SOL    HW171011   9.570   9.568   2.950
56995SOL    HW271012   9.447   9.540   2.846
56996SOL     OW71013   9.329   9.678   2.509
56996SOL    HW171014   9.247   9.721   2.548
56996SOL    HW271015   9.301   9.605   2.446
56997SOL     OW71016   9.879  10.585   3.027
56997SOL    HW171017   9.786  10.578   2.990
56997SOL    HW271018   9.890  10.674   3.071
56998SOL     OW71019  10.865  10.821   2.565
56998SOL    HW171020  10.808  10.805   2.646
56998SOL    HW271021  10.806  10.831   2.485
56999SOL     OW71022  10.445  10.013   2.579
56999SOL    HW171023  10.502  10.091   2.554
56999SOL    HW271024  10.385  10.039   2.655
57000SOL     OW71025  11.065   9.917   2.093
57000SOL    HW171026  11.053   9.904   1.994
57000SOL    HW271027  11.035   9.836   2.142
57001SOL     OW71028  10.078  10.454   2.885
57001SOL    HW171029  10.000  10.471   2.945
57001SOL    HW271030  10.112  10.541   2.849
57002SOL     OW71031  10.160  10.108   3.685
57002SOL    HW171032  10.156  10.184   3.750
57002SOL    HW271033  10.182  10.144   3.594
57003SOL     OW71034   9.995  10.322   2.527
57003SOL    HW171035  10.064  10.306   2.597
57003SOL    HW271036   9.922  10.379   2.565
57004SOL     OW71037   9.996  10.471   3.665
57004SOL    HW171038  10.056  10.550   3.679
57004SOL    HW271039   9.910  10.502   3.624
57005SOL     OW71040   9.645  10.745   2.923
57005SOL    HW171041   9.567  10.714   2.870
57005SOL    HW271042   9.703  10.803   2.866
57006SOL     OW71043  10.770  10.815   3.201
57006SOL    HW171044  10.794  10.909   3.227
57006SOL    HW271045  10.754  10.761   3.283
57007SOL     OW71046   9.748   9.702   3.361
57007SOL    HW171047   9.830   9.646   3.370
57007SOL    HW271048   9.667   9.644   3.365
57008SOL     OW71049  10.913   9.757   2.599
57008SOL    HW171050  10.839   9.803   2.549
57008SOL    HW271051  10.964   9.825   2.652
57009SOL     OW71052   9.541  11.023   2.345
57009SOL    HW171053   9.575  11.100   2.399
57009SOL    HW271054   9.585  11.023   2.255
57010SOL     OW71055  10.437  10.651   3.552
57010SOL    HW171056  10.484  10.651   3.640
57010SOL    HW271057  10.389  10.564   3.541
57011SOL     OW71058   9.540  10.744   2.400
57011SOL    HW171059   9.514  10.840   2.400
57011SOL    HW271060   9.469  10.690   2.445
57012SOL     OW71061   9.550  10.401   2.748
57012SOL    HW171062   9.564  10.317   2.800
57012SOL    HW271063   9.495  10.465   2.803
57013SOL     OW71064   9.930  11.096   3.301
57013SOL    HW171065   9.838  11.079   3.336
57013SOL    HW271066   9.958  11.188   3.327
57014SOL     OW71067   9.916  10.274   1.985
57014SOL    HW171068   9.923  10.358   1.931
57014SOL    HW271069   9.962  10.287   2.073
57015SOL     OW71070  10.904   9.424   3.342
57015SOL    HW171071  10.886   9.491   3.270
57015SOL    HW271072  10.901   9.470   3.431
57016SOL     OW71073   9.432   9.953   2.425
57016SOL    HW171074   9.387   9.865   2.442
57016SOL    HW271075   9.431  10.007   2.509
57017SOL     OW71076  11.152  11.077   2.221
57017SOL    HW171077  11.206  11.048   2.301
57017SOL    HW271078  11.182  11.167   2.192
57018SOL     OW71079   9.337  10.906   1.979
57018SOL    HW171080   9.318  10.810   2.000
57018SOL    HW271081   9.304  10.964   2.054
57019SOL     OW71082  10.999  10.232   2.474
57019SOL    HW171083  11.094  10.203   2.482
57019SOL    HW271084  10.991  10.297   2.399
57020SOL     OW71085  10.951  10.418   2.294
57020SOL    HW171086  11.037  10.420   2.242
57020SOL    HW271087  10.965  10.465   2.382
57021SOL     OW71088   9.423  10.047   3.459
57021SOL    HW171089   9.511  10.034   3.504
57021SOL    HW271090   9.410  10.144   3.437
57022SOL     OW71091   9.923  10.675   2.588
57022SOL    HW171092   9.874  10.588   2.597
57022SOL    HW271093   9.900  10.718   2.501
57023SOL     OW71094  10.603  10.538   3.285
57023SOL    HW171095  10.640  10.465   3.227
57023SOL    HW271096  10.655  10.543   3.370
57024SOL     OW71097  10.119   9.314   2.364
57024SOL    HW171098  10.159   9.405   2.355
57024SOL    HW271099  10.019   9.322   2.370
57025SOL     OW71100   9.507  10.286   3.126
57025SOL    HW171101   9.596  10.241   3.112
57025SOL    HW271102   9.434  10.221   3.107
57026SOL     OW71103  10.835  10.309   2.052
57026SOL    HW171104  10.772  10.233   2.065
57026SOL    HW271105  10.883  10.327   2.138
57027SOL     OW71106  10.497  11.102   3.478
57027SOL    HW171107  10.521  11.162   3.402
57027SOL    HW271108  10.504  11.007   3.448
57028SOL     OW71109   9.627   9.561   3.663
57028SOL    HW171110   9.698   9.632   3.669
57028SOL    HW271111   9.539   9.600   3.691
57029SOL     OW71112  10.776  10.727   2.815
57029SOL    HW171113  10.717  10.733   2.895
57029SOL    HW271114  10.761  10.639   2.769
57030SOL     OW71115  10.977  11.024   2.434
57030SOL    HW171116  10.936  11.001   2.346
57030SOL    HW271117  10.959  10.950   2.499
57031SOL     OW71118   9.908  10.039   2.132
57031SOL    HW171119   9.932  10.108   2.064
57031SOL    HW271120   9.830  10.072   2.186
57032SOL     OW71121  10.591   9.655   2.806
57032SOL    HW171122  10.505   9.605   2.793
57032SOL    HW271123  10.653   9.601   2.862
57033SOL     OW71124  10.886  10.972   2.169
57033SOL    HW171125  10.975  11.018   2.172
57033SOL    HW271126  10.865  10.948   2.074
57034SOL     OW71127  10.117   9.915   3.327
57034SOL    HW171128  10.070   9.912   3.416
57034SOL    HW271129  10.066   9.860   3.261
57035SOL     OW71130  10.704   9.779   3.536
57035SOL    HW171131  10.684   9.822   3.624
57035SOL    HW271132  10.782   9.717   3.545
57036SOL     OW71133  10.283  10.200   3.434
57036SOL    HW171134  10.329  10.116   3.405
57036SOL    HW271135  10.227  10.234   3.359
57037SOL     OW71136  10.301   9.720   3.104
57037SOL    HW171137  10.224   9.754   3.158
57037SOL    HW271138  10.267   9.669   3.025
57038SOL     OW71139  10.351  10.011   2.291
57038SOL    HW171140  10.377  10.007   2.387
57038SOL    HW271141  10.266   9.960   2.277
57039SOL     OW71142   9.386  10.121   2.651
57039SOL    HW171143   9.485  10.109   2.660
57039SOL    HW271144   9.362  10.216   2.672
57040SOL     OW71145   9.440  11.131   3.433
57040SOL    HW171146   9.430  11.116   3.532
57040SOL    HW271147   9.354  11.167   3.397
57041SOL     OW71148  10.175   9.658   2.057
57041SOL    HW171149  10.234   9.721   2.008
57041SOL    HW271150  10.194   9.564   2.028
57042SOL     OW71151  11.029   9.895   3.693
57042SOL    HW171152  11.003   9.984   3.657
57042SOL    HW271153  11.027   9.827   3.620
57043SOL     OW71154  10.672  10.454   2.407
57043SOL    HW171155  10.755  10.425   2.359
57043SOL    HW271156  10.623  10.521   2.351
57044SOL     OW71157   9.860   9.506   2.747
57044SOL    HW171158   9.855   9.501   2.847
57044SOL    HW271159   9.862   9.602   2.718
57045SOL     OW71160  10.318  10.766   2.339
57045SOL    HW171161  10.272  10.838   2.287
57045SOL    HW271162  10.314  10.786   2.437
57046SOL     OW71163   9.661  11.111   2.715
57046SOL    HW171164   9.711  11.025   2.721
57046SOL    HW271165   9.726  11.188   2.712
57047SOL     OW71166  11.105  10.376   2.735
57047SOL    HW171167  11.043  10.361   2.659
57047SOL    HW271168  11.053  10.387   2.820
57048SOL     OW71169  10.537  10.860   3.368
57048SOL    HW171170  10.543  10.783   3.432
57048SOL    HW271171  10.485  10.834   3.288
57049SOL     OW71172   9.631  10.253   2.104
57049SOL    HW171173   9.713  10.292   2.062
57049SOL    HW271174   9.604  10.171   2.055
57050SOL     OW71175  10.768  10.045   2.590
57050SOL    HW171176  10.763   9.980   2.665
57050SOL    HW271177  10.848  10.104   2.603
57051SOL     OW71178   9.771  10.576   3.589
57051SOL    HW171179   9.721  10.577   3.503
57051SOL    HW271180   9.708  10.558   3.665
57052SOL     OW71181  10.421  11.086   2.099
57052SOL    HW171182  10.361  11.024   2.149
57052SOL    HW271183  10.452  11.042   2.014
57053SOL     OW71184   9.512   9.595   3.360
57053SOL    HW171185   9.432   9.655   3.347
57053SOL    HW271186   9.502   9.546   3.446
57054SOL     OW71187  10.942  10.687   1.943
57054SOL    HW171188  10.910  10.781   1.933
57054SOL    HW271189  10.866  10.624   1.931
57055SOL     OW71190   9.774  11.053   2.185
57055SOL    HW171191   9.807  11.092   2.271
57055SOL    HW271192   9.850  11.046   2.120
57056SOL     OW71193  10.710   9.417   2.288
57056SOL    HW171194  10.686   9.380   2.198
57056SOL    HW271195  10.809   9.433   2.292
57057SOL     OW71196   9.559  11.095   3.103
57057SOL    HW171197   9.616  11.030   3.153
57057SOL    HW271198   9.543  11.062   3.010
57058SOL     OW71199  10.250  11.008   2.766
57058SOL    HW171200  10.330  10.951   2.787
57058SOL    HW271201  10.201  10.968   2.689
57059SOL     OW71202   9.692  10.010   2.342
57059SOL    HW171203   9.737   9.920   2.339
57059SOL    HW271204   9.598   9.999   2.375
57060SOL     OW71205  10.857   9.532   3.591
57060SOL    HW171206  10.852   9.569   3.683
57060SOL    HW271207  10.785   9.463   3.579
57061SOL     OW71208   9.924   9.432   1.979
57061SOL    HW171209  10.022   9.410   1.986
57061SOL    HW271210   9.893   9.415   1.886
57062SOL     OW71211  10.091   9.574   3.611
57062SOL    HW171212  10.158   9.513   3.654
57062SOL    HW271213  10.018   9.593   3.676
57063SOL     OW71214  10.198  10.824   3.057
57063SOL    HW171215  10.175  10.799   2.963
57063SOL    HW271216  10.259  10.755   3.096
57064SOL     OW71217  10.661   9.900   3.295
57064SOL    HW171218  10.689   9.857   3.380
57064SOL    HW271219  10.686   9.996   3.296
57065SOL     OW71220  10.113  10.712   2.786
57065SOL    HW171221  10.203  10.726   2.744
57065SOL    HW271222  10.042  10.714   2.715
57066SOL     OW71223  10.232   9.813   2.761
57066SOL    HW171224  10.207   9.804   2.665
57066SOL    HW271225  10.280   9.731   2.792
57067SOL     OW71226   9.849   9.374   2.374
57067SOL    HW171227   9.768   9.375   2.432
57067SOL    HW271228   9.852   9.457   2.319
57068SOL     OW71229  10.744  10.498   1.903
57068SOL    HW171230  10.776  10.422   1.960
57068SOL    HW271231  10.652  10.525   1.933
57069SOL     OW71232   9.607   9.345   2.033
57069SOL    HW171233   9.656   9.429   2.012
57069SOL    HW271234   9.669   9.280   2.078
57070SOL     OW71235  10.245   9.546   2.342
57070SOL    HW171236  10.197   9.587   2.264
57070SOL    HW271237  10.344   9.544   2.323
57071SOL     OW71238  10.386   9.993   3.326
57071SOL    HW171239  10.306   9.932   3.329
57071SOL    HW271240  10.467   9.940   3.302
57072SOL     OW71241  10.537  10.880   2.655
57072SOL    HW171242  10.558  10.954   2.590
57072SOL    HW271243  10.605  10.880   2.728
57073SOL     OW71244   9.769  10.462   2.603
57073SOL    HW171245   9.698  10.435   2.668
57073SOL    HW271246   9.743  10.434   2.510
57074SOL     OW71247  10.581  11.107   2.453
57074SOL    HW171248  10.625  11.171   2.389
57074SOL    HW271249  10.531  11.159   2.523
57075SOL     OW71250  10.342   9.859   1.878
57075SOL    HW171251  10.301   9.941   1.839
57075SOL    HW271252  10.406   9.885   1.951
57076SOL     OW71253   9.388   9.866   3.248
57076SOL    HW171254   9.480   9.865   3.207
57076SOL    HW271255   9.382   9.940   3.315
57077SOL     OW71256   9.871   9.532   3.009
57077SOL    HW171257   9.909   9.448   3.046
57077SOL    HW271258   9.783   9.551   3.053
57078SOL     OW71259  10.176   9.764   2.504
57078SOL    HW171260  10.144   9.836   2.442
57078SOL    HW271261  10.200   9.683   2.451
57079SOL     OW71262  10.327   9.349   2.615
57079SOL    HW171263  10.255   9.354   2.546
57079SOL    HW271264  10.303   9.280   2.684
57080SOL     OW71265  10.739  10.483   2.729
57080SOL    HW171266  10.684  10.399   2.722
57080SOL    HW271267  10.765  10.512   2.637
57081SOL     OW71268  10.776   9.900   2.854
57081SOL    HW171269  10.746   9.805   2.861
57081SOL    HW271270  10.849   9.916   2.920
57082SOL     OW71271  11.167  10.143   2.239
57082SOL    HW171272  11.209  10.079   2.303
57082SOL    HW271273  11.129  10.092   2.161
57083SOL     OW71274   9.798  10.695   2.036
57083SOL    HW171275   9.711  10.680   2.083
57083SOL    HW271276   9.781  10.721   1.941
57084SOL     OW71277  10.974  10.590   2.519
57084SOL    HW171278  11.073  10.598   2.533
57084SOL    HW271279  10.929  10.674   2.550
57085SOL     OW71280  10.700   9.885   1.940
57085SOL    HW171281  10.646   9.864   2.021
57085SOL    HW271282  10.791   9.844   1.949
57086SOL     OW71283   9.837   9.566   2.190
57086SOL    HW171284   9.864   9.507   2.115
57086SOL    HW271285   9.837   9.661   2.159
57087SOL     OW71286  11.064  10.533   3.450
57087SOL    HW171287  11.155  10.494   3.437
57087SOL    HW271288  11.072  10.629   3.474
57088SOL     OW71289  10.374  10.657   3.202
57088SOL    HW171290  10.294  10.634   3.257
57088SOL    HW271291  10.457  10.631   3.251
57089SOL     OW71292  10.902  10.939   3.487
57089SOL    HW171293  10.929  10.973   3.397
57089SOL    HW271294  10.981  10.901   3.533
57090SOL     OW71295  10.421  10.505   2.962
57090SOL    HW171296  10.381  10.549   3.043
57090SOL    HW271297  10.380  10.542   2.879
57091SOL     OW71298  10.948  10.409   2.941
57091SOL    HW171299  10.953  10.490   3.000
57091SOL    HW271300  10.862  10.411   2.890
57092SOL     OW71301  10.225   9.399   3.264
57092SOL    HW171302  10.250   9.379   3.169
57092SOL    HW271303  10.297   9.455   3.306
57093SOL     OW71304  10.290  10.426   3.581
57093SOL    HW171305  10.191  10.432   3.591
57093SOL    HW271306  10.313  10.346   3.525
57094SOL     OW71307  10.015  10.360   2.230
57094SOL    HW171308  10.001  10.367   2.329
57094SOL    HW271309  10.099  10.309   2.212
57095SOL     OW71310   9.720  10.123   3.113
57095SOL    HW171311   9.806  10.135   3.163
57095SOL    HW271312   9.678  10.036   3.140
57096SOL     OW71313  10.584   9.696   3.124
57096SOL    HW171314  10.605   9.770   3.188
57096SOL    HW271315  10.495   9.713   3.081
57097SOL     OW71316   9.374  10.874   3.193
57097SOL    HW171317   9.328  10.956   3.159
57097SOL    HW271318   9.472  10.893   3.202
57098SOL     OW71319   9.677  10.410   2.363
57098SOL    HW171320   9.670  10.493   2.307
57098SOL    HW271321   9.681  10.330   2.303
57099SOL     OW71322   9.876   9.847   2.727
57099SOL    HW171323   9.888   9.913   2.653
57099SOL    HW271324   9.922   9.881   2.810
57100SOL     OW71325  10.562  10.658   2.250
57100SOL    HW171326  10.612  10.735   2.290
57100SOL    HW271327  10.467  10.660   2.282
57101SOL     OW71328  10.582  10.755   3.004
57101SOL    HW171329  10.629  10.768   3.091
57101SOL    HW271330  10.516  10.681   3.013
57102SOL     OW71331  10.892   9.949   2.334
57102SOL    HW171332  10.861  10.010   2.407
57102SOL    HW271333  10.942  10.001   2.265
57103SOL     OW71334   9.664  10.820   3.191
57103SOL    HW171335   9.643  10.776   3.104
57103SOL    HW271336   9.761  10.846   3.194
57104SOL     OW71337   9.712  10.061   3.460
57104SOL    HW171338   9.780  10.116   3.413
57104SOL    HW271339   9.752   9.973   3.487
57105SOL     OW71340  10.897  10.089   3.532
57105SOL    HW171341  10.805  10.127   3.527
57105SOL    HW271342  10.957  10.136   3.467
57106SOL     OW71343  10.323   9.415   3.632
57106SOL    HW171344  10.329   9.500   3.580
57106SOL    HW271345  10.355   9.339   3.575
57107SOL     OW71346   9.814   9.360   3.602
57107SOL    HW171347   9.772   9.303   3.532
57107SOL    HW271348   9.748   9.429   3.634
57108SOL     OW71349   9.883  10.180   2.891
57108SOL    HW171350   9.927  10.269   2.882
57108SOL    HW271351   9.820  10.180   2.968
57109SOL     OW71352  10.670  10.172   2.907
57109SOL    HW171353  10.595  10.172   2.841
57109SOL    HW271354  10.707  10.080   2.916
57110SOL     OW71355  10.519   9.835   2.137
57110SOL    HW171356  10.532   9.751   2.191
57110SOL    HW271357  10.490   9.909   2.197
57111SOL     OW71358   9.617   9.523   3.093
57111SOL    HW171359   9.594   9.560   3.183
57111SOL    HW271360   9.587   9.428   3.087
57112SOL     OW71361   9.347  10.620   3.144
57112SOL    HW171362   9.400  10.571   3.212
57112SOL    HW271363   9.369  10.718   3.149
57113SOL     OW71364  10.042   9.944   2.926
57113SOL    HW171365  10.101   9.918   2.850
57113SOL    HW271366  10.014  10.040   2.915
57114SOL     OW71367  11.038  10.245   3.716
57114SOL    HW171368  10.992  10.238   3.627
57114SOL    HW271369  10.976  10.289   3.782
57115SOL     OW71370   9.617   9.373   2.480
57115SOL    HW171371   9.606   9.467   2.513
57115SOL    HW271372   9.612   9.310   2.557
57116SOL     OW71373  10.932   9.677   2.236
57116SOL    HW171374  10.934   9.601   2.300
57116SOL    HW271375  10.884   9.754   2.276
57117SOL     OW71376  10.333  10.076   2.828
57117SOL    HW171377  10.348  10.097   2.924
57117SOL    HW271378  10.303   9.981   2.819
57118SOL     OW71379  10.290  10.883   3.562
57118SOL    HW171380  10.270  10.927   3.474
57118SOL    HW271381  10.329  10.792   3.546
57119SOL     OW71382  11.169  10.828   3.467
57119SOL    HW171383  11.183  10.855   3.372
57119SOL    HW271384  11.252  10.850   3.520
57120SOL     OW71385   9.660  10.208   3.666
57120SOL    HW171386   9.736  10.252   3.714
57120SOL    HW271387   9.695  10.161   3.584
57121SOL     OW71388  10.850   9.584   1.987
57121SOL    HW171389  10.789   9.509   2.010
57121SOL    HW271390  10.872   9.636   2.070
57122SOL     OW71391  10.613  10.148   1.904
57122SOL    HW171392  10.647  10.055   1.919
57122SOL    HW271393  10.631  10.175   1.809
57123SOL     OW71394  10.378  10.643   2.711
57123SOL    HW171395  10.385  10.559   2.656
57123SOL    HW271396  10.440  10.712   2.675
57124SOL     OW71397   9.629  10.120   2.811
57124SOL    HW171398   9.722  10.156   2.816
57124SOL    HW271399   9.623  10.035   2.863
57125SOL     OW71400   9.649   9.819   2.868
57125SOL    HW171401   9.597   9.736   2.851
57125SOL    HW271402   9.726   9.824   2.804
57126SOL     OW71403  10.448   9.690   3.540
57126SOL    HW171404  10.403   9.753   3.604
57126SOL    HW271405  10.541   9.721   3.523
57127SOL     OW71406  10.470   9.517   3.339
57127SOL    HW171407  10.470   9.581   3.416
57127SOL    HW271408  10.498   9.565   3.256
57128SOL     OW71409   9.318  10.636   2.062
57128SOL    HW171410   9.225  10.657   2.031
57128SOL    HW271411   9.328  10.537   2.075
57129SOL     OW71412   9.398  11.111   2.789
57129SOL    HW171413   9.356  11.025   2.762
57129SOL    HW271414   9.492  11.114   2.755
57130SOL     OW71415   9.814  10.878   2.772
57130SOL    HW171416   9.880  10.952   2.781
57130SOL    HW271417   9.858  10.799   2.730
57131SOL     OW71418  10.312  10.106   3.100
57131SOL    HW171419  10.353  10.074   3.186
57131SOL    HW271420  10.216  10.079   3.097
57132SOL     OW71421   9.350   9.854   2.976
57132SOL    HW171422   9.435   9.821   2.935
57132SOL    HW271423   9.363   9.869   3.074
57133SOL     OW71424   9.499   9.830   3.584
57133SOL    HW171425   9.558   9.790   3.514
57133SOL    HW271426   9.441   9.901   3.543
57134SOL     OW71427  10.679  10.260   3.522
57134SOL    HW171428  10.718  10.349   3.542
57134SOL    HW271429  10.689  10.240   3.425
57135SOL     OW71430  10.125   9.882   2.187
57135SOL    HW171431  10.132   9.793   2.141
57135SOL    HW271432  10.031   9.916   2.179
57136SOL     OW71433  10.967   9.914   3.068
57136SOL    HW171434  10.929   9.845   3.130
57136SOL    HW271435  11.049   9.878   3.024
57137SOL     OW71436   9.562  10.874   3.606
57137SOL    HW171437   9.532  10.931   3.682
57137SOL    HW271438   9.555  10.777   3.632
57138SOL     OW71439   9.981   9.774   3.131
57138SOL    HW171440   9.947   9.685   3.101
57138SOL    HW271441  10.007   9.828   3.051
57139SOL     OW71442  10.240  10.988   3.327
57139SOL    HW171443  10.216  10.970   3.232
57139SOL    HW271444  10.270  11.082   3.337
57140SOL     OW71445   9.783   9.810   2.053
57140SOL    HW171446   9.844   9.890   2.057
57140SOL    HW271447   9.688   9.841   2.060
57141SOL     OW71448   9.469  10.447   3.328
57141SOL    HW171449   9.491  10.386   3.404
57141SOL    HW271450   9.479  10.398   3.242
57142SOL     OW71451  10.657  10.369   3.096
57142SOL    HW171452  10.681  10.306   3.022
57142SOL    HW271453  10.567  10.409   3.078
57143SOL     OW71454  10.612  10.165   2.171
57143SOL    HW171455  10.526  10.134   2.213
57143SOL    HW271456  10.608  10.151   2.072
57144SOL     OW71457  11.069  11.057   3.016
57144SOL    HW171458  11.130  11.087   2.943
57144SOL    HW271459  11.031  10.968   2.994
57145SOL     OW71460  10.562  11.041   2.990
57145SOL    HW171461  10.646  11.046   2.936
57145SOL    HW271462  10.539  10.945   3.008
57146SOL     OW71463   9.393  10.568   2.884
57146SOL    HW171464   9.388  10.567   2.984
57146SOL    HW271465   9.310  10.527   2.846
57147SOL     OW71466   9.998  10.972   3.578
57147SOL    HW171467   9.942  11.053   3.587
57147SOL    HW271468  10.050  10.976   3.492
57148SOL     OW71469  11.036   9.445   2.385
57148SOL    HW171470  11.109   9.428   2.318
57148SOL    HW271471  11.005   9.358   2.423
57149SOL     OW71472  10.698  10.883   2.339
57149SOL    HW171473  10.765  10.895   2.265
57149SOL    HW271474  10.658  10.972   2.362
57150SOL     OW71475   9.440  11.104   3.713
57150SOL    HW171476   9.399  11.030   3.766
57150SOL    HW271477   9.504  11.155   3.771
57151SOL     OW71478  10.590  10.237   2.534
57151SOL    HW171479  10.650  10.156   2.536
57151SOL    HW271480  10.630  10.306   2.474
57152SOL     OW71481  10.140  10.583   3.284
57152SOL    HW171482  10.135  10.616   3.379
57152SOL    HW271483  10.054  10.602   3.238
57153SOL     OW71484   9.982  10.926   2.016
57153SOL    HW171485   9.991  10.936   1.917
57153SOL    HW271486   9.942  10.837   2.037
57154SOL     OW71487  10.960  11.030   3.256
57154SOL    HW171488  11.013  11.040   3.172
57154SOL    HW271489  10.933  11.120   3.290
57155SOL     OW71490  11.151   9.485   2.825
57155SOL    HW171491  11.190   9.400   2.789
57155SOL    HW271492  11.053   9.487   2.806
57156SOL     OW71493   9.573   9.636   2.582
57156SOL    HW171494   9.494   9.687   2.548
57156SOL    HW271495   9.564   9.621   2.680
57157SOL     OW71496  10.504  10.922   1.893
57157SOL    HW171497  10.510  10.829   1.930
57157SOL    HW271498  10.445  10.922   1.813
57158SOL     OW71499  10.132  10.312   3.234
57158SOL    HW171500  10.172  10.311   3.142
57158SOL    HW271501  10.142  10.404   3.274
57159SOL     OW71502  10.226  10.220   2.153
57159SOL    HW171503  10.289  10.258   2.085
57159SOL    HW271504  10.266  10.137   2.192
57160SOL     OW71505  10.814  10.917   1.906
57160SOL    HW171506  10.722  10.954   1.913
57160SOL    HW271507  10.852  10.937   1.816
57161SOL     OW71508   9.682  10.598   3.352
57161SOL    HW171509   9.669  10.691   3.318
57161SOL    HW271510   9.598  10.546   3.339
57162SOL     OW71511  10.924  10.602   3.151
57162SOL    HW171512  10.984  10.605   3.231
57162SOL    HW271513  10.849  10.666   3.164
57163SOL     OW71514  10.349  10.408   2.558
57163SOL    HW171515  10.279  10.361   2.612
57163SOL    HW271516  10.408  10.340   2.515
57164SOL     OW71517  10.324   9.546   2.833
57164SOL    HW171518  10.316   9.510   2.740
57164SOL    HW271519  10.322   9.470   2.898
57165SOL     OW71520   9.900  10.797   2.353
57165SOL    HW171521   9.942  10.739   2.283
57165SOL    HW271522   9.856  10.876   2.309
57166SOL     OW71523  11.019   9.695   3.243
57166SOL    HW171524  11.092   9.764   3.247
57166SOL    HW271525  11.047   9.620   3.184
57167SOL     OW71526   9.565  10.658   2.152
57167SOL    HW171527   9.469  10.659   2.125
57167SOL    HW271528   9.577  10.711   2.236
57168SOL     OW71529   9.415  10.323   3.588
57168SOL    HW171530   9.338  10.290   3.642
57168SOL    HW271531   9.500  10.293   3.630
57169SOL     OW71532   9.982   9.513   3.351
57169SOL    HW171533  10.072   9.497   3.311
57169SOL    HW271534   9.990   9.518   3.450
57170SOL     OW71535   9.385   9.655   1.895
57170SOL    HW171536   9.293   9.627   1.866
57170SOL    HW271537   9.416   9.732   1.839
57171SOL     OW71538  10.750  10.166   3.260
57171SOL    HW171539  10.693  10.218   3.197
57171SOL    HW271540  10.846  10.178   3.236
57172SOL     OW71541   9.382   9.476   2.180
57172SOL    HW171542   9.365   9.559   2.126
57172SOL    HW271543   9.472   9.439   2.158
57173SOL     OW71544  10.493  10.645   1.981
57173SOL    HW171545  10.394  10.634   1.983
57173SOL    HW271546  10.527  10.660   2.074
57174SOL     OW71547   9.923  10.152   3.293
57174SOL    HW171548   9.979  10.233   3.276
57174SOL    HW271549   9.982  10.072   3.296
57175SOL     OW71550  10.803  11.077   2.821
57175SOL    HW171551  10.836  11.141   2.752
57175SOL    HW271552  10.869  11.071   2.896
57176SOL     OW71553  10.026   9.875   3.570
57176SOL    HW171554  10.045   9.940   3.644
57176SOL    HW271555  10.086   9.795   3.579
57177SOL     OW71556  10.760  10.530   3.495
57177SOL    HW171557  10.751  10.520   3.594
57177SOL    HW271558  10.856  10.523   3.469
57178SOL     OW71559   9.700  11.051   3.422
57178SOL    HW171560   9.609  11.092   3.420
57178SOL    HW271561   9.693  10.957   3.454
57179SOL     OW71562  10.984  10.193   3.116
57179SOL    HW171563  10.957  10.104   3.079
57179SOL    HW271564  10.985  10.261   3.043
57180SOL     OW71565  10.535   9.635   2.311
57180SOL    HW171566  10.600   9.561   2.300
57180SOL    HW271567  10.555   9.685   2.395
57181SOL     OW71568   9.904  10.055   2.514
57181SOL    HW171569   9.954  10.140   2.495
57181SOL    HW271570   9.816  10.057   2.466
57182SOL     OW71571  11.087   9.652   3.504
57182SOL    HW171572  11.070   9.683   3.410
57182SOL    HW271573  11.003   9.615   3.542
57183SOL     OW71574  11.040  10.244   3.379
57183SOL    HW171575  11.078  10.335   3.394
57183SOL    HW271576  11.032  10.227   3.280
57184SOL     OW71577  10.169  10.684   1.878
57184SOL    HW171578  10.123  10.699   1.966
57184SOL    HW271579  10.213  10.769   1.848
57185SOL     OW71580   9.971  11.100   2.815
57185SOL    HW171581   9.925  11.188   2.802
57185SOL    HW271582  10.070  11.112   2.808
57186SOL     OW71583  10.169  10.266   2.723
57186SOL    HW171584  10.223  10.197   2.771
57186SOL    HW271585  10.137  10.335   2.789
57187SOL     OW71586  10.393  10.294   1.949
57187SOL    HW171587  10.370  10.347   1.867
57187SOL    HW271588  10.474  10.238   1.930
57188SOL     OW71589  11.171  10.879   2.713
57188SOL    HW171590  11.100  10.867   2.643
57188SOL    HW271591  11.172  10.800   2.773
57189SOL     OW71592   9.531  10.624   3.706
57189SOL    HW171593   9.466  10.551   3.685
57189SOL    HW271594   9.535  10.638   3.804
57190SOL     OW71595   9.389  10.550   2.515
57190SOL    HW171596   9.388  10.503   2.603
57190SOL    HW271597   9.471  10.522   2.464
57191SOL     OW71598   9.982  10.701   3.486
57191SOL    HW171599   9.904  10.651   3.524
57191SOL    HW271600   9.979  10.796   3.517
57192SOL     OW71601  11.134   9.502   3.089
57192SOL    HW171602  11.130   9.412   3.133
57192SOL    HW271603  11.137   9.491   2.990
57193SOL     OW71604   9.738   9.734   2.382
57193SOL    HW171605   9.768   9.662   2.320
57193SOL    HW271606   9.699   9.694   2.465
57194SOL     OW71607  11.015  10.797   2.966
57194SOL    HW171608  10.922  10.772   2.939
57194SOL    HW271609  11.041  10.747   3.048
57195SOL     OW71610   9.627   9.857   3.142
57195SOL    HW171611   9.665   9.798   3.214
57195SOL    HW271612   9.667   9.831   3.054
57196SOL     OW71613  10.122  10.896   2.549
57196SOL    HW171614  10.154  10.906   2.455
57196SOL    HW271615  10.043  10.834   2.551
57197SOL     OW71616  10.734   9.524   2.974
57197SOL    HW171617  10.786   9.459   3.029
57197SOL    HW271618  10.685   9.587   3.035
57198SOL     OW71619  10.311   9.344   3.016
57198SOL    HW171620  10.248   9.272   2.985
57198SOL    HW271621  10.404   9.308   3.016
57199SOL     OW71622  10.080  10.640   2.163
57199SOL    HW171623  10.034  10.553   2.180
57199SOL    HW271624  10.171  10.637   2.204
57200SOL     OW71625   9.928  10.877   3.146
57200SOL    HW171626   9.923  10.959   3.203
57200SOL    HW271627  10.017  10.874   3.101
57201SOL     OW71628  10.662   9.362   2.030
57201SOL    HW171629  10.697   9.321   1.946
57201SOL    HW271630  10.572   9.324   2.050
57202SOL     OW71631  10.610   9.763   2.553
57202SOL    HW171632  10.551   9.843   2.557
57202SOL    HW271633  10.625   9.728   2.646
57203SOL     OW71634  10.903   9.531   2.744
57203SOL    HW171635  10.819   9.530   2.798
57203SOL    HW271636  10.905   9.614   2.688
57204SOL     OW71637   9.349  10.387   2.162
57204SOL    HW171638   9.448  10.376   2.153
57204SOL    HW271639   9.309  10.301   2.194
57205SOL     OW71640  10.185  10.956   2.199
57205SOL    HW171641  10.108  10.921   2.145
57205SOL    HW271642  10.153  11.027   2.261
57206SOL     OW71643   9.540   9.938   3.837
57206SOL    HW171644   9.447   9.936   3.874
57206SOL    HW271645   9.541   9.899   3.745
57207SOL     OW71646   9.535   9.585   4.720
57207SOL    HW171647   9.570   9.568   4.812
57207SOL    HW271648   9.447   9.540   4.708
57208SOL     OW71649   9.329   9.678   4.371
57208SOL    HW171650   9.247   9.721   4.410
57208SOL    HW271651   9.301   9.605   4.308
57209SOL     OW71652   9.879  10.585   4.889
57209SOL    HW171653   9.786  10.578   4.852
57209SOL    HW271654   9.890  10.674   4.933
57210SOL     OW71655  10.865  10.821   4.427
57210SOL    HW171656  10.808  10.805   4.508
57210SOL    HW271657  10.806  10.831   4.347
57211SOL     OW71658  10.445  10.013   4.441
57211SOL    HW171659  10.502  10.091   4.416
57211SOL    HW271660  10.385  10.039   4.517
57212SOL     OW71661  11.065   9.917   3.955
57212SOL    HW171662  11.053   9.904   3.856
57212SOL    HW271663  11.035   9.836   4.004
57213SOL     OW71664  10.078  10.454   4.747
57213SOL    HW171665  10.000  10.471   4.807
57213SOL    HW271666  10.112  10.541   4.711
57214SOL     OW71667  10.160  10.108   5.547
57214SOL    HW171668  10.156  10.184   5.612
57214SOL    HW271669  10.182  10.144   5.456
57215SOL     OW71670   9.995  10.322   4.389
57215SOL    HW171671  10.064  10.306   4.459
57215SOL    HW271672   9.922  10.379   4.427
57216SOL     OW71673   9.996  10.471   5.527
57216SOL    HW171674  10.056  10.550   5.541
57216SOL    HW271675   9.910  10.502   5.486
57217SOL     OW71676   9.645  10.745   4.785
57217SOL    HW171677   9.567  10.714   4.732
57217SOL    HW271678   9.703  10.803   4.728
57218SOL     OW71679  10.770  10.815   5.063
57218SOL    HW171680  10.794  10.909   5.089
57218SOL    HW271681  10.754  10.761   5.145
57219SOL     OW71682   9.748   9.702   5.223
57219SOL    HW171683   9.830   9.646   5.232
57219SOL    HW271684   9.667   9.644   5.227
57220SOL     OW71685  10.913   9.757   4.461
57220SOL    HW171686  10.839   9.803   4.411
57220SOL    HW271687  10.964   9.825   4.514
57221SOL     OW71688   9.541  11.023   4.207
57221SOL    HW171689   9.575  11.100   4.261
57221SOL    HW271690   9.585  11.023   4.117
57222SOL     OW71691  10.437  10.651   5.414
57222SOL    HW171692  10.484  10.651   5.502
57222SOL    HW271693  10.389  10.564   5.403
57223SOL     OW71694   9.540  10.744   4.262
57223SOL    HW171695   9.514  10.840   4.262
57223SOL    HW271696   9.469  10.690   4.307
57224SOL     OW71697   9.550  10.401   4.610
57224SOL    HW171698   9.564  10.317   4.662
57224SOL    HW271699   9.495  10.465   4.665
57225SOL     OW71700   9.930  11.096   5.163
57225SOL    HW171701   9.838  11.079   5.198
57225SOL    HW271702   9.958  11.188   5.189
57226SOL     OW71703   9.916  10.274   3.847
57226SOL    HW171704   9.923  10.358   3.793
57226SOL    HW271705   9.962  10.287   3.935
57227SOL     OW71706  10.904   9.424   5.204
57227SOL    HW171707  10.886   9.491   5.132
57227SOL    HW271708  10.901   9.470   5.293
57228SOL     OW71709   9.432   9.953   4.287
57228SOL    HW171710   9.387   9.865   4.304
57228SOL    HW271711   9.431  10.007   4.371
57229SOL     OW71712  11.152  11.077   4.083
57229SOL    HW171713  11.206  11.048   4.163
57229SOL    HW271714  11.182  11.167   4.054
57230SOL     OW71715   9.337  10.906   3.841
57230SOL    HW171716   9.318  10.810   3.862
57230SOL    HW271717   9.304  10.964   3.916
57231SOL     OW71718  10.999  10.232   4.336
57231SOL    HW171719  11.094  10.203   4.344
57231SOL    HW271720  10.991  10.297   4.261
57232SOL     OW71721  10.951  10.418   4.156
57232SOL    HW171722  11.037  10.420   4.104
57232SOL    HW271723  10.965  10.465   4.244
57233SOL     OW71724   9.423  10.047   5.321
57233SOL    HW171725   9.511  10.034   5.366
57233SOL    HW271726   9.410  10.144   5.299
57234SOL     OW71727   9.923  10.675   4.450
57234SOL    HW171728   9.874  10.588   4.459
57234SOL    HW271729   9.900  10.718   4.363
57235SOL     OW71730  10.603  10.538   5.147
57235SOL    HW171731  10.640  10.465   5.089
57235SOL    HW271732  10.655  10.543   5.232
57236SOL     OW71733  10.119   9.314   4.226
57236SOL    HW171734  10.159   9.405   4.217
57236SOL    HW271735  10.019   9.322   4.232
57237SOL     OW71736   9.507  10.286   4.988
57237SOL    HW171737   9.596  10.241   4.974
57237SOL    HW271738   9.434  10.221   4.969
57238SOL     OW71739  10.835  10.309   3.914
57238SOL    HW171740  10.772  10.233   3.927
57238SOL    HW271741  10.883  10.327   4.000
57239SOL     OW71742  10.497  11.102   5.340
57239SOL    HW171743  10.521  11.162   5.264
57239SOL    HW271744  10.504  11.007   5.310
57240SOL     OW71745   9.627   9.561   5.525
57240SOL    HW171746   9.698   9.632   5.531
57240SOL    HW271747   9.539   9.600   5.553
57241SOL     OW71748  10.776  10.727   4.677
57241SOL    HW171749  10.717  10.733   4.757
57241SOL    HW271750  10.761  10.639   4.631
57242SOL     OW71751  10.977  11.024   4.296
57242SOL    HW171752  10.936  11.001   4.208
57242SOL    HW271753  10.959  10.950   4.361
57243SOL     OW71754   9.908  10.039   3.994
57243SOL    HW171755   9.932  10.108   3.926
57243SOL    HW271756   9.830  10.072   4.048
57244SOL     OW71757  10.591   9.655   4.668
57244SOL    HW171758  10.505   9.605   4.655
57244SOL    HW271759  10.653   9.601   4.724
57245SOL     OW71760  10.886  10.972   4.031
57245SOL    HW171761  10.975  11.018   4.034
57245SOL    HW271762  10.865  10.948   3.936
57246SOL     OW71763  10.117   9.915   5.189
57246SOL    HW171764  10.070   9.912   5.278
57246SOL    HW271765  10.066   9.860   5.123
57247SOL     OW71766  10.704   9.779   5.398
57247SOL    HW171767  10.684   9.822   5.486
57247SOL    HW271768  10.782   9.717   5.407
57248SOL     OW71769  10.283  10.200   5.296
57248SOL    HW171770  10.329  10.116   5.267
57248SOL    HW271771  10.227  10.234   5.221
57249SOL     OW71772  10.301   9.720   4.966
57249SOL    HW171773  10.224   9.754   5.020
57249SOL    HW271774  10.267   9.669   4.887
57250SOL     OW71775  10.351  10.011   4.153
57250SOL    HW171776  10.377  10.007   4.249
57250SOL    HW271777  10.266   9.960   4.139
57251SOL     OW71778   9.386  10.121   4.513
57251SOL    HW171779   9.485  10.109   4.522
57251SOL    HW271780   9.362  10.216   4.534
57252SOL     OW71781   9.440  11.131   5.295
57252SOL    HW171782   9.430  11.116   5.394
57252SOL    HW271783   9.354  11.167   5.259
57253SOL     OW71784  10.175   9.658   3.919
57253SOL    HW171785  10.234   9.721   3.870
57253SOL    HW271786  10.194   9.564   3.890
57254SOL     OW71787  11.029   9.895   5.555
57254SOL    HW171788  11.003   9.984   5.519
57254SOL    HW271789  11.027   9.827   5.482
57255SOL     OW71790  10.672  10.454   4.269
57255SOL    HW171791  10.755  10.425   4.221
57255SOL    HW271792  10.623  10.521   4.213
57256SOL     OW71793   9.860   9.506   4.609
57256SOL    HW171794   9.855   9.501   4.709
57256SOL    HW271795   9.862   9.602   4.580
57257SOL     OW71796  10.318  10.766   4.201
57257SOL    HW171797  10.272  10.838   4.149
57257SOL    HW271798  10.314  10.786   4.299
57258SOL     OW71799   9.661  11.111   4.577
57258SOL    HW171800   9.711  11.025   4.583
57258SOL    HW271801   9.726  11.188   4.574
57259SOL     OW71802  11.105  10.376   4.597
57259SOL    HW171803  11.043  10.361   4.521
57259SOL    HW271804  11.053  10.387   4.682
57260SOL     OW71805  10.537  10.860   5.230
57260SOL    HW171806  10.543  10.783   5.294
57260SOL    HW271807  10.485  10.834   5.150
57261SOL     OW71808   9.631  10.253   3.966
57261SOL    HW171809   9.713  10.292   3.924
57261SOL    HW271810   9.604  10.171   3.917
57262SOL     OW71811  10.768  10.045   4.452
57262SOL    HW171812  10.763   9.980   4.527
57262SOL    HW271813  10.848  10.104   4.465
57263SOL     OW71814   9.771  10.576   5.451
57263SOL    HW171815   9.721  10.577   5.365
57263SOL    HW271816   9.708  10.558   5.527
57264SOL     OW71817  10.421  11.086   3.961
57264SOL    HW171818  10.361  11.024   4.011
57264SOL    HW271819  10.452  11.042   3.876
57265SOL     OW71820   9.512   9.595   5.222
57265SOL    HW171821   9.432   9.655   5.209
57265SOL    HW271822   9.502   9.546   5.308
57266SOL     OW71823  10.942  10.687   3.805
57266SOL    HW171824  10.910  10.781   3.795
57266SOL    HW271825  10.866  10.624   3.793
57267SOL     OW71826   9.774  11.053   4.047
57267SOL    HW171827   9.807  11.092   4.133
57267SOL    HW271828   9.850  11.046   3.982
57268SOL     OW71829  10.710   9.417   4.150
57268SOL    HW171830  10.686   9.380   4.060
57268SOL    HW271831  10.809   9.433   4.154
57269SOL     OW71832   9.559  11.095   4.965
57269SOL    HW171833   9.616  11.030   5.015
57269SOL    HW271834   9.543  11.062   4.872
57270SOL     OW71835  10.250  11.008   4.628
57270SOL    HW171836  10.330  10.951   4.649
57270SOL    HW271837  10.201  10.968   4.551
57271SOL     OW71838   9.692  10.010   4.204
57271SOL    HW171839   9.737   9.920   4.201
57271SOL    HW271840   9.598   9.999   4.237
57272SOL     OW71841  10.857   9.532   5.453
57272SOL    HW171842  10.852   9.569   5.545
57272SOL    HW271843  10.785   9.463   5.441
57273SOL     OW71844   9.924   9.432   3.841
57273SOL    HW171845  10.022   9.410   3.848
57273SOL    HW271846   9.893   9.415   3.748
57274SOL     OW71847  10.091   9.574   5.473
57274SOL    HW171848  10.158   9.513   5.516
57274SOL    HW271849  10.018   9.593   5.538
57275SOL     OW71850  10.198  10.824   4.919
57275SOL    HW171851  10.175  10.799   4.825
57275SOL    HW271852  10.259  10.755   4.958
57276SOL     OW71853  10.661   9.900   5.157
57276SOL    HW171854  10.689   9.857   5.242
57276SOL    HW271855  10.686   9.996   5.158
57277SOL     OW71856  10.113  10.712   4.648
57277SOL    HW171857  10.203  10.726   4.606
57277SOL    HW271858  10.042  10.714   4.577
57278SOL     OW71859  10.232   9.813   4.623
57278SOL    HW171860  10.207   9.804   4.527
57278SOL    HW271861  10.280   9.731   4.654
57279SOL     OW71862   9.849   9.374   4.236
57279SOL    HW171863   9.768   9.375   4.294
57279SOL    HW271864   9.852   9.457   4.181
57280SOL     OW71865  10.744  10.498   3.765
57280SOL    HW171866  10.776  10.422   3.822
57280SOL    HW271867  10.652  10.525   3.795
57281SOL     OW71868   9.607   9.345   3.895
57281SOL    HW171869   9.656   9.429   3.874
57281SOL    HW271870   9.669   9.280   3.940
57282SOL     OW71871  10.245   9.546   4.204
57282SOL    HW171872  10.197   9.587   4.126
57282SOL    HW271873  10.344   9.544   4.185
57283SOL     OW71874  10.386   9.993   5.188
57283SOL    HW171875  10.306   9.932   5.191
57283SOL    HW271876  10.467   9.940   5.164
57284SOL     OW71877  10.537  10.880   4.517
57284SOL    HW171878  10.558  10.954   4.452
57284SOL    HW271879  10.605  10.880   4.590
57285SOL     OW71880   9.769  10.462   4.465
57285SOL    HW171881   9.698  10.435   4.530
57285SOL    HW271882   9.743  10.434   4.372
57286SOL     OW71883  10.581  11.107   4.315
57286SOL    HW171884  10.625  11.171   4.251
57286SOL    HW271885  10.531  11.159   4.385
57287SOL     OW71886  10.342   9.859   3.740
57287SOL    HW171887  10.301   9.941   3.701
57287SOL    HW271888  10.406   9.885   3.813
57288SOL     OW71889   9.388   9.866   5.110
57288SOL    HW171890   9.480   9.865   5.069
57288SOL    HW271891   9.382   9.940   5.177
57289SOL     OW71892   9.871   9.532   4.871
57289SOL    HW171893   9.909   9.448   4.908
57289SOL    HW271894   9.783   9.551   4.915
57290SOL     OW71895  10.176   9.764   4.366
57290SOL    HW171896  10.144   9.836   4.304
57290SOL    HW271897  10.200   9.683   4.313
57291SOL     OW71898  10.327   9.349   4.477
57291SOL    HW171899  10.255   9.354   4.408
57291SOL    HW271900  10.303   9.280   4.546
57292SOL     OW71901  10.739  10.483   4.591
57292SOL    HW171902  10.684  10.399   4.584
57292SOL    HW271903  10.765  10.512   4.499
57293SOL     OW71904  10.776   9.900   4.716
57293SOL    HW171905  10.746   9.805   4.723
57293SOL    HW271906  10.849   9.916   4.782
57294SOL     OW71907  11.167  10.143   4.101
57294SOL    HW171908  11.209  10.079   4.165
57294SOL    HW271909  11.129  10.092   4.023
57295SOL     OW71910   9.798  10.695   3.898
57295SOL    HW171911   9.711  10.680   3.945
57295SOL    HW271912   9.781  10.721   3.803
57296SOL     OW71913  10.974  10.590   4.381
57296SOL    HW171914  11.073  10.598   4.395
57296SOL    HW271915  10.929  10.674   4.412
57297SOL     OW71916  10.700   9.885   3.802
57297SOL    HW171917  10.646   9.864   3.883
57297SOL    HW271918  10.791   9.844   3.811
57298SOL     OW71919   9.837   9.566   4.052
57298SOL    HW171920   9.864   9.507   3.977
57298SOL    HW271921   9.837   9.661   4.021
57299SOL     OW71922  11.064  10.533   5.312
57299SOL    HW171923  11.155  10.494   5.299
57299SOL    HW271924  11.072  10.629   5.336
57300SOL     OW71925  10.374  10.657   5.064
57300SOL    HW171926  10.294  10.634   5.119
57300SOL    HW271927  10.457  10.631   5.113
57301SOL     OW71928  10.902  10.939   5.349
57301SOL    HW171929  10.929  10.973   5.259
57301SOL    HW271930  10.981  10.901   5.395
57302SOL     OW71931  10.421  10.505   4.824
57302SOL    HW171932  10.381  10.549   4.905
57302SOL    HW271933  10.380  10.542   4.741
57303SOL     OW71934  10.948  10.409   4.803
57303SOL    HW171935  10.953  10.490   4.862
57303SOL    HW271936  10.862  10.411   4.752
57304SOL     OW71937  10.225   9.399   5.126
57304SOL    HW171938  10.250   9.379   5.031
57304SOL    HW271939  10.297   9.455   5.168
57305SOL     OW71940  10.290  10.426   5.443
57305SOL    HW171941  10.191  10.432   5.453
57305SOL    HW271942  10.313  10.346   5.387
57306SOL     OW71943  10.015  10.360   4.092
57306SOL    HW171944  10.001  10.367   4.191
57306SOL    HW271945  10.099  10.309   4.074
57307SOL     OW71946   9.720  10.123   4.975
57307SOL    HW171947   9.806  10.135   5.025
57307SOL    HW271948   9.678  10.036   5.002
57308SOL     OW71949  10.584   9.696   4.986
57308SOL    HW171950  10.605   9.770   5.050
57308SOL    HW271951  10.495   9.713   4.943
57309SOL     OW71952   9.374  10.874   5.055
57309SOL    HW171953   9.328  10.956   5.021
57309SOL    HW271954   9.472  10.893   5.064
57310SOL     OW71955   9.677  10.410   4.225
57310SOL    HW171956   9.670  10.493   4.169
57310SOL    HW271957   9.681  10.330   4.165
57311SOL     OW71958   9.876   9.847   4.589
57311SOL    HW171959   9.888   9.913   4.515
57311SOL    HW271960   9.922   9.881   4.672
57312SOL     OW71961  10.562  10.658   4.112
57312SOL    HW171962  10.612  10.735   4.152
57312SOL    HW271963  10.467  10.660   4.144
57313SOL     OW71964  10.582  10.755   4.866
57313SOL    HW171965  10.629  10.768   4.953
57313SOL    HW271966  10.516  10.681   4.875
57314SOL     OW71967  10.892   9.949   4.196
57314SOL    HW171968  10.861  10.010   4.269
57314SOL    HW271969  10.942  10.001   4.127
57315SOL     OW71970   9.664  10.820   5.053
57315SOL    HW171971   9.643  10.776   4.966
57315SOL    HW271972   9.761  10.846   5.056
57316SOL     OW71973   9.712  10.061   5.322
57316SOL    HW171974   9.780  10.116   5.275
57316SOL    HW271975   9.752   9.973   5.349
57317SOL     OW71976  10.897  10.089   5.394
57317SOL    HW171977  10.805  10.127   5.389
57317SOL    HW271978  10.957  10.136   5.329
57318SOL     OW71979  10.323   9.415   5.494
57318SOL    HW171980  10.329   9.500   5.442
57318SOL    HW271981  10.355   9.339   5.437
57319SOL     OW71982   9.814   9.360   5.464
57319SOL    HW171983   9.772   9.303   5.394
57319SOL    HW271984   9.748   9.429   5.496
57320SOL     OW71985   9.883  10.180   4.753
57320SOL    HW171986   9.927  10.269   4.744
57320SOL    HW271987   9.820  10.180   4.830
57321SOL     OW71988  10.670  10.172   4.769
57321SOL    HW171989  10.595  10.172   4.703
57321SOL    HW271990  10.707  10.080   4.778
57322SOL     OW71991  10.519   9.835   3.999
57322SOL    HW171992  10.532   9.751   4.053
57322SOL    HW271993  10.490   9.909   4.059
57323SOL     OW71994   9.617   9.523   4.955
57323SOL    HW171995   9.594   9.560   5.045
57323SOL    HW271996   9.587   9.428   4.949
57324SOL     OW71997   9.347  10.620   5.006
57324SOL    HW171998   9.400  10.571   5.074
57324SOL    HW271999   9.369  10.718   5.011
57325SOL     OW72000  10.042   9.944   4.788
57325SOL    HW172001  10.101   9.918   4.712
57325SOL    HW272002  10.014  10.040   4.777
57326SOL     OW72003  11.038  10.245   5.578
57326SOL    HW172004  10.992  10.238   5.489
57326SOL    HW272005  10.976  10.289   5.644
57327SOL     OW72006   9.617   9.373   4.342
57327SOL    HW172007   9.606   9.467   4.375
57327SOL    HW272008   9.612   9.310   4.419
57328SOL     OW72009  10.932   9.677   4.098
57328SOL    HW172010  10.934   9.601   4.162
57328SOL    HW272011  10.884   9.754   4.138
57329SOL     OW72012  10.333  10.076   4.690
57329SOL    HW172013  10.348  10.097   4.786
57329SOL    HW272014  10.303   9.981   4.681
57330SOL     OW72015  10.290  10.883   5.424
57330SOL    HW172016  10.270  10.927   5.336
57330SOL    HW272017  10.329  10.792   5.408
57331SOL     OW72018  11.169  10.828   5.329
57331SOL    HW172019  11.183  10.855   5.234
57331SOL    HW272020  11.252  10.850   5.382
57332SOL     OW72021   9.660  10.208   5.528
57332SOL    HW172022   9.736  10.252   5.576
57332SOL    HW272023   9.695  10.161   5.446
57333SOL     OW72024  10.850   9.584   3.849
57333SOL    HW172025  10.789   9.509   3.872
57333SOL    HW272026  10.872   9.636   3.932
57334SOL     OW72027  10.613  10.148   3.766
57334SOL    HW172028  10.647  10.055   3.781
57334SOL    HW272029  10.631  10.175   3.671
57335SOL     OW72030  10.378  10.643   4.573
57335SOL    HW172031  10.385  10.559   4.518
57335SOL    HW272032  10.440  10.712   4.537
57336SOL     OW72033   9.629  10.120   4.673
57336SOL    HW172034   9.722  10.156   4.678
57336SOL    HW272035   9.623  10.035   4.725
57337SOL     OW72036   9.649   9.819   4.730
57337SOL    HW172037   9.597   9.736   4.713
57337SOL    HW272038   9.726   9.824   4.666
57338SOL     OW72039  10.448   9.690   5.402
57338SOL    HW172040  10.403   9.753   5.466
57338SOL    HW272041  10.541   9.721   5.385
57339SOL     OW72042  10.470   9.517   5.201
57339SOL    HW172043  10.470   9.581   5.278
57339SOL    HW272044  10.498   9.565   5.118
57340SOL     OW72045   9.318  10.636   3.924
57340SOL    HW172046   9.225  10.657   3.893
57340SOL    HW272047   9.328  10.537   3.937
57341SOL     OW72048   9.398  11.111   4.651
57341SOL    HW172049   9.356  11.025   4.624
57341SOL    HW272050   9.492  11.114   4.617
57342SOL     OW72051   9.814  10.878   4.634
57342SOL    HW172052   9.880  10.952   4.643
57342SOL    HW272053   9.858  10.799   4.592
57343SOL     OW72054  10.312  10.106   4.962
57343SOL    HW172055  10.353  10.074   5.048
57343SOL    HW272056  10.216  10.079   4.959
57344SOL     OW72057   9.350   9.854   4.838
57344SOL    HW172058   9.435   9.821   4.797
57344SOL    HW272059   9.363   9.869   4.936
57345SOL     OW72060   9.499   9.830   5.446
57345SOL    HW172061   9.558   9.790   5.376
57345SOL    HW272062   9.441   9.901   5.405
57346SOL     OW72063  10.679  10.260   5.384
57346SOL    HW172064  10.718  10.349   5.404
57346SOL    HW272065  10.689  10.240   5.287
57347SOL     OW72066  10.125   9.882   4.049
57347SOL    HW172067  10.132   9.793   4.003
57347SOL    HW272068  10.031   9.916   4.041
57348SOL     OW72069  10.967   9.914   4.930
57348SOL    HW172070  10.929   9.845   4.992
57348SOL    HW272071  11.049   9.878   4.886
57349SOL     OW72072   9.562  10.874   5.468
57349SOL    HW172073   9.532  10.931   5.544
57349SOL    HW272074   9.555  10.777   5.494
57350SOL     OW72075   9.981   9.774   4.993
57350SOL    HW172076   9.947   9.685   4.963
57350SOL    HW272077  10.007   9.828   4.913
57351SOL     OW72078  10.240  10.988   5.189
57351SOL    HW172079  10.216  10.970   5.094
57351SOL    HW272080  10.270  11.082   5.199
57352SOL     OW72081   9.783   9.810   3.915
57352SOL    HW172082   9.844   9.890   3.919
57352SOL    HW272083   9.688   9.841   3.922
57353SOL     OW72084   9.469  10.447   5.190
57353SOL    HW172085   9.491  10.386   5.266
57353SOL    HW272086   9.479  10.398   5.104
57354SOL     OW72087  10.657  10.369   4.958
57354SOL    HW172088  10.681  10.306   4.884
57354SOL    HW272089  10.567  10.409   4.940
57355SOL     OW72090  10.612  10.165   4.033
57355SOL    HW172091  10.526  10.134   4.075
57355SOL    HW272092  10.608  10.151   3.934
57356SOL     OW72093  11.069  11.057   4.878
57356SOL    HW172094  11.130  11.087   4.805
57356SOL    HW272095  11.031  10.968   4.856
57357SOL     OW72096  10.562  11.041   4.852
57357SOL    HW172097  10.646  11.046   4.798
57357SOL    HW272098  10.539  10.945   4.870
57358SOL     OW72099   9.393  10.568   4.746
57358SOL    HW172100   9.388  10.567   4.846
57358SOL    HW272101   9.310  10.527   4.708
57359SOL     OW72102   9.998  10.972   5.440
57359SOL    HW172103   9.942  11.053   5.449
57359SOL    HW272104  10.050  10.976   5.354
57360SOL     OW72105  11.036   9.445   4.247
57360SOL    HW172106  11.109   9.428   4.180
57360SOL    HW272107  11.005   9.358   4.285
57361SOL     OW72108  10.698  10.883   4.201
57361SOL    HW172109  10.765  10.895   4.127
57361SOL    HW272110  10.658  10.972   4.224
57362SOL     OW72111   9.440  11.104   5.575
57362SOL    HW172112   9.399  11.030   5.628
57362SOL    HW272113   9.504  11.155   5.633
57363SOL     OW72114  10.590  10.237   4.396
57363SOL    HW172115  10.650  10.156   4.398
57363SOL    HW272116  10.630  10.306   4.336
57364SOL     OW72117  10.140  10.583   5.146
57364SOL    HW172118  10.135  10.616   5.241
57364SOL    HW272119  10.054  10.602   5.100
57365SOL     OW72120   9.982  10.926   3.878
57365SOL    HW172121   9.991  10.936   3.779
57365SOL    HW272122   9.942  10.837   3.899
57366SOL     OW72123  10.960  11.030   5.118
57366SOL    HW172124  11.013  11.040   5.034
57366SOL    HW272125  10.933  11.120   5.152
57367SOL     OW72126  11.151   9.485   4.687
57367SOL    HW172127  11.190   9.400   4.651
57367SOL    HW272128  11.053   9.487   4.668
57368SOL     OW72129   9.573   9.636   4.444
57368SOL    HW172130   9.494   9.687   4.410
57368SOL    HW272131   9.564   9.621   4.542
57369SOL     OW72132  10.504  10.922   3.755
57369SOL    HW172133  10.510  10.829   3.792
57369SOL    HW272134  10.445  10.922   3.675
57370SOL     OW72135  10.132  10.312   5.096
57370SOL    HW172136  10.172  10.311   5.004
57370SOL    HW272137  10.142  10.404   5.136
57371SOL     OW72138  10.226  10.220   4.015
57371SOL    HW172139  10.289  10.258   3.947
57371SOL    HW272140  10.266  10.137   4.054
57372SOL     OW72141  10.814  10.917   3.768
57372SOL    HW172142  10.722  10.954   3.775
57372SOL    HW272143  10.852  10.937   3.678
57373SOL     OW72144   9.682  10.598   5.214
57373SOL    HW172145   9.669  10.691   5.180
57373SOL    HW272146   9.598  10.546   5.201
57374SOL     OW72147  10.924  10.602   5.013
57374SOL    HW172148  10.984  10.605   5.093
57374SOL    HW272149  10.849  10.666   5.026
57375SOL     OW72150  10.349  10.408   4.420
57375SOL    HW172151  10.279  10.361   4.474
57375SOL    HW272152  10.408  10.340   4.377
57376SOL     OW72153  10.324   9.546   4.695
57376SOL    HW172154  10.316   9.510   4.602
57376SOL    HW272155  10.322   9.470   4.760
57377SOL     OW72156   9.900  10.797   4.215
57377SOL    HW172157   9.942  10.739   4.145
57377SOL    HW272158   9.856  10.876   4.171
57378SOL     OW72159  11.019   9.695   5.105
57378SOL    HW172160  11.092   9.764   5.109
57378SOL    HW272161  11.047   9.620   5.046
57379SOL     OW72162   9.565  10.658   4.014
57379SOL    HW172163   9.469  10.659   3.987
57379SOL    HW272164   9.577  10.711   4.098
57380SOL     OW72165   9.415  10.323   5.450
57380SOL    HW172166   9.338  10.290   5.504
57380SOL    HW272167   9.500  10.293   5.492
57381SOL     OW72168   9.982   9.513   5.213
57381SOL    HW172169  10.072   9.497   5.173
57381SOL    HW272170   9.990   9.518   5.312
57382SOL     OW72171   9.385   9.655   3.757
57382SOL    HW172172   9.293   9.627   3.728
57382SOL    HW272173   9.416   9.732   3.701
57383SOL     OW72174  10.750  10.166   5.122
57383SOL    HW172175  10.693  10.218   5.059
57383SOL    HW272176  10.846  10.178   5.098
57384SOL     OW72177   9.382   9.476   4.042
57384SOL    HW172178   9.365   9.559   3.988
57384SOL    HW272179   9.472   9.439   4.020
57385SOL     OW72180  10.493  10.645   3.843
57385SOL    HW172181  10.394  10.634   3.845
57385SOL    HW272182  10.527  10.660   3.936
57386SOL     OW72183   9.923  10.152   5.155
57386SOL    HW172184   9.979  10.233   5.138
57386SOL    HW272185   9.982  10.072   5.158
57387SOL     OW72186  10.803  11.077   4.683
57387SOL    HW172187  10.836  11.141   4.614
57387SOL    HW272188  10.869  11.071   4.758
57388SOL     OW72189  10.026   9.875   5.432
57388SOL    HW172190  10.045   9.940   5.506
57388SOL    HW272191  10.086   9.795   5.441
57389SOL     OW72192  10.760  10.530   5.357
57389SOL    HW172193  10.751  10.520   5.456
57389SOL    HW272194  10.856  10.523   5.331
57390SOL     OW72195   9.700  11.051   5.284
57390SOL    HW172196   9.609  11.092   5.282
57390SOL    HW272197   9.693  10.957   5.316
57391SOL     OW72198  10.984  10.193   4.978
57391SOL    HW172199  10.957  10.104   4.941
57391SOL    HW272200  10.985  10.261   4.905
57392SOL     OW72201  10.535   9.635   4.173
57392SOL    HW172202  10.600   9.561   4.162
57392SOL    HW272203  10.555   9.685   4.257
57393SOL     OW72204   9.904  10.055   4.376
57393SOL    HW172205   9.954  10.140   4.357
57393SOL    HW272206   9.816  10.057   4.328
57394SOL     OW72207  11.087   9.652   5.366
57394SOL    HW172208  11.070   9.683   5.272
57394SOL    HW272209  11.003   9.615   5.404
57395SOL     OW72210  11.040  10.244   5.241
57395SOL    HW172211  11.078  10.335   5.256
57395SOL    HW272212  11.032  10.227   5.142
57396SOL     OW72213  10.169  10.684   3.740
57396SOL    HW172214  10.123  10.699   3.828
57396SOL    HW272215  10.213  10.769   3.710
57397SOL     OW72216   9.971  11.100   4.677
57397SOL    HW172217   9.925  11.188   4.664
57397SOL    HW272218  10.070  11.112   4.670
57398SOL     OW72219  10.169  10.266   4.585
57398SOL    HW172220  10.223  10.197   4.633
57398SOL    HW272221  10.137  10.335   4.651
57399SOL     OW72222  10.393  10.294   3.811
57399SOL    HW172223  10.370  10.347   3.729
57399SOL    HW272224  10.474  10.238   3.792
57400SOL     OW72225  11.171  10.879   4.575
57400SOL    HW172226  11.100  10.867   4.505
57400SOL    HW272227  11.172  10.800   4.635
57401SOL     OW72228   9.531  10.624   5.568
57401SOL    HW172229   9.466  10.551   5.547
57401SOL    HW272230   9.535  10.638   5.666
57402SOL     OW72231   9.389  10.550   4.377
57402SOL    HW172232   9.388  10.503   4.465
57402SOL    HW272233   9.471  10.522   4.326
57403SOL     OW72234   9.982  10.701   5.348
57403SOL    HW172235   9.904  10.651   5.386
57403SOL    HW272236   9.979  10.796   5.379
57404SOL     OW72237  11.134   9.502   4.951
57404SOL    HW172238  11.130   9.412   4.995
57404SOL    HW272239  11.137   9.491   4.852
57405SOL     OW72240   9.738   9.734   4.244
57405SOL    HW172241   9.768   9.662   4.182
57405SOL    HW272242   9.699   9.694   4.327
57406SOL     OW72243  11.015  10.797   4.828
57406SOL    HW172244  10.922  10.772   4.801
57406SOL    HW272245  11.041  10.747   4.910
57407SOL     OW72246   9.627   9.857   5.004
57407SOL    HW172247   9.665   9.798   5.076
57407SOL    HW272248   9.667   9.831   4.916
57408SOL     OW72249  10.122  10.896   4.411
57408SOL    HW172250  10.154  10.906   4.317
57408SOL    HW272251  10.043  10.834   4.413
57409SOL     OW72252  10.734   9.524   4.836
57409SOL    HW172253  10.786   9.459   4.891
57409SOL    HW272254  10.685   9.587   4.897
57410SOL     OW72255  10.311   9.344   4.878
57410SOL    HW172256  10.248   9.272   4.847
57410SOL    HW272257  10.404   9.308   4.878
57411SOL     OW72258  10.080  10.640   4.025
57411SOL    HW172259  10.034  10.553   4.042
57411SOL    HW272260  10.171  10.637   4.066
57412SOL     OW72261   9.928  10.877   5.008
57412SOL    HW172262   9.923  10.959   5.065
57412SOL    HW272263  10.017  10.874   4.963
57413SOL     OW72264  10.662   9.362   3.892
57413SOL    HW172265  10.697   9.321   3.808
57413SOL    HW272266  10.572   9.324   3.912
57414SOL     OW72267  10.610   9.763   4.415
57414SOL    HW172268  10.551   9.843   4.419
57414SOL    HW272269  10.625   9.728   4.508
57415SOL     OW72270  10.903   9.531   4.606
57415SOL    HW172271  10.819   9.530   4.660
57415SOL    HW272272  10.905   9.614   4.550
57416SOL     OW72273   9.349  10.387   4.024
57416SOL    HW172274   9.448  10.376   4.015
57416SOL    HW272275   9.309  10.301   4.056
57417SOL     OW72276  10.185  10.956   4.061
57417SOL    HW172277  10.108  10.921   4.007
57417SOL    HW272278  10.153  11.027   4.123
57418SOL     OW72279   9.540   9.938   5.699
57418SOL    HW172280   9.447   9.936   5.736
57418SOL    HW272281   9.541   9.899   5.607
57419SOL     OW72282   9.535   9.585   6.582
57419SOL    HW172283   9.570   9.568   6.674
57419SOL    HW272284   9.447   9.540   6.570
57420SOL     OW72285   9.329   9.678   6.233
57420SOL    HW172286   9.247   9.721   6.272
57420SOL    HW272287   9.301   9.605   6.170
57421SOL     OW72288   9.879  10.585   6.751
57421SOL    HW172289   9.786  10.578   6.714
57421SOL    HW272290   9.890  10.674   6.795
57422SOL     OW72291  10.865  10.821   6.289
57422SOL    HW172292  10.808  10.805   6.370
57422SOL    HW272293  10.806  10.831   6.209
57423SOL     OW72294  10.445  10.013   6.303
57423SOL    HW172295  10.502  10.091   6.278
57423SOL    HW272296  10.385  10.039   6.379
57424SOL     OW72297  11.065   9.917   5.817
57424SOL    HW172298  11.053   9.904   5.718
57424SOL    HW272299  11.035   9.836   5.866
57425SOL     OW72300  10.078  10.454   6.609
57425SOL    HW172301  10.000  10.471   6.669
57425SOL    HW272302  10.112  10.541   6.573
57426SOL     OW72303  10.160  10.108   7.409
57426SOL    HW172304  10.156  10.184   7.474
57426SOL    HW272305  10.182  10.144   7.318
57427SOL     OW72306   9.995  10.322   6.251
57427SOL    HW172307  10.064  10.306   6.321
57427SOL    HW272308   9.922  10.379   6.289
57428SOL     OW72309   9.996  10.471   7.389
57428SOL    HW172310  10.056  10.550   7.403
57428SOL    HW272311   9.910  10.502   7.348
57429SOL     OW72312   9.645  10.745   6.647
57429SOL    HW172313   9.567  10.714   6.594
57429SOL    HW272314   9.703  10.803   6.590
57430SOL     OW72315  10.770  10.815   6.925
57430SOL    HW172316  10.794  10.909   6.951
57430SOL    HW272317  10.754  10.761   7.007
57431SOL     OW72318   9.748   9.702   7.085
57431SOL    HW172319   9.830   9.646   7.094
57431SOL    HW272320   9.667   9.644   7.089
57432SOL     OW72321  10.913   9.757   6.323
57432SOL    HW172322  10.839   9.803   6.273
57432SOL    HW272323  10.964   9.825   6.376
57433SOL     OW72324   9.541  11.023   6.069
57433SOL    HW172325   9.575  11.100   6.123
57433SOL    HW272326   9.585  11.023   5.979
57434SOL     OW72327  10.437  10.651   7.276
57434SOL    HW172328  10.484  10.651   7.364
57434SOL    HW272329  10.389  10.564   7.265
57435SOL     OW72330   9.540  10.744   6.124
57435SOL    HW172331   9.514  10.840   6.124
57435SOL    HW272332   9.469  10.690   6.169
57436SOL     OW72333   9.550  10.401   6.472
57436SOL    HW172334   9.564  10.317   6.524
57436SOL    HW272335   9.495  10.465   6.527
57437SOL     OW72336   9.930  11.096   7.025
57437SOL    HW172337   9.838  11.079   7.060
57437SOL    HW272338   9.958  11.188   7.051
57438SOL     OW72339   9.916  10.274   5.709
57438SOL    HW172340   9.923  10.358   5.655
57438SOL    HW272341   9.962  10.287   5.797
57439SOL     OW72342  10.904   9.424   7.066
57439SOL    HW172343  10.886   9.491   6.994
57439SOL    HW272344  10.901   9.470   7.155
57440SOL     OW72345   9.432   9.953   6.149
57440SOL    HW172346   9.387   9.865   6.166
57440SOL    HW272347   9.431  10.007   6.233
57441SOL     OW72348  11.152  11.077   5.945
57441SOL    HW172349  11.206  11.048   6.025
57441SOL    HW272350  11.182  11.167   5.916
57442SOL     OW72351   9.337  10.906   5.703
57442SOL    HW172352   9.318  10.810   5.724
57442SOL    HW272353   9.304  10.964   5.778
57443SOL     OW72354  10.999  10.232   6.198
57443SOL    HW172355  11.094  10.203   6.206
57443SOL    HW272356  10.991  10.297   6.123
57444SOL     OW72357  10.951  10.418   6.018
57444SOL    HW172358  11.037  10.420   5.966
57444SOL    HW272359  10.965  10.465   6.106
57445SOL     OW72360   9.423  10.047   7.183
57445SOL    HW172361   9.511  10.034   7.228
57445SOL    HW272362   9.410  10.144   7.161
57446SOL     OW72363   9.923  10.675   6.312
57446SOL    HW172364   9.874  10.588   6.321
57446SOL    HW272365   9.900  10.718   6.225
57447SOL     OW72366  10.603  10.538   7.009
57447SOL    HW172367  10.640  10.465   6.951
57447SOL    HW272368  10.655  10.543   7.094
57448SOL     OW72369  10.119   9.314   6.088
57448SOL    HW172370  10.159   9.405   6.079
57448SOL    HW272371  10.019   9.322   6.094
57449SOL     OW72372   9.507  10.286   6.850
57449SOL    HW172373   9.596  10.241   6.836
57449SOL    HW272374   9.434  10.221   6.831
57450SOL     OW72375  10.835  10.309   5.776
57450SOL    HW172376  10.772  10.233   5.789
57450SOL    HW272377  10.883  10.327   5.862
57451SOL     OW72378  10.497  11.102   7.202
57451SOL    HW172379  10.521  11.162   7.126
57451SOL    HW272380  10.504  11.007   7.172
57452SOL     OW72381   9.627   9.561   7.387
57452SOL    HW172382   9.698   9.632   7.393
57452SOL    HW272383   9.539   9.600   7.415
57453SOL     OW72384  10.776  10.727   6.539
57453SOL    HW172385  10.717  10.733   6.619
57453SOL    HW272386  10.761  10.639   6.493
57454SOL     OW72387  10.977  11.024   6.158
57454SOL    HW172388  10.936  11.001   6.070
57454SOL    HW272389  10.959  10.950   6.223
57455SOL     OW72390   9.908  10.039   5.856
57455SOL    HW172391   9.932  10.108   5.788
57455SOL    HW272392   9.830  10.072   5.910
57456SOL     OW72393  10.591   9.655   6.530
57456SOL    HW172394  10.505   9.605   6.517
57456SOL    HW272395  10.653   9.601   6.586
57457SOL     OW72396  10.886  10.972   5.893
57457SOL    HW172397  10.975  11.018   5.896
57457SOL    HW272398  10.865  10.948   5.798
57458SOL     OW72399  10.117   9.915   7.051
57458SOL    HW172400  10.070   9.912   7.140
57458SOL    HW272401  10.066   9.860   6.985
57459SOL     OW72402  10.704   9.779   7.260
57459SOL    HW172403  10.684   9.822   7.348
57459SOL    HW272404  10.782   9.717   7.269
57460SOL     OW72405  10.283  10.200   7.158
57460SOL    HW172406  10.329  10.116   7.129
57460SOL    HW272407  10.227  10.234   7.083
57461SOL     OW72408  10.301   9.720   6.828
57461SOL    HW172409  10.224   9.754   6.882
57461SOL    HW272410  10.267   9.669   6.749
57462SOL     OW72411  10.351  10.011   6.015
57462SOL    HW172412  10.377  10.007   6.111
57462SOL    HW272413  10.266   9.960   6.001
57463SOL     OW72414   9.386  10.121   6.375
57463SOL    HW172415   9.485  10.109   6.384
57463SOL    HW272416   9.362  10.216   6.396
57464SOL     OW72417   9.440  11.131   7.157
57464SOL    HW172418   9.430  11.116   7.256
57464SOL    HW272419   9.354  11.167   7.121
57465SOL     OW72420  10.175   9.658   5.781
57465SOL    HW172421  10.234   9.721   5.732
57465SOL    HW272422  10.194   9.564   5.752
57466SOL     OW72423  11.029   9.895   7.417
57466SOL    HW172424  11.003   9.984   7.381
57466SOL    HW272425  11.027   9.827   7.344
57467SOL     OW72426  10.672  10.454   6.131
57467SOL    HW172427  10.755  10.425   6.083
57467SOL    HW272428  10.623  10.521   6.075
57468SOL     OW72429   9.860   9.506   6.471
57468SOL    HW172430   9.855   9.501   6.571
57468SOL    HW272431   9.862   9.602   6.442
57469SOL     OW72432  10.318  10.766   6.063
57469SOL    HW172433  10.272  10.838   6.011
57469SOL    HW272434  10.314  10.786   6.161
57470SOL     OW72435   9.661  11.111   6.439
57470SOL    HW172436   9.711  11.025   6.445
57470SOL    HW272437   9.726  11.188   6.436
57471SOL     OW72438  11.105  10.376   6.459
57471SOL    HW172439  11.043  10.361   6.383
57471SOL    HW272440  11.053  10.387   6.544
57472SOL     OW72441  10.537  10.860   7.092
57472SOL    HW172442  10.543  10.783   7.156
57472SOL    HW272443  10.485  10.834   7.012
57473SOL     OW72444   9.631  10.253   5.828
57473SOL    HW172445   9.713  10.292   5.786
57473SOL    HW272446   9.604  10.171   5.779
57474SOL     OW72447  10.768  10.045   6.314
57474SOL    HW172448  10.763   9.980   6.389
57474SOL    HW272449  10.848  10.104   6.327
57475SOL     OW72450   9.771  10.576   7.313
57475SOL    HW172451   9.721  10.577   7.227
57475SOL    HW272452   9.708  10.558   7.389
57476SOL     OW72453  10.421  11.086   5.823
57476SOL    HW172454  10.361  11.024   5.873
57476SOL    HW272455  10.452  11.042   5.738
57477SOL     OW72456   9.512   9.595   7.084
57477SOL    HW172457   9.432   9.655   7.071
57477SOL    HW272458   9.502   9.546   7.170
57478SOL     OW72459  10.942  10.687   5.667
57478SOL    HW172460  10.910  10.781   5.657
57478SOL    HW272461  10.866  10.624   5.655
57479SOL     OW72462   9.774  11.053   5.909
57479SOL    HW172463   9.807  11.092   5.995
57479SOL    HW272464   9.850  11.046   5.844
57480SOL     OW72465  10.710   9.417   6.012
57480SOL    HW172466  10.686   9.380   5.922
57480SOL    HW272467  10.809   9.433   6.016
57481SOL     OW72468   9.559  11.095   6.827
57481SOL    HW172469   9.616  11.030   6.877
57481SOL    HW272470   9.543  11.062   6.734
57482SOL     OW72471  10.250  11.008   6.490
57482SOL    HW172472  10.330  10.951   6.511
57482SOL    HW272473  10.201  10.968   6.413
57483SOL     OW72474   9.692  10.010   6.066
57483SOL    HW172475   9.737   9.920   6.063
57483SOL    HW272476   9.598   9.999   6.099
57484SOL     OW72477  10.857   9.532   7.315
57484SOL    HW172478  10.852   9.569   7.407
57484SOL    HW272479  10.785   9.463   7.303
57485SOL     OW72480   9.924   9.432   5.703
57485SOL    HW172481  10.022   9.410   5.710
57485SOL    HW272482   9.893   9.415   5.610
57486SOL     OW72483  10.091   9.574   7.335
57486SOL    HW172484  10.158   9.513   7.378
57486SOL    HW272485  10.018   9.593   7.400
57487SOL     OW72486  10.198  10.824   6.781
57487SOL    HW172487  10.175  10.799   6.687
57487SOL    HW272488  10.259  10.755   6.820
57488SOL     OW72489  10.661   9.900   7.019
57488SOL    HW172490  10.689   9.857   7.104
57488SOL    HW272491  10.686   9.996   7.020
57489SOL     OW72492  10.113  10.712   6.510
57489SOL    HW172493  10.203  10.726   6.468
57489SOL    HW272494  10.042  10.714   6.439
57490SOL     OW72495  10.232   9.813   6.485
57490SOL    HW172496  10.207   9.804   6.389
57490SOL    HW272497  10.280   9.731   6.516
57491SOL     OW72498   9.849   9.374   6.098
57491SOL    HW172499   9.768   9.375   6.156
57491SOL    HW272500   9.852   9.457   6.043
57492SOL     OW72501  10.744  10.498   5.627
57492SOL    HW172502  10.776  10.422   5.684
57492SOL    HW272503  10.652  10.525   5.657
57493SOL     OW72504   9.607   9.345   5.757
57493SOL    HW172505   9.656   9.429   5.736
57493SOL    HW272506   9.669   9.280   5.802
57494SOL     OW72507  10.245   9.546   6.066
57494SOL    HW172508  10.197   9.587   5.988
57494SOL    HW272509  10.344   9.544   6.047
57495SOL     OW72510  10.386   9.993   7.050
57495SOL    HW172511  10.306   9.932   7.053
57495SOL    HW272512  10.467   9.940   7.026
57496SOL     OW72513  10.537  10.880   6.379
57496SOL    HW172514  10.558  10.954   6.314
57496SOL    HW272515  10.605  10.880   6.452
57497SOL     OW72516   9.769  10.462   6.327
57497SOL    HW172517   9.698  10.435   6.392
57497SOL    HW272518   9.743  10.434   6.234
57498SOL     OW72519  10.581  11.107   6.177
57498SOL    HW172520  10.625  11.171   6.113
57498SOL    HW272521  10.531  11.159   6.247
57499SOL     OW72522  10.342   9.859   5.602
57499SOL    HW172523  10.301   9.941   5.563
57499SOL    HW272524  10.406   9.885   5.675
57500SOL     OW72525   9.388   9.866   6.972
57500SOL    HW172526   9.480   9.865   6.931
57500SOL    HW272527   9.382   9.940   7.039
57501SOL     OW72528   9.871   9.532   6.733
57501SOL    HW172529   9.909   9.448   6.770
57501SOL    HW272530   9.783   9.551   6.777
57502SOL     OW72531  10.176   9.764   6.228
57502SOL    HW172532  10.144   9.836   6.166
57502SOL    HW272533  10.200   9.683   6.175
57503SOL     OW72534  10.327   9.349   6.339
57503SOL    HW172535  10.255   9.354   6.270
57503SOL    HW272536  10.303   9.280   6.408
57504SOL     OW72537  10.739  10.483   6.453
57504SOL    HW172538  10.684  10.399   6.446
57504SOL    HW272539  10.765  10.512   6.361
57505SOL     OW72540  10.776   9.900   6.578
57505SOL    HW172541  10.746   9.805   6.585
57505SOL    HW272542  10.849   9.916   6.644
57506SOL     OW72543  11.167  10.143   5.963
57506SOL    HW172544  11.209  10.079   6.027
57506SOL    HW272545  11.129  10.092   5.885
57507SOL     OW72546   9.798  10.695   5.760
57507SOL    HW172547   9.711  10.680   5.807
57507SOL    HW272548   9.781  10.721   5.665
57508SOL     OW72549  10.974  10.590   6.243
57508SOL    HW172550  11.073  10.598   6.257
57508SOL    HW272551  10.929  10.674   6.274
57509SOL     OW72552  10.700   9.885   5.664
57509SOL    HW172553  10.646   9.864   5.745
57509SOL    HW272554  10.791   9.844   5.673
57510SOL     OW72555   9.837   9.566   5.914
57510SOL    HW172556   9.864   9.507   5.839
57510SOL    HW272557   9.837   9.661   5.883
57511SOL     OW72558  11.064  10.533   7.174
57511SOL    HW172559  11.155  10.494   7.161
57511SOL    HW272560  11.072  10.629   7.198
57512SOL     OW72561  10.374  10.657   6.926
57512SOL    HW172562  10.294  10.634   6.981
57512SOL    HW272563  10.457  10.631   6.975
57513SOL     OW72564  10.902  10.939   7.211
57513SOL    HW172565  10.929  10.973   7.121
57513SOL    HW272566  10.981  10.901   7.257
57514SOL     OW72567  10.421  10.505   6.686
57514SOL    HW172568  10.381  10.549   6.767
57514SOL    HW272569  10.380  10.542   6.603
57515SOL     OW72570  10.948  10.409   6.665
57515SOL    HW172571  10.953  10.490   6.724
57515SOL    HW272572  10.862  10.411   6.614
57516SOL     OW72573  10.225   9.399   6.988
57516SOL    HW172574  10.250   9.379   6.893
57516SOL    HW272575  10.297   9.455   7.030
57517SOL     OW72576  10.290  10.426   7.305
57517SOL    HW172577  10.191  10.432   7.315
57517SOL    HW272578  10.313  10.346   7.249
57518SOL     OW72579  10.015  10.360   5.954
57518SOL    HW172580  10.001  10.367   6.053
57518SOL    HW272581  10.099  10.309   5.936
57519SOL     OW72582   9.720  10.123   6.837
57519SOL    HW172583   9.806  10.135   6.887
57519SOL    HW272584   9.678  10.036   6.864
57520SOL     OW72585  10.584   9.696   6.848
57520SOL    HW172586  10.605   9.770   6.912
57520SOL    HW272587  10.495   9.713   6.805
57521SOL     OW72588   9.374  10.874   6.917
57521SOL    HW172589   9.328  10.956   6.883
57521SOL    HW272590   9.472  10.893   6.926
57522SOL     OW72591   9.677  10.410   6.087
57522SOL    HW172592   9.670  10.493   6.031
57522SOL    HW272593   9.681  10.330   6.027
57523SOL     OW72594   9.876   9.847   6.451
57523SOL    HW172595   9.888   9.913   6.377
57523SOL    HW272596   9.922   9.881   6.534
57524SOL     OW72597  10.562  10.658   5.974
57524SOL    HW172598  10.612  10.735   6.014
57524SOL    HW272599  10.467  10.660   6.006
57525SOL     OW72600  10.582  10.755   6.728
57525SOL    HW172601  10.629  10.768   6.815
57525SOL    HW272602  10.516  10.681   6.737
57526SOL     OW72603  10.892   9.949   6.058
57526SOL    HW172604  10.861  10.010   6.131
57526SOL    HW272605  10.942  10.001   5.989
57527SOL     OW72606   9.664  10.820   6.915
57527SOL    HW172607   9.643  10.776   6.828
57527SOL    HW272608   9.761  10.846   6.918
57528SOL     OW72609   9.712  10.061   7.184
57528SOL    HW172610   9.780  10.116   7.137
57528SOL    HW272611   9.752   9.973   7.211
57529SOL     OW72612  10.897  10.089   7.256
57529SOL    HW172613  10.805  10.127   7.251
57529SOL    HW272614  10.957  10.136   7.191
57530SOL     OW72615  10.323   9.415   7.356
57530SOL    HW172616  10.329   9.500   7.304
57530SOL    HW272617  10.355   9.339   7.299
57531SOL     OW72618   9.814   9.360   7.326
57531SOL    HW172619   9.772   9.303   7.256
57531SOL    HW272620   9.748   9.429   7.358
57532SOL     OW72621   9.883  10.180   6.615
57532SOL    HW172622   9.927  10.269   6.606
57532SOL    HW272623   9.820  10.180   6.692
57533SOL     OW72624  10.670  10.172   6.631
57533SOL    HW172625  10.595  10.172   6.565
57533SOL    HW272626  10.707  10.080   6.640
57534SOL     OW72627  10.519   9.835   5.861
57534SOL    HW172628  10.532   9.751   5.915
57534SOL    HW272629  10.490   9.909   5.921
57535SOL     OW72630   9.617   9.523   6.817
57535SOL    HW172631   9.594   9.560   6.907
57535SOL    HW272632   9.587   9.428   6.811
57536SOL     OW72633   9.347  10.620   6.868
57536SOL    HW172634   9.400  10.571   6.936
57536SOL    HW272635   9.369  10.718   6.873
57537SOL     OW72636  10.042   9.944   6.650
57537SOL    HW172637  10.101   9.918   6.574
57537SOL    HW272638  10.014  10.040   6.639
57538SOL     OW72639  11.038  10.245   7.440
57538SOL    HW172640  10.992  10.238   7.351
57538SOL    HW272641  10.976  10.289   7.506
57539SOL     OW72642   9.617   9.373   6.204
57539SOL    HW172643   9.606   9.467   6.237
57539SOL    HW272644   9.612   9.310   6.281
57540SOL     OW72645  10.932   9.677   5.960
57540SOL    HW172646  10.934   9.601   6.024
57540SOL    HW272647  10.884   9.754   6.000
57541SOL     OW72648  10.333  10.076   6.552
57541SOL    HW172649  10.348  10.097   6.648
57541SOL    HW272650  10.303   9.981   6.543
57542SOL     OW72651  10.290  10.883   7.286
57542SOL    HW172652  10.270  10.927   7.198
57542SOL    HW272653  10.329  10.792   7.270
57543SOL     OW72654  11.169  10.828   7.191
57543SOL    HW172655  11.183  10.855   7.096
57543SOL    HW272656  11.252  10.850   7.244
57544SOL     OW72657   9.660  10.208   7.390
57544SOL    HW172658   9.736  10.252   7.438
57544SOL    HW272659   9.695  10.161   7.308
57545SOL     OW72660  10.850   9.584   5.711
57545SOL    HW172661  10.789   9.509   5.734
57545SOL    HW272662  10.872   9.636   5.794
57546SOL     OW72663  10.613  10.148   5.628
57546SOL    HW172664  10.647  10.055   5.643
57546SOL    HW272665  10.631  10.175   5.533
57547SOL     OW72666  10.378  10.643   6.435
57547SOL    HW172667  10.385  10.559   6.380
57547SOL    HW272668  10.440  10.712   6.399
57548SOL     OW72669   9.629  10.120   6.535
57548SOL    HW172670   9.722  10.156   6.540
57548SOL    HW272671   9.623  10.035   6.587
57549SOL     OW72672   9.649   9.819   6.592
57549SOL    HW172673   9.597   9.736   6.575
57549SOL    HW272674   9.726   9.824   6.528
57550SOL     OW72675  10.448   9.690   7.264
57550SOL    HW172676  10.403   9.753   7.328
57550SOL    HW272677  10.541   9.721   7.247
57551SOL     OW72678  10.470   9.517   7.063
57551SOL    HW172679  10.470   9.581   7.140
57551SOL    HW272680  10.498   9.565   6.980
57552SOL     OW72681   9.318  10.636   5.786
57552SOL    HW172682   9.225  10.657   5.755
57552SOL    HW272683   9.328  10.537   5.799
57553SOL     OW72684   9.398  11.111   6.513
57553SOL    HW172685   9.356  11.025   6.486
57553SOL    HW272686   9.492  11.114   6.479
57554SOL     OW72687   9.814  10.878   6.496
57554SOL    HW172688   9.880  10.952   6.505
57554SOL    HW272689   9.858  10.799   6.454
57555SOL     OW72690  10.312  10.106   6.824
57555SOL    HW172691  10.353  10.074   6.910
57555SOL    HW272692  10.216  10.079   6.821
57556SOL     OW72693   9.350   9.854   6.700
57556SOL    HW172694   9.435   9.821   6.659
57556SOL    HW272695   9.363   9.869   6.798
57557SOL     OW72696   9.499   9.830   7.308
57557SOL    HW172697   9.558   9.790   7.238
57557SOL    HW272698   9.441   9.901   7.267
57558SOL     OW72699  10.679  10.260   7.246
57558SOL    HW172700  10.718  10.349   7.266
57558SOL    HW272701  10.689  10.240   7.149
57559SOL     OW72702  10.125   9.882   5.911
57559SOL    HW172703  10.132   9.793   5.865
57559SOL    HW272704  10.031   9.916   5.903
57560SOL     OW72705  10.967   9.914   6.792
57560SOL    HW172706  10.929   9.845   6.854
57560SOL    HW272707  11.049   9.878   6.748
57561SOL     OW72708   9.562  10.874   7.330
57561SOL    HW172709   9.532  10.931   7.406
57561SOL    HW272710   9.555  10.777   7.356
57562SOL     OW72711   9.981   9.774   6.855
57562SOL    HW172712   9.947   9.685   6.825
57562SOL    HW272713  10.007   9.828   6.775
57563SOL     OW72714  10.240  10.988   7.051
57563SOL    HW172715  10.216  10.970   6.956
57563SOL    HW272716  10.270  11.082   7.061
57564SOL     OW72717   9.783   9.810   5.777
57564SOL    HW172718   9.844   9.890   5.781
57564SOL    HW272719   9.688   9.841   5.784
57565SOL     OW72720   9.469  10.447   7.052
57565SOL    HW172721   9.491  10.386   7.128
57565SOL    HW272722   9.479  10.398   6.966
57566SOL     OW72723  10.657  10.369   6.820
57566SOL    HW172724  10.681  10.306   6.746
57566SOL    HW272725  10.567  10.409   6.802
57567SOL     OW72726  10.612  10.165   5.895
57567SOL    HW172727  10.526  10.134   5.937
57567SOL    HW272728  10.608  10.151   5.796
57568SOL     OW72729  11.069  11.057   6.740
57568SOL    HW172730  11.130  11.087   6.667
57568SOL    HW272731  11.031  10.968   6.718
57569SOL     OW72732  10.562  11.041   6.714
57569SOL    HW172733  10.646  11.046   6.660
57569SOL    HW272734  10.539  10.945   6.732
57570SOL     OW72735   9.393  10.568   6.608
57570SOL    HW172736   9.388  10.567   6.708
57570SOL    HW272737   9.310  10.527   6.570
57571SOL     OW72738   9.998  10.972   7.302
57571SOL    HW172739   9.942  11.053   7.311
57571SOL    HW272740  10.050  10.976   7.216
57572SOL     OW72741  11.036   9.445   6.109
57572SOL    HW172742  11.109   9.428   6.042
57572SOL    HW272743  11.005   9.358   6.147
57573SOL     OW72744  10.698  10.883   6.063
57573SOL    HW172745  10.765  10.895   5.989
57573SOL    HW272746  10.658  10.972   6.086
57574SOL     OW72747   9.440  11.104   7.437
57574SOL    HW172748   9.399  11.030   7.490
57574SOL    HW272749   9.504  11.155   7.495
57575SOL     OW72750  10.590  10.237   6.258
57575SOL    HW172751  10.650  10.156   6.260
57575SOL    HW272752  10.630  10.306   6.198
57576SOL     OW72753  10.140  10.583   7.008
57576SOL    HW172754  10.135  10.616   7.103
57576SOL    HW272755  10.054  10.602   6.962
57577SOL     OW72756   9.982  10.926   5.740
57577SOL    HW172757   9.991  10.936   5.641
57577SOL    HW272758   9.942  10.837   5.761
57578SOL     OW72759  10.960  11.030   6.980
57578SOL    HW172760  11.013  11.040   6.896
57578SOL    HW272761  10.933  11.120   7.014
57579SOL     OW72762  11.151   9.485   6.549
57579SOL    HW172763  11.190   9.400   6.513
57579SOL    HW272764  11.053   9.487   6.530
57580SOL     OW72765   9.573   9.636   6.306
57580SOL    HW172766   9.494   9.687   6.272
57580SOL    HW272767   9.564   9.621   6.404
57581SOL     OW72768  10.504  10.922   5.617
57581SOL    HW172769  10.510  10.829   5.654
57581SOL    HW272770  10.445  10.922   5.537
57582SOL     OW72771  10.132  10.312   6.958
57582SOL    HW172772  10.172  10.311   6.866
57582SOL    HW272773  10.142  10.404   6.998
57583SOL     OW72774  10.226  10.220   5.877
57583SOL    HW172775  10.289  10.258   5.809
57583SOL    HW272776  10.266  10.137   5.916
57584SOL     OW72777  10.814  10.917   5.630
57584SOL    HW172778  10.722  10.954   5.637
57584SOL    HW272779  10.852  10.937   5.540
57585SOL     OW72780   9.682  10.598   7.076
57585SOL    HW172781   9.669  10.691   7.042
57585SOL    HW272782   9.598  10.546   7.063
57586SOL     OW72783  10.924  10.602   6.875
57586SOL    HW172784  10.984  10.605   6.955
57586SOL    HW272785  10.849  10.666   6.888
57587SOL     OW72786  10.349  10.408   6.282
57587SOL    HW172787  10.279  10.361   6.336
57587SOL    HW272788  10.408  10.340   6.239
57588SOL     OW72789  10.324   9.546   6.557
57588SOL    HW172790  10.316   9.510   6.464
57588SOL    HW272791  10.322   9.470   6.622
57589SOL     OW72792   9.900  10.797   6.077
57589SOL    HW172793   9.942  10.739   6.007
57589SOL    HW272794   9.856  10.876   6.033
57590SOL     OW72795  11.019   9.695   6.967
57590SOL    HW172796  11.092   9.764   6.971
57590SOL    HW272797  11.047   9.620   6.908
57591SOL     OW72798   9.565  10.658   5.876
57591SOL    HW172799   9.469  10.659   5.849
57591SOL    HW272800   9.577  10.711   5.960
57592SOL     OW72801   9.415  10.323   7.312
57592SOL    HW172802   9.338  10.290   7.366
57592SOL    HW272803   9.500  10.293   7.354
57593SOL     OW72804   9.982   9.513   7.075
57593SOL    HW172805  10.072   9.497   7.035
57593SOL    HW272806   9.990   9.518   7.174
57594SOL     OW72807   9.385   9.655   5.619
57594SOL    HW172808   9.293   9.627   5.590
57594SOL    HW272809   9.416   9.732   5.563
57595SOL     OW72810  10.750  10.166   6.984
57595SOL    HW172811  10.693  10.218   6.921
57595SOL    HW272812  10.846  10.178   6.960
57596SOL     OW72813   9.382   9.476   5.904
57596SOL    HW172814   9.365   9.559   5.850
57596SOL    HW272815   9.472   9.439   5.882
57597SOL     OW72816  10.493  10.645   5.705
57597SOL    HW172817  10.394  10.634   5.707
57597SOL    HW272818  10.527  10.660   5.798
57598SOL     OW72819   9.923  10.152   7.017
57598SOL    HW172820   9.979  10.233   7.000
57598SOL    HW272821   9.982  10.072   7.020
57599SOL     OW72822  10.803  11.077   6.545
57599SOL    HW172823  10.836  11.141   6.476
57599SOL    HW272824  10.869  11.071   6.620
57600SOL     OW72825  10.026   9.875   7.294
57600SOL    HW172826  10.045   9.940   7.368
57600SOL    HW272827  10.086   9.795   7.303
57601SOL     OW72828  10.760  10.530   7.219
57601SOL    HW172829  10.751  10.520   7.318
57601SOL    HW272830  10.856  10.523   7.193
57602SOL     OW72831   9.700  11.051   7.146
57602SOL    HW172832   9.609  11.092   7.144
57602SOL    HW272833   9.693  10.957   7.178
57603SOL     OW72834  10.984  10.193   6.840
57603SOL    HW172835  10.957  10.104   6.803
57603SOL    HW272836  10.985  10.261   6.767
57604SOL     OW72837  10.535   9.635   6.035
57604SOL    HW172838  10.600   9.561   6.024
57604SOL    HW272839  10.555   9.685   6.119
57605SOL     OW72840   9.904  10.055   6.238
57605SOL    HW172841   9.954  10.140   6.219
57605SOL    HW272842   9.816  10.057   6.190
57606SOL     OW72843  11.087   9.652   7.228
57606SOL    HW172844  11.070   9.683   7.134
57606SOL    HW272845  11.003   9.615   7.266
57607SOL     OW72846  11.040  10.244   7.103
57607SOL    HW172847  11.078  10.335   7.118
57607SOL    HW272848  11.032  10.227   7.004
57608SOL     OW72849  10.169  10.684   5.602
57608SOL    HW172850  10.123  10.699   5.690
57608SOL    HW272851  10.213  10.769   5.572
57609SOL     OW72852   9.971  11.100   6.539
57609SOL    HW172853   9.925  11.188   6.526
57609SOL    HW272854  10.070  11.112   6.532
57610SOL     OW72855  10.169  10.266   6.447
57610SOL    HW172856  10.223  10.197   6.495
57610SOL    HW272857  10.137  10.335   6.513
57611SOL     OW72858  10.393  10.294   5.673
57611SOL    HW172859  10.370  10.347   5.591
57611SOL    HW272860  10.474  10.238   5.654
57612SOL     OW72861  11.171  10.879   6.437
57612SOL    HW172862  11.100  10.867   6.367
57612SOL    HW272863  11.172  10.800   6.497
57613SOL     OW72864   9.531  10.624   7.430
57613SOL    HW172865   9.466  10.551   7.409
57613SOL    HW272866   9.535  10.638   7.528
57614SOL     OW72867   9.389  10.550   6.239
57614SOL    HW172868   9.388  10.503   6.327
57614SOL    HW272869   9.471  10.522   6.188
57615SOL     OW72870   9.982  10.701   7.210
57615SOL    HW172871   9.904  10.651   7.248
57615SOL    HW272872   9.979  10.796   7.241
57616SOL     OW72873  11.134   9.502   6.813
57616SOL    HW172874  11.130   9.412   6.857
57616SOL    HW272875  11.137   9.491   6.714
57617SOL     OW72876   9.738   9.734   6.106
57617SOL    HW172877   9.768   9.662   6.044
57617SOL    HW272878   9.699   9.694   6.189
57618SOL     OW72879  11.015  10.797   6.690
57618SOL    HW172880  10.922  10.772   6.663
57618SOL    HW272881  11.041  10.747   6.772
57619SOL     OW72882   9.627   9.857   6.866
57619SOL    HW172883   9.665   9.798   6.938
57619SOL    HW272884   9.667   9.831   6.778
57620SOL     OW72885  10.122  10.896   6.273
57620SOL    HW172886  10.154  10.906   6.179
57620SOL    HW272887  10.043  10.834   6.275
57621SOL     OW72888  10.734   9.524   6.698
57621SOL    HW172889  10.786   9.459   6.753
57621SOL    HW272890  10.685   9.587   6.759
57622SOL     OW72891  10.311   9.344   6.740
57622SOL    HW172892  10.248   9.272   6.709
57622SOL    HW272893  10.404   9.308   6.740
57623SOL     OW72894  10.080  10.640   5.887
57623SOL    HW172895  10.034  10.553   5.904
57623SOL    HW272896  10.171  10.637   5.928
57624SOL     OW72897   9.928  10.877   6.870
57624SOL    HW172898   9.923  10.959   6.927
57624SOL    HW272899  10.017  10.874   6.825
57625SOL     OW72900  10.662   9.362   5.754
57625SOL    HW172901  10.697   9.321   5.670
57625SOL    HW272902  10.572   9.324   5.774
57626SOL     OW72903  10.610   9.763   6.277
57626SOL    HW172904  10.551   9.843   6.281
57626SOL    HW272905  10.625   9.728   6.370
57627SOL     OW72906  10.903   9.531   6.468
57627SOL    HW172907  10.819   9.530   6.522
57627SOL    HW272908  10.905   9.614   6.412
57628SOL     OW72909   9.349  10.387   5.886
57628SOL    HW172910   9.448  10.376   5.877
57628SOL    HW272911   9.309  10.301   5.918
57629SOL     OW72912  10.185  10.956   5.923
57629SOL    HW172913  10.108  10.921   5.869
57629SOL    HW272914  10.153  11.027   5.985
57630SOL     OW72915   9.540   9.938   7.561
57630SOL    HW172916   9.447   9.936   7.598
57630SOL    HW272917   9.541   9.899   7.469
57631SOL     OW72918   9.535   9.585   8.444
57631SOL    HW172919   9.570   9.568   8.536
57631SOL    HW272920   9.447   9.540   8.432
57632SOL     OW72921   9.329   9.678   8.095
57632SOL    HW172922   9.247   9.721   8.134
57632SOL    HW272923   9.301   9.605   8.032
57633SOL     OW72924   9.879  10.585   8.613
57633SOL    HW172925   9.786  10.578   8.576
57633SOL    HW272926   9.890  10.674   8.657
57634SOL     OW72927  10.865  10.821   8.151
57634SOL    HW172928  10.808  10.805   8.232
57634SOL    HW272929  10.806  10.831   8.071
57635SOL     OW72930  10.445  10.013   8.165
57635SOL    HW172931  10.502  10.091   8.140
57635SOL    HW272932  10.385  10.039   8.241
57636SOL     OW72933  11.065   9.917   7.679
57636SOL    HW172934  11.053   9.904   7.580
57636SOL    HW272935  11.035   9.836   7.728
57637SOL     OW72936  10.078  10.454   8.471
57637SOL    HW172937  10.000  10.471   8.531
57637SOL    HW272938  10.112  10.541   8.435
57638SOL     OW72939  10.160  10.108   9.271
57638SOL    HW172940  10.156  10.184   9.336
57638SOL    HW272941  10.182  10.144   9.180
57639SOL     OW72942   9.995  10.322   8.113
57639SOL    HW172943  10.064  10.306   8.183
57639SOL    HW272944   9.922  10.379   8.151
57640SOL     OW72945   9.996  10.471   9.251
57640SOL    HW172946  10.056  10.550   9.265
57640SOL    HW272947   9.910  10.502   9.210
57641SOL     OW72948   9.645  10.745   8.509
57641SOL    HW172949   9.567  10.714   8.456
57641SOL    HW272950   9.703  10.803   8.452
57642SOL     OW72951  10.770  10.815   8.787
57642SOL    HW172952  10.794  10.909   8.813
57642SOL    HW272953  10.754  10.761   8.869
57643SOL     OW72954   9.748   9.702   8.947
57643SOL    HW172955   9.830   9.646   8.956
57643SOL    HW272956   9.667   9.644   8.951
57644SOL     OW72957  10.913   9.757   8.185
57644SOL    HW172958  10.839   9.803   8.135
57644SOL    HW272959  10.964   9.825   8.238
57645SOL     OW72960   9.541  11.023   7.931
57645SOL    HW172961   9.575  11.100   7.985
57645SOL    HW272962   9.585  11.023   7.841
57646SOL     OW72963  10.437  10.651   9.138
57646SOL    HW172964  10.484  10.651   9.226
57646SOL    HW272965  10.389  10.564   9.127
57647SOL     OW72966   9.540  10.744   7.986
57647SOL    HW172967   9.514  10.840   7.986
57647SOL    HW272968   9.469  10.690   8.031
57648SOL     OW72969   9.550  10.401   8.334
57648SOL    HW172970   9.564  10.317   8.386
57648SOL    HW272971   9.495  10.465   8.389
57649SOL     OW72972   9.930  11.096   8.887
57649SOL    HW172973   9.838  11.079   8.922
57649SOL    HW272974   9.958  11.188   8.913
57650SOL     OW72975   9.916  10.274   7.571
57650SOL    HW172976   9.923  10.358   7.517
57650SOL    HW272977   9.962  10.287   7.659
57651SOL     OW72978  10.904   9.424   8.928
57651SOL    HW172979  10.886   9.491   8.856
57651SOL    HW272980  10.901   9.470   9.017
57652SOL     OW72981   9.432   9.953   8.011
57652SOL    HW172982   9.387   9.865   8.028
57652SOL    HW272983   9.431  10.007   8.095
57653SOL     OW72984  11.152  11.077   7.807
57653SOL    HW172985  11.206  11.048   7.887
57653SOL    HW272986  11.182  11.167   7.778
57654SOL     OW72987   9.337  10.906   7.565
57654SOL    HW172988   9.318  10.810   7.586
57654SOL    HW272989   9.304  10.964   7.640
57655SOL     OW72990  10.999  10.232   8.060
57655SOL    HW172991  11.094  10.203   8.068
57655SOL    HW272992  10.991  10.297   7.985
57656SOL     OW72993  10.951  10.418   7.880
57656SOL    HW172994  11.037  10.420   7.828
57656SOL    HW272995  10.965  10.465   7.968
57657SOL     OW72996   9.423  10.047   9.045
57657SOL    HW172997   9.511  10.034   9.090
57657SOL    HW272998   9.410  10.144   9.023
57658SOL     OW72999   9.923  10.675   8.174
57658SOL    HW173000   9.874  10.588   8.183
57658SOL    HW273001   9.900  10.718   8.087
57659SOL     OW73002  10.603  10.538   8.871
57659SOL    HW173003  10.640  10.465   8.813
57659SOL    HW273004  10.655  10.543   8.956
57660SOL     OW73005  10.119   9.314   7.950
57660SOL    HW173006  10.159   9.405   7.941
57660SOL    HW273007  10.019   9.322   7.956
57661SOL     OW73008   9.507  10.286   8.712
57661SOL    HW173009   9.596  10.241   8.698
57661SOL    HW273010   9.434  10.221   8.693
57662SOL     OW73011  10.835  10.309   7.638
57662SOL    HW173012  10.772  10.233   7.651
57662SOL    HW273013  10.883  10.327   7.724
57663SOL     OW73014  10.497  11.102   9.064
57663SOL    HW173015  10.521  11.162   8.988
57663SOL    HW273016  10.504  11.007   9.034
57664SOL     OW73017   9.627   9.561   9.249
57664SOL    HW173018   9.698   9.632   9.255
57664SOL    HW273019   9.539   9.600   9.277
57665SOL     OW73020  10.776  10.727   8.401
57665SOL    HW173021  10.717  10.733   8.481
57665SOL    HW273022  10.761  10.639   8.355
57666SOL     OW73023  10.977  11.024   8.020
57666SOL    HW173024  10.936  11.001   7.932
57666SOL    HW273025  10.959  10.950   8.085
57667SOL     OW73026   9.908  10.039   7.718
57667SOL    HW173027   9.932  10.108   7.650
57667SOL    HW273028   9.830  10.072   7.772
57668SOL     OW73029  10.591   9.655   8.392
57668SOL    HW173030  10.505   9.605   8.379
57668SOL    HW273031  10.653   9.601   8.448
57669SOL     OW73032  10.886  10.972   7.755
57669SOL    HW173033  10.975  11.018   7.758
57669SOL    HW273034  10.865  10.948   7.660
57670SOL     OW73035  10.117   9.915   8.913
57670SOL    HW173036  10.070   9.912   9.002
57670SOL    HW273037  10.066   9.860   8.847
57671SOL     OW73038  10.704   9.779   9.122
57671SOL    HW173039  10.684   9.822   9.210
57671SOL    HW273040  10.782   9.717   9.131
57672SOL     OW73041  10.283  10.200   9.020
57672SOL    HW173042  10.329  10.116   8.991
57672SOL    HW273043  10.227  10.234   8.945
57673SOL     OW73044  10.301   9.720   8.690
57673SOL    HW173045  10.224   9.754   8.744
57673SOL    HW273046  10.267   9.669   8.611
57674SOL     OW73047  10.351  10.011   7.877
57674SOL    HW173048  10.377  10.007   7.973
57674SOL    HW273049  10.266   9.960   7.863
57675SOL     OW73050   9.386  10.121   8.237
57675SOL    HW173051   9.485  10.109   8.246
57675SOL    HW273052   9.362  10.216   8.258
57676SOL     OW73053   9.440  11.131   9.019
57676SOL    HW173054   9.430  11.116   9.118
57676SOL    HW273055   9.354  11.167   8.983
57677SOL     OW73056  10.175   9.658   7.643
57677SOL    HW173057  10.234   9.721   7.594
57677SOL    HW273058  10.194   9.564   7.614
57678SOL     OW73059  11.029   9.895   9.279
57678SOL    HW173060  11.003   9.984   9.243
57678SOL    HW273061  11.027   9.827   9.206
57679SOL     OW73062  10.672  10.454   7.993
57679SOL    HW173063  10.755  10.425   7.945
57679SOL    HW273064  10.623  10.521   7.937
57680SOL     OW73065   9.860   9.506   8.333
57680SOL    HW173066   9.855   9.501   8.433
57680SOL    HW273067   9.862   9.602   8.304
57681SOL     OW73068  10.318  10.766   7.925
57681SOL    HW173069  10.272  10.838   7.873
57681SOL    HW273070  10.314  10.786   8.023
57682SOL     OW73071   9.661  11.111   8.301
57682SOL    HW173072   9.711  11.025   8.307
57682SOL    HW273073   9.726  11.188   8.298
57683SOL     OW73074  11.105  10.376   8.321
57683SOL    HW173075  11.043  10.361   8.245
57683SOL    HW273076  11.053  10.387   8.406
57684SOL     OW73077  10.537  10.860   8.954
57684SOL    HW173078  10.543  10.783   9.018
57684SOL    HW273079  10.485  10.834   8.874
57685SOL     OW73080   9.631  10.253   7.690
57685SOL    HW173081   9.713  10.292   7.648
57685SOL    HW273082   9.604  10.171   7.641
57686SOL     OW73083  10.768  10.045   8.176
57686SOL    HW173084  10.763   9.980   8.251
57686SOL    HW273085  10.848  10.104   8.189
57687SOL     OW73086   9.771  10.576   9.175
57687SOL    HW173087   9.721  10.577   9.089
57687SOL    HW273088   9.708  10.558   9.251
57688SOL     OW73089  10.421  11.086   7.685
57688SOL    HW173090  10.361  11.024   7.735
57688SOL    HW273091  10.452  11.042   7.600
57689SOL     OW73092   9.512   9.595   8.946
57689SOL    HW173093   9.432   9.655   8.933
57689SOL    HW273094   9.502   9.546   9.032
57690SOL     OW73095  10.942  10.687   7.529
57690SOL    HW173096  10.910  10.781   7.519
57690SOL    HW273097  10.866  10.624   7.517
57691SOL     OW73098   9.774  11.053   7.771
57691SOL    HW173099   9.807  11.092   7.857
57691SOL    HW273100   9.850  11.046   7.706
57692SOL     OW73101  10.710   9.417   7.874
57692SOL    HW173102  10.686   9.380   7.784
57692SOL    HW273103  10.809   9.433   7.878
57693SOL     OW73104   9.559  11.095   8.689
57693SOL    HW173105   9.616  11.030   8.739
57693SOL    HW273106   9.543  11.062   8.596
57694SOL     OW73107  10.250  11.008   8.352
57694SOL    HW173108  10.330  10.951   8.373
57694SOL    HW273109  10.201  10.968   8.275
57695SOL     OW73110   9.692  10.010   7.928
57695SOL    HW173111   9.737   9.920   7.925
57695SOL    HW273112   9.598   9.999   7.961
57696SOL     OW73113  10.857   9.532   9.177
57696SOL    HW173114  10.852   9.569   9.269
57696SOL    HW273115  10.785   9.463   9.165
57697SOL     OW73116   9.924   9.432   7.565
57697SOL    HW173117  10.022   9.410   7.572
57697SOL    HW273118   9.893   9.415   7.472
57698SOL     OW73119  10.091   9.574   9.197
57698SOL    HW173120  10.158   9.513   9.240
57698SOL    HW273121  10.018   9.593   9.262
57699SOL     OW73122  10.198  10.824   8.643
57699SOL    HW173123  10.175  10.799   8.549
57699SOL    HW273124  10.259  10.755   8.682
57700SOL     OW73125  10.661   9.900   8.881
57700SOL    HW173126  10.689   9.857   8.966
57700SOL    HW273127  10.686   9.996   8.882
57701SOL     OW73128  10.113  10.712   8.372
57701SOL    HW173129  10.203  10.726   8.330
57701SOL    HW273130  10.042  10.714   8.301
57702SOL     OW73131  10.232   9.813   8.347
57702SOL    HW173132  10.207   9.804   8.251
57702SOL    HW273133  10.280   9.731   8.378
57703SOL     OW73134   9.849   9.374   7.960
57703SOL    HW173135   9.768   9.375   8.018
57703SOL    HW273136   9.852   9.457   7.905
57704SOL     OW73137  10.744  10.498   7.489
57704SOL    HW173138  10.776  10.422   7.546
57704SOL    HW273139  10.652  10.525   7.519
57705SOL     OW73140   9.607   9.345   7.619
57705SOL    HW173141   9.656   9.429   7.598
57705SOL    HW273142   9.669   9.280   7.664
57706SOL     OW73143  10.245   9.546   7.928
57706SOL    HW173144  10.197   9.587   7.850
57706SOL    HW273145  10.344   9.544   7.909
57707SOL     OW73146  10.386   9.993   8.912
57707SOL    HW173147  10.306   9.932   8.915
57707SOL    HW273148  10.467   9.940   8.888
57708SOL     OW73149  10.537  10.880   8.241
57708SOL    HW173150  10.558  10.954   8.176
57708SOL    HW273151  10.605  10.880   8.314
57709SOL     OW73152   9.769  10.462   8.189
57709SOL    HW173153   9.698  10.435   8.254
57709SOL    HW273154   9.743  10.434   8.096
57710SOL     OW73155  10.581  11.107   8.039
57710SOL    HW173156  10.625  11.171   7.975
57710SOL    HW273157  10.531  11.159   8.109
57711SOL     OW73158  10.342   9.859   7.464
57711SOL    HW173159  10.301   9.941   7.425
57711SOL    HW273160  10.406   9.885   7.537
57712SOL     OW73161   9.388   9.866   8.834
57712SOL    HW173162   9.480   9.865   8.793
57712SOL    HW273163   9.382   9.940   8.901
57713SOL     OW73164   9.871   9.532   8.595
57713SOL    HW173165   9.909   9.448   8.632
57713SOL    HW273166   9.783   9.551   8.639
57714SOL     OW73167  10.176   9.764   8.090
57714SOL    HW173168  10.144   9.836   8.028
57714SOL    HW273169  10.200   9.683   8.037
57715SOL     OW73170  10.327   9.349   8.201
57715SOL    HW173171  10.255   9.354   8.132
57715SOL    HW273172  10.303   9.280   8.270
57716SOL     OW73173  10.739  10.483   8.315
57716SOL    HW173174  10.684  10.399   8.308
57716SOL    HW273175  10.765  10.512   8.223
57717SOL     OW73176  10.776   9.900   8.440
57717SOL    HW173177  10.746   9.805   8.447
57717SOL    HW273178  10.849   9.916   8.506
57718SOL     OW73179  11.167  10.143   7.825
57718SOL    HW173180  11.209  10.079   7.889
57718SOL    HW273181  11.129  10.092   7.747
57719SOL     OW73182   9.798  10.695   7.622
57719SOL    HW173183   9.711  10.680   7.669
57719SOL    HW273184   9.781  10.721   7.527
57720SOL     OW73185  10.974  10.590   8.105
57720SOL    HW173186  11.073  10.598   8.119
57720SOL    HW273187  10.929  10.674   8.136
57721SOL     OW73188  10.700   9.885   7.526
57721SOL    HW173189  10.646   9.864   7.607
57721SOL    HW273190  10.791   9.844   7.535
57722SOL     OW73191   9.837   9.566   7.776
57722SOL    HW173192   9.864   9.507   7.701
57722SOL    HW273193   9.837   9.661   7.745
57723SOL     OW73194  11.064  10.533   9.036
57723SOL    HW173195  11.155  10.494   9.023
57723SOL    HW273196  11.072  10.629   9.060
57724SOL     OW73197  10.374  10.657   8.788
57724SOL    HW173198  10.294  10.634   8.843
57724SOL    HW273199  10.457  10.631   8.837
57725SOL     OW73200  10.902  10.939   9.073
57725SOL    HW173201  10.929  10.973   8.983
57725SOL    HW273202  10.981  10.901   9.119
57726SOL     OW73203  10.421  10.505   8.548
57726SOL    HW173204  10.381  10.549   8.629
57726SOL    HW273205  10.380  10.542   8.465
57727SOL     OW73206  10.948  10.409   8.527
57727SOL    HW173207  10.953  10.490   8.586
57727SOL    HW273208  10.862  10.411   8.476
57728SOL     OW73209  10.225   9.399   8.850
57728SOL    HW173210  10.250   9.379   8.755
57728SOL    HW273211  10.297   9.455   8.892
57729SOL     OW73212  10.290  10.426   9.167
57729SOL    HW173213  10.191  10.432   9.177
57729SOL    HW273214  10.313  10.346   9.111
57730SOL     OW73215  10.015  10.360   7.816
57730SOL    HW173216  10.001  10.367   7.915
57730SOL    HW273217  10.099  10.309   7.798
57731SOL     OW73218   9.720  10.123   8.699
57731SOL    HW173219   9.806  10.135   8.749
57731SOL    HW273220   9.678  10.036   8.726
57732SOL     OW73221  10.584   9.696   8.710
57732SOL    HW173222  10.605   9.770   8.774
57732SOL    HW273223  10.495   9.713   8.667
57733SOL     OW73224   9.374  10.874   8.779
57733SOL    HW173225   9.328  10.956   8.745
57733SOL    HW273226   9.472  10.893   8.788
57734SOL     OW73227   9.677  10.410   7.949
57734SOL    HW173228   9.670  10.493   7.893
57734SOL    HW273229   9.681  10.330   7.889
57735SOL     OW73230   9.876   9.847   8.313
57735SOL    HW173231   9.888   9.913   8.239
57735SOL    HW273232   9.922   9.881   8.396
57736SOL     OW73233  10.562  10.658   7.836
57736SOL    HW173234  10.612  10.735   7.876
57736SOL    HW273235  10.467  10.660   7.868
57737SOL     OW73236  10.582  10.755   8.590
57737SOL    HW173237  10.629  10.768   8.677
57737SOL    HW273238  10.516  10.681   8.599
57738SOL     OW73239  10.892   9.949   7.920
57738SOL    HW173240  10.861  10.010   7.993
57738SOL    HW273241  10.942  10.001   7.851
57739SOL     OW73242   9.664  10.820   8.777
57739SOL    HW173243   9.643  10.776   8.690
57739SOL    HW273244   9.761  10.846   8.780
57740SOL     OW73245   9.712  10.061   9.046
57740SOL    HW173246   9.780  10.116   8.999
57740SOL    HW273247   9.752   9.973   9.073
57741SOL     OW73248  10.897  10.089   9.118
57741SOL    HW173249  10.805  10.127   9.113
57741SOL    HW273250  10.957  10.136   9.053
57742SOL     OW73251  10.323   9.415   9.218
57742SOL    HW173252  10.329   9.500   9.166
57742SOL    HW273253  10.355   9.339   9.161
57743SOL     OW73254   9.814   9.360   9.188
57743SOL    HW173255   9.772   9.303   9.118
57743SOL    HW273256   9.748   9.429   9.220
57744SOL     OW73257   9.883  10.180   8.477
57744SOL    HW173258   9.927  10.269   8.468
57744SOL    HW273259   9.820  10.180   8.554
57745SOL     OW73260  10.670  10.172   8.493
57745SOL    HW173261  10.595  10.172   8.427
57745SOL    HW273262  10.707  10.080   8.502
57746SOL     OW73263  10.519   9.835   7.723
57746SOL    HW173264  10.532   9.751   7.777
57746SOL    HW273265  10.490   9.909   7.783
57747SOL     OW73266   9.617   9.523   8.679
57747SOL    HW173267   9.594   9.560   8.769
57747SOL    HW273268   9.587   9.428   8.673
57748SOL     OW73269   9.347  10.620   8.730
57748SOL    HW173270   9.400  10.571   8.798
57748SOL    HW273271   9.369  10.718   8.735
57749SOL     OW73272  10.042   9.944   8.512
57749SOL    HW173273  10.101   9.918   8.436
57749SOL    HW273274  10.014  10.040   8.501
57750SOL     OW73275  11.038  10.245   9.302
57750SOL    HW173276  10.992  10.238   9.213
57750SOL    HW273277  10.976  10.289   9.368
57751SOL     OW73278   9.617   9.373   8.066
57751SOL    HW173279   9.606   9.467   8.099
57751SOL    HW273280   9.612   9.310   8.143
57752SOL     OW73281  10.932   9.677   7.822
57752SOL    HW173282  10.934   9.601   7.886
57752SOL    HW273283  10.884   9.754   7.862
57753SOL     OW73284  10.333  10.076   8.414
57753SOL    HW173285  10.348  10.097   8.510
57753SOL    HW273286  10.303   9.981   8.405
57754SOL     OW73287  10.290  10.883   9.148
57754SOL    HW173288  10.270  10.927   9.060
57754SOL    HW273289  10.329  10.792   9.132
57755SOL     OW73290  11.169  10.828   9.053
57755SOL    HW173291  11.183  10.855   8.958
57755SOL    HW273292  11.252  10.850   9.106
57756SOL     OW73293   9.660  10.208   9.252
57756SOL    HW173294   9.736  10.252   9.300
57756SOL    HW273295   9.695  10.161   9.170
57757SOL     OW73296  10.850   9.584   7.573
57757SOL    HW173297  10.789   9.509   7.596
57757SOL    HW273298  10.872   9.636   7.656
57758SOL     OW73299  10.613  10.148   7.490
57758SOL    HW173300  10.647  10.055   7.505
57758SOL    HW273301  10.631  10.175   7.395
57759SOL     OW73302  10.378  10.643   8.297
57759SOL    HW173303  10.385  10.559   8.242
57759SOL    HW273304  10.440  10.712   8.261
57760SOL     OW73305   9.629  10.120   8.397
57760SOL    HW173306   9.722  10.156   8.402
57760SOL    HW273307   9.623  10.035   8.449
57761SOL     OW73308   9.649   9.819   8.454
57761SOL    HW173309   9.597   9.736   8.437
57761SOL    HW273310   9.726   9.824   8.390
57762SOL     OW73311  10.448   9.690   9.126
57762SOL    HW173312  10.403   9.753   9.190
57762SOL    HW273313  10.541   9.721   9.109
57763SOL     OW73314  10.470   9.517   8.925
57763SOL    HW173315  10.470   9.581   9.002
57763SOL    HW273316  10.498   9.565   8.842
57764SOL     OW73317   9.318  10.636   7.648
57764SOL    HW173318   9.225  10.657   7.617
57764SOL    HW273319   9.328  10.537   7.661
57765SOL     OW73320   9.398  11.111   8.375
57765SOL    HW173321   9.356  11.025   8.348
57765SOL    HW273322   9.492  11.114   8.341
57766SOL     OW73323   9.814  10.878   8.358
57766SOL    HW173324   9.880  10.952   8.367
57766SOL    HW273325   9.858  10.799   8.316
57767SOL     OW73326  10.312  10.106   8.686
57767SOL    HW173327  10.353  10.074   8.772
57767SOL    HW273328  10.216  10.079   8.683
57768SOL     OW73329   9.350   9.854   8.562
57768SOL    HW173330   9.435   9.821   8.521
57768SOL    HW273331   9.363   9.869   8.660
57769SOL     OW73332   9.499   9.830   9.170
57769SOL    HW173333   9.558   9.790   9.100
57769SOL    HW273334   9.441   9.901   9.129
57770SOL     OW73335  10.679  10.260   9.108
57770SOL    HW173336  10.718  10.349   9.128
57770SOL    HW273337  10.689  10.240   9.011
57771SOL     OW73338  10.125   9.882   7.773
57771SOL    HW173339  10.132   9.793   7.727
57771SOL    HW273340  10.031   9.916   7.765
57772SOL     OW73341  10.967   9.914   8.654
57772SOL    HW173342  10.929   9.845   8.716
57772SOL    HW273343  11.049   9.878   8.610
57773SOL     OW73344   9.562  10.874   9.192
57773SOL    HW173345   9.532  10.931   9.268
57773SOL    HW273346   9.555  10.777   9.218
57774SOL     OW73347   9.981   9.774   8.717
57774SOL    HW173348   9.947   9.685   8.687
57774SOL    HW273349  10.007   9.828   8.637
57775SOL     OW73350  10.240  10.988   8.913
57775SOL    HW173351  10.216  10.970   8.818
57775SOL    HW273352  10.270  11.082   8.923
57776SOL     OW73353   9.783   9.810   7.639
57776SOL    HW173354   9.844   9.890   7.643
57776SOL    HW273355   9.688   9.841   7.646
57777SOL     OW73356   9.469  10.447   8.914
57777SOL    HW173357   9.491  10.386   8.990
57777SOL    HW273358   9.479  10.398   8.828
57778SOL     OW73359  10.657  10.369   8.682
57778SOL    HW173360  10.681  10.306   8.608
57778SOL    HW273361  10.567  10.409   8.664
57779SOL     OW73362  10.612  10.165   7.757
57779SOL    HW173363  10.526  10.134   7.799
57779SOL    HW273364  10.608  10.151   7.658
57780SOL     OW73365  11.069  11.057   8.602
57780SOL    HW173366  11.130  11.087   8.529
57780SOL    HW273367  11.031  10.968   8.580
57781SOL     OW73368  10.562  11.041   8.576
57781SOL    HW173369  10.646  11.046   8.522
57781SOL    HW273370  10.539  10.945   8.594
57782SOL     OW73371   9.393  10.568   8.470
57782SOL    HW173372   9.388  10.567   8.570
57782SOL    HW273373   9.310  10.527   8.432
57783SOL     OW73374   9.998  10.972   9.164
57783SOL    HW173375   9.942  11.053   9.173
57783SOL    HW273376  10.050  10.976   9.078
57784SOL     OW73377  11.036   9.445   7.971
57784SOL    HW173378  11.109   9.428   7.904
57784SOL    HW273379  11.005   9.358   8.009
57785SOL     OW73380  10.698  10.883   7.925
57785SOL    HW173381  10.765  10.895   7.851
57785SOL    HW273382  10.658  10.972   7.948
57786SOL     OW73383   9.440  11.104   9.299
57786SOL    HW173384   9.399  11.030   9.352
57786SOL    HW273385   9.504  11.155   9.357
57787SOL     OW73386  10.590  10.237   8.120
57787SOL    HW173387  10.650  10.156   8.122
57787SOL    HW273388  10.630  10.306   8.060
57788SOL     OW73389  10.140  10.583   8.870
57788SOL    HW173390  10.135  10.616   8.965
57788SOL    HW273391  10.054  10.602   8.824
57789SOL     OW73392   9.982  10.926   7.602
57789SOL    HW173393   9.991  10.936   7.503
57789SOL    HW273394   9.942  10.837   7.623
57790SOL     OW73395  10.960  11.030   8.842
57790SOL    HW173396  11.013  11.040   8.758
57790SOL    HW273397  10.933  11.120   8.876
57791SOL     OW73398  11.151   9.485   8.411
57791SOL    HW173399  11.190   9.400   8.375
57791SOL    HW273400  11.053   9.487   8.392
57792SOL     OW73401   9.573   9.636   8.168
57792SOL    HW173402   9.494   9.687   8.134
57792SOL    HW273403   9.564   9.621   8.266
57793SOL     OW73404  10.504  10.922   7.479
57793SOL    HW173405  10.510  10.829   7.516
57793SOL    HW273406  10.445  10.922   7.399
57794SOL     OW73407  10.132  10.312   8.820
57794SOL    HW173408  10.172  10.311   8.728
57794SOL    HW273409  10.142  10.404   8.860
57795SOL     OW73410  10.226  10.220   7.739
57795SOL    HW173411  10.289  10.258   7.671
57795SOL    HW273412  10.266  10.137   7.778
57796SOL     OW73413  10.814  10.917   7.492
57796SOL    HW173414  10.722  10.954   7.499
57796SOL    HW273415  10.852  10.937   7.402
57797SOL     OW73416   9.682  10.598   8.938
57797SOL    HW173417   9.669  10.691   8.904
57797SOL    HW273418   9.598  10.546   8.925
57798SOL     OW73419  10.924  10.602   8.737
57798SOL    HW173420  10.984  10.605   8.817
57798SOL    HW273421  10.849  10.666   8.750
57799SOL     OW73422  10.349  10.408   8.144
57799SOL    HW173423  10.279  10.361   8.198
57799SOL    HW273424  10.408  10.340   8.101
57800SOL     OW73425  10.324   9.546   8.419
57800SOL    HW173426  10.316   9.510   8.326
57800SOL    HW273427  10.322   9.470   8.484
57801SOL     OW73428   9.900  10.797   7.939
57801SOL    HW173429   9.942  10.739   7.869
57801SOL    HW273430   9.856  10.876   7.895
57802SOL     OW73431  11.019   9.695   8.829
57802SOL    HW173432  11.092   9.764   8.833
57802SOL    HW273433  11.047   9.620   8.770
57803SOL     OW73434   9.565  10.658   7.738
57803SOL    HW173435   9.469  10.659   7.711
57803SOL    HW273436   9.577  10.711   7.822
57804SOL     OW73437   9.415  10.323   9.174
57804SOL    HW173438   9.338  10.290   9.228
57804SOL    HW273439   9.500  10.293   9.216
57805SOL     OW73440   9.982   9.513   8.937
57805SOL    HW173441  10.072   9.497   8.897
57805SOL    HW273442   9.990   9.518   9.036
57806SOL     OW73443   9.385   9.655   7.481
57806SOL    HW173444   9.293   9.627   7.452
57806SOL    HW273445   9.416   9.732   7.425
57807SOL     OW73446  10.750  10.166   8.846
57807SOL    HW173447  10.693  10.218   8.783
57807SOL    HW273448  10.846  10.178   8.822
57808SOL     OW73449   9.382   9.476   7.766
57808SOL    HW173450   9.365   9.559   7.712
57808SOL    HW273451   9.472   9.439   7.744
57809SOL     OW73452  10.493  10.645   7.567
57809SOL    HW173453  10.394  10.634   7.569
57809SOL    HW273454  10.527  10.660   7.660
57810SOL     OW73455   9.923  10.152   8.879
57810SOL    HW173456   9.979  10.233   8.862
57810SOL    HW273457   9.982  10.072   8.882
57811SOL     OW73458  10.803  11.077   8.407
57811SOL    HW173459  10.836  11.141   8.338
57811SOL    HW273460  10.869  11.071   8.482
57812SOL     OW73461  10.026   9.875   9.156
57812SOL    HW173462  10.045   9.940   9.230
57812SOL    HW273463  10.086   9.795   9.165
57813SOL     OW73464  10.760  10.530   9.081
57813SOL    HW173465  10.751  10.520   9.180
57813SOL    HW273466  10.856  10.523   9.055
57814SOL     OW73467   9.700  11.051   9.008
57814SOL    HW173468   9.609  11.092   9.006
57814SOL    HW273469   9.693  10.957   9.040
57815SOL     OW73470  10.984  10.193   8.702
57815SOL    HW173471  10.957  10.104   8.665
57815SOL    HW273472  10.985  10.261   8.629
57816SOL     OW73473  10.535   9.635   7.897
57816SOL    HW173474  10.600   9.561   7.886
57816SOL    HW273475  10.555   9.685   7.981
57817SOL     OW73476   9.904  10.055   8.100
57817SOL    HW173477   9.954  10.140   8.081
57817SOL    HW273478   9.816  10.057   8.052
57818SOL     OW73479  11.087   9.652   9.090
57818SOL    HW173480  11.070   9.683   8.996
57818SOL    HW273481  11.003   9.615   9.128
57819SOL     OW73482  11.040  10.244   8.965
57819SOL    HW173483  11.078  10.335   8.980
57819SOL    HW273484  11.032  10.227   8.866
57820SOL     OW73485  10.169  10.684   7.464
57820SOL    HW173486  10.123  10.699   7.552
57820SOL    HW273487  10.213  10.769   7.434
57821SOL     OW73488   9.971  11.100   8.401
57821SOL    HW173489   9.925  11.188   8.388
57821SOL    HW273490  10.070  11.112   8.394
57822SOL     OW73491  10.169  10.266   8.309
57822SOL    HW173492  10.223  10.197   8.357
57822SOL    HW273493  10.137  10.335   8.375
57823SOL     OW73494  10.393  10.294   7.535
57823SOL    HW173495  10.370  10.347   7.453
57823SOL    HW273496  10.474  10.238   7.516
57824SOL     OW73497  11.171  10.879   8.299
57824SOL    HW173498  11.100  10.867   8.229
57824SOL    HW273499  11.172  10.800   8.359
57825SOL     OW73500   9.531  10.624   9.292
57825SOL    HW173501   9.466  10.551   9.271
57825SOL    HW273502   9.535  10.638   9.390
57826SOL     OW73503   9.389  10.550   8.101
57826SOL    HW173504   9.388  10.503   8.189
57826SOL    HW273505   9.471  10.522   8.050
57827SOL     OW73506   9.982  10.701   9.072
57827SOL    HW173507   9.904  10.651   9.110
57827SOL    HW273508   9.979  10.796   9.103
57828SOL     OW73509  11.134   9.502   8.675
57828SOL    HW173510  11.130   9.412   8.719
57828SOL    HW273511  11.137   9.491   8.576
57829SOL     OW73512   9.738   9.734   7.968
57829SOL    HW173513   9.768   9.662   7.906
57829SOL    HW273514   9.699   9.694   8.051
57830SOL     OW73515  11.015  10.797   8.552
57830SOL    HW173516  10.922  10.772   8.525
57830SOL    HW273517  11.041  10.747   8.634
57831SOL     OW73518   9.627   9.857   8.728
57831SOL    HW173519   9.665   9.798   8.800
57831SOL    HW273520   9.667   9.831   8.640
57832SOL     OW73521  10.122  10.896   8.135
57832SOL    HW173522  10.154  10.906   8.041
57832SOL    HW273523  10.043  10.834   8.137
57833SOL     OW73524  10.734   9.524   8.560
57833SOL    HW173525  10.786   9.459   8.615
57833SOL    HW273526  10.685   9.587   8.621
57834SOL     OW73527  10.311   9.344   8.602
57834SOL    HW173528  10.248   9.272   8.571
57834SOL    HW273529  10.404   9.308   8.602
57835SOL     OW73530  10.080  10.640   7.749
57835SOL    HW173531  10.034  10.553   7.766
57835SOL    HW273532  10.171  10.637   7.790
57836SOL     OW73533   9.928  10.877   8.732
57836SOL    HW173534   9.923  10.959   8.789
57836SOL    HW273535  10.017  10.874   8.687
57837SOL     OW73536  10.662   9.362   7.616
57837SOL    HW173537  10.697   9.321   7.532
57837SOL    HW273538  10.572   9.324   7.636
57838SOL     OW73539  10.610   9.763   8.139
57838SOL    HW173540  10.551   9.843   8.143
57838SOL    HW273541  10.625   9.728   8.232
57839SOL     OW73542  10.903   9.531   8.330
57839SOL    HW173543  10.819   9.530   8.384
57839SOL    HW273544  10.905   9.614   8.274
57840SOL     OW73545   9.349  10.387   7.748
57840SOL    HW173546   9.448  10.376   7.739
57840SOL    HW273547   9.309  10.301   7.780
57841SOL     OW73548  10.185  10.956   7.785
57841SOL    HW173549  10.108  10.921   7.731
57841SOL    HW273550  10.153  11.027   7.847
57842SOL     OW73551   9.540   9.938   9.423
57842SOL    HW173552   9.447   9.936   9.460
57842SOL    HW273553   9.541   9.899   9.331
57843SOL     OW73554   9.535   9.585  10.306
57843SOL    HW173555   9.570   9.568  10.398
57843SOL    HW273556   9.447   9.540  10.294
57844SOL     OW73557   9.329   9.678   9.957
57844SOL    HW173558   9.247   9.721   9.996
57844SOL    HW273559   9.301   9.605   9.894
57845SOL     OW73560   9.879  10.585  10.475
57845SOL    HW173561   9.786  10.578  10.438
57845SOL    HW273562   9.890  10.674  10.519
57846SOL     OW73563  10.865  10.821  10.013
57846SOL    HW173564  10.808  10.805  10.094
57846SOL    HW273565  10.806  10.831   9.933
57847SOL     OW73566  10.445  10.013  10.027
57847SOL    HW173567  10.502  10.091  10.002
57847SOL    HW273568  10.385  10.039  10.103
57848SOL     OW73569  11.065   9.917   9.541
57848SOL    HW173570  11.053   9.904   9.442
57848SOL    HW273571  11.035   9.836   9.590
57849SOL     OW73572  10.078  10.454  10.333
57849SOL    HW173573  10.000  10.471  10.393
57849SOL    HW273574  10.112  10.541  10.297
57850SOL     OW73575  10.160  10.108  11.133
57850SOL    HW173576  10.156  10.184  11.198
57850SOL    HW273577  10.182  10.144  11.042
57851SOL     OW73578   9.995  10.322   9.975
57851SOL    HW173579  10.064  10.306  10.045
57851SOL    HW273580   9.922  10.379  10.013
57852SOL     OW73581   9.996  10.471  11.113
57852SOL    HW173582  10.056  10.550  11.127
57852SOL    HW273583   9.910  10.502  11.072
57853SOL     OW73584   9.645  10.745  10.371
57853SOL    HW173585   9.567  10.714  10.318
57853SOL    HW273586   9.703  10.803  10.314
57854SOL     OW73587  10.770  10.815  10.649
57854SOL    HW173588  10.794  10.909  10.675
57854SOL    HW273589  10.754  10.761  10.731
57855SOL     OW73590   9.748   9.702  10.809
57855SOL    HW173591   9.830   9.646  10.818
57855SOL    HW273592   9.667   9.644  10.813
57856SOL     OW73593  10.913   9.757  10.047
57856SOL    HW173594  10.839   9.803   9.997
57856SOL    HW273595  10.964   9.825  10.100
57857SOL     OW73596   9.541  11.023   9.793
57857SOL    HW173597   9.575  11.100   9.847
57857SOL    HW273598   9.585  11.023   9.703
57858SOL     OW73599  10.437  10.651  11.000
57858SOL    HW173600  10.484  10.651  11.088
57858SOL    HW273601  10.389  10.564  10.989
57859SOL     OW73602   9.540  10.744   9.848
57859SOL    HW173603   9.514  10.840   9.848
57859SOL    HW273604   9.469  10.690   9.893
57860SOL     OW73605   9.550  10.401  10.196
57860SOL    HW173606   9.564  10.317  10.248
57860SOL    HW273607   9.495  10.465  10.251
57861SOL     OW73608   9.930  11.096  10.749
57861SOL    HW173609   9.838  11.079  10.784
57861SOL    HW273610   9.958  11.188  10.775
57862SOL     OW73611   9.916  10.274   9.433
57862SOL    HW173612   9.923  10.358   9.379
57862SOL    HW273613   9.962  10.287   9.521
57863SOL     OW73614  10.904   9.424  10.790
57863SOL    HW173615  10.886   9.491  10.718
57863SOL    HW273616  10.901   9.470  10.879
57864SOL     OW73617   9.432   9.953   9.873
57864SOL    HW173618   9.387   9.865   9.890
57864SOL    HW273619   9.431  10.007   9.957
57865SOL     OW73620  11.152  11.077   9.669
57865SOL    HW173621  11.206  11.048   9.749
57865SOL    HW273622  11.182  11.167   9.640
57866SOL     OW73623   9.337  10.906   9.427
57866SOL    HW173624   9.318  10.810   9.448
57866SOL    HW273625   9.304  10.964   9.502
57867SOL     OW73626  10.999  10.232   9.922
57867SOL    HW173627  11.094  10.203   9.930
57867SOL    HW273628  10.991  10.297   9.847
57868SOL     OW73629  10.951  10.418   9.742
57868SOL    HW173630  11.037  10.420   9.690
57868SOL    HW273631  10.965  10.465   9.830
57869SOL     OW73632   9.423  10.047  10.907
57869SOL    HW173633   9.511  10.034  10.952
57869SOL    HW273634   9.410  10.144  10.885
57870SOL     OW73635   9.923  10.675  10.036
57870SOL    HW173636   9.874  10.588  10.045
57870SOL    HW273637   9.900  10.718   9.949
57871SOL     OW73638  10.603  10.538  10.733
57871SOL    HW173639  10.640  10.465  10.675
57871SOL    HW273640  10.655  10.543  10.818
57872SOL     OW73641  10.119   9.314   9.812
57872SOL    HW173642  10.159   9.405   9.803
57872SOL    HW273643  10.019   9.322   9.818
57873SOL     OW73644   9.507  10.286  10.574
57873SOL    HW173645   9.596  10.241  10.560
57873SOL    HW273646   9.434  10.221  10.555
57874SOL     OW73647  10.835  10.309   9.500
57874SOL    HW173648  10.772  10.233   9.513
57874SOL    HW273649  10.883  10.327   9.586
57875SOL     OW73650  10.497  11.102  10.926
57875SOL    HW173651  10.521  11.162  10.850
57875SOL    HW273652  10.504  11.007  10.896
57876SOL     OW73653   9.627   9.561  11.111
57876SOL    HW173654   9.698   9.632  11.117
57876SOL    HW273655   9.539   9.600  11.139
57877SOL     OW73656  10.776  10.727  10.263
57877SOL    HW173657  10.717  10.733  10.343
57877SOL    HW273658  10.761  10.639  10.217
57878SOL     OW73659  10.977  11.024   9.882
57878SOL    HW173660  10.936  11.001   9.794
57878SOL    HW273661  10.959  10.950   9.947
57879SOL     OW73662   9.908  10.039   9.580
57879SOL    HW173663   9.932  10.108   9.512
57879SOL    HW273664   9.830  10.072   9.634
57880SOL     OW73665  10.591   9.655  10.254
57880SOL    HW173666  10.505   9.605  10.241
57880SOL    HW273667  10.653   9.601  10.310
57881SOL     OW73668  10.886  10.972   9.617
57881SOL    HW173669  10.975  11.018   9.620
57881SOL    HW273670  10.865  10.948   9.522
57882SOL     OW73671  10.117   9.915  10.775
57882SOL    HW173672  10.070   9.912  10.864
57882SOL    HW273673  10.066   9.860  10.709
57883SOL     OW73674  10.704   9.779  10.984
57883SOL    HW173675  10.684   9.822  11.072
57883SOL    HW273676  10.782   9.717  10.993
57884SOL     OW73677  10.283  10.200  10.882
57884SOL    HW173678  10.329  10.116  10.853
57884SOL    HW273679  10.227  10.234  10.807
57885SOL     OW73680  10.301   9.720  10.552
57885SOL    HW173681  10.224   9.754  10.606
57885SOL    HW273682  10.267   9.669  10.473
57886SOL     OW73683  10.351  10.011   9.739
57886SOL    HW173684  10.377  10.007   9.835
57886SOL    HW273685  10.266   9.960   9.725
57887SOL     OW73686   9.386  10.121  10.099
57887SOL    HW173687   9.485  10.109  10.108
57887SOL    HW273688   9.362  10.216  10.120
57888SOL     OW73689   9.440  11.131  10.881
57888SOL    HW173690   9.430  11.116  10.980
57888SOL    HW273691   9.354  11.167  10.845
57889SOL     OW73692  10.175   9.658   9.505
57889SOL    HW173693  10.234   9.721   9.456
57889SOL    HW273694  10.194   9.564   9.476
57890SOL     OW73695  11.029   9.895  11.141
57890SOL    HW173696  11.003   9.984  11.105
57890SOL    HW273697  11.027   9.827  11.068
57891SOL     OW73698  10.672  10.454   9.855
57891SOL    HW173699  10.755  10.425   9.807
57891SOL    HW273700  10.623  10.521   9.799
57892SOL     OW73701   9.860   9.506  10.195
57892SOL    HW173702   9.855   9.501  10.295
57892SOL    HW273703   9.862   9.602  10.166
57893SOL     OW73704  10.318  10.766   9.787
57893SOL    HW173705  10.272  10.838   9.735
57893SOL    HW273706  10.314  10.786   9.885
57894SOL     OW73707   9.661  11.111  10.163
57894SOL    HW173708   9.711  11.025  10.169
57894SOL    HW273709   9.726  11.188  10.160
57895SOL     OW73710  11.105  10.376  10.183
57895SOL    HW173711  11.043  10.361  10.107
57895SOL    HW273712  11.053  10.387  10.268
57896SOL     OW73713  10.537  10.860  10.816
57896SOL    HW173714  10.543  10.783  10.880
57896SOL    HW273715  10.485  10.834  10.736
57897SOL     OW73716   9.631  10.253   9.552
57897SOL    HW173717   9.713  10.292   9.510
57897SOL    HW273718   9.604  10.171   9.503
57898SOL     OW73719  10.768  10.045  10.038
57898SOL    HW173720  10.763   9.980  10.113
57898SOL    HW273721  10.848  10.104  10.051
57899SOL     OW73722   9.771  10.576  11.037
57899SOL    HW173723   9.721  10.577  10.951
57899SOL    HW273724   9.708  10.558  11.113
57900SOL     OW73725  10.421  11.086   9.547
57900SOL    HW173726  10.361  11.024   9.597
57900SOL    HW273727  10.452  11.042   9.462
57901SOL     OW73728   9.512   9.595  10.808
57901SOL    HW173729   9.432   9.655  10.795
57901SOL    HW273730   9.502   9.546  10.894
57902SOL     OW73731  10.942  10.687   9.391
57902SOL    HW173732  10.910  10.781   9.381
57902SOL    HW273733  10.866  10.624   9.379
57903SOL     OW73734   9.774  11.053   9.633
57903SOL    HW173735   9.807  11.092   9.719
57903SOL    HW273736   9.850  11.046   9.568
57904SOL     OW73737  10.710   9.417   9.736
57904SOL    HW173738  10.686   9.380   9.646
57904SOL    HW273739  10.809   9.433   9.740
57905SOL     OW73740   9.559  11.095  10.551
57905SOL    HW173741   9.616  11.030  10.601
57905SOL    HW273742   9.543  11.062  10.458
57906SOL     OW73743  10.250  11.008  10.214
57906SOL    HW173744  10.330  10.951  10.235
57906SOL    HW273745  10.201  10.968  10.137
57907SOL     OW73746   9.692  10.010   9.790
57907SOL    HW173747   9.737   9.920   9.787
57907SOL    HW273748   9.598   9.999   9.823
57908SOL     OW73749  10.857   9.532  11.039
57908SOL    HW173750  10.852   9.569  11.131
57908SOL    HW273751  10.785   9.463  11.027
57909SOL     OW73752   9.924   9.432   9.427
57909SOL    HW173753  10.022   9.410   9.434
57909SOL    HW273754   9.893   9.415   9.334
57910SOL     OW73755  10.091   9.574  11.059
57910SOL    HW173756  10.158   9.513  11.102
57910SOL    HW273757  10.018   9.593  11.124
57911SOL     OW73758  10.198  10.824  10.505
57911SOL    HW173759  10.175  10.799  10.411
57911SOL    HW273760  10.259  10.755  10.544
57912SOL     OW73761  10.661   9.900  10.743
57912SOL    HW173762  10.689   9.857  10.828
57912SOL    HW273763  10.686   9.996  10.744
57913SOL     OW73764  10.113  10.712  10.234
57913SOL    HW173765  10.203  10.726  10.192
57913SOL    HW273766  10.042  10.714  10.163
57914SOL     OW73767  10.232   9.813  10.209
57914SOL    HW173768  10.207   9.804  10.113
57914SOL    HW273769  10.280   9.731  10.240
57915SOL     OW73770   9.849   9.374   9.822
57915SOL    HW173771   9.768   9.375   9.880
57915SOL    HW273772   9.852   9.457   9.767
57916SOL     OW73773  10.744  10.498   9.351
57916SOL    HW173774  10.776  10.422   9.408
57916SOL    HW273775  10.652  10.525   9.381
57917SOL     OW73776   9.607   9.345   9.481
57917SOL    HW173777   9.656   9.429   9.460
57917SOL    HW273778   9.669   9.280   9.526
57918SOL     OW73779  10.245   9.546   9.790
57918SOL    HW173780  10.197   9.587   9.712
57918SOL    HW273781  10.344   9.544   9.771
57919SOL     OW73782  10.386   9.993  10.774
57919SOL    HW173783  10.306   9.932  10.777
57919SOL    HW273784  10.467   9.940  10.750
57920SOL     OW73785  10.537  10.880  10.103
57920SOL    HW173786  10.558  10.954  10.038
57920SOL    HW273787  10.605  10.880  10.176
57921SOL     OW73788   9.769  10.462  10.051
57921SOL    HW173789   9.698  10.435  10.116
57921SOL    HW273790   9.743  10.434   9.958
57922SOL     OW73791  10.581  11.107   9.901
57922SOL    HW173792  10.625  11.171   9.837
57922SOL    HW273793  10.531  11.159   9.971
57923SOL     OW73794  10.342   9.859   9.326
57923SOL    HW173795  10.301   9.941   9.287
57923SOL    HW273796  10.406   9.885   9.399
57924SOL     OW73797   9.388   9.866  10.696
57924SOL    HW173798   9.480   9.865  10.655
57924SOL    HW273799   9.382   9.940  10.763
57925SOL     OW73800   9.871   9.532  10.457
57925SOL    HW173801   9.909   9.448  10.494
57925SOL    HW273802   9.783   9.551  10.501
57926SOL     OW73803  10.176   9.764   9.952
57926SOL    HW173804  10.144   9.836   9.890
57926SOL    HW273805  10.200   9.683   9.899
57927SOL     OW73806  10.327   9.349  10.063
57927SOL    HW173807  10.255   9.354   9.994
57927SOL    HW273808  10.303   9.280  10.132
57928SOL     OW73809  10.739  10.483  10.177
57928SOL    HW173810  10.684  10.399  10.170
57928SOL    HW273811  10.765  10.512  10.085
57929SOL     OW73812  10.776   9.900  10.302
57929SOL    HW173813  10.746   9.805  10.309
57929SOL    HW273814  10.849   9.916  10.368
57930SOL     OW73815  11.167  10.143   9.687
57930SOL    HW173816  11.209  10.079   9.751
57930SOL    HW273817  11.129  10.092   9.609
57931SOL     OW73818   9.798  10.695   9.484
57931SOL    HW173819   9.711  10.680   9.531
57931SOL    HW273820   9.781  10.721   9.389
57932SOL     OW73821  10.974  10.590   9.967
57932SOL    HW173822  11.073  10.598   9.981
57932SOL    HW273823  10.929  10.674   9.998
57933SOL     OW73824  10.700   9.885   9.388
57933SOL    HW173825  10.646   9.864   9.469
57933SOL    HW273826  10.791   9.844   9.397
57934SOL     OW73827   9.837   9.566   9.638
57934SOL    HW173828   9.864   9.507   9.563
57934SOL    HW273829   9.837   9.661   9.607
57935SOL     OW73830  11.064  10.533  10.898
57935SOL    HW173831  11.155  10.494  10.885
57935SOL    HW273832  11.072  10.629  10.922
57936SOL     OW73833  10.374  10.657  10.650
57936SOL    HW173834  10.294  10.634  10.705
57936SOL    HW273835  10.457  10.631  10.699
57937SOL     OW73836  10.902  10.939  10.935
57937SOL    HW173837  10.929  10.973  10.845
57937SOL    HW273838  10.981  10.901  10.981
57938SOL     OW73839  10.421  10.505  10.410
57938SOL    HW173840  10.381  10.549  10.491
57938SOL    HW273841  10.380  10.542  10.327
57939SOL     OW73842  10.948  10.409  10.389
57939SOL    HW173843  10.953  10.490  10.448
57939SOL    HW273844  10.862  10.411  10.338
57940SOL     OW73845  10.225   9.399  10.712
57940SOL    HW173846  10.250   9.379  10.617
57940SOL    HW273847  10.297   9.455  10.754
57941SOL     OW73848  10.290  10.426  11.029
57941SOL    HW173849  10.191  10.432  11.039
57941SOL    HW273850  10.313  10.346  10.973
57942SOL     OW73851  10.015  10.360   9.678
57942SOL    HW173852  10.001  10.367   9.777
57942SOL    HW273853  10.099  10.309   9.660
57943SOL     OW73854   9.720  10.123  10.561
57943SOL    HW173855   9.806  10.135  10.611
57943SOL    HW273856   9.678  10.036  10.588
57944SOL     OW73857  10.584   9.696  10.572
57944SOL    HW173858  10.605   9.770  10.636
57944SOL    HW273859  10.495   9.713  10.529
57945SOL     OW73860   9.374  10.874  10.641
57945SOL    HW173861   9.328  10.956  10.607
57945SOL    HW273862   9.472  10.893  10.650
57946SOL     OW73863   9.677  10.410   9.811
57946SOL    HW173864   9.670  10.493   9.755
57946SOL    HW273865   9.681  10.330   9.751
57947SOL     OW73866   9.876   9.847  10.175
57947SOL    HW173867   9.888   9.913  10.101
57947SOL    HW273868   9.922   9.881  10.258
57948SOL     OW73869  10.562  10.658   9.698
57948SOL    HW173870  10.612  10.735   9.738
57948SOL    HW273871  10.467  10.660   9.730
57949SOL     OW73872  10.582  10.755  10.452
57949SOL    HW173873  10.629  10.768  10.539
57949SOL    HW273874  10.516  10.681  10.461
57950SOL     OW73875  10.892   9.949   9.782
57950SOL    HW173876  10.861  10.010   9.855
57950SOL    HW273877  10.942  10.001   9.713
57951SOL     OW73878   9.664  10.820  10.639
57951SOL    HW173879   9.643  10.776  10.552
57951SOL    HW273880   9.761  10.846  10.642
57952SOL     OW73881   9.712  10.061  10.908
57952SOL    HW173882   9.780  10.116  10.861
57952SOL    HW273883   9.752   9.973  10.935
57953SOL     OW73884  10.897  10.089  10.980
57953SOL    HW173885  10.805  10.127  10.975
57953SOL    HW273886  10.957  10.136  10.915
57954SOL     OW73887  10.323   9.415  11.080
57954SOL    HW173888  10.329   9.500  11.028
57954SOL    HW273889  10.355   9.339  11.023
57955SOL     OW73890   9.814   9.360  11.050
57955SOL    HW173891   9.772   9.303  10.980
57955SOL    HW273892   9.748   9.429  11.082
57956SOL     OW73893   9.883  10.180  10.339
57956SOL    HW173894   9.927  10.269  10.330
57956SOL    HW273895   9.820  10.180  10.416
57957SOL     OW73896  10.670  10.172  10.355
57957SOL    HW173897  10.595  10.172  10.289
57957SOL    HW273898  10.707  10.080  10.364
57958SOL     OW73899  10.519   9.835   9.585
57958SOL    HW173900  10.532   9.751   9.639
57958SOL    HW273901  10.490   9.909   9.645
57959SOL     OW73902   9.617   9.523  10.541
57959SOL    HW173903   9.594   9.560  10.631
57959SOL    HW273904   9.587   9.428  10.535
57960SOL     OW73905   9.347  10.620  10.592
57960SOL    HW173906   9.400  10.571  10.660
57960SOL    HW273907   9.369  10.718  10.597
57961SOL     OW73908  10.042   9.944  10.374
57961SOL    HW173909  10.101   9.918  10.298
57961SOL    HW273910  10.014  10.040  10.363
57962SOL     OW73911  11.038  10.245  11.164
57962SOL    HW173912  10.992  10.238  11.075
57962SOL    HW273913  10.976  10.289  11.230
57963SOL     OW73914   9.617   9.373   9.928
57963SOL    HW173915   9.606   9.467   9.961
57963SOL    HW273916   9.612   9.310  10.005
57964SOL     OW73917  10.932   9.677   9.684
57964SOL    HW173918  10.934   9.601   9.748
57964SOL    HW273919  10.884   9.754   9.724
57965SOL     OW73920  10.333  10.076  10.276
57965SOL    HW173921  10.348  10.097  10.372
57965SOL    HW273922  10.303   9.981  10.267
57966SOL     OW73923  10.290  10.883  11.010
57966SOL    HW173924  10.270  10.927  10.922
57966SOL    HW273925  10.329  10.792  10.994
57967SOL     OW73926  11.169  10.828  10.915
57967SOL    HW173927  11.183  10.855  10.820
57967SOL    HW273928  11.252  10.850  10.968
57968SOL     OW73929   9.660  10.208  11.114
57968SOL    HW173930   9.736  10.252  11.162
57968SOL    HW273931   9.695  10.161  11.032
57969SOL     OW73932  10.850   9.584   9.435
57969SOL    HW173933  10.789   9.509   9.458
57969SOL    HW273934  10.872   9.636   9.518
57970SOL     OW73935  10.613  10.148   9.352
57970SOL    HW173936  10.647  10.055   9.367
57970SOL    HW273937  10.631  10.175   9.257
57971SOL     OW73938  10.378  10.643  10.159
57971SOL    HW173939  10.385  10.559  10.104
57971SOL    HW273940  10.440  10.712  10.123
57972SOL     OW73941   9.629  10.120  10.259
57972SOL    HW173942   9.722  10.156  10.264
57972SOL    HW273943   9.623  10.035  10.311
57973SOL     OW73944   9.649   9.819  10.316
57973SOL    HW173945   9.597   9.736  10.299
57973SOL    HW273946   9.726   9.824  10.252
57974SOL     OW73947  10.448   9.690  10.988
57974SOL    HW173948  10.403   9.753  11.052
57974SOL    HW273949  10.541   9.721  10.971
57975SOL     OW73950  10.470   9.517  10.787
57975SOL    HW173951  10.470   9.581  10.864
57975SOL    HW273952  10.498   9.565  10.704
57976SOL     OW73953   9.318  10.636   9.510
57976SOL    HW173954   9.225  10.657   9.479
57976SOL    HW273955   9.328  10.537   9.523
57977SOL     OW73956   9.398  11.111  10.237
57977SOL    HW173957   9.356  11.025  10.210
57977SOL    HW273958   9.492  11.114  10.203
57978SOL     OW73959   9.814  10.878  10.220
57978SOL    HW173960   9.880  10.952  10.229
57978SOL    HW273961   9.858  10.799  10.178
57979SOL     OW73962  10.312  10.106  10.548
57979SOL    HW173963  10.353  10.074  10.634
57979SOL    HW273964  10.216  10.079  10.545
57980SOL     OW73965   9.350   9.854  10.424
57980SOL    HW173966   9.435   9.821  10.383
57980SOL    HW273967   9.363   9.869  10.522
57981SOL     OW73968   9.499   9.830  11.032
57981SOL    HW173969   9.558   9.790  10.962
57981SOL    HW273970   9.441   9.901  10.991
57982SOL     OW73971  10.679  10.260  10.970
57982SOL    HW173972  10.718  10.349  10.990
57982SOL    HW273973  10.689  10.240  10.873
57983SOL     OW73974  10.125   9.882   9.635
57983SOL    HW173975  10.132   9.793   9.589
57983SOL    HW273976  10.031   9.916   9.627
57984SOL     OW73977  10.967   9.914  10.516
57984SOL    HW173978  10.929   9.845  10.578
57984SOL    HW273979  11.049   9.878  10.472
57985SOL     OW73980   9.562  10.874  11.054
57985SOL    HW173981   9.532  10.931  11.130
57985SOL    HW273982   9.555  10.777  11.080
57986SOL     OW73983   9.981   9.774  10.579
57986SOL    HW173984   9.947   9.685  10.549
57986SOL    HW273985  10.007   9.828  10.499
57987SOL     OW73986  10.240  10.988  10.775
57987SOL    HW173987  10.216  10.970  10.680
57987SOL    HW273988  10.270  11.082  10.785
57988SOL     OW73989   9.783   9.810   9.501
57988SOL    HW173990   9.844   9.890   9.505
57988SOL    HW273991   9.688   9.841   9.508
57989SOL     OW73992   9.469  10.447  10.776
57989SOL    HW173993   9.491  10.386  10.852
57989SOL    HW273994   9.479  10.398  10.690
57990SOL     OW73995  10.657  10.369  10.544
57990SOL    HW173996  10.681  10.306  10.470
57990SOL    HW273997  10.567  10.409  10.526
57991SOL     OW73998  10.612  10.165   9.619
57991SOL    HW173999  10.526  10.134   9.661
57991SOL    HW274000  10.608  10.151   9.520
57992SOL     OW74001  11.069  11.057  10.464
57992SOL    HW174002  11.130  11.087  10.391
57992SOL    HW274003  11.031  10.968  10.442
57993SOL     OW74004  10.562  11.041  10.438
57993SOL    HW174005  10.646  11.046  10.384
57993SOL    HW274006  10.539  10.945  10.456
57994SOL     OW74007   9.393  10.568  10.332
57994SOL    HW174008   9.388  10.567  10.432
57994SOL    HW274009   9.310  10.527  10.294
57995SOL     OW74010   9.998  10.972  11.026
57995SOL    HW174011   9.942  11.053  11.035
57995SOL    HW274012  10.050  10.976  10.940
57996SOL     OW74013  11.036   9.445   9.833
57996SOL    HW174014  11.109   9.428   9.766
57996SOL    HW274015  11.005   9.358   9.871
57997SOL     OW74016  10.698  10.883   9.787
57997SOL    HW174017  10.765  10.895   9.713
57997SOL    HW274018  10.658  10.972   9.810
57998SOL     OW74019   9.440  11.104  11.161
57998SOL    HW174020   9.399  11.030  11.214
57998SOL    HW274021   9.504  11.155  11.219
57999SOL     OW74022  10.590  10.237   9.982
57999SOL    HW174023  10.650  10.156   9.984
57999SOL    HW274024  10.630  10.306   9.922
58000SOL     OW74025  10.140  10.583  10.732
58000SOL    HW174026  10.135  10.616  10.827
58000SOL    HW274027  10.054  10.602  10.686
58001SOL     OW74028   9.982  10.926   9.464
58001SOL    HW174029   9.991  10.936   9.365
58001SOL    HW274030   9.942  10.837   9.485
58002SOL     OW74031  10.960  11.030  10.704
58002SOL    HW174032  11.013  11.040  10.620
58002SOL    HW274033  10.933  11.120  10.738
58003SOL     OW74034  11.151   9.485  10.273
58003SOL    HW174035  11.190   9.400  10.237
58003SOL    HW274036  11.053   9.487  10.254
58004SOL     OW74037   9.573   9.636  10.030
58004SOL    HW174038   9.494   9.687   9.996
58004SOL    HW274039   9.564   9.621  10.128
58005SOL     OW74040  10.504  10.922   9.341
58005SOL    HW174041  10.510  10.829   9.378
58005SOL    HW274042  10.445  10.922   9.261
58006SOL     OW74043  10.132  10.312  10.682
58006SOL    HW174044  10.172  10.311  10.590
58006SOL    HW274045  10.142  10.404  10.722
58007SOL     OW74046  10.226  10.220   9.601
58007SOL    HW174047  10.289  10.258   9.533
58007SOL    HW274048  10.266  10.137   9.640
58008SOL     OW74049  10.814  10.917   9.354
58008SOL    HW174050  10.722  10.954   9.361
58008SOL    HW274051  10.852  10.937   9.264
58009SOL     OW74052   9.682  10.598  10.800
58009SOL    HW174053   9.669  10.691  10.766
58009SOL    HW274054   9.598  10.546  10.787
58010SOL     OW74055  10.924  10.602  10.599
58010SOL    HW174056  10.984  10.605  10.679
58010SOL    HW274057  10.849  10.666  10.612
58011SOL     OW74058  10.349  10.408  10.006
58011SOL    HW174059  10.279  10.361  10.060
58011SOL    HW274060  10.408  10.340   9.963
58012SOL     OW74061  10.324   9.546  10.281
58012SOL    HW174062  10.316   9.510  10.188
58012SOL    HW274063  10.322   9.470  10.346
58013SOL     OW74064   9.900  10.797   9.801
58013SOL    HW174065   9.942  10.739   9.731
58013SOL    HW274066   9.856  10.876   9.757
58014SOL     OW74067  11.019   9.695  10.691
58014SOL    HW174068  11.092   9.764  10.695
58014SOL    HW274069  11.047   9.620  10.632
58015SOL     OW74070   9.565  10.658   9.600
58015SOL    HW174071   9.469  10.659   9.573
58015SOL    HW274072   9.577  10.711   9.684
58016SOL     OW74073   9.415  10.323  11.036
58016SOL    HW174074   9.338  10.290  11.090
58016SOL    HW274075   9.500  10.293  11.078
58017SOL     OW74076   9.982   9.513  10.799
58017SOL    HW174077  10.072   9.497  10.759
58017SOL    HW274078   9.990   9.518  10.898
58018SOL     OW74079   9.385   9.655   9.343
58018SOL    HW174080   9.293   9.627   9.314
58018SOL    HW274081   9.416   9.732   9.287
58019SOL     OW74082  10.750  10.166  10.708
58019SOL    HW174083  10.693  10.218  10.645
58019SOL    HW274084  10.846  10.178  10.684
58020SOL     OW74085   9.382   9.476   9.628
58020SOL    HW174086   9.365   9.559   9.574
58020SOL    HW274087   9.472   9.439   9.606
58021SOL     OW74088  10.493  10.645   9.429
58021SOL    HW174089  10.394  10.634   9.431
58021SOL    HW274090  10.527  10.660   9.522
58022SOL     OW74091   9.923  10.152  10.741
58022SOL    HW174092   9.979  10.233  10.724
58022SOL    HW274093   9.982  10.072  10.744
58023SOL     OW74094  10.803  11.077  10.269
58023SOL    HW174095  10.836  11.141  10.200
58023SOL    HW274096  10.869  11.071  10.344
58024SOL     OW74097  10.026   9.875  11.018
58024SOL    HW174098  10.045   9.940  11.092
58024SOL    HW274099  10.086   9.795  11.027
58025SOL     OW74100  10.760  10.530  10.943
58025SOL    HW174101  10.751  10.520  11.042
58025SOL    HW274102  10.856  10.523  10.917
58026SOL     OW74103   9.700  11.051  10.870
58026SOL    HW174104   9.609  11.092  10.868
58026SOL    HW274105   9.693  10.957  10.902
58027SOL     OW74106  10.984  10.193  10.564
58027SOL    HW174107  10.957  10.104  10.527
58027SOL    HW274108  10.985  10.261  10.491
58028SOL     OW74109  10.535   9.635   9.759
58028SOL    HW174110  10.600   9.561   9.748
58028SOL    HW274111  10.555   9.685   9.843
58029SOL     OW74112   9.904  10.055   9.962
58029SOL    HW174113   9.954  10.140   9.943
58029SOL    HW274114   9.816  10.057   9.914
58030SOL     OW74115  11.087   9.652  10.952
58030SOL    HW174116  11.070   9.683  10.858
58030SOL    HW274117  11.003   9.615  10.990
58031SOL     OW74118  11.040  10.244  10.827
58031SOL    HW174119  11.078  10.335  10.842
58031SOL    HW274120  11.032  10.227  10.728
58032SOL     OW74121  10.169  10.684   9.326
58032SOL    HW174122  10.123  10.699   9.414
58032SOL    HW274123  10.213  10.769   9.296
58033SOL     OW74124   9.971  11.100  10.263
58033SOL    HW174125   9.925  11.188  10.250
58033SOL    HW274126  10.070  11.112  10.256
58034SOL     OW74127  10.169  10.266  10.171
58034SOL    HW174128  10.223  10.197  10.219
58034SOL    HW274129  10.137  10.335  10.237
58035SOL     OW74130  10.393  10.294   9.397
58035SOL    HW174131  10.370  10.347   9.315
58035SOL    HW274132  10.474  10.238   9.378
58036SOL     OW74133  11.171  10.879  10.161
58036SOL    HW174134  11.100  10.867  10.091
58036SOL    HW274135  11.172  10.800  10.221
58037SOL     OW74136   9.531  10.624  11.154
58037SOL    HW174137   9.466  10.551  11.133
58037SOL    HW274138   9.535  10.638  11.252
58038SOL     OW74139   9.389  10.550   9.963
58038SOL    HW174140   9.388  10.503  10.051
58038SOL    HW274141   9.471  10.522   9.912
58039SOL     OW74142   9.982  10.701  10.934
58039SOL    HW174143   9.904  10.651  10.972
58039SOL    HW274144   9.979  10.796  10.965
58040SOL     OW74145  11.134   9.502  10.537
58040SOL    HW174146  11.130   9.412  10.581
58040SOL    HW274147  11.137   9.491  10.438
58041SOL     OW74148   9.738   9.734   9.830
58041SOL    HW174149   9.768   9.662   9.768
58041SOL    HW274150   9.699   9.694   9.913
58042SOL     OW74151  11.015  10.797  10.414
58042SOL    HW174152  10.922  10.772  10.387
58042SOL    HW274153  11.041  10.747  10.496
58043SOL     OW74154   9.627   9.857  10.590
58043SOL    HW174155   9.665   9.798  10.662
58043SOL    HW274156   9.667   9.831  10.502
58044SOL     OW74157  10.122  10.896   9.997
58044SOL    HW174158  10.154  10.906   9.903
58044SOL    HW274159  10.043  10.834   9.999
58045SOL     OW74160  10.734   9.524  10.422
58045SOL    HW174161  10.786   9.459  10.477
58045SOL    HW274162  10.685   9.587  10.483
58046SOL     OW74163  10.311   9.344  10.464
58046SOL    HW174164  10.248   9.272  10.433
58046SOL    HW274165  10.404   9.308  10.464
58047SOL     OW74166  10.080  10.640   9.611
58047SOL    HW174167  10.034  10.553   9.628
58047SOL    HW274168  10.171  10.637   9.652
58048SOL     OW74169   9.928  10.877  10.594
58048SOL    HW174170   9.923  10.959  10.651
58048SOL    HW274171  10.017  10.874  10.549
58049SOL     OW74172  10.662   9.362   9.478
58049SOL    HW174173  10.697   9.321   9.394
58049SOL    HW274174  10.572   9.324   9.498
58050SOL     OW74175  10.610   9.763  10.001
58050SOL    HW174176  10.551   9.843  10.005
58050SOL    HW274177  10.625   9.728  10.094
58051SOL     OW74178  10.903   9.531  10.192
58051SOL    HW174179  10.819   9.530  10.246
58051SOL    HW274180  10.905   9.614  10.136
58052SOL     OW74181   9.349  10.387   9.610
58052SOL    HW174182   9.448  10.376   9.601
58052SOL    HW274183   9.309  10.301   9.642
58053SOL     OW74184  10.185  10.956   9.647
58053SOL    HW174185  10.108  10.921   9.593
58053SOL    HW274186  10.153  11.027   9.709
58054SOL     OW74187   9.540   9.938  11.285
58054SOL    HW174188   9.447   9.936  11.322
58054SOL    HW274189   9.541   9.899  11.193
58055SOL     OW74190   9.535   9.585  12.168
58055SOL    HW174191   9.570   9.568  12.260
58055SOL    HW274192   9.447   9.540  12.156
58056SOL     OW74193   9.329   9.678  11.819
58056SOL    HW174194   9.247   9.721  11.858
58056SOL    HW274195   9.301   9.605  11.756
58057SOL     OW74196   9.879  10.585  12.337
58057SOL    HW174197   9.786  10.578  12.300
58057SOL    HW274198   9.890  10.674  12.381
58058SOL     OW74199  10.865  10.821  11.875
58058SOL    HW174200  10.808  10.805  11.956
58058SOL    HW274201  10.806  10.831  11.795
58059SOL     OW74202  10.445  10.013  11.889
58059SOL    HW174203  10.502  10.091  11.864
58059SOL    HW274204  10.385  10.039  11.965
58060SOL     OW74205  11.065   9.917  11.403
58060SOL    HW174206  11.053   9.904  11.304
58060SOL    HW274207  11.035   9.836  11.452
58061SOL     OW74208  10.078  10.454  12.195
58061SOL    HW174209  10.000  10.471  12.255
58061SOL    HW274210  10.112  10.541  12.159
58062SOL     OW74211   9.995  10.322  11.837
58062SOL    HW174212  10.064  10.306  11.907
58062SOL    HW274213   9.922  10.379  11.875
58063SOL     OW74214   9.645  10.745  12.233
58063SOL    HW174215   9.567  10.714  12.180
58063SOL    HW274216   9.703  10.803  12.176
58064SOL     OW74217  10.770  10.815  12.511
58064SOL    HW174218  10.794  10.909  12.537
58064SOL    HW274219  10.754  10.761  12.593
58065SOL     OW74220   9.748   9.702  12.671
58065SOL    HW174221   9.830   9.646  12.680
58065SOL    HW274222   9.667   9.644  12.675
58066SOL     OW74223  10.913   9.757  11.909
58066SOL    HW174224  10.839   9.803  11.859
58066SOL    HW274225  10.964   9.825  11.962
58067SOL     OW74226   9.541  11.023  11.655
58067SOL    HW174227   9.575  11.100  11.709
58067SOL    HW274228   9.585  11.023  11.565
58068SOL     OW74229   9.540  10.744  11.710
58068SOL    HW174230   9.514  10.840  11.710
58068SOL    HW274231   9.469  10.690  11.755
58069SOL     OW74232   9.550  10.401  12.058
58069SOL    HW174233   9.564  10.317  12.110
58069SOL    HW274234   9.495  10.465  12.113
58070SOL     OW74235   9.930  11.096  12.611
58070SOL    HW174236   9.838  11.079  12.646
58070SOL    HW274237   9.958  11.188  12.637
58071SOL     OW74238   9.916  10.274  11.295
58071SOL    HW174239   9.923  10.358  11.241
58071SOL    HW274240   9.962  10.287  11.383
58072SOL     OW74241  10.904   9.424  12.652
58072SOL    HW174242  10.886   9.491  12.580
58072SOL    HW274243  10.901   9.470  12.741
58073SOL     OW74244   9.432   9.953  11.735
58073SOL    HW174245   9.387   9.865  11.752
58073SOL    HW274246   9.431  10.007  11.819
58074SOL     OW74247  11.152  11.077  11.531
58074SOL    HW174248  11.206  11.048  11.611
58074SOL    HW274249  11.182  11.167  11.502
58075SOL     OW74250   9.337  10.906  11.289
58075SOL    HW174251   9.318  10.810  11.310
58075SOL    HW274252   9.304  10.964  11.364
58076SOL     OW74253  10.999  10.232  11.784
58076SOL    HW174254  11.094  10.203  11.792
58076SOL    HW274255  10.991  10.297  11.709
58077SOL     OW74256  10.951  10.418  11.604
58077SOL    HW174257  11.037  10.420  11.552
58077SOL    HW274258  10.965  10.465  11.692
58078SOL     OW74259   9.923  10.675  11.898
58078SOL    HW174260   9.874  10.588  11.907
58078SOL    HW274261   9.900  10.718  11.811
58079SOL     OW74262  10.119   9.314  11.674
58079SOL    HW174263  10.159   9.405  11.665
58079SOL    HW274264  10.019   9.322  11.680
58080SOL     OW74265   9.507  10.286  12.436
58080SOL    HW174266   9.596  10.241  12.422
58080SOL    HW274267   9.434  10.221  12.417
58081SOL     OW74268  10.835  10.309  11.362
58081SOL    HW174269  10.772  10.233  11.375
58081SOL    HW274270  10.883  10.327  11.448
58082SOL     OW74271   9.627   9.561  12.973
58082SOL    HW174272   9.698   9.632  12.979
58082SOL    HW274273   9.539   9.600  13.001
58083SOL     OW74274  10.776  10.727  12.125
58083SOL    HW174275  10.717  10.733  12.205
58083SOL    HW274276  10.761  10.639  12.079
58084SOL     OW74277  10.977  11.024  11.744
58084SOL    HW174278  10.936  11.001  11.656
58084SOL    HW274279  10.959  10.950  11.809
58085SOL     OW74280   9.908  10.039  11.442
58085SOL    HW174281   9.932  10.108  11.374
58085SOL    HW274282   9.830  10.072  11.496
58086SOL     OW74283  10.591   9.655  12.116
58086SOL    HW174284  10.505   9.605  12.103
58086SOL    HW274285  10.653   9.601  12.172
58087SOL     OW74286  10.886  10.972  11.479
58087SOL    HW174287  10.975  11.018  11.482
58087SOL    HW274288  10.865  10.948  11.384
58088SOL     OW74289  10.117   9.915  12.637
58088SOL    HW174290  10.070   9.912  12.726
58088SOL    HW274291  10.066   9.860  12.571
58089SOL     OW74292  10.301   9.720  12.414
58089SOL    HW174293  10.224   9.754  12.468
58089SOL    HW274294  10.267   9.669  12.335
58090SOL     OW74295  10.351  10.011  11.601
58090SOL    HW174296  10.377  10.007  11.697
58090SOL    HW274297  10.266   9.960  11.587
58091SOL     OW74298   9.386  10.121  11.961
58091SOL    HW174299   9.485  10.109  11.970
58091SOL    HW274300   9.362  10.216  11.982
58092SOL     OW74301   9.440  11.131  12.743
58092SOL    HW174302   9.430  11.116  12.842
58092SOL    HW274303   9.354  11.167  12.707
58093SOL     OW74304  10.175   9.658  11.367
58093SOL    HW174305  10.234   9.721  11.318
58093SOL    HW274306  10.194   9.564  11.338
58094SOL     OW74307  10.672  10.454  11.717
58094SOL    HW174308  10.755  10.425  11.669
58094SOL    HW274309  10.623  10.521  11.661
58095SOL     OW74310   9.860   9.506  12.057
58095SOL    HW174311   9.855   9.501  12.157
58095SOL    HW274312   9.862   9.602  12.028
58096SOL     OW74313  10.318  10.766  11.649
58096SOL    HW174314  10.272  10.838  11.597
58096SOL    HW274315  10.314  10.786  11.747
58097SOL     OW74316   9.661  11.111  12.025
58097SOL    HW174317   9.711  11.025  12.031
58097SOL    HW274318   9.726  11.188  12.022
58098SOL     OW74319  11.105  10.376  12.045
58098SOL    HW174320  11.043  10.361  11.969
58098SOL    HW274321  11.053  10.387  12.130
58099SOL     OW74322   9.631  10.253  11.414
58099SOL    HW174323   9.713  10.292  11.372
58099SOL    HW274324   9.604  10.171  11.365
58100SOL     OW74325  10.768  10.045  11.900
58100SOL    HW174326  10.763   9.980  11.975
58100SOL    HW274327  10.848  10.104  11.913
58101SOL     OW74328  10.421  11.086  11.409
58101SOL    HW174329  10.361  11.024  11.459
58101SOL    HW274330  10.452  11.042  11.324
58102SOL     OW74331   9.512   9.595  12.670
58102SOL    HW174332   9.432   9.655  12.657
58102SOL    HW274333   9.502   9.546  12.756
58103SOL     OW74334  10.942  10.687  11.253
58103SOL    HW174335  10.910  10.781  11.243
58103SOL    HW274336  10.866  10.624  11.241
58104SOL     OW74337   9.774  11.053  11.495
58104SOL    HW174338   9.807  11.092  11.581
58104SOL    HW274339   9.850  11.046  11.430
58105SOL     OW74340  10.710   9.417  11.598
58105SOL    HW174341  10.686   9.380  11.508
58105SOL    HW274342  10.809   9.433  11.602
58106SOL     OW74343   9.559  11.095  12.413
58106SOL    HW174344   9.616  11.030  12.463
58106SOL    HW274345   9.543  11.062  12.320
58107SOL     OW74346  10.250  11.008  12.076
58107SOL    HW174347  10.330  10.951  12.097
58107SOL    HW274348  10.201  10.968  11.999
58108SOL     OW74349   9.692  10.010  11.652
58108SOL    HW174350   9.737   9.920  11.649
58108SOL    HW274351   9.598   9.999  11.685
58109SOL     OW74352   9.924   9.432  11.289
58109SOL    HW174353  10.022   9.410  11.296
58109SOL    HW274354   9.893   9.415  11.196
58110SOL     OW74355  10.198  10.824  12.367
58110SOL    HW174356  10.175  10.799  12.273
58110SOL    HW274357  10.259  10.755  12.406
58111SOL     OW74358  10.113  10.712  12.096
58111SOL    HW174359  10.203  10.726  12.054
58111SOL    HW274360  10.042  10.714  12.025
58112SOL     OW74361  10.232   9.813  12.071
58112SOL    HW174362  10.207   9.804  11.975
58112SOL    HW274363  10.280   9.731  12.102
58113SOL     OW74364   9.849   9.374  11.684
58113SOL    HW174365   9.768   9.375  11.742
58113SOL    HW274366   9.852   9.457  11.629
58114SOL     OW74367  10.744  10.498  11.213
58114SOL    HW174368  10.776  10.422  11.270
58114SOL    HW274369  10.652  10.525  11.243
58115SOL     OW74370   9.607   9.345  11.343
58115SOL    HW174371   9.656   9.429  11.322
58115SOL    HW274372   9.669   9.280  11.388
58116SOL     OW74373  10.245   9.546  11.652
58116SOL    HW174374  10.197   9.587  11.574
58116SOL    HW274375  10.344   9.544  11.633
58117SOL     OW74376  10.537  10.880  11.965
58117SOL    HW174377  10.558  10.954  11.900
58117SOL    HW274378  10.605  10.880  12.038
58118SOL     OW74379   9.769  10.462  11.913
58118SOL    HW174380   9.698  10.435  11.978
58118SOL    HW274381   9.743  10.434  11.820
58119SOL     OW74382  10.581  11.107  11.763
58119SOL    HW174383  10.625  11.171  11.699
58119SOL    HW274384  10.531  11.159  11.833
58120SOL     OW74385  10.342   9.859  11.188
58120SOL    HW174386  10.301   9.941  11.149
58120SOL    HW274387  10.406   9.885  11.261
58121SOL     OW74388   9.388   9.866  12.558
58121SOL    HW174389   9.480   9.865  12.517
58121SOL    HW274390   9.382   9.940  12.625
58122SOL     OW74391   9.871   9.532  12.319
58122SOL    HW174392   9.909   9.448  12.356
58122SOL    HW274393   9.783   9.551  12.363
58123SOL     OW74394  10.176   9.764  11.814
58123SOL    HW174395  10.144   9.836  11.752
58123SOL    HW274396  10.200   9.683  11.761
58124SOL     OW74397  10.327   9.349  11.925
58124SOL    HW174398  10.255   9.354  11.856
58124SOL    HW274399  10.303   9.280  11.994
58125SOL     OW74400  10.739  10.483  12.039
58125SOL    HW174401  10.684  10.399  12.032
58125SOL    HW274402  10.765  10.512  11.947
58126SOL     OW74403  10.776   9.900  12.164
58126SOL    HW174404  10.746   9.805  12.171
58126SOL    HW274405  10.849   9.916  12.230
58127SOL     OW74406  11.167  10.143  11.549
58127SOL    HW174407  11.209  10.079  11.613
58127SOL    HW274408  11.129  10.092  11.471
58128SOL     OW74409   9.798  10.695  11.346
58128SOL    HW174410   9.711  10.680  11.393
58128SOL    HW274411   9.781  10.721  11.251
58129SOL     OW74412  10.974  10.590  11.829
58129SOL    HW174413  11.073  10.598  11.843
58129SOL    HW274414  10.929  10.674  11.860
58130SOL     OW74415  10.700   9.885  11.250
58130SOL    HW174416  10.646   9.864  11.331
58130SOL    HW274417  10.791   9.844  11.259
58131SOL     OW74418   9.837   9.566  11.500
58131SOL    HW174419   9.864   9.507  11.425
58131SOL    HW274420   9.837   9.661  11.469
58132SOL     OW74421  10.374  10.657  12.512
58132SOL    HW174422  10.294  10.634  12.567
58132SOL    HW274423  10.457  10.631  12.561
58133SOL     OW74424  10.421  10.505  12.272
58133SOL    HW174425  10.381  10.549  12.353
58133SOL    HW274426  10.380  10.542  12.189
58134SOL     OW74427  10.948  10.409  12.251
58134SOL    HW174428  10.953  10.490  12.310
58134SOL    HW274429  10.862  10.411  12.200
58135SOL     OW74430  10.225   9.399  12.574
58135SOL    HW174431  10.250   9.379  12.479
58135SOL    HW274432  10.297   9.455  12.616
58136SOL     OW74433  10.015  10.360  11.540
58136SOL    HW174434  10.001  10.367  11.639
58136SOL    HW274435  10.099  10.309  11.522
58137SOL     OW74436   9.720  10.123  12.423
58137SOL    HW174437   9.806  10.135  12.473
58137SOL    HW274438   9.678  10.036  12.450
58138SOL     OW74439  10.584   9.696  12.434
58138SOL    HW174440  10.605   9.770  12.498
58138SOL    HW274441  10.495   9.713  12.391
58139SOL     OW74442   9.374  10.874  12.503
58139SOL    HW174443   9.328  10.956  12.469
58139SOL    HW274444   9.472  10.893  12.512
58140SOL     OW74445   9.677  10.410  11.673
58140SOL    HW174446   9.670  10.493  11.617
58140SOL    HW274447   9.681  10.330  11.613
58141SOL     OW74448   9.876   9.847  12.037
58141SOL    HW174449   9.888   9.913  11.963
58141SOL    HW274450   9.922   9.881  12.120
58142SOL     OW74451  10.562  10.658  11.560
58142SOL    HW174452  10.612  10.735  11.600
58142SOL    HW274453  10.467  10.660  11.592
58143SOL     OW74454  10.582  10.755  12.314
58143SOL    HW174455  10.629  10.768  12.401
58143SOL    HW274456  10.516  10.681  12.323
58144SOL     OW74457  10.892   9.949  11.644
58144SOL    HW174458  10.861  10.010  11.717
58144SOL    HW274459  10.942  10.001  11.575
58145SOL     OW74460   9.664  10.820  12.501
58145SOL    HW174461   9.643  10.776  12.414
58145SOL    HW274462   9.761  10.846  12.504
58146SOL     OW74463   9.712  10.061  12.770
58146SOL    HW174464   9.780  10.116  12.723
58146SOL    HW274465   9.752   9.973  12.797
58147SOL     OW74466  10.897  10.089  12.842
58147SOL    HW174467  10.805  10.127  12.837
58147SOL    HW274468  10.957  10.136  12.777
58148SOL     OW74469   9.883  10.180  12.201
58148SOL    HW174470   9.927  10.269  12.192
58148SOL    HW274471   9.820  10.180  12.278
58149SOL     OW74472  10.670  10.172  12.217
58149SOL    HW174473  10.595  10.172  12.151
58149SOL    HW274474  10.707  10.080  12.226
58150SOL     OW74475  10.519   9.835  11.447
58150SOL    HW174476  10.532   9.751  11.501
58150SOL    HW274477  10.490   9.909  11.507
58151SOL     OW74478   9.617   9.523  12.403
58151SOL    HW174479   9.594   9.560  12.493
58151SOL    HW274480   9.587   9.428  12.397
58152SOL     OW74481   9.347  10.620  12.454
58152SOL    HW174482   9.400  10.571  12.522
58152SOL    HW274483   9.369  10.718  12.459
58153SOL     OW74484  10.042   9.944  12.236
58153SOL    HW174485  10.101   9.918  12.160
58153SOL    HW274486  10.014  10.040  12.225
58154SOL     OW74487   9.617   9.373  11.790
58154SOL    HW174488   9.606   9.467  11.823
58154SOL    HW274489   9.612   9.310  11.867
58155SOL     OW74490  10.932   9.677  11.546
58155SOL    HW174491  10.934   9.601  11.610
58155SOL    HW274492  10.884   9.754  11.586
58156SOL     OW74493  10.333  10.076  12.138
58156SOL    HW174494  10.348  10.097  12.234
58156SOL    HW274495  10.303   9.981  12.129
58157SOL     OW74496  10.290  10.883  12.872
58157SOL    HW174497  10.270  10.927  12.784
58157SOL    HW274498  10.329  10.792  12.856
58158SOL     OW74499  10.850   9.584  11.297
58158SOL    HW174500  10.789   9.509  11.320
58158SOL    HW274501  10.872   9.636  11.380
58159SOL     OW74502  10.613  10.148  11.214
58159SOL    HW174503  10.647  10.055  11.229
58159SOL    HW274504  10.631  10.175  11.119
58160SOL     OW74505  10.378  10.643  12.021
58160SOL    HW174506  10.385  10.559  11.966
58160SOL    HW274507  10.440  10.712  11.985
58161SOL     OW74508   9.629  10.120  12.121
58161SOL    HW174509   9.722  10.156  12.126
58161SOL    HW274510   9.623  10.035  12.173
58162SOL     OW74511   9.649   9.819  12.178
58162SOL    HW174512   9.597   9.736  12.161
58162SOL    HW274513   9.726   9.824  12.114
58163SOL     OW74514  10.448   9.690  12.850
58163SOL    HW174515  10.403   9.753  12.914
58163SOL    HW274516  10.541   9.721  12.833
58164SOL     OW74517  10.470   9.517  12.649
58164SOL    HW174518  10.470   9.581  12.726
58164SOL    HW274519  10.498   9.565  12.566
58165SOL     OW74520   9.318  10.636  11.372
58165SOL    HW174521   9.225  10.657  11.341
58165SOL    HW274522   9.328  10.537  11.385
58166SOL     OW74523   9.398  11.111  12.099
58166SOL    HW174524   9.356  11.025  12.072
58166SOL    HW274525   9.492  11.114  12.065
58167SOL     OW74526   9.814  10.878  12.082
58167SOL    HW174527   9.880  10.952  12.091
58167SOL    HW274528   9.858  10.799  12.040
58168SOL     OW74529  10.312  10.106  12.410
58168SOL    HW174530  10.353  10.074  12.496
58168SOL    HW274531  10.216  10.079  12.407
58169SOL     OW74532   9.350   9.854  12.286
58169SOL    HW174533   9.435   9.821  12.245
58169SOL    HW274534   9.363   9.869  12.384
58170SOL     OW74535  10.125   9.882  11.497
58170SOL    HW174536  10.132   9.793  11.451
58170SOL    HW274537  10.031   9.916  11.489
58171SOL     OW74538  10.967   9.914  12.378
58171SOL    HW174539  10.929   9.845  12.440
58171SOL    HW274540  11.049   9.878  12.334
58172SOL     OW74541   9.981   9.774  12.441
58172SOL    HW174542   9.947   9.685  12.411
58172SOL    HW274543  10.007   9.828  12.361
58173SOL     OW74544  10.240  10.988  12.637
58173SOL    HW174545  10.216  10.970  12.542
58173SOL    HW274546  10.270  11.082  12.647
58174SOL     OW74547   9.783   9.810  11.363
58174SOL    HW174548   9.844   9.890  11.367
58174SOL    HW274549   9.688   9.841  11.370
58175SOL     OW74550   9.469  10.447  12.638
58175SOL    HW174551   9.491  10.386  12.714
58175SOL    HW274552   9.479  10.398  12.552
58176SOL     OW74553  10.657  10.369  12.406
58176SOL    HW174554  10.681  10.306  12.332
58176SOL    HW274555  10.567  10.409  12.388
58177SOL     OW74556  10.612  10.165  11.481
58177SOL    HW174557  10.526  10.134  11.523
58177SOL    HW274558  10.608  10.151  11.382
58178SOL     OW74559  11.069  11.057  12.326
58178SOL    HW174560  11.130  11.087  12.253
58178SOL    HW274561  11.031  10.968  12.304
58179SOL     OW74562  10.562  11.041  12.300
58179SOL    HW174563  10.646  11.046  12.246
58179SOL    HW274564  10.539  10.945  12.318
58180SOL     OW74565   9.393  10.568  12.194
58180SOL    HW174566   9.388  10.567  12.294
58180SOL    HW274567   9.310  10.527  12.156
58181SOL     OW74568  11.036   9.445  11.695
58181SOL    HW174569  11.109   9.428  11.628
58181SOL    HW274570  11.005   9.358  11.733
58182SOL     OW74571  10.698  10.883  11.649
58182SOL    HW174572  10.765  10.895  11.575
58182SOL    HW274573  10.658  10.972  11.672
58183SOL     OW74574  10.590  10.237  11.844
58183SOL    HW174575  10.650  10.156  11.846
58183SOL    HW274576  10.630  10.306  11.784
58184SOL     OW74577   9.982  10.926  11.326
58184SOL    HW174578   9.991  10.936  11.227
58184SOL    HW274579   9.942  10.837  11.347
58185SOL     OW74580  10.960  11.030  12.566
58185SOL    HW174581  11.013  11.040  12.482
58185SOL    HW274582  10.933  11.120  12.600
58186SOL     OW74583  11.151   9.485  12.135
58186SOL    HW174584  11.190   9.400  12.099
58186SOL    HW274585  11.053   9.487  12.116
58187SOL     OW74586   9.573   9.636  11.892
58187SOL    HW174587   9.494   9.687  11.858
58187SOL    HW274588   9.564   9.621  11.990
58188SOL     OW74589  10.504  10.922  11.203
58188SOL    HW174590  10.510  10.829  11.240
58188SOL    HW274591  10.445  10.922  11.123
58189SOL     OW74592  10.132  10.312  12.544
58189SOL    HW174593  10.172  10.311  12.452
58189SOL    HW274594  10.142  10.404  12.584
58190SOL     OW74595  10.226  10.220  11.463
58190SOL    HW174596  10.289  10.258  11.395
58190SOL    HW274597  10.266  10.137  11.502
58191SOL     OW74598  10.814  10.917  11.216
58191SOL    HW174599  10.722  10.954  11.223
58191SOL    HW274600  10.852  10.937  11.126
58192SOL     OW74601   9.682  10.598  12.662
58192SOL    HW174602   9.669  10.691  12.628
58192SOL    HW274603   9.598  10.546  12.649
58193SOL     OW74604  10.924  10.602  12.461
58193SOL    HW174605  10.984  10.605  12.541
58193SOL    HW274606  10.849  10.666  12.474
58194SOL     OW74607  10.349  10.408  11.868
58194SOL    HW174608  10.279  10.361  11.922
58194SOL    HW274609  10.408  10.340  11.825
58195SOL     OW74610  10.324   9.546  12.143
58195SOL    HW174611  10.316   9.510  12.050
58195SOL    HW274612  10.322   9.470  12.208
58196SOL     OW74613   9.900  10.797  11.663
58196SOL    HW174614   9.942  10.739  11.593
58196SOL    HW274615   9.856  10.876  11.619
58197SOL     OW74616  11.019   9.695  12.553
58197SOL    HW174617  11.092   9.764  12.557
58197SOL    HW274618  11.047   9.620  12.494
58198SOL     OW74619   9.565  10.658  11.462
58198SOL    HW174620   9.469  10.659  11.435
58198SOL    HW274621   9.577  10.711  11.546
58199SOL     OW74622   9.385   9.655  11.205
58199SOL    HW174623   9.293   9.627  11.176
58199SOL    HW274624   9.416   9.732  11.149
58200SOL     OW74625  10.750  10.166  12.570
58200SOL    HW174626  10.693  10.218  12.507
58200SOL    HW274627  10.846  10.178  12.546
58201SOL     OW74628   9.382   9.476  11.490
58201SOL    HW174629   9.365   9.559  11.436
58201SOL    HW274630   9.472   9.439  11.468
58202SOL     OW74631  10.493  10.645  11.291
58202SOL    HW174632  10.394  10.634  11.293
58202SOL    HW274633  10.527  10.660  11.384
58203SOL     OW74634   9.923  10.152  12.603
58203SOL    HW174635   9.979  10.233  12.586
58203SOL    HW274636   9.982  10.072  12.606
58204SOL     OW74637  10.803  11.077  12.131
58204SOL    HW174638  10.836  11.141  12.062
58204SOL    HW274639  10.869  11.071  12.206
58205SOL     OW74640   9.700  11.051  12.732
58205SOL    HW174641   9.609  11.092  12.730
58205SOL    HW274642   9.693  10.957  12.764
58206SOL     OW74643  10.984  10.193  12.426
58206SOL    HW174644  10.957  10.104  12.389
58206SOL    HW274645  10.985  10.261  12.353
58207SOL     OW74646  10.535   9.635  11.621
58207SOL    HW174647  10.600   9.561  11.610
58207SOL    HW274648  10.555   9.685  11.705
58208SOL     OW74649   9.904  10.055  11.824
58208SOL    HW174650   9.954  10.140  11.805
58208SOL    HW274651   9.816  10.057  11.776
58209SOL     OW74652  11.087   9.652  12.814
58209SOL    HW174653  11.070   9.683  12.720
58209SOL    HW274654  11.003   9.615  12.852
58210SOL     OW74655  11.040  10.244  12.689
58210SOL    HW174656  11.078  10.335  12.704
58210SOL    HW274657  11.032  10.227  12.590
58211SOL     OW74658  10.169  10.684  11.188
58211SOL    HW174659  10.123  10.699  11.276
58211SOL    HW274660  10.213  10.769  11.158
58212SOL     OW74661   9.971  11.100  12.125
58212SOL    HW174662   9.925  11.188  12.112
58212SOL    HW274663  10.070  11.112  12.118
58213SOL     OW74664  10.169  10.266  12.033
58213SOL    HW174665  10.223  10.197  12.081
58213SOL    HW274666  10.137  10.335  12.099
58214SOL     OW74667  10.393  10.294  11.259
58214SOL    HW174668  10.370  10.347  11.177
58214SOL    HW274669  10.474  10.238  11.240
58215SOL     OW74670  11.171  10.879  12.023
58215SOL    HW174671  11.100  10.867  11.953
58215SOL    HW274672  11.172  10.800  12.083
58216SOL     OW74673   9.389  10.550  11.825
58216SOL    HW174674   9.388  10.503  11.913
58216SOL    HW274675   9.471  10.522  11.774
58217SOL     OW74676  11.134   9.502  12.399
58217SOL    HW174677  11.130   9.412  12.443
58217SOL    HW274678  11.137   9.491  12.300
58218SOL     OW74679   9.738   9.734  11.692
58218SOL    HW174680   9.768   9.662  11.630
58218SOL    HW274681   9.699   9.694  11.775
58219SOL     OW74682  11.015  10.797  12.276
58219SOL    HW174683  10.922  10.772  12.249
58219SOL    HW274684  11.041  10.747  12.358
58220SOL     OW74685   9.627   9.857  12.452
58220SOL    HW174686   9.665   9.798  12.524
58220SOL    HW274687   9.667   9.831  12.364
58221SOL     OW74688  10.122  10.896  11.859
58221SOL    HW174689  10.154  10.906  11.765
58221SOL    HW274690  10.043  10.834  11.861
58222SOL     OW74691  10.734   9.524  12.284
58222SOL    HW174692  10.786   9.459  12.339
58222SOL    HW274693  10.685   9.587  12.345
58223SOL     OW74694  10.311   9.344  12.326
58223SOL    HW174695  10.248   9.272  12.295
58223SOL    HW274696  10.404   9.308  12.326
58224SOL     OW74697  10.080  10.640  11.473
58224SOL    HW174698  10.034  10.553  11.490
58224SOL    HW274699  10.171  10.637  11.514
58225SOL     OW74700   9.928  10.877  12.456
58225SOL    HW174701   9.923  10.959  12.513
58225SOL    HW274702  10.017  10.874  12.411
58226SOL     OW74703  10.662   9.362  11.340
58226SOL    HW174704  10.697   9.321  11.256
58226SOL    HW274705  10.572   9.324  11.360
58227SOL     OW74706  10.610   9.763  11.863
58227SOL    HW174707  10.551   9.843  11.867
58227SOL    HW274708  10.625   9.728  11.956
58228SOL     OW74709  10.903   9.531  12.054
58228SOL    HW174710  10.819   9.530  12.108
58228SOL    HW274711  10.905   9.614  11.998
58229SOL     OW74712   9.349  10.387  11.472
58229SOL    HW174713   9.448  10.376  11.463
58229SOL    HW274714   9.309  10.301  11.504
58230SOL     OW74715  10.185  10.956  11.509
58230SOL    HW174716  10.108  10.921  11.455
58230SOL    HW274717  10.153  11.027  11.571
58231SOL     OW74718   9.540  11.800   0.113
58231SOL    HW174719   9.447  11.798   0.150
58231SOL    HW274720   9.541  11.761   0.021
58232SOL     OW74721   9.535  11.447   0.996
58232SOL    HW174722   9.570  11.430   1.088
58232SOL    HW274723   9.447  11.402   0.984
58233SOL     OW74724   9.329  11.540   0.647
58233SOL    HW174725   9.247  11.583   0.686
58233SOL    HW274726   9.301  11.467   0.584
58234SOL     OW74727   9.879  12.447   1.165
58234SOL    HW174728   9.786  12.440   1.128
58234SOL    HW274729   9.890  12.536   1.209
58235SOL     OW74730  10.865  12.683   0.703
58235SOL    HW174731  10.808  12.667   0.784
58235SOL    HW274732  10.806  12.693   0.623
58236SOL     OW74733  10.445  11.875   0.717
58236SOL    HW174734  10.502  11.953   0.692
58236SOL    HW274735  10.385  11.901   0.793
58237SOL     OW74736  11.065  11.779   0.231
58237SOL    HW174737  11.053  11.766   0.132
58237SOL    HW274738  11.035  11.698   0.280
58238SOL     OW74739  10.078  12.316   1.023
58238SOL    HW174740  10.000  12.333   1.083
58238SOL    HW274741  10.112  12.403   0.987
58239SOL     OW74742  10.160  11.970   1.823
58239SOL    HW174743  10.156  12.046   1.888
58239SOL    HW274744  10.182  12.006   1.732
58240SOL     OW74745   9.995  12.184   0.665
58240SOL    HW174746  10.064  12.168   0.735
58240SOL    HW274747   9.922  12.241   0.703
58241SOL     OW74748   9.996  12.333   1.803
58241SOL    HW174749  10.056  12.412   1.817
58241SOL    HW274750   9.910  12.364   1.762
58242SOL     OW74751   9.645  12.607   1.061
58242SOL    HW174752   9.567  12.576   1.008
58242SOL    HW274753   9.703  12.665   1.004
58243SOL     OW74754  10.770  12.677   1.339
58243SOL    HW174755  10.794  12.771   1.365
58243SOL    HW274756  10.754  12.623   1.421
58244SOL     OW74757   9.748  11.564   1.499
58244SOL    HW174758   9.830  11.508   1.508
58244SOL    HW274759   9.667  11.506   1.503
58245SOL     OW74760  10.913  11.619   0.737
58245SOL    HW174761  10.839  11.665   0.687
58245SOL    HW274762  10.964  11.687   0.790
58246SOL     OW74763   9.541  12.885   0.483
58246SOL    HW174764   9.575  12.962   0.537
58246SOL    HW274765   9.585  12.885   0.393
58247SOL     OW74766  10.437  12.513   1.690
58247SOL    HW174767  10.484  12.513   1.778
58247SOL    HW274768  10.389  12.426   1.679
58248SOL     OW74769   9.540  12.606   0.538
58248SOL    HW174770   9.514  12.702   0.538
58248SOL    HW274771   9.469  12.552   0.583
58249SOL     OW74772   9.550  12.263   0.886
58249SOL    HW174773   9.564  12.179   0.938
58249SOL    HW274774   9.495  12.327   0.941
58250SOL     OW74775   9.916  12.136   0.123
58250SOL    HW174776   9.923  12.220   0.069
58250SOL    HW274777   9.962  12.149   0.211
58251SOL     OW74778  10.904  11.286   1.480
58251SOL    HW174779  10.886  11.353   1.408
58251SOL    HW274780  10.901  11.332   1.569
58252SOL     OW74781   9.432  11.815   0.563
58252SOL    HW174782   9.387  11.727   0.580
58252SOL    HW274783   9.431  11.869   0.647
58253SOL     OW74784   9.337  12.768   0.117
58253SOL    HW174785   9.318  12.672   0.138
58253SOL    HW274786   9.304  12.826   0.192
58254SOL     OW74787  10.999  12.094   0.612
58254SOL    HW174788  11.094  12.065   0.620
58254SOL    HW274789  10.991  12.159   0.537
58255SOL     OW74790  10.951  12.280   0.432
58255SOL    HW174791  11.037  12.282   0.380
58255SOL    HW274792  10.965  12.327   0.520
58256SOL     OW74793   9.423  11.909   1.597
58256SOL    HW174794   9.511  11.896   1.642
58256SOL    HW274795   9.410  12.006   1.575
58257SOL     OW74796   9.923  12.537   0.726
58257SOL    HW174797   9.874  12.450   0.735
58257SOL    HW274798   9.900  12.580   0.639
58258SOL     OW74799  10.603  12.400   1.423
58258SOL    HW174800  10.640  12.327   1.365
58258SOL    HW274801  10.655  12.405   1.508
58259SOL     OW74802  10.119  11.176   0.502
58259SOL    HW174803  10.159  11.267   0.493
58259SOL    HW274804  10.019  11.184   0.508
58260SOL     OW74805   9.507  12.148   1.264
58260SOL    HW174806   9.596  12.103   1.250
58260SOL    HW274807   9.434  12.083   1.245
58261SOL     OW74808  10.835  12.171   0.190
58261SOL    HW174809  10.772  12.095   0.203
58261SOL    HW274810  10.883  12.189   0.276
58262SOL     OW74811   9.627  11.423   1.801
58262SOL    HW174812   9.698  11.494   1.807
58262SOL    HW274813   9.539  11.462   1.829
58263SOL     OW74814  10.776  12.589   0.953
58263SOL    HW174815  10.717  12.595   1.033
58263SOL    HW274816  10.761  12.501   0.907
58264SOL     OW74817   9.908  11.901   0.270
58264SOL    HW174818   9.932  11.970   0.202
58264SOL    HW274819   9.830  11.934   0.324
58265SOL     OW74820  10.591  11.517   0.944
58265SOL    HW174821  10.505  11.467   0.931
58265SOL    HW274822  10.653  11.463   1.000
58266SOL     OW74823  10.117  11.777   1.465
58266SOL    HW174824  10.070  11.774   1.554
58266SOL    HW274825  10.066  11.722   1.399
58267SOL     OW74826  10.704  11.641   1.674
58267SOL    HW174827  10.684  11.684   1.762
58267SOL    HW274828  10.782  11.579   1.683
58268SOL     OW74829  10.283  12.062   1.572
58268SOL    HW174830  10.329  11.978   1.543
58268SOL    HW274831  10.227  12.096   1.497
58269SOL     OW74832  10.301  11.582   1.242
58269SOL    HW174833  10.224  11.616   1.296
58269SOL    HW274834  10.267  11.531   1.163
58270SOL     OW74835  10.351  11.873   0.429
58270SOL    HW174836  10.377  11.869   0.525
58270SOL    HW274837  10.266  11.822   0.415
58271SOL     OW74838   9.386  11.983   0.789
58271SOL    HW174839   9.485  11.971   0.798
58271SOL    HW274840   9.362  12.078   0.810
58272SOL     OW74841  10.175  11.520   0.195
58272SOL    HW174842  10.234  11.583   0.146
58272SOL    HW274843  10.194  11.426   0.166
58273SOL     OW74844  11.029  11.757   1.831
58273SOL    HW174845  11.003  11.846   1.795
58273SOL    HW274846  11.027  11.689   1.758
58274SOL     OW74847  10.672  12.316   0.545
58274SOL    HW174848  10.755  12.287   0.497
58274SOL    HW274849  10.623  12.383   0.489
58275SOL     OW74850   9.860  11.368   0.885
58275SOL    HW174851   9.855  11.363   0.985
58275SOL    HW274852   9.862  11.464   0.856
58276SOL     OW74853  10.318  12.628   0.477
58276SOL    HW174854  10.272  12.700   0.425
58276SOL    HW274855  10.314  12.648   0.575
58277SOL     OW74856  11.105  12.238   0.873
58277SOL    HW174857  11.043  12.223   0.797
58277SOL    HW274858  11.053  12.249   0.958
58278SOL     OW74859  10.537  12.722   1.506
58278SOL    HW174860  10.543  12.645   1.570
58278SOL    HW274861  10.485  12.696   1.426
58279SOL     OW74862   9.631  12.115   0.242
58279SOL    HW174863   9.713  12.154   0.200
58279SOL    HW274864   9.604  12.033   0.193
58280SOL     OW74865  10.768  11.907   0.728
58280SOL    HW174866  10.763  11.842   0.803
58280SOL    HW274867  10.848  11.966   0.741
58281SOL     OW74868   9.771  12.438   1.727
58281SOL    HW174869   9.721  12.439   1.641
58281SOL    HW274870   9.708  12.420   1.803
58282SOL     OW74871  10.421  12.948   0.237
58282SOL    HW174872  10.361  12.886   0.287
58282SOL    HW274873  10.452  12.904   0.152
58283SOL     OW74874   9.512  11.457   1.498
58283SOL    HW174875   9.432  11.517   1.485
58283SOL    HW274876   9.502  11.408   1.584
58284SOL     OW74877  10.942  12.549   0.081
58284SOL    HW174878  10.910  12.643   0.071
58284SOL    HW274879  10.866  12.486   0.069
58285SOL     OW74880  10.710  11.279   0.426
58285SOL    HW174881  10.686  11.242   0.336
58285SOL    HW274882  10.809  11.295   0.430
58286SOL     OW74883   9.692  11.872   0.480
58286SOL    HW174884   9.737  11.782   0.477
58286SOL    HW274885   9.598  11.861   0.513
58287SOL     OW74886  10.857  11.394   1.729
58287SOL    HW174887  10.852  11.431   1.821
58287SOL    HW274888  10.785  11.325   1.717
58288SOL     OW74889   9.924  11.294   0.117
58288SOL    HW174890  10.022  11.272   0.124
58288SOL    HW274891   9.893  11.277   0.024
58289SOL     OW74892  10.091  11.436   1.749
58289SOL    HW174893  10.158  11.375   1.792
58289SOL    HW274894  10.018  11.455   1.814
58290SOL     OW74895  10.661  11.762   1.433
58290SOL    HW174896  10.689  11.719   1.518
58290SOL    HW274897  10.686  11.858   1.434
58291SOL     OW74898  10.113  12.574   0.924
58291SOL    HW174899  10.203  12.588   0.882
58291SOL    HW274900  10.042  12.576   0.853
58292SOL     OW74901  10.232  11.675   0.899
58292SOL    HW174902  10.207  11.666   0.803
58292SOL    HW274903  10.280  11.593   0.930
58293SOL     OW74904   9.849  11.236   0.512
58293SOL    HW174905   9.768  11.237   0.570
58293SOL    HW274906   9.852  11.319   0.457
58294SOL     OW74907  10.744  12.360   0.041
58294SOL    HW174908  10.776  12.284   0.098
58294SOL    HW274909  10.652  12.387   0.071
58295SOL     OW74910   9.607  11.207   0.171
58295SOL    HW174911   9.656  11.291   0.150
58295SOL    HW274912   9.669  11.142   0.216
58296SOL     OW74913  10.245  11.408   0.480
58296SOL    HW174914  10.197  11.449   0.402
58296SOL    HW274915  10.344  11.406   0.461
58297SOL     OW74916  10.386  11.855   1.464
58297SOL    HW174917  10.306  11.794   1.467
58297SOL    HW274918  10.467  11.802   1.440
58298SOL     OW74919  10.537  12.742   0.793
58298SOL    HW174920  10.558  12.816   0.728
58298SOL    HW274921  10.605  12.742   0.866
58299SOL     OW74922   9.769  12.324   0.741
58299SOL    HW174923   9.698  12.297   0.806
58299SOL    HW274924   9.743  12.296   0.648
58300SOL     OW74925  10.342  11.721   0.016
58300SOL    HW174926  10.301  11.803  -0.023
58300SOL    HW274927  10.406  11.747   0.089
58301SOL     OW74928   9.388  11.728   1.386
58301SOL    HW174929   9.480  11.727   1.345
58301SOL    HW274930   9.382  11.802   1.453
58302SOL     OW74931   9.871  11.394   1.147
58302SOL    HW174932   9.909  11.310   1.184
58302SOL    HW274933   9.783  11.413   1.191
58303SOL     OW74934  10.176  11.626   0.642
58303SOL    HW174935  10.144  11.698   0.580
58303SOL    HW274936  10.200  11.545   0.589
58304SOL     OW74937  10.327  11.211   0.753
58304SOL    HW174938  10.255  11.216   0.684
58304SOL    HW274939  10.303  11.142   0.822
58305SOL     OW74940  10.739  12.345   0.867
58305SOL    HW174941  10.684  12.261   0.860
58305SOL    HW274942  10.765  12.374   0.775
58306SOL     OW74943  10.776  11.762   0.992
58306SOL    HW174944  10.746  11.667   0.999
58306SOL    HW274945  10.849  11.778   1.058
58307SOL     OW74946  11.167  12.005   0.377
58307SOL    HW174947  11.209  11.941   0.441
58307SOL    HW274948  11.129  11.954   0.299
58308SOL     OW74949   9.798  12.557   0.174
58308SOL    HW174950   9.711  12.542   0.221
58308SOL    HW274951   9.781  12.583   0.079
58309SOL     OW74952  10.974  12.452   0.657
58309SOL    HW174953  11.073  12.460   0.671
58309SOL    HW274954  10.929  12.536   0.688
58310SOL     OW74955  10.700  11.747   0.078
58310SOL    HW174956  10.646  11.726   0.159
58310SOL    HW274957  10.791  11.706   0.087
58311SOL     OW74958   9.837  11.428   0.328
58311SOL    HW174959   9.864  11.369   0.253
58311SOL    HW274960   9.837  11.523   0.297
58312SOL     OW74961  11.064  12.395   1.588
58312SOL    HW174962  11.155  12.356   1.575
58312SOL    HW274963  11.072  12.491   1.612
58313SOL     OW74964  10.374  12.519   1.340
58313SOL    HW174965  10.294  12.496   1.395
58313SOL    HW274966  10.457  12.493   1.389
58314SOL     OW74967  10.421  12.367   1.100
58314SOL    HW174968  10.381  12.411   1.181
58314SOL    HW274969  10.380  12.404   1.017
58315SOL     OW74970  10.948  12.271   1.079
58315SOL    HW174971  10.953  12.352   1.138
58315SOL    HW274972  10.862  12.273   1.028
58316SOL     OW74973  10.225  11.261   1.402
58316SOL    HW174974  10.250  11.241   1.307
58316SOL    HW274975  10.297  11.317   1.444
58317SOL     OW74976  10.290  12.288   1.719
58317SOL    HW174977  10.191  12.294   1.729
58317SOL    HW274978  10.313  12.208   1.663
58318SOL     OW74979  10.015  12.222   0.368
58318SOL    HW174980  10.001  12.229   0.467
58318SOL    HW274981  10.099  12.171   0.350
58319SOL     OW74982   9.720  11.985   1.251
58319SOL    HW174983   9.806  11.997   1.301
58319SOL    HW274984   9.678  11.898   1.278
58320SOL     OW74985  10.584  11.558   1.262
58320SOL    HW174986  10.605  11.632   1.326
58320SOL    HW274987  10.495  11.575   1.219
58321SOL     OW74988   9.677  12.272   0.501
58321SOL    HW174989   9.670  12.355   0.445
58321SOL    HW274990   9.681  12.192   0.441
58322SOL     OW74991   9.876  11.709   0.865
58322SOL    HW174992   9.888  11.775   0.791
58322SOL    HW274993   9.922  11.743   0.948
58323SOL     OW74994  10.562  12.520   0.388
58323SOL    HW174995  10.612  12.597   0.428
58323SOL    HW274996  10.467  12.522   0.420
58324SOL     OW74997  10.582  12.617   1.142
58324SOL    HW174998  10.629  12.630   1.229
58324SOL    HW274999  10.516  12.543   1.151
58325SOL     OW75000  10.892  11.811   0.472
58325SOL    HW175001  10.861  11.872   0.545
58325SOL    HW275002  10.942  11.863   0.403
58326SOL     OW75003   9.664  12.682   1.329
58326SOL    HW175004   9.643  12.638   1.242
58326SOL    HW275005   9.761  12.708   1.332
58327SOL     OW75006   9.712  11.923   1.598
58327SOL    HW175007   9.780  11.978   1.551
58327SOL    HW275008   9.752  11.835   1.625
58328SOL     OW75009  10.897  11.951   1.670
58328SOL    HW175010  10.805  11.989   1.665
58328SOL    HW275011  10.957  11.998   1.605
58329SOL     OW75012  10.323  11.277   1.770
58329SOL    HW175013  10.329  11.362   1.718
58329SOL    HW275014  10.355  11.201   1.713
58330SOL     OW75015   9.814  11.222   1.740
58330SOL    HW175016   9.772  11.165   1.670
58330SOL    HW275017   9.748  11.291   1.772
58331SOL     OW75018   9.883  12.042   1.029
58331SOL    HW175019   9.927  12.131   1.020
58331SOL    HW275020   9.820  12.042   1.106
58332SOL     OW75021  10.670  12.034   1.045
58332SOL    HW175022  10.595  12.034   0.979
58332SOL    HW275023  10.707  11.942   1.054
58333SOL     OW75024  10.519  11.697   0.275
58333SOL    HW175025  10.532  11.613   0.329
58333SOL    HW275026  10.490  11.771   0.335
58334SOL     OW75027   9.617  11.385   1.231
58334SOL    HW175028   9.594  11.422   1.321
58334SOL    HW275029   9.587  11.290   1.225
58335SOL     OW75030   9.347  12.482   1.282
58335SOL    HW175031   9.400  12.433   1.350
58335SOL    HW275032   9.369  12.580   1.287
58336SOL     OW75033  10.042  11.806   1.064
58336SOL    HW175034  10.101  11.780   0.988
58336SOL    HW275035  10.014  11.902   1.053
58337SOL     OW75036  11.038  12.107   1.854
58337SOL    HW175037  10.992  12.100   1.765
58337SOL    HW275038  10.976  12.151   1.920
58338SOL     OW75039   9.617  11.235   0.618
58338SOL    HW175040   9.606  11.329   0.651
58338SOL    HW275041   9.612  11.172   0.695
58339SOL     OW75042  10.932  11.539   0.374
58339SOL    HW175043  10.934  11.463   0.438
58339SOL    HW275044  10.884  11.616   0.414
58340SOL     OW75045  10.333  11.938   0.966
58340SOL    HW175046  10.348  11.959   1.062
58340SOL    HW275047  10.303  11.843   0.957
58341SOL     OW75048  11.169  12.690   1.605
58341SOL    HW175049  11.183  12.717   1.510
58341SOL    HW275050  11.252  12.712   1.658
58342SOL     OW75051   9.660  12.070   1.804
58342SOL    HW175052   9.736  12.114   1.852
58342SOL    HW275053   9.695  12.023   1.722
58343SOL     OW75054  10.850  11.446   0.125
58343SOL    HW175055  10.789  11.371   0.148
58343SOL    HW275056  10.872  11.498   0.208
58344SOL     OW75057  10.613  12.010   0.042
58344SOL    HW175058  10.647  11.917   0.057
58344SOL    HW275059  10.631  12.037  -0.053
58345SOL     OW75060  10.378  12.505   0.849
58345SOL    HW175061  10.385  12.421   0.794
58345SOL    HW275062  10.440  12.574   0.813
58346SOL     OW75063   9.629  11.982   0.949
58346SOL    HW175064   9.722  12.018   0.954
58346SOL    HW275065   9.623  11.897   1.001
58347SOL     OW75066   9.649  11.681   1.006
58347SOL    HW175067   9.597  11.598   0.989
58347SOL    HW275068   9.726  11.686   0.942
58348SOL     OW75069  10.448  11.552   1.678
58348SOL    HW175070  10.403  11.615   1.742
58348SOL    HW275071  10.541  11.583   1.661
58349SOL     OW75072  10.470  11.379   1.477
58349SOL    HW175073  10.470  11.443   1.554
58349SOL    HW275074  10.498  11.427   1.394
58350SOL     OW75075   9.318  12.498   0.200
58350SOL    HW175076   9.225  12.519   0.169
58350SOL    HW275077   9.328  12.399   0.213
58351SOL     OW75078  10.312  11.968   1.238
58351SOL    HW175079  10.353  11.936   1.324
58351SOL    HW275080  10.216  11.941   1.235
58352SOL     OW75081   9.350  11.716   1.114
58352SOL    HW175082   9.435  11.683   1.073
58352SOL    HW275083   9.363  11.731   1.212
58353SOL     OW75084   9.499  11.692   1.722
58353SOL    HW175085   9.558  11.652   1.652
58353SOL    HW275086   9.441  11.763   1.681
58354SOL     OW75087  10.679  12.122   1.660
58354SOL    HW175088  10.718  12.211   1.680
58354SOL    HW275089  10.689  12.102   1.563
58355SOL     OW75090  10.125  11.744   0.325
58355SOL    HW175091  10.132  11.655   0.279
58355SOL    HW275092  10.031  11.778   0.317
58356SOL     OW75093  10.967  11.776   1.206
58356SOL    HW175094  10.929  11.707   1.268
58356SOL    HW275095  11.049  11.740   1.162
58357SOL     OW75096   9.562  12.736   1.744
58357SOL    HW175097   9.532  12.793   1.820
58357SOL    HW275098   9.555  12.639   1.770
58358SOL     OW75099   9.981  11.636   1.269
58358SOL    HW175100   9.947  11.547   1.239
58358SOL    HW275101  10.007  11.690   1.189
58359SOL     OW75102   9.783  11.672   0.191
58359SOL    HW175103   9.844  11.752   0.195
58359SOL    HW275104   9.688  11.703   0.198
58360SOL     OW75105   9.469  12.309   1.466
58360SOL    HW175106   9.491  12.248   1.542
58360SOL    HW275107   9.479  12.260   1.380
58361SOL     OW75108  10.657  12.231   1.234
58361SOL    HW175109  10.681  12.168   1.160
58361SOL    HW275110  10.567  12.271   1.216
58362SOL     OW75111  10.612  12.027   0.309
58362SOL    HW175112  10.526  11.996   0.351
58362SOL    HW275113  10.608  12.013   0.210
58363SOL     OW75114   9.393  12.430   1.022
58363SOL    HW175115   9.388  12.429   1.122
58363SOL    HW275116   9.310  12.389   0.984
58364SOL     OW75117  10.213  11.258   0.133
58364SOL    HW175118  10.264  11.259   0.047
58364SOL    HW275119  10.269  11.216   0.204
58365SOL     OW75120  11.036  11.307   0.523
58365SOL    HW175121  11.109  11.290   0.456
58365SOL    HW275122  11.005  11.220   0.561
58366SOL     OW75123  10.590  12.099   0.672
58366SOL    HW175124  10.650  12.018   0.674
58366SOL    HW275125  10.630  12.168   0.612
58367SOL     OW75126  10.140  12.445   1.422
58367SOL    HW175127  10.135  12.478   1.517
58367SOL    HW275128  10.054  12.464   1.376
58368SOL     OW75129  11.151  11.347   0.963
58368SOL    HW175130  11.190  11.262   0.927
58368SOL    HW275131  11.053  11.349   0.944
58369SOL     OW75132   9.573  11.498   0.720
58369SOL    HW175133   9.494  11.549   0.686
58369SOL    HW275134   9.564  11.483   0.818
58370SOL     OW75135  10.504  12.784   0.031
58370SOL    HW175136  10.510  12.691   0.068
58370SOL    HW275137  10.445  12.784  -0.049
58371SOL     OW75138  10.132  12.174   1.372
58371SOL    HW175139  10.172  12.173   1.280
58371SOL    HW275140  10.142  12.266   1.412
58372SOL     OW75141  10.226  12.082   0.291
58372SOL    HW175142  10.289  12.120   0.223
58372SOL    HW275143  10.266  11.999   0.330
58373SOL     OW75144   9.682  12.460   1.490
58373SOL    HW175145   9.669  12.553   1.456
58373SOL    HW275146   9.598  12.408   1.477
58374SOL     OW75147  10.924  12.464   1.289
58374SOL    HW175148  10.984  12.467   1.369
58374SOL    HW275149  10.849  12.528   1.302
58375SOL     OW75150  10.349  12.270   0.696
58375SOL    HW175151  10.279  12.223   0.750
58375SOL    HW275152  10.408  12.202   0.653
58376SOL     OW75153  10.324  11.408   0.971
58376SOL    HW175154  10.316  11.372   0.878
58376SOL    HW275155  10.322  11.332   1.036
58377SOL     OW75156  11.019  11.557   1.381
58377SOL    HW175157  11.092  11.626   1.385
58377SOL    HW275158  11.047  11.482   1.322
58378SOL     OW75159   9.565  12.520   0.290
58378SOL    HW175160   9.469  12.521   0.263
58378SOL    HW275161   9.577  12.573   0.374
58379SOL     OW75162   9.415  12.185   1.726
58379SOL    HW175163   9.338  12.152   1.780
58379SOL    HW275164   9.500  12.155   1.768
58380SOL     OW75165   9.982  11.375   1.489
58380SOL    HW175166  10.072  11.359   1.449
58380SOL    HW275167   9.990  11.380   1.588
58381SOL     OW75168  10.750  12.028   1.398
58381SOL    HW175169  10.693  12.080   1.335
58381SOL    HW275170  10.846  12.040   1.374
58382SOL     OW75171   9.382  11.338   0.318
58382SOL    HW175172   9.365  11.421   0.264
58382SOL    HW275173   9.472  11.301   0.296
58383SOL     OW75174  10.493  12.507   0.119
58383SOL    HW175175  10.394  12.496   0.121
58383SOL    HW275176  10.527  12.522   0.212
58384SOL     OW75177   9.923  12.014   1.431
58384SOL    HW175178   9.979  12.095   1.414
58384SOL    HW275179   9.982  11.934   1.434
58385SOL     OW75180  10.026  11.737   1.708
58385SOL    HW175181  10.045  11.802   1.782
58385SOL    HW275182  10.086  11.657   1.717
58386SOL     OW75183  10.760  12.392   1.633
58386SOL    HW175184  10.751  12.382   1.732
58386SOL    HW275185  10.856  12.385   1.607
58387SOL     OW75186  10.984  12.055   1.254
58387SOL    HW175187  10.957  11.966   1.217
58387SOL    HW275188  10.985  12.123   1.181
58388SOL     OW75189  10.535  11.497   0.449
58388SOL    HW175190  10.600  11.423   0.438
58388SOL    HW275191  10.555  11.547   0.533
58389SOL     OW75192   9.904  11.917   0.652
58389SOL    HW175193   9.954  12.002   0.633
58389SOL    HW275194   9.816  11.919   0.604
58390SOL     OW75195  11.087  11.514   1.642
58390SOL    HW175196  11.070  11.545   1.548
58390SOL    HW275197  11.003  11.477   1.680
58391SOL     OW75198  11.040  12.106   1.517
58391SOL    HW175199  11.078  12.197   1.532
58391SOL    HW275200  11.032  12.089   1.418
58392SOL     OW75201  10.169  12.546   0.016
58392SOL    HW175202  10.123  12.561   0.104
58392SOL    HW275203  10.213  12.631  -0.014
58393SOL     OW75204  10.169  12.128   0.861
58393SOL    HW175205  10.223  12.059   0.909
58393SOL    HW275206  10.137  12.197   0.927
58394SOL     OW75207  10.393  12.156   0.087
58394SOL    HW175208  10.370  12.209   0.005
58394SOL    HW275209  10.474  12.100   0.068
58395SOL     OW75210   9.531  12.486   1.844
58395SOL    HW175211   9.466  12.413   1.823
58395SOL    HW275212   9.535  12.500   1.942
58396SOL     OW75213   9.389  12.412   0.653
58396SOL    HW175214   9.388  12.365   0.741
58396SOL    HW275215   9.471  12.384   0.602
58397SOL     OW75216   9.982  12.563   1.624
58397SOL    HW175217   9.904  12.513   1.662
58397SOL    HW275218   9.979  12.658   1.655
58398SOL     OW75219  11.134  11.364   1.227
58398SOL    HW175220  11.130  11.274   1.271
58398SOL    HW275221  11.137  11.353   1.128
58399SOL     OW75222   9.738  11.596   0.520
58399SOL    HW175223   9.768  11.524   0.458
58399SOL    HW275224   9.699  11.556   0.603
58400SOL     OW75225  11.015  12.659   1.104
58400SOL    HW175226  10.922  12.634   1.077
58400SOL    HW275227  11.041  12.609   1.186
58401SOL     OW75228   9.627  11.719   1.280
58401SOL    HW175229   9.665  11.660   1.352
58401SOL    HW275230   9.667  11.693   1.192
58402SOL     OW75231  10.734  11.386   1.112
58402SOL    HW175232  10.786  11.321   1.167
58402SOL    HW275233  10.685  11.449   1.173
58403SOL     OW75234  10.311  11.206   1.154
58403SOL    HW175235  10.248  11.134   1.123
58403SOL    HW275236  10.404  11.170   1.154
58404SOL     OW75237  10.080  12.502   0.301
58404SOL    HW175238  10.034  12.415   0.318
58404SOL    HW275239  10.171  12.499   0.342
58405SOL     OW75240   9.928  12.739   1.284
58405SOL    HW175241   9.923  12.821   1.341
58405SOL    HW275242  10.017  12.736   1.239
58406SOL     OW75243  10.662  11.224   0.168
58406SOL    HW175244  10.697  11.183   0.084
58406SOL    HW275245  10.572  11.186   0.188
58407SOL     OW75246  10.610  11.625   0.691
58407SOL    HW175247  10.551  11.705   0.695
58407SOL    HW275248  10.625  11.590   0.784
58408SOL     OW75249  10.903  11.393   0.882
58408SOL    HW175250  10.819  11.392   0.936
58408SOL    HW275251  10.905  11.476   0.826
58409SOL     OW75252   9.349  12.249   0.300
58409SOL    HW175253   9.448  12.238   0.291
58409SOL    HW275254   9.309  12.163   0.332
58410SOL     OW75255   9.540  11.800   1.975
58410SOL    HW175256   9.447  11.798   2.012
58410SOL    HW275257   9.541  11.761   1.883
58411SOL     OW75258   9.535  11.447   2.858
58411SOL    HW175259   9.570  11.430   2.950
58411SOL    HW275260   9.447  11.402   2.846
58412SOL     OW75261   9.329  11.540   2.509
58412SOL    HW175262   9.247  11.583   2.548
58412SOL    HW275263   9.301  11.467   2.446
58413SOL     OW75264   9.879  12.447   3.027
58413SOL    HW175265   9.786  12.440   2.990
58413SOL    HW275266   9.890  12.536   3.071
58414SOL     OW75267  10.865  12.683   2.565
58414SOL    HW175268  10.808  12.667   2.646
58414SOL    HW275269  10.806  12.693   2.485
58415SOL     OW75270  10.445  11.875   2.579
58415SOL    HW175271  10.502  11.953   2.554
58415SOL    HW275272  10.385  11.901   2.655
58416SOL     OW75273  11.065  11.779   2.093
58416SOL    HW175274  11.053  11.766   1.994
58416SOL    HW275275  11.035  11.698   2.142
58417SOL     OW75276  10.078  12.316   2.885
58417SOL    HW175277  10.000  12.333   2.945
58417SOL    HW275278  10.112  12.403   2.849
58418SOL     OW75279  10.160  11.970   3.685
58418SOL    HW175280  10.156  12.046   3.750
58418SOL    HW275281  10.182  12.006   3.594
58419SOL     OW75282   9.995  12.184   2.527
58419SOL    HW175283  10.064  12.168   2.597
58419SOL    HW275284   9.922  12.241   2.565
58420SOL     OW75285   9.996  12.333   3.665
58420SOL    HW175286  10.056  12.412   3.679
58420SOL    HW275287   9.910  12.364   3.624
58421SOL     OW75288   9.645  12.607   2.923
58421SOL    HW175289   9.567  12.576   2.870
58421SOL    HW275290   9.703  12.665   2.866
58422SOL     OW75291  10.770  12.677   3.201
58422SOL    HW175292  10.794  12.771   3.227
58422SOL    HW275293  10.754  12.623   3.283
58423SOL     OW75294   9.748  11.564   3.361
58423SOL    HW175295   9.830  11.508   3.370
58423SOL    HW275296   9.667  11.506   3.365
58424SOL     OW75297  10.913  11.619   2.599
58424SOL    HW175298  10.839  11.665   2.549
58424SOL    HW275299  10.964  11.687   2.652
58425SOL     OW75300   9.541  12.885   2.345
58425SOL    HW175301   9.575  12.962   2.399
58425SOL    HW275302   9.585  12.885   2.255
58426SOL     OW75303  10.437  12.513   3.552
58426SOL    HW175304  10.484  12.513   3.640
58426SOL    HW275305  10.389  12.426   3.541
58427SOL     OW75306   9.540  12.606   2.400
58427SOL    HW175307   9.514  12.702   2.400
58427SOL    HW275308   9.469  12.552   2.445
58428SOL     OW75309   9.550  12.263   2.748
58428SOL    HW175310   9.564  12.179   2.800
58428SOL    HW275311   9.495  12.327   2.803
58429SOL     OW75312   9.916  12.136   1.985
58429SOL    HW175313   9.923  12.220   1.931
58429SOL    HW275314   9.962  12.149   2.073
58430SOL     OW75315  10.904  11.286   3.342
58430SOL    HW175316  10.886  11.353   3.270
58430SOL    HW275317  10.901  11.332   3.431
58431SOL     OW75318   9.432  11.815   2.425
58431SOL    HW175319   9.387  11.727   2.442
58431SOL    HW275320   9.431  11.869   2.509
58432SOL     OW75321   9.337  12.768   1.979
58432SOL    HW175322   9.318  12.672   2.000
58432SOL    HW275323   9.304  12.826   2.054
58433SOL     OW75324  10.999  12.094   2.474
58433SOL    HW175325  11.094  12.065   2.482
58433SOL    HW275326  10.991  12.159   2.399
58434SOL     OW75327  10.951  12.280   2.294
58434SOL    HW175328  11.037  12.282   2.242
58434SOL    HW275329  10.965  12.327   2.382
58435SOL     OW75330   9.423  11.909   3.459
58435SOL    HW175331   9.511  11.896   3.504
58435SOL    HW275332   9.410  12.006   3.437
58436SOL     OW75333   9.923  12.537   2.588
58436SOL    HW175334   9.874  12.450   2.597
58436SOL    HW275335   9.900  12.580   2.501
58437SOL     OW75336  10.603  12.400   3.285
58437SOL    HW175337  10.640  12.327   3.227
58437SOL    HW275338  10.655  12.405   3.370
58438SOL     OW75339  10.119  11.176   2.364
58438SOL    HW175340  10.159  11.267   2.355
58438SOL    HW275341  10.019  11.184   2.370
58439SOL     OW75342   9.507  12.148   3.126
58439SOL    HW175343   9.596  12.103   3.112
58439SOL    HW275344   9.434  12.083   3.107
58440SOL     OW75345  10.835  12.171   2.052
58440SOL    HW175346  10.772  12.095   2.065
58440SOL    HW275347  10.883  12.189   2.138
58441SOL     OW75348   9.627  11.423   3.663
58441SOL    HW175349   9.698  11.494   3.669
58441SOL    HW275350   9.539  11.462   3.691
58442SOL     OW75351  10.776  12.589   2.815
58442SOL    HW175352  10.717  12.595   2.895
58442SOL    HW275353  10.761  12.501   2.769
58443SOL     OW75354   9.908  11.901   2.132
58443SOL    HW175355   9.932  11.970   2.064
58443SOL    HW275356   9.830  11.934   2.186
58444SOL     OW75357  10.591  11.517   2.806
58444SOL    HW175358  10.505  11.467   2.793
58444SOL    HW275359  10.653  11.463   2.862
58445SOL     OW75360  10.117  11.777   3.327
58445SOL    HW175361  10.070  11.774   3.416
58445SOL    HW275362  10.066  11.722   3.261
58446SOL     OW75363  10.704  11.641   3.536
58446SOL    HW175364  10.684  11.684   3.624
58446SOL    HW275365  10.782  11.579   3.545
58447SOL     OW75366  10.283  12.062   3.434
58447SOL    HW175367  10.329  11.978   3.405
58447SOL    HW275368  10.227  12.096   3.359
58448SOL     OW75369  10.301  11.582   3.104
58448SOL    HW175370  10.224  11.616   3.158
58448SOL    HW275371  10.267  11.531   3.025
58449SOL     OW75372  10.351  11.873   2.291
58449SOL    HW175373  10.377  11.869   2.387
58449SOL    HW275374  10.266  11.822   2.277
58450SOL     OW75375   9.386  11.983   2.651
58450SOL    HW175376   9.485  11.971   2.660
58450SOL    HW275377   9.362  12.078   2.672
58451SOL     OW75378  10.175  11.520   2.057
58451SOL    HW175379  10.234  11.583   2.008
58451SOL    HW275380  10.194  11.426   2.028
58452SOL     OW75381  11.029  11.757   3.693
58452SOL    HW175382  11.003  11.846   3.657
58452SOL    HW275383  11.027  11.689   3.620
58453SOL     OW75384  10.672  12.316   2.407
58453SOL    HW175385  10.755  12.287   2.359
58453SOL    HW275386  10.623  12.383   2.351
58454SOL     OW75387   9.860  11.368   2.747
58454SOL    HW175388   9.855  11.363   2.847
58454SOL    HW275389   9.862  11.464   2.718
58455SOL     OW75390  10.318  12.628   2.339
58455SOL    HW175391  10.272  12.700   2.287
58455SOL    HW275392  10.314  12.648   2.437
58456SOL     OW75393  11.105  12.238   2.735
58456SOL    HW175394  11.043  12.223   2.659
58456SOL    HW275395  11.053  12.249   2.820
58457SOL     OW75396  10.537  12.722   3.368
58457SOL    HW175397  10.543  12.645   3.432
58457SOL    HW275398  10.485  12.696   3.288
58458SOL     OW75399   9.631  12.115   2.104
58458SOL    HW175400   9.713  12.154   2.062
58458SOL    HW275401   9.604  12.033   2.055
58459SOL     OW75402  10.768  11.907   2.590
58459SOL    HW175403  10.763  11.842   2.665
58459SOL    HW275404  10.848  11.966   2.603
58460SOL     OW75405   9.771  12.438   3.589
58460SOL    HW175406   9.721  12.439   3.503
58460SOL    HW275407   9.708  12.420   3.665
58461SOL     OW75408  10.421  12.948   2.099
58461SOL    HW175409  10.361  12.886   2.149
58461SOL    HW275410  10.452  12.904   2.014
58462SOL     OW75411   9.512  11.457   3.360
58462SOL    HW175412   9.432  11.517   3.347
58462SOL    HW275413   9.502  11.408   3.446
58463SOL     OW75414  10.942  12.549   1.943
58463SOL    HW175415  10.910  12.643   1.933
58463SOL    HW275416  10.866  12.486   1.931
58464SOL     OW75417  10.710  11.279   2.288
58464SOL    HW175418  10.686  11.242   2.198
58464SOL    HW275419  10.809  11.295   2.292
58465SOL     OW75420   9.692  11.872   2.342
58465SOL    HW175421   9.737  11.782   2.339
58465SOL    HW275422   9.598  11.861   2.375
58466SOL     OW75423  10.857  11.394   3.591
58466SOL    HW175424  10.852  11.431   3.683
58466SOL    HW275425  10.785  11.325   3.579
58467SOL     OW75426   9.924  11.294   1.979
58467SOL    HW175427  10.022  11.272   1.986
58467SOL    HW275428   9.893  11.277   1.886
58468SOL     OW75429  10.091  11.436   3.611
58468SOL    HW175430  10.158  11.375   3.654
58468SOL    HW275431  10.018  11.455   3.676
58469SOL     OW75432  10.661  11.762   3.295
58469SOL    HW175433  10.689  11.719   3.380
58469SOL    HW275434  10.686  11.858   3.296
58470SOL     OW75435  10.113  12.574   2.786
58470SOL    HW175436  10.203  12.588   2.744
58470SOL    HW275437  10.042  12.576   2.715
58471SOL     OW75438  10.232  11.675   2.761
58471SOL    HW175439  10.207  11.666   2.665
58471SOL    HW275440  10.280  11.593   2.792
58472SOL     OW75441   9.849  11.236   2.374
58472SOL    HW175442   9.768  11.237   2.432
58472SOL    HW275443   9.852  11.319   2.319
58473SOL     OW75444  10.744  12.360   1.903
58473SOL    HW175445  10.776  12.284   1.960
58473SOL    HW275446  10.652  12.387   1.933
58474SOL     OW75447   9.607  11.207   2.033
58474SOL    HW175448   9.656  11.291   2.012
58474SOL    HW275449   9.669  11.142   2.078
58475SOL     OW75450  10.245  11.408   2.342
58475SOL    HW175451  10.197  11.449   2.264
58475SOL    HW275452  10.344  11.406   2.323
58476SOL     OW75453  10.386  11.855   3.326
58476SOL    HW175454  10.306  11.794   3.329
58476SOL    HW275455  10.467  11.802   3.302
58477SOL     OW75456  10.537  12.742   2.655
58477SOL    HW175457  10.558  12.816   2.590
58477SOL    HW275458  10.605  12.742   2.728
58478SOL     OW75459   9.769  12.324   2.603
58478SOL    HW175460   9.698  12.297   2.668
58478SOL    HW275461   9.743  12.296   2.510
58479SOL     OW75462  10.342  11.721   1.878
58479SOL    HW175463  10.301  11.803   1.839
58479SOL    HW275464  10.406  11.747   1.951
58480SOL     OW75465   9.388  11.728   3.248
58480SOL    HW175466   9.480  11.727   3.207
58480SOL    HW275467   9.382  11.802   3.315
58481SOL     OW75468   9.871  11.394   3.009
58481SOL    HW175469   9.909  11.310   3.046
58481SOL    HW275470   9.783  11.413   3.053
58482SOL     OW75471  10.176  11.626   2.504
58482SOL    HW175472  10.144  11.698   2.442
58482SOL    HW275473  10.200  11.545   2.451
58483SOL     OW75474  10.327  11.211   2.615
58483SOL    HW175475  10.255  11.216   2.546
58483SOL    HW275476  10.303  11.142   2.684
58484SOL     OW75477  10.739  12.345   2.729
58484SOL    HW175478  10.684  12.261   2.722
58484SOL    HW275479  10.765  12.374   2.637
58485SOL     OW75480  10.776  11.762   2.854
58485SOL    HW175481  10.746  11.667   2.861
58485SOL    HW275482  10.849  11.778   2.920
58486SOL     OW75483  11.167  12.005   2.239
58486SOL    HW175484  11.209  11.941   2.303
58486SOL    HW275485  11.129  11.954   2.161
58487SOL     OW75486   9.798  12.557   2.036
58487SOL    HW175487   9.711  12.542   2.083
58487SOL    HW275488   9.781  12.583   1.941
58488SOL     OW75489  10.974  12.452   2.519
58488SOL    HW175490  11.073  12.460   2.533
58488SOL    HW275491  10.929  12.536   2.550
58489SOL     OW75492  10.700  11.747   1.940
58489SOL    HW175493  10.646  11.726   2.021
58489SOL    HW275494  10.791  11.706   1.949
58490SOL     OW75495   9.837  11.428   2.190
58490SOL    HW175496   9.864  11.369   2.115
58490SOL    HW275497   9.837  11.523   2.159
58491SOL     OW75498  11.064  12.395   3.450
58491SOL    HW175499  11.155  12.356   3.437
58491SOL    HW275500  11.072  12.491   3.474
58492SOL     OW75501  10.374  12.519   3.202
58492SOL    HW175502  10.294  12.496   3.257
58492SOL    HW275503  10.457  12.493   3.251
58493SOL     OW75504  10.421  12.367   2.962
58493SOL    HW175505  10.381  12.411   3.043
58493SOL    HW275506  10.380  12.404   2.879
58494SOL     OW75507  10.948  12.271   2.941
58494SOL    HW175508  10.953  12.352   3.000
58494SOL    HW275509  10.862  12.273   2.890
58495SOL     OW75510  10.225  11.261   3.264
58495SOL    HW175511  10.250  11.241   3.169
58495SOL    HW275512  10.297  11.317   3.306
58496SOL     OW75513  10.290  12.288   3.581
58496SOL    HW175514  10.191  12.294   3.591
58496SOL    HW275515  10.313  12.208   3.525
58497SOL     OW75516  10.015  12.222   2.230
58497SOL    HW175517  10.001  12.229   2.329
58497SOL    HW275518  10.099  12.171   2.212
58498SOL     OW75519   9.720  11.985   3.113
58498SOL    HW175520   9.806  11.997   3.163
58498SOL    HW275521   9.678  11.898   3.140
58499SOL     OW75522  10.584  11.558   3.124
58499SOL    HW175523  10.605  11.632   3.188
58499SOL    HW275524  10.495  11.575   3.081
58500SOL     OW75525   9.677  12.272   2.363
58500SOL    HW175526   9.670  12.355   2.307
58500SOL    HW275527   9.681  12.192   2.303
58501SOL     OW75528   9.876  11.709   2.727
58501SOL    HW175529   9.888  11.775   2.653
58501SOL    HW275530   9.922  11.743   2.810
58502SOL     OW75531  10.562  12.520   2.250
58502SOL    HW175532  10.612  12.597   2.290
58502SOL    HW275533  10.467  12.522   2.282
58503SOL     OW75534  10.582  12.617   3.004
58503SOL    HW175535  10.629  12.630   3.091
58503SOL    HW275536  10.516  12.543   3.013
58504SOL     OW75537  10.892  11.811   2.334
58504SOL    HW175538  10.861  11.872   2.407
58504SOL    HW275539  10.942  11.863   2.265
58505SOL     OW75540   9.664  12.682   3.191
58505SOL    HW175541   9.643  12.638   3.104
58505SOL    HW275542   9.761  12.708   3.194
58506SOL     OW75543   9.712  11.923   3.460
58506SOL    HW175544   9.780  11.978   3.413
58506SOL    HW275545   9.752  11.835   3.487
58507SOL     OW75546  10.897  11.951   3.532
58507SOL    HW175547  10.805  11.989   3.527
58507SOL    HW275548  10.957  11.998   3.467
58508SOL     OW75549  10.323  11.277   3.632
58508SOL    HW175550  10.329  11.362   3.580
58508SOL    HW275551  10.355  11.201   3.575
58509SOL     OW75552   9.814  11.222   3.602
58509SOL    HW175553   9.772  11.165   3.532
58509SOL    HW275554   9.748  11.291   3.634
58510SOL     OW75555   9.883  12.042   2.891
58510SOL    HW175556   9.927  12.131   2.882
58510SOL    HW275557   9.820  12.042   2.968
58511SOL     OW75558  10.670  12.034   2.907
58511SOL    HW175559  10.595  12.034   2.841
58511SOL    HW275560  10.707  11.942   2.916
58512SOL     OW75561  10.519  11.697   2.137
58512SOL    HW175562  10.532  11.613   2.191
58512SOL    HW275563  10.490  11.771   2.197
58513SOL     OW75564   9.617  11.385   3.093
58513SOL    HW175565   9.594  11.422   3.183
58513SOL    HW275566   9.587  11.290   3.087
58514SOL     OW75567   9.347  12.482   3.144
58514SOL    HW175568   9.400  12.433   3.212
58514SOL    HW275569   9.369  12.580   3.149
58515SOL     OW75570  10.042  11.806   2.926
58515SOL    HW175571  10.101  11.780   2.850
58515SOL    HW275572  10.014  11.902   2.915
58516SOL     OW75573  11.038  12.107   3.716
58516SOL    HW175574  10.992  12.100   3.627
58516SOL    HW275575  10.976  12.151   3.782
58517SOL     OW75576   9.617  11.235   2.480
58517SOL    HW175577   9.606  11.329   2.513
58517SOL    HW275578   9.612  11.172   2.557
58518SOL     OW75579  10.932  11.539   2.236
58518SOL    HW175580  10.934  11.463   2.300
58518SOL    HW275581  10.884  11.616   2.276
58519SOL     OW75582  10.333  11.938   2.828
58519SOL    HW175583  10.348  11.959   2.924
58519SOL    HW275584  10.303  11.843   2.819
58520SOL     OW75585  11.169  12.690   3.467
58520SOL    HW175586  11.183  12.717   3.372
58520SOL    HW275587  11.252  12.712   3.520
58521SOL     OW75588   9.660  12.070   3.666
58521SOL    HW175589   9.736  12.114   3.714
58521SOL    HW275590   9.695  12.023   3.584
58522SOL     OW75591  10.850  11.446   1.987
58522SOL    HW175592  10.789  11.371   2.010
58522SOL    HW275593  10.872  11.498   2.070
58523SOL     OW75594  10.613  12.010   1.904
58523SOL    HW175595  10.647  11.917   1.919
58523SOL    HW275596  10.631  12.037   1.809
58524SOL     OW75597  10.378  12.505   2.711
58524SOL    HW175598  10.385  12.421   2.656
58524SOL    HW275599  10.440  12.574   2.675
58525SOL     OW75600   9.629  11.982   2.811
58525SOL    HW175601   9.722  12.018   2.816
58525SOL    HW275602   9.623  11.897   2.863
58526SOL     OW75603   9.649  11.681   2.868
58526SOL    HW175604   9.597  11.598   2.851
58526SOL    HW275605   9.726  11.686   2.804
58527SOL     OW75606  10.448  11.552   3.540
58527SOL    HW175607  10.403  11.615   3.604
58527SOL    HW275608  10.541  11.583   3.523
58528SOL     OW75609  10.470  11.379   3.339
58528SOL    HW175610  10.470  11.443   3.416
58528SOL    HW275611  10.498  11.427   3.256
58529SOL     OW75612   9.318  12.498   2.062
58529SOL    HW175613   9.225  12.519   2.031
58529SOL    HW275614   9.328  12.399   2.075
58530SOL     OW75615  10.312  11.968   3.100
58530SOL    HW175616  10.353  11.936   3.186
58530SOL    HW275617  10.216  11.941   3.097
58531SOL     OW75618   9.350  11.716   2.976
58531SOL    HW175619   9.435  11.683   2.935
58531SOL    HW275620   9.363  11.731   3.074
58532SOL     OW75621   9.499  11.692   3.584
58532SOL    HW175622   9.558  11.652   3.514
58532SOL    HW275623   9.441  11.763   3.543
58533SOL     OW75624  10.679  12.122   3.522
58533SOL    HW175625  10.718  12.211   3.542
58533SOL    HW275626  10.689  12.102   3.425
58534SOL     OW75627  10.125  11.744   2.187
58534SOL    HW175628  10.132  11.655   2.141
58534SOL    HW275629  10.031  11.778   2.179
58535SOL     OW75630  10.967  11.776   3.068
58535SOL    HW175631  10.929  11.707   3.130
58535SOL    HW275632  11.049  11.740   3.024
58536SOL     OW75633   9.562  12.736   3.606
58536SOL    HW175634   9.532  12.793   3.682
58536SOL    HW275635   9.555  12.639   3.632
58537SOL     OW75636   9.981  11.636   3.131
58537SOL    HW175637   9.947  11.547   3.101
58537SOL    HW275638  10.007  11.690   3.051
58538SOL     OW75639   9.783  11.672   2.053
58538SOL    HW175640   9.844  11.752   2.057
58538SOL    HW275641   9.688  11.703   2.060
58539SOL     OW75642   9.469  12.309   3.328
58539SOL    HW175643   9.491  12.248   3.404
58539SOL    HW275644   9.479  12.260   3.242
58540SOL     OW75645  10.657  12.231   3.096
58540SOL    HW175646  10.681  12.168   3.022
58540SOL    HW275647  10.567  12.271   3.078
58541SOL     OW75648  10.612  12.027   2.171
58541SOL    HW175649  10.526  11.996   2.213
58541SOL    HW275650  10.608  12.013   2.072
58542SOL     OW75651   9.393  12.430   2.884
58542SOL    HW175652   9.388  12.429   2.984
58542SOL    HW275653   9.310  12.389   2.846
58543SOL     OW75654  11.036  11.307   2.385
58543SOL    HW175655  11.109  11.290   2.318
58543SOL    HW275656  11.005  11.220   2.423
58544SOL     OW75657  10.590  12.099   2.534
58544SOL    HW175658  10.650  12.018   2.536
58544SOL    HW275659  10.630  12.168   2.474
58545SOL     OW75660  10.140  12.445   3.284
58545SOL    HW175661  10.135  12.478   3.379
58545SOL    HW275662  10.054  12.464   3.238
58546SOL     OW75663  11.151  11.347   2.825
58546SOL    HW175664  11.190  11.262   2.789
58546SOL    HW275665  11.053  11.349   2.806
58547SOL     OW75666   9.573  11.498   2.582
58547SOL    HW175667   9.494  11.549   2.548
58547SOL    HW275668   9.564  11.483   2.680
58548SOL     OW75669  10.132  12.174   3.234
58548SOL    HW175670  10.172  12.173   3.142
58548SOL    HW275671  10.142  12.266   3.274
58549SOL     OW75672  10.226  12.082   2.153
58549SOL    HW175673  10.289  12.120   2.085
58549SOL    HW275674  10.266  11.999   2.192
58550SOL     OW75675   9.682  12.460   3.352
58550SOL    HW175676   9.669  12.553   3.318
58550SOL    HW275677   9.598  12.408   3.339
58551SOL     OW75678  10.924  12.464   3.151
58551SOL    HW175679  10.984  12.467   3.231
58551SOL    HW275680  10.849  12.528   3.164
58552SOL     OW75681  10.349  12.270   2.558
58552SOL    HW175682  10.279  12.223   2.612
58552SOL    HW275683  10.408  12.202   2.515
58553SOL     OW75684  10.324  11.408   2.833
58553SOL    HW175685  10.316  11.372   2.740
58553SOL    HW275686  10.322  11.332   2.898
58554SOL     OW75687  11.019  11.557   3.243
58554SOL    HW175688  11.092  11.626   3.247
58554SOL    HW275689  11.047  11.482   3.184
58555SOL     OW75690   9.565  12.520   2.152
58555SOL    HW175691   9.469  12.521   2.125
58555SOL    HW275692   9.577  12.573   2.236
58556SOL     OW75693   9.415  12.185   3.588
58556SOL    HW175694   9.338  12.152   3.642
58556SOL    HW275695   9.500  12.155   3.630
58557SOL     OW75696   9.982  11.375   3.351
58557SOL    HW175697  10.072  11.359   3.311
58557SOL    HW275698   9.990  11.380   3.450
58558SOL     OW75699   9.385  11.517   1.895
58558SOL    HW175700   9.293  11.489   1.866
58558SOL    HW275701   9.416  11.594   1.839
58559SOL     OW75702  10.750  12.028   3.260
58559SOL    HW175703  10.693  12.080   3.197
58559SOL    HW275704  10.846  12.040   3.236
58560SOL     OW75705   9.382  11.338   2.180
58560SOL    HW175706   9.365  11.421   2.126
58560SOL    HW275707   9.472  11.301   2.158
58561SOL     OW75708  10.493  12.507   1.981
58561SOL    HW175709  10.394  12.496   1.983
58561SOL    HW275710  10.527  12.522   2.074
58562SOL     OW75711   9.923  12.014   3.293
58562SOL    HW175712   9.979  12.095   3.276
58562SOL    HW275713   9.982  11.934   3.296
58563SOL     OW75714  10.026  11.737   3.570
58563SOL    HW175715  10.045  11.802   3.644
58563SOL    HW275716  10.086  11.657   3.579
58564SOL     OW75717  10.760  12.392   3.495
58564SOL    HW175718  10.751  12.382   3.594
58564SOL    HW275719  10.856  12.385   3.469
58565SOL     OW75720  10.984  12.055   3.116
58565SOL    HW175721  10.957  11.966   3.079
58565SOL    HW275722  10.985  12.123   3.043
58566SOL     OW75723  10.535  11.497   2.311
58566SOL    HW175724  10.600  11.423   2.300
58566SOL    HW275725  10.555  11.547   2.395
58567SOL     OW75726   9.904  11.917   2.514
58567SOL    HW175727   9.954  12.002   2.495
58567SOL    HW275728   9.816  11.919   2.466
58568SOL     OW75729  11.087  11.514   3.504
58568SOL    HW175730  11.070  11.545   3.410
58568SOL    HW275731  11.003  11.477   3.542
58569SOL     OW75732  11.040  12.106   3.379
58569SOL    HW175733  11.078  12.197   3.394
58569SOL    HW275734  11.032  12.089   3.280
58570SOL     OW75735  10.169  12.546   1.878
58570SOL    HW175736  10.123  12.561   1.966
58570SOL    HW275737  10.213  12.631   1.848
58571SOL     OW75738  10.169  12.128   2.723
58571SOL    HW175739  10.223  12.059   2.771
58571SOL    HW275740  10.137  12.197   2.789
58572SOL     OW75741  10.393  12.156   1.949
58572SOL    HW175742  10.370  12.209   1.867
58572SOL    HW275743  10.474  12.100   1.930
58573SOL     OW75744   9.531  12.486   3.706
58573SOL    HW175745   9.466  12.413   3.685
58573SOL    HW275746   9.535  12.500   3.804
58574SOL     OW75747   9.389  12.412   2.515
58574SOL    HW175748   9.388  12.365   2.603
58574SOL    HW275749   9.471  12.384   2.464
58575SOL     OW75750   9.982  12.563   3.486
58575SOL    HW175751   9.904  12.513   3.524
58575SOL    HW275752   9.979  12.658   3.517
58576SOL     OW75753  11.134  11.364   3.089
58576SOL    HW175754  11.130  11.274   3.133
58576SOL    HW275755  11.137  11.353   2.990
58577SOL     OW75756   9.738  11.596   2.382
58577SOL    HW175757   9.768  11.524   2.320
58577SOL    HW275758   9.699  11.556   2.465
58578SOL     OW75759  11.015  12.659   2.966
58578SOL    HW175760  10.922  12.634   2.939
58578SOL    HW275761  11.041  12.609   3.048
58579SOL     OW75762   9.627  11.719   3.142
58579SOL    HW175763   9.665  11.660   3.214
58579SOL    HW275764   9.667  11.693   3.054
58580SOL     OW75765  10.734  11.386   2.974
58580SOL    HW175766  10.786  11.321   3.029
58580SOL    HW275767  10.685  11.449   3.035
58581SOL     OW75768  10.311  11.206   3.016
58581SOL    HW175769  10.248  11.134   2.985
58581SOL    HW275770  10.404  11.170   3.016
58582SOL     OW75771  10.080  12.502   2.163
58582SOL    HW175772  10.034  12.415   2.180
58582SOL    HW275773  10.171  12.499   2.204
58583SOL     OW75774   9.928  12.739   3.146
58583SOL    HW175775   9.923  12.821   3.203
58583SOL    HW275776  10.017  12.736   3.101
58584SOL     OW75777  10.662  11.224   2.030
58584SOL    HW175778  10.697  11.183   1.946
58584SOL    HW275779  10.572  11.186   2.050
58585SOL     OW75780  10.610  11.625   2.553
58585SOL    HW175781  10.551  11.705   2.557
58585SOL    HW275782  10.625  11.590   2.646
58586SOL     OW75783  10.903  11.393   2.744
58586SOL    HW175784  10.819  11.392   2.798
58586SOL    HW275785  10.905  11.476   2.688
58587SOL     OW75786   9.349  12.249   2.162
58587SOL    HW175787   9.448  12.238   2.153
58587SOL    HW275788   9.309  12.163   2.194
58588SOL     OW75789   9.540  11.800   3.837
58588SOL    HW175790   9.447  11.798   3.874
58588SOL    HW275791   9.541  11.761   3.745
58589SOL     OW75792   9.535  11.447   4.720
58589SOL    HW175793   9.570  11.430   4.812
58589SOL    HW275794   9.447  11.402   4.708
58590SOL     OW75795   9.329  11.540   4.371
58590SOL    HW175796   9.247  11.583   4.410
58590SOL    HW275797   9.301  11.467   4.308
58591SOL     OW75798   9.879  12.447   4.889
58591SOL    HW175799   9.786  12.440   4.852
58591SOL    HW275800   9.890  12.536   4.933
58592SOL     OW75801  10.865  12.683   4.427
58592SOL    HW175802  10.808  12.667   4.508
58592SOL    HW275803  10.806  12.693   4.347
58593SOL     OW75804  10.445  11.875   4.441
58593SOL    HW175805  10.502  11.953   4.416
58593SOL    HW275806  10.385  11.901   4.517
58594SOL     OW75807  11.065  11.779   3.955
58594SOL    HW175808  11.053  11.766   3.856
58594SOL    HW275809  11.035  11.698   4.004
58595SOL     OW75810  10.078  12.316   4.747
58595SOL    HW175811  10.000  12.333   4.807
58595SOL    HW275812  10.112  12.403   4.711
58596SOL     OW75813  10.160  11.970   5.547
58596SOL    HW175814  10.156  12.046   5.612
58596SOL    HW275815  10.182  12.006   5.456
58597SOL     OW75816   9.995  12.184   4.389
58597SOL    HW175817  10.064  12.168   4.459
58597SOL    HW275818   9.922  12.241   4.427
58598SOL     OW75819   9.996  12.333   5.527
58598SOL    HW175820  10.056  12.412   5.541
58598SOL    HW275821   9.910  12.364   5.486
58599SOL     OW75822   9.645  12.607   4.785
58599SOL    HW175823   9.567  12.576   4.732
58599SOL    HW275824   9.703  12.665   4.728
58600SOL     OW75825  10.770  12.677   5.063
58600SOL    HW175826  10.794  12.771   5.089
58600SOL    HW275827  10.754  12.623   5.145
58601SOL     OW75828   9.748  11.564   5.223
58601SOL    HW175829   9.830  11.508   5.232
58601SOL    HW275830   9.667  11.506   5.227
58602SOL     OW75831  10.913  11.619   4.461
58602SOL    HW175832  10.839  11.665   4.411
58602SOL    HW275833  10.964  11.687   4.514
58603SOL     OW75834   9.541  12.885   4.207
58603SOL    HW175835   9.575  12.962   4.261
58603SOL    HW275836   9.585  12.885   4.117
58604SOL     OW75837  10.437  12.513   5.414
58604SOL    HW175838  10.484  12.513   5.502
58604SOL    HW275839  10.389  12.426   5.403
58605SOL     OW75840   9.540  12.606   4.262
58605SOL    HW175841   9.514  12.702   4.262
58605SOL    HW275842   9.469  12.552   4.307
58606SOL     OW75843   9.550  12.263   4.610
58606SOL    HW175844   9.564  12.179   4.662
58606SOL    HW275845   9.495  12.327   4.665
58607SOL     OW75846   9.916  12.136   3.847
58607SOL    HW175847   9.923  12.220   3.793
58607SOL    HW275848   9.962  12.149   3.935
58608SOL     OW75849  10.904  11.286   5.204
58608SOL    HW175850  10.886  11.353   5.132
58608SOL    HW275851  10.901  11.332   5.293
58609SOL     OW75852   9.432  11.815   4.287
58609SOL    HW175853   9.387  11.727   4.304
58609SOL    HW275854   9.431  11.869   4.371
58610SOL     OW75855   9.337  12.768   3.841
58610SOL    HW175856   9.318  12.672   3.862
58610SOL    HW275857   9.304  12.826   3.916
58611SOL     OW75858  10.999  12.094   4.336
58611SOL    HW175859  11.094  12.065   4.344
58611SOL    HW275860  10.991  12.159   4.261
58612SOL     OW75861  10.951  12.280   4.156
58612SOL    HW175862  11.037  12.282   4.104
58612SOL    HW275863  10.965  12.327   4.244
58613SOL     OW75864   9.423  11.909   5.321
58613SOL    HW175865   9.511  11.896   5.366
58613SOL    HW275866   9.410  12.006   5.299
58614SOL     OW75867   9.923  12.537   4.450
58614SOL    HW175868   9.874  12.450   4.459
58614SOL    HW275869   9.900  12.580   4.363
58615SOL     OW75870  10.603  12.400   5.147
58615SOL    HW175871  10.640  12.327   5.089
58615SOL    HW275872  10.655  12.405   5.232
58616SOL     OW75873  10.119  11.176   4.226
58616SOL    HW175874  10.159  11.267   4.217
58616SOL    HW275875  10.019  11.184   4.232
58617SOL     OW75876   9.507  12.148   4.988
58617SOL    HW175877   9.596  12.103   4.974
58617SOL    HW275878   9.434  12.083   4.969
58618SOL     OW75879  10.835  12.171   3.914
58618SOL    HW175880  10.772  12.095   3.927
58618SOL    HW275881  10.883  12.189   4.000
58619SOL     OW75882   9.627  11.423   5.525
58619SOL    HW175883   9.698  11.494   5.531
58619SOL    HW275884   9.539  11.462   5.553
58620SOL     OW75885  10.776  12.589   4.677
58620SOL    HW175886  10.717  12.595   4.757
58620SOL    HW275887  10.761  12.501   4.631
58621SOL     OW75888   9.908  11.901   3.994
58621SOL    HW175889   9.932  11.970   3.926
58621SOL    HW275890   9.830  11.934   4.048
58622SOL     OW75891  10.591  11.517   4.668
58622SOL    HW175892  10.505  11.467   4.655
58622SOL    HW275893  10.653  11.463   4.724
58623SOL     OW75894  10.117  11.777   5.189
58623SOL    HW175895  10.070  11.774   5.278
58623SOL    HW275896  10.066  11.722   5.123
58624SOL     OW75897  10.704  11.641   5.398
58624SOL    HW175898  10.684  11.684   5.486
58624SOL    HW275899  10.782  11.579   5.407
58625SOL     OW75900  10.283  12.062   5.296
58625SOL    HW175901  10.329  11.978   5.267
58625SOL    HW275902  10.227  12.096   5.221
58626SOL     OW75903  10.301  11.582   4.966
58626SOL    HW175904  10.224  11.616   5.020
58626SOL    HW275905  10.267  11.531   4.887
58627SOL     OW75906  10.351  11.873   4.153
58627SOL    HW175907  10.377  11.869   4.249
58627SOL    HW275908  10.266  11.822   4.139
58628SOL     OW75909   9.386  11.983   4.513
58628SOL    HW175910   9.485  11.971   4.522
58628SOL    HW275911   9.362  12.078   4.534
58629SOL     OW75912  10.175  11.520   3.919
58629SOL    HW175913  10.234  11.583   3.870
58629SOL    HW275914  10.194  11.426   3.890
58630SOL     OW75915  11.029  11.757   5.555
58630SOL    HW175916  11.003  11.846   5.519
58630SOL    HW275917  11.027  11.689   5.482
58631SOL     OW75918  10.672  12.316   4.269
58631SOL    HW175919  10.755  12.287   4.221
58631SOL    HW275920  10.623  12.383   4.213
58632SOL     OW75921   9.860  11.368   4.609
58632SOL    HW175922   9.855  11.363   4.709
58632SOL    HW275923   9.862  11.464   4.580
58633SOL     OW75924  10.318  12.628   4.201
58633SOL    HW175925  10.272  12.700   4.149
58633SOL    HW275926  10.314  12.648   4.299
58634SOL     OW75927  11.105  12.238   4.597
58634SOL    HW175928  11.043  12.223   4.521
58634SOL    HW275929  11.053  12.249   4.682
58635SOL     OW75930  10.537  12.722   5.230
58635SOL    HW175931  10.543  12.645   5.294
58635SOL    HW275932  10.485  12.696   5.150
58636SOL     OW75933   9.631  12.115   3.966
58636SOL    HW175934   9.713  12.154   3.924
58636SOL    HW275935   9.604  12.033   3.917
58637SOL     OW75936  10.768  11.907   4.452
58637SOL    HW175937  10.763  11.842   4.527
58637SOL    HW275938  10.848  11.966   4.465
58638SOL     OW75939   9.771  12.438   5.451
58638SOL    HW175940   9.721  12.439   5.365
58638SOL    HW275941   9.708  12.420   5.527
58639SOL     OW75942  10.421  12.948   3.961
58639SOL    HW175943  10.361  12.886   4.011
58639SOL    HW275944  10.452  12.904   3.876
58640SOL     OW75945   9.512  11.457   5.222
58640SOL    HW175946   9.432  11.517   5.209
58640SOL    HW275947   9.502  11.408   5.308
58641SOL     OW75948  10.942  12.549   3.805
58641SOL    HW175949  10.910  12.643   3.795
58641SOL    HW275950  10.866  12.486   3.793
58642SOL     OW75951  10.710  11.279   4.150
58642SOL    HW175952  10.686  11.242   4.060
58642SOL    HW275953  10.809  11.295   4.154
58643SOL     OW75954   9.692  11.872   4.204
58643SOL    HW175955   9.737  11.782   4.201
58643SOL    HW275956   9.598  11.861   4.237
58644SOL     OW75957  10.857  11.394   5.453
58644SOL    HW175958  10.852  11.431   5.545
58644SOL    HW275959  10.785  11.325   5.441
58645SOL     OW75960   9.924  11.294   3.841
58645SOL    HW175961  10.022  11.272   3.848
58645SOL    HW275962   9.893  11.277   3.748
58646SOL     OW75963  10.091  11.436   5.473
58646SOL    HW175964  10.158  11.375   5.516
58646SOL    HW275965  10.018  11.455   5.538
58647SOL     OW75966  10.661  11.762   5.157
58647SOL    HW175967  10.689  11.719   5.242
58647SOL    HW275968  10.686  11.858   5.158
58648SOL     OW75969  10.113  12.574   4.648
58648SOL    HW175970  10.203  12.588   4.606
58648SOL    HW275971  10.042  12.576   4.577
58649SOL     OW75972  10.232  11.675   4.623
58649SOL    HW175973  10.207  11.666   4.527
58649SOL    HW275974  10.280  11.593   4.654
58650SOL     OW75975   9.849  11.236   4.236
58650SOL    HW175976   9.768  11.237   4.294
58650SOL    HW275977   9.852  11.319   4.181
58651SOL     OW75978  10.744  12.360   3.765
58651SOL    HW175979  10.776  12.284   3.822
58651SOL    HW275980  10.652  12.387   3.795
58652SOL     OW75981   9.607  11.207   3.895
58652SOL    HW175982   9.656  11.291   3.874
58652SOL    HW275983   9.669  11.142   3.940
58653SOL     OW75984  10.245  11.408   4.204
58653SOL    HW175985  10.197  11.449   4.126
58653SOL    HW275986  10.344  11.406   4.185
58654SOL     OW75987  10.386  11.855   5.188
58654SOL    HW175988  10.306  11.794   5.191
58654SOL    HW275989  10.467  11.802   5.164
58655SOL     OW75990  10.537  12.742   4.517
58655SOL    HW175991  10.558  12.816   4.452
58655SOL    HW275992  10.605  12.742   4.590
58656SOL     OW75993   9.769  12.324   4.465
58656SOL    HW175994   9.698  12.297   4.530
58656SOL    HW275995   9.743  12.296   4.372
58657SOL     OW75996  10.342  11.721   3.740
58657SOL    HW175997  10.301  11.803   3.701
58657SOL    HW275998  10.406  11.747   3.813
58658SOL     OW75999   9.388  11.728   5.110
58658SOL    HW176000   9.480  11.727   5.069
58658SOL    HW276001   9.382  11.802   5.177
58659SOL     OW76002   9.871  11.394   4.871
58659SOL    HW176003   9.909  11.310   4.908
58659SOL    HW276004   9.783  11.413   4.915
58660SOL     OW76005  10.176  11.626   4.366
58660SOL    HW176006  10.144  11.698   4.304
58660SOL    HW276007  10.200  11.545   4.313
58661SOL     OW76008  10.327  11.211   4.477
58661SOL    HW176009  10.255  11.216   4.408
58661SOL    HW276010  10.303  11.142   4.546
58662SOL     OW76011  10.739  12.345   4.591
58662SOL    HW176012  10.684  12.261   4.584
58662SOL    HW276013  10.765  12.374   4.499
58663SOL     OW76014  10.776  11.762   4.716
58663SOL    HW176015  10.746  11.667   4.723
58663SOL    HW276016  10.849  11.778   4.782
58664SOL     OW76017  11.167  12.005   4.101
58664SOL    HW176018  11.209  11.941   4.165
58664SOL    HW276019  11.129  11.954   4.023
58665SOL     OW76020   9.798  12.557   3.898
58665SOL    HW176021   9.711  12.542   3.945
58665SOL    HW276022   9.781  12.583   3.803
58666SOL     OW76023  10.974  12.452   4.381
58666SOL    HW176024  11.073  12.460   4.395
58666SOL    HW276025  10.929  12.536   4.412
58667SOL     OW76026  10.700  11.747   3.802
58667SOL    HW176027  10.646  11.726   3.883
58667SOL    HW276028  10.791  11.706   3.811
58668SOL     OW76029   9.837  11.428   4.052
58668SOL    HW176030   9.864  11.369   3.977
58668SOL    HW276031   9.837  11.523   4.021
58669SOL     OW76032  11.064  12.395   5.312
58669SOL    HW176033  11.155  12.356   5.299
58669SOL    HW276034  11.072  12.491   5.336
58670SOL     OW76035  10.374  12.519   5.064
58670SOL    HW176036  10.294  12.496   5.119
58670SOL    HW276037  10.457  12.493   5.113
58671SOL     OW76038  10.421  12.367   4.824
58671SOL    HW176039  10.381  12.411   4.905
58671SOL    HW276040  10.380  12.404   4.741
58672SOL     OW76041  10.948  12.271   4.803
58672SOL    HW176042  10.953  12.352   4.862
58672SOL    HW276043  10.862  12.273   4.752
58673SOL     OW76044  10.225  11.261   5.126
58673SOL    HW176045  10.250  11.241   5.031
58673SOL    HW276046  10.297  11.317   5.168
58674SOL     OW76047  10.290  12.288   5.443
58674SOL    HW176048  10.191  12.294   5.453
58674SOL    HW276049  10.313  12.208   5.387
58675SOL     OW76050  10.015  12.222   4.092
58675SOL    HW176051  10.001  12.229   4.191
58675SOL    HW276052  10.099  12.171   4.074
58676SOL     OW76053   9.720  11.985   4.975
58676SOL    HW176054   9.806  11.997   5.025
58676SOL    HW276055   9.678  11.898   5.002
58677SOL     OW76056  10.584  11.558   4.986
58677SOL    HW176057  10.605  11.632   5.050
58677SOL    HW276058  10.495  11.575   4.943
58678SOL     OW76059   9.677  12.272   4.225
58678SOL    HW176060   9.670  12.355   4.169
58678SOL    HW276061   9.681  12.192   4.165
58679SOL     OW76062   9.876  11.709   4.589
58679SOL    HW176063   9.888  11.775   4.515
58679SOL    HW276064   9.922  11.743   4.672
58680SOL     OW76065  10.562  12.520   4.112
58680SOL    HW176066  10.612  12.597   4.152
58680SOL    HW276067  10.467  12.522   4.144
58681SOL     OW76068  10.582  12.617   4.866
58681SOL    HW176069  10.629  12.630   4.953
58681SOL    HW276070  10.516  12.543   4.875
58682SOL     OW76071  10.892  11.811   4.196
58682SOL    HW176072  10.861  11.872   4.269
58682SOL    HW276073  10.942  11.863   4.127
58683SOL     OW76074   9.664  12.682   5.053
58683SOL    HW176075   9.643  12.638   4.966
58683SOL    HW276076   9.761  12.708   5.056
58684SOL     OW76077   9.712  11.923   5.322
58684SOL    HW176078   9.780  11.978   5.275
58684SOL    HW276079   9.752  11.835   5.349
58685SOL     OW76080  10.897  11.951   5.394
58685SOL    HW176081  10.805  11.989   5.389
58685SOL    HW276082  10.957  11.998   5.329
58686SOL     OW76083  10.323  11.277   5.494
58686SOL    HW176084  10.329  11.362   5.442
58686SOL    HW276085  10.355  11.201   5.437
58687SOL     OW76086   9.814  11.222   5.464
58687SOL    HW176087   9.772  11.165   5.394
58687SOL    HW276088   9.748  11.291   5.496
58688SOL     OW76089   9.883  12.042   4.753
58688SOL    HW176090   9.927  12.131   4.744
58688SOL    HW276091   9.820  12.042   4.830
58689SOL     OW76092  10.670  12.034   4.769
58689SOL    HW176093  10.595  12.034   4.703
58689SOL    HW276094  10.707  11.942   4.778
58690SOL     OW76095  10.519  11.697   3.999
58690SOL    HW176096  10.532  11.613   4.053
58690SOL    HW276097  10.490  11.771   4.059
58691SOL     OW76098   9.617  11.385   4.955
58691SOL    HW176099   9.594  11.422   5.045
58691SOL    HW276100   9.587  11.290   4.949
58692SOL     OW76101   9.347  12.482   5.006
58692SOL    HW176102   9.400  12.433   5.074
58692SOL    HW276103   9.369  12.580   5.011
58693SOL     OW76104  10.042  11.806   4.788
58693SOL    HW176105  10.101  11.780   4.712
58693SOL    HW276106  10.014  11.902   4.777
58694SOL     OW76107  11.038  12.107   5.578
58694SOL    HW176108  10.992  12.100   5.489
58694SOL    HW276109  10.976  12.151   5.644
58695SOL     OW76110   9.617  11.235   4.342
58695SOL    HW176111   9.606  11.329   4.375
58695SOL    HW276112   9.612  11.172   4.419
58696SOL     OW76113  10.932  11.539   4.098
58696SOL    HW176114  10.934  11.463   4.162
58696SOL    HW276115  10.884  11.616   4.138
58697SOL     OW76116  10.333  11.938   4.690
58697SOL    HW176117  10.348  11.959   4.786
58697SOL    HW276118  10.303  11.843   4.681
58698SOL     OW76119  11.169  12.690   5.329
58698SOL    HW176120  11.183  12.717   5.234
58698SOL    HW276121  11.252  12.712   5.382
58699SOL     OW76122   9.660  12.070   5.528
58699SOL    HW176123   9.736  12.114   5.576
58699SOL    HW276124   9.695  12.023   5.446
58700SOL     OW76125  10.850  11.446   3.849
58700SOL    HW176126  10.789  11.371   3.872
58700SOL    HW276127  10.872  11.498   3.932
58701SOL     OW76128  10.613  12.010   3.766
58701SOL    HW176129  10.647  11.917   3.781
58701SOL    HW276130  10.631  12.037   3.671
58702SOL     OW76131  10.378  12.505   4.573
58702SOL    HW176132  10.385  12.421   4.518
58702SOL    HW276133  10.440  12.574   4.537
58703SOL     OW76134   9.629  11.982   4.673
58703SOL    HW176135   9.722  12.018   4.678
58703SOL    HW276136   9.623  11.897   4.725
58704SOL     OW76137   9.649  11.681   4.730
58704SOL    HW176138   9.597  11.598   4.713
58704SOL    HW276139   9.726  11.686   4.666
58705SOL     OW76140  10.448  11.552   5.402
58705SOL    HW176141  10.403  11.615   5.466
58705SOL    HW276142  10.541  11.583   5.385
58706SOL     OW76143  10.470  11.379   5.201
58706SOL    HW176144  10.470  11.443   5.278
58706SOL    HW276145  10.498  11.427   5.118
58707SOL     OW76146   9.318  12.498   3.924
58707SOL    HW176147   9.225  12.519   3.893
58707SOL    HW276148   9.328  12.399   3.937
58708SOL     OW76149  10.312  11.968   4.962
58708SOL    HW176150  10.353  11.936   5.048
58708SOL    HW276151  10.216  11.941   4.959
58709SOL     OW76152   9.350  11.716   4.838
58709SOL    HW176153   9.435  11.683   4.797
58709SOL    HW276154   9.363  11.731   4.936
58710SOL     OW76155   9.499  11.692   5.446
58710SOL    HW176156   9.558  11.652   5.376
58710SOL    HW276157   9.441  11.763   5.405
58711SOL     OW76158  10.679  12.122   5.384
58711SOL    HW176159  10.718  12.211   5.404
58711SOL    HW276160  10.689  12.102   5.287
58712SOL     OW76161  10.125  11.744   4.049
58712SOL    HW176162  10.132  11.655   4.003
58712SOL    HW276163  10.031  11.778   4.041
58713SOL     OW76164  10.967  11.776   4.930
58713SOL    HW176165  10.929  11.707   4.992
58713SOL    HW276166  11.049  11.740   4.886
58714SOL     OW76167   9.562  12.736   5.468
58714SOL    HW176168   9.532  12.793   5.544
58714SOL    HW276169   9.555  12.639   5.494
58715SOL     OW76170   9.981  11.636   4.993
58715SOL    HW176171   9.947  11.547   4.963
58715SOL    HW276172  10.007  11.690   4.913
58716SOL     OW76173   9.783  11.672   3.915
58716SOL    HW176174   9.844  11.752   3.919
58716SOL    HW276175   9.688  11.703   3.922
58717SOL     OW76176   9.469  12.309   5.190
58717SOL    HW176177   9.491  12.248   5.266
58717SOL    HW276178   9.479  12.260   5.104
58718SOL     OW76179  10.657  12.231   4.958
58718SOL    HW176180  10.681  12.168   4.884
58718SOL    HW276181  10.567  12.271   4.940
58719SOL     OW76182  10.612  12.027   4.033
58719SOL    HW176183  10.526  11.996   4.075
58719SOL    HW276184  10.608  12.013   3.934
58720SOL     OW76185   9.393  12.430   4.746
58720SOL    HW176186   9.388  12.429   4.846
58720SOL    HW276187   9.310  12.389   4.708
58721SOL     OW76188  11.036  11.307   4.247
58721SOL    HW176189  11.109  11.290   4.180
58721SOL    HW276190  11.005  11.220   4.285
58722SOL     OW76191  10.590  12.099   4.396
58722SOL    HW176192  10.650  12.018   4.398
58722SOL    HW276193  10.630  12.168   4.336
58723SOL     OW76194  10.140  12.445   5.146
58723SOL    HW176195  10.135  12.478   5.241
58723SOL    HW276196  10.054  12.464   5.100
58724SOL     OW76197  11.151  11.347   4.687
58724SOL    HW176198  11.190  11.262   4.651
58724SOL    HW276199  11.053  11.349   4.668
58725SOL     OW76200   9.573  11.498   4.444
58725SOL    HW176201   9.494  11.549   4.410
58725SOL    HW276202   9.564  11.483   4.542
58726SOL     OW76203  10.132  12.174   5.096
58726SOL    HW176204  10.172  12.173   5.004
58726SOL    HW276205  10.142  12.266   5.136
58727SOL     OW76206  10.226  12.082   4.015
58727SOL    HW176207  10.289  12.120   3.947
58727SOL    HW276208  10.266  11.999   4.054
58728SOL     OW76209   9.682  12.460   5.214
58728SOL    HW176210   9.669  12.553   5.180
58728SOL    HW276211   9.598  12.408   5.201
58729SOL     OW76212  10.924  12.464   5.013
58729SOL    HW176213  10.984  12.467   5.093
58729SOL    HW276214  10.849  12.528   5.026
58730SOL     OW76215  10.349  12.270   4.420
58730SOL    HW176216  10.279  12.223   4.474
58730SOL    HW276217  10.408  12.202   4.377
58731SOL     OW76218  10.324  11.408   4.695
58731SOL    HW176219  10.316  11.372   4.602
58731SOL    HW276220  10.322  11.332   4.760
58732SOL     OW76221  11.019  11.557   5.105
58732SOL    HW176222  11.092  11.626   5.109
58732SOL    HW276223  11.047  11.482   5.046
58733SOL     OW76224   9.565  12.520   4.014
58733SOL    HW176225   9.469  12.521   3.987
58733SOL    HW276226   9.577  12.573   4.098
58734SOL     OW76227   9.415  12.185   5.450
58734SOL    HW176228   9.338  12.152   5.504
58734SOL    HW276229   9.500  12.155   5.492
58735SOL     OW76230   9.982  11.375   5.213
58735SOL    HW176231  10.072  11.359   5.173
58735SOL    HW276232   9.990  11.380   5.312
58736SOL     OW76233   9.385  11.517   3.757
58736SOL    HW176234   9.293  11.489   3.728
58736SOL    HW276235   9.416  11.594   3.701
58737SOL     OW76236  10.750  12.028   5.122
58737SOL    HW176237  10.693  12.080   5.059
58737SOL    HW276238  10.846  12.040   5.098
58738SOL     OW76239   9.382  11.338   4.042
58738SOL    HW176240   9.365  11.421   3.988
58738SOL    HW276241   9.472  11.301   4.020
58739SOL     OW76242  10.493  12.507   3.843
58739SOL    HW176243  10.394  12.496   3.845
58739SOL    HW276244  10.527  12.522   3.936
58740SOL     OW76245   9.923  12.014   5.155
58740SOL    HW176246   9.979  12.095   5.138
58740SOL    HW276247   9.982  11.934   5.158
58741SOL     OW76248  10.026  11.737   5.432
58741SOL    HW176249  10.045  11.802   5.506
58741SOL    HW276250  10.086  11.657   5.441
58742SOL     OW76251  10.760  12.392   5.357
58742SOL    HW176252  10.751  12.382   5.456
58742SOL    HW276253  10.856  12.385   5.331
58743SOL     OW76254  10.984  12.055   4.978
58743SOL    HW176255  10.957  11.966   4.941
58743SOL    HW276256  10.985  12.123   4.905
58744SOL     OW76257  10.535  11.497   4.173
58744SOL    HW176258  10.600  11.423   4.162
58744SOL    HW276259  10.555  11.547   4.257
58745SOL     OW76260   9.904  11.917   4.376
58745SOL    HW176261   9.954  12.002   4.357
58745SOL    HW276262   9.816  11.919   4.328
58746SOL     OW76263  11.087  11.514   5.366
58746SOL    HW176264  11.070  11.545   5.272
58746SOL    HW276265  11.003  11.477   5.404
58747SOL     OW76266  11.040  12.106   5.241
58747SOL    HW176267  11.078  12.197   5.256
58747SOL    HW276268  11.032  12.089   5.142
58748SOL     OW76269  10.169  12.546   3.740
58748SOL    HW176270  10.123  12.561   3.828
58748SOL    HW276271  10.213  12.631   3.710
58749SOL     OW76272  10.169  12.128   4.585
58749SOL    HW176273  10.223  12.059   4.633
58749SOL    HW276274  10.137  12.197   4.651
58750SOL     OW76275  10.393  12.156   3.811
58750SOL    HW176276  10.370  12.209   3.729
58750SOL    HW276277  10.474  12.100   3.792
58751SOL     OW76278   9.531  12.486   5.568
58751SOL    HW176279   9.466  12.413   5.547
58751SOL    HW276280   9.535  12.500   5.666
58752SOL     OW76281   9.389  12.412   4.377
58752SOL    HW176282   9.388  12.365   4.465
58752SOL    HW276283   9.471  12.384   4.326
58753SOL     OW76284   9.982  12.563   5.348
58753SOL    HW176285   9.904  12.513   5.386
58753SOL    HW276286   9.979  12.658   5.379
58754SOL     OW76287  11.134  11.364   4.951
58754SOL    HW176288  11.130  11.274   4.995
58754SOL    HW276289  11.137  11.353   4.852
58755SOL     OW76290   9.738  11.596   4.244
58755SOL    HW176291   9.768  11.524   4.182
58755SOL    HW276292   9.699  11.556   4.327
58756SOL     OW76293  11.015  12.659   4.828
58756SOL    HW176294  10.922  12.634   4.801
58756SOL    HW276295  11.041  12.609   4.910
58757SOL     OW76296   9.627  11.719   5.004
58757SOL    HW176297   9.665  11.660   5.076
58757SOL    HW276298   9.667  11.693   4.916
58758SOL     OW76299  10.734  11.386   4.836
58758SOL    HW176300  10.786  11.321   4.891
58758SOL    HW276301  10.685  11.449   4.897
58759SOL     OW76302  10.311  11.206   4.878
58759SOL    HW176303  10.248  11.134   4.847
58759SOL    HW276304  10.404  11.170   4.878
58760SOL     OW76305  10.080  12.502   4.025
58760SOL    HW176306  10.034  12.415   4.042
58760SOL    HW276307  10.171  12.499   4.066
58761SOL     OW76308   9.928  12.739   5.008
58761SOL    HW176309   9.923  12.821   5.065
58761SOL    HW276310  10.017  12.736   4.963
58762SOL     OW76311  10.662  11.224   3.892
58762SOL    HW176312  10.697  11.183   3.808
58762SOL    HW276313  10.572  11.186   3.912
58763SOL     OW76314  10.610  11.625   4.415
58763SOL    HW176315  10.551  11.705   4.419
58763SOL    HW276316  10.625  11.590   4.508
58764SOL     OW76317  10.903  11.393   4.606
58764SOL    HW176318  10.819  11.392   4.660
58764SOL    HW276319  10.905  11.476   4.550
58765SOL     OW76320   9.349  12.249   4.024
58765SOL    HW176321   9.448  12.238   4.015
58765SOL    HW276322   9.309  12.163   4.056
58766SOL     OW76323   9.540  11.800   5.699
58766SOL    HW176324   9.447  11.798   5.736
58766SOL    HW276325   9.541  11.761   5.607
58767SOL     OW76326   9.535  11.447   6.582
58767SOL    HW176327   9.570  11.430   6.674
58767SOL    HW276328   9.447  11.402   6.570
58768SOL     OW76329   9.329  11.540   6.233
58768SOL    HW176330   9.247  11.583   6.272
58768SOL    HW276331   9.301  11.467   6.170
58769SOL     OW76332   9.879  12.447   6.751
58769SOL    HW176333   9.786  12.440   6.714
58769SOL    HW276334   9.890  12.536   6.795
58770SOL     OW76335  10.865  12.683   6.289
58770SOL    HW176336  10.808  12.667   6.370
58770SOL    HW276337  10.806  12.693   6.209
58771SOL     OW76338  10.445  11.875   6.303
58771SOL    HW176339  10.502  11.953   6.278
58771SOL    HW276340  10.385  11.901   6.379
58772SOL     OW76341  11.065  11.779   5.817
58772SOL    HW176342  11.053  11.766   5.718
58772SOL    HW276343  11.035  11.698   5.866
58773SOL     OW76344  10.078  12.316   6.609
58773SOL    HW176345  10.000  12.333   6.669
58773SOL    HW276346  10.112  12.403   6.573
58774SOL     OW76347  10.160  11.970   7.409
58774SOL    HW176348  10.156  12.046   7.474
58774SOL    HW276349  10.182  12.006   7.318
58775SOL     OW76350   9.995  12.184   6.251
58775SOL    HW176351  10.064  12.168   6.321
58775SOL    HW276352   9.922  12.241   6.289
58776SOL     OW76353   9.996  12.333   7.389
58776SOL    HW176354  10.056  12.412   7.403
58776SOL    HW276355   9.910  12.364   7.348
58777SOL     OW76356   9.645  12.607   6.647
58777SOL    HW176357   9.567  12.576   6.594
58777SOL    HW276358   9.703  12.665   6.590
58778SOL     OW76359  10.770  12.677   6.925
58778SOL    HW176360  10.794  12.771   6.951
58778SOL    HW276361  10.754  12.623   7.007
58779SOL     OW76362   9.748  11.564   7.085
58779SOL    HW176363   9.830  11.508   7.094
58779SOL    HW276364   9.667  11.506   7.089
58780SOL     OW76365  10.913  11.619   6.323
58780SOL    HW176366  10.839  11.665   6.273
58780SOL    HW276367  10.964  11.687   6.376
58781SOL     OW76368   9.541  12.885   6.069
58781SOL    HW176369   9.575  12.962   6.123
58781SOL    HW276370   9.585  12.885   5.979
58782SOL     OW76371  10.437  12.513   7.276
58782SOL    HW176372  10.484  12.513   7.364
58782SOL    HW276373  10.389  12.426   7.265
58783SOL     OW76374   9.540  12.606   6.124
58783SOL    HW176375   9.514  12.702   6.124
58783SOL    HW276376   9.469  12.552   6.169
58784SOL     OW76377   9.550  12.263   6.472
58784SOL    HW176378   9.564  12.179   6.524
58784SOL    HW276379   9.495  12.327   6.527
58785SOL     OW76380   9.916  12.136   5.709
58785SOL    HW176381   9.923  12.220   5.655
58785SOL    HW276382   9.962  12.149   5.797
58786SOL     OW76383  10.904  11.286   7.066
58786SOL    HW176384  10.886  11.353   6.994
58786SOL    HW276385  10.901  11.332   7.155
58787SOL     OW76386   9.432  11.815   6.149
58787SOL    HW176387   9.387  11.727   6.166
58787SOL    HW276388   9.431  11.869   6.233
58788SOL     OW76389   9.337  12.768   5.703
58788SOL    HW176390   9.318  12.672   5.724
58788SOL    HW276391   9.304  12.826   5.778
58789SOL     OW76392  10.999  12.094   6.198
58789SOL    HW176393  11.094  12.065   6.206
58789SOL    HW276394  10.991  12.159   6.123
58790SOL     OW76395  10.951  12.280   6.018
58790SOL    HW176396  11.037  12.282   5.966
58790SOL    HW276397  10.965  12.327   6.106
58791SOL     OW76398   9.423  11.909   7.183
58791SOL    HW176399   9.511  11.896   7.228
58791SOL    HW276400   9.410  12.006   7.161
58792SOL     OW76401   9.923  12.537   6.312
58792SOL    HW176402   9.874  12.450   6.321
58792SOL    HW276403   9.900  12.580   6.225
58793SOL     OW76404  10.603  12.400   7.009
58793SOL    HW176405  10.640  12.327   6.951
58793SOL    HW276406  10.655  12.405   7.094
58794SOL     OW76407  10.119  11.176   6.088
58794SOL    HW176408  10.159  11.267   6.079
58794SOL    HW276409  10.019  11.184   6.094
58795SOL     OW76410   9.507  12.148   6.850
58795SOL    HW176411   9.596  12.103   6.836
58795SOL    HW276412   9.434  12.083   6.831
58796SOL     OW76413  10.835  12.171   5.776
58796SOL    HW176414  10.772  12.095   5.789
58796SOL    HW276415  10.883  12.189   5.862
58797SOL     OW76416   9.627  11.423   7.387
58797SOL    HW176417   9.698  11.494   7.393
58797SOL    HW276418   9.539  11.462   7.415
58798SOL     OW76419  10.776  12.589   6.539
58798SOL    HW176420  10.717  12.595   6.619
58798SOL    HW276421  10.761  12.501   6.493
58799SOL     OW76422   9.908  11.901   5.856
58799SOL    HW176423   9.932  11.970   5.788
58799SOL    HW276424   9.830  11.934   5.910
58800SOL     OW76425  10.591  11.517   6.530
58800SOL    HW176426  10.505  11.467   6.517
58800SOL    HW276427  10.653  11.463   6.586
58801SOL     OW76428  10.117  11.777   7.051
58801SOL    HW176429  10.070  11.774   7.140
58801SOL    HW276430  10.066  11.722   6.985
58802SOL     OW76431  10.704  11.641   7.260
58802SOL    HW176432  10.684  11.684   7.348
58802SOL    HW276433  10.782  11.579   7.269
58803SOL     OW76434  10.283  12.062   7.158
58803SOL    HW176435  10.329  11.978   7.129
58803SOL    HW276436  10.227  12.096   7.083
58804SOL     OW76437  10.301  11.582   6.828
58804SOL    HW176438  10.224  11.616   6.882
58804SOL    HW276439  10.267  11.531   6.749
58805SOL     OW76440  10.351  11.873   6.015
58805SOL    HW176441  10.377  11.869   6.111
58805SOL    HW276442  10.266  11.822   6.001
58806SOL     OW76443   9.386  11.983   6.375
58806SOL    HW176444   9.485  11.971   6.384
58806SOL    HW276445   9.362  12.078   6.396
58807SOL     OW76446  10.175  11.520   5.781
58807SOL    HW176447  10.234  11.583   5.732
58807SOL    HW276448  10.194  11.426   5.752
58808SOL     OW76449  11.029  11.757   7.417
58808SOL    HW176450  11.003  11.846   7.381
58808SOL    HW276451  11.027  11.689   7.344
58809SOL     OW76452  10.672  12.316   6.131
58809SOL    HW176453  10.755  12.287   6.083
58809SOL    HW276454  10.623  12.383   6.075
58810SOL     OW76455   9.860  11.368   6.471
58810SOL    HW176456   9.855  11.363   6.571
58810SOL    HW276457   9.862  11.464   6.442
58811SOL     OW76458  10.318  12.628   6.063
58811SOL    HW176459  10.272  12.700   6.011
58811SOL    HW276460  10.314  12.648   6.161
58812SOL     OW76461  11.105  12.238   6.459
58812SOL    HW176462  11.043  12.223   6.383
58812SOL    HW276463  11.053  12.249   6.544
58813SOL     OW76464  10.537  12.722   7.092
58813SOL    HW176465  10.543  12.645   7.156
58813SOL    HW276466  10.485  12.696   7.012
58814SOL     OW76467   9.631  12.115   5.828
58814SOL    HW176468   9.713  12.154   5.786
58814SOL    HW276469   9.604  12.033   5.779
58815SOL     OW76470  10.768  11.907   6.314
58815SOL    HW176471  10.763  11.842   6.389
58815SOL    HW276472  10.848  11.966   6.327
58816SOL     OW76473   9.771  12.438   7.313
58816SOL    HW176474   9.721  12.439   7.227
58816SOL    HW276475   9.708  12.420   7.389
58817SOL     OW76476  10.421  12.948   5.823
58817SOL    HW176477  10.361  12.886   5.873
58817SOL    HW276478  10.452  12.904   5.738
58818SOL     OW76479   9.512  11.457   7.084
58818SOL    HW176480   9.432  11.517   7.071
58818SOL    HW276481   9.502  11.408   7.170
58819SOL     OW76482  10.942  12.549   5.667
58819SOL    HW176483  10.910  12.643   5.657
58819SOL    HW276484  10.866  12.486   5.655
58820SOL     OW76485  10.710  11.279   6.012
58820SOL    HW176486  10.686  11.242   5.922
58820SOL    HW276487  10.809  11.295   6.016
58821SOL     OW76488   9.692  11.872   6.066
58821SOL    HW176489   9.737  11.782   6.063
58821SOL    HW276490   9.598  11.861   6.099
58822SOL     OW76491  10.857  11.394   7.315
58822SOL    HW176492  10.852  11.431   7.407
58822SOL    HW276493  10.785  11.325   7.303
58823SOL     OW76494   9.924  11.294   5.703
58823SOL    HW176495  10.022  11.272   5.710
58823SOL    HW276496   9.893  11.277   5.610
58824SOL     OW76497  10.091  11.436   7.335
58824SOL    HW176498  10.158  11.375   7.378
58824SOL    HW276499  10.018  11.455   7.400
58825SOL     OW76500  10.661  11.762   7.019
58825SOL    HW176501  10.689  11.719   7.104
58825SOL    HW276502  10.686  11.858   7.020
58826SOL     OW76503  10.113  12.574   6.510
58826SOL    HW176504  10.203  12.588   6.468
58826SOL    HW276505  10.042  12.576   6.439
58827SOL     OW76506  10.232  11.675   6.485
58827SOL    HW176507  10.207  11.666   6.389
58827SOL    HW276508  10.280  11.593   6.516
58828SOL     OW76509   9.849  11.236   6.098
58828SOL    HW176510   9.768  11.237   6.156
58828SOL    HW276511   9.852  11.319   6.043
58829SOL     OW76512  10.744  12.360   5.627
58829SOL    HW176513  10.776  12.284   5.684
58829SOL    HW276514  10.652  12.387   5.657
58830SOL     OW76515   9.607  11.207   5.757
58830SOL    HW176516   9.656  11.291   5.736
58830SOL    HW276517   9.669  11.142   5.802
58831SOL     OW76518  10.245  11.408   6.066
58831SOL    HW176519  10.197  11.449   5.988
58831SOL    HW276520  10.344  11.406   6.047
58832SOL     OW76521  10.386  11.855   7.050
58832SOL    HW176522  10.306  11.794   7.053
58832SOL    HW276523  10.467  11.802   7.026
58833SOL     OW76524  10.537  12.742   6.379
58833SOL    HW176525  10.558  12.816   6.314
58833SOL    HW276526  10.605  12.742   6.452
58834SOL     OW76527   9.769  12.324   6.327
58834SOL    HW176528   9.698  12.297   6.392
58834SOL    HW276529   9.743  12.296   6.234
58835SOL     OW76530  10.342  11.721   5.602
58835SOL    HW176531  10.301  11.803   5.563
58835SOL    HW276532  10.406  11.747   5.675
58836SOL     OW76533   9.388  11.728   6.972
58836SOL    HW176534   9.480  11.727   6.931
58836SOL    HW276535   9.382  11.802   7.039
58837SOL     OW76536   9.871  11.394   6.733
58837SOL    HW176537   9.909  11.310   6.770
58837SOL    HW276538   9.783  11.413   6.777
58838SOL     OW76539  10.176  11.626   6.228
58838SOL    HW176540  10.144  11.698   6.166
58838SOL    HW276541  10.200  11.545   6.175
58839SOL     OW76542  10.327  11.211   6.339
58839SOL    HW176543  10.255  11.216   6.270
58839SOL    HW276544  10.303  11.142   6.408
58840SOL     OW76545  10.739  12.345   6.453
58840SOL    HW176546  10.684  12.261   6.446
58840SOL    HW276547  10.765  12.374   6.361
58841SOL     OW76548  10.776  11.762   6.578
58841SOL    HW176549  10.746  11.667   6.585
58841SOL    HW276550  10.849  11.778   6.644
58842SOL     OW76551  11.167  12.005   5.963
58842SOL    HW176552  11.209  11.941   6.027
58842SOL    HW276553  11.129  11.954   5.885
58843SOL     OW76554   9.798  12.557   5.760
58843SOL    HW176555   9.711  12.542   5.807
58843SOL    HW276556   9.781  12.583   5.665
58844SOL     OW76557  10.974  12.452   6.243
58844SOL    HW176558  11.073  12.460   6.257
58844SOL    HW276559  10.929  12.536   6.274
58845SOL     OW76560  10.700  11.747   5.664
58845SOL    HW176561  10.646  11.726   5.745
58845SOL    HW276562  10.791  11.706   5.673
58846SOL     OW76563   9.837  11.428   5.914
58846SOL    HW176564   9.864  11.369   5.839
58846SOL    HW276565   9.837  11.523   5.883
58847SOL     OW76566  11.064  12.395   7.174
58847SOL    HW176567  11.155  12.356   7.161
58847SOL    HW276568  11.072  12.491   7.198
58848SOL     OW76569  10.374  12.519   6.926
58848SOL    HW176570  10.294  12.496   6.981
58848SOL    HW276571  10.457  12.493   6.975
58849SOL     OW76572  10.421  12.367   6.686
58849SOL    HW176573  10.381  12.411   6.767
58849SOL    HW276574  10.380  12.404   6.603
58850SOL     OW76575  10.948  12.271   6.665
58850SOL    HW176576  10.953  12.352   6.724
58850SOL    HW276577  10.862  12.273   6.614
58851SOL     OW76578  10.225  11.261   6.988
58851SOL    HW176579  10.250  11.241   6.893
58851SOL    HW276580  10.297  11.317   7.030
58852SOL     OW76581  10.290  12.288   7.305
58852SOL    HW176582  10.191  12.294   7.315
58852SOL    HW276583  10.313  12.208   7.249
58853SOL     OW76584  10.015  12.222   5.954
58853SOL    HW176585  10.001  12.229   6.053
58853SOL    HW276586  10.099  12.171   5.936
58854SOL     OW76587   9.720  11.985   6.837
58854SOL    HW176588   9.806  11.997   6.887
58854SOL    HW276589   9.678  11.898   6.864
58855SOL     OW76590  10.584  11.558   6.848
58855SOL    HW176591  10.605  11.632   6.912
58855SOL    HW276592  10.495  11.575   6.805
58856SOL     OW76593   9.677  12.272   6.087
58856SOL    HW176594   9.670  12.355   6.031
58856SOL    HW276595   9.681  12.192   6.027
58857SOL     OW76596   9.876  11.709   6.451
58857SOL    HW176597   9.888  11.775   6.377
58857SOL    HW276598   9.922  11.743   6.534
58858SOL     OW76599  10.562  12.520   5.974
58858SOL    HW176600  10.612  12.597   6.014
58858SOL    HW276601  10.467  12.522   6.006
58859SOL     OW76602  10.582  12.617   6.728
58859SOL    HW176603  10.629  12.630   6.815
58859SOL    HW276604  10.516  12.543   6.737
58860SOL     OW76605  10.892  11.811   6.058
58860SOL    HW176606  10.861  11.872   6.131
58860SOL    HW276607  10.942  11.863   5.989
58861SOL     OW76608   9.664  12.682   6.915
58861SOL    HW176609   9.643  12.638   6.828
58861SOL    HW276610   9.761  12.708   6.918
58862SOL     OW76611   9.712  11.923   7.184
58862SOL    HW176612   9.780  11.978   7.137
58862SOL    HW276613   9.752  11.835   7.211
58863SOL     OW76614  10.897  11.951   7.256
58863SOL    HW176615  10.805  11.989   7.251
58863SOL    HW276616  10.957  11.998   7.191
58864SOL     OW76617  10.323  11.277   7.356
58864SOL    HW176618  10.329  11.362   7.304
58864SOL    HW276619  10.355  11.201   7.299
58865SOL     OW76620   9.814  11.222   7.326
58865SOL    HW176621   9.772  11.165   7.256
58865SOL    HW276622   9.748  11.291   7.358
58866SOL     OW76623   9.883  12.042   6.615
58866SOL    HW176624   9.927  12.131   6.606
58866SOL    HW276625   9.820  12.042   6.692
58867SOL     OW76626  10.670  12.034   6.631
58867SOL    HW176627  10.595  12.034   6.565
58867SOL    HW276628  10.707  11.942   6.640
58868SOL     OW76629  10.519  11.697   5.861
58868SOL    HW176630  10.532  11.613   5.915
58868SOL    HW276631  10.490  11.771   5.921
58869SOL     OW76632   9.617  11.385   6.817
58869SOL    HW176633   9.594  11.422   6.907
58869SOL    HW276634   9.587  11.290   6.811
58870SOL     OW76635   9.347  12.482   6.868
58870SOL    HW176636   9.400  12.433   6.936
58870SOL    HW276637   9.369  12.580   6.873
58871SOL     OW76638  10.042  11.806   6.650
58871SOL    HW176639  10.101  11.780   6.574
58871SOL    HW276640  10.014  11.902   6.639
58872SOL     OW76641  11.038  12.107   7.440
58872SOL    HW176642  10.992  12.100   7.351
58872SOL    HW276643  10.976  12.151   7.506
58873SOL     OW76644   9.617  11.235   6.204
58873SOL    HW176645   9.606  11.329   6.237
58873SOL    HW276646   9.612  11.172   6.281
58874SOL     OW76647  10.932  11.539   5.960
58874SOL    HW176648  10.934  11.463   6.024
58874SOL    HW276649  10.884  11.616   6.000
58875SOL     OW76650  10.333  11.938   6.552
58875SOL    HW176651  10.348  11.959   6.648
58875SOL    HW276652  10.303  11.843   6.543
58876SOL     OW76653  11.169  12.690   7.191
58876SOL    HW176654  11.183  12.717   7.096
58876SOL    HW276655  11.252  12.712   7.244
58877SOL     OW76656   9.660  12.070   7.390
58877SOL    HW176657   9.736  12.114   7.438
58877SOL    HW276658   9.695  12.023   7.308
58878SOL     OW76659  10.850  11.446   5.711
58878SOL    HW176660  10.789  11.371   5.734
58878SOL    HW276661  10.872  11.498   5.794
58879SOL     OW76662  10.613  12.010   5.628
58879SOL    HW176663  10.647  11.917   5.643
58879SOL    HW276664  10.631  12.037   5.533
58880SOL     OW76665  10.378  12.505   6.435
58880SOL    HW176666  10.385  12.421   6.380
58880SOL    HW276667  10.440  12.574   6.399
58881SOL     OW76668   9.629  11.982   6.535
58881SOL    HW176669   9.722  12.018   6.540
58881SOL    HW276670   9.623  11.897   6.587
58882SOL     OW76671   9.649  11.681   6.592
58882SOL    HW176672   9.597  11.598   6.575
58882SOL    HW276673   9.726  11.686   6.528
58883SOL     OW76674  10.448  11.552   7.264
58883SOL    HW176675  10.403  11.615   7.328
58883SOL    HW276676  10.541  11.583   7.247
58884SOL     OW76677  10.470  11.379   7.063
58884SOL    HW176678  10.470  11.443   7.140
58884SOL    HW276679  10.498  11.427   6.980
58885SOL     OW76680   9.318  12.498   5.786
58885SOL    HW176681   9.225  12.519   5.755
58885SOL    HW276682   9.328  12.399   5.799
58886SOL     OW76683  10.312  11.968   6.824
58886SOL    HW176684  10.353  11.936   6.910
58886SOL    HW276685  10.216  11.941   6.821
58887SOL     OW76686   9.350  11.716   6.700
58887SOL    HW176687   9.435  11.683   6.659
58887SOL    HW276688   9.363  11.731   6.798
58888SOL     OW76689   9.499  11.692   7.308
58888SOL    HW176690   9.558  11.652   7.238
58888SOL    HW276691   9.441  11.763   7.267
58889SOL     OW76692  10.679  12.122   7.246
58889SOL    HW176693  10.718  12.211   7.266
58889SOL    HW276694  10.689  12.102   7.149
58890SOL     OW76695  10.125  11.744   5.911
58890SOL    HW176696  10.132  11.655   5.865
58890SOL    HW276697  10.031  11.778   5.903
58891SOL     OW76698  10.967  11.776   6.792
58891SOL    HW176699  10.929  11.707   6.854
58891SOL    HW276700  11.049  11.740   6.748
58892SOL     OW76701   9.562  12.736   7.330
58892SOL    HW176702   9.532  12.793   7.406
58892SOL    HW276703   9.555  12.639   7.356
58893SOL     OW76704   9.981  11.636   6.855
58893SOL    HW176705   9.947  11.547   6.825
58893SOL    HW276706  10.007  11.690   6.775
58894SOL     OW76707   9.783  11.672   5.777
58894SOL    HW176708   9.844  11.752   5.781
58894SOL    HW276709   9.688  11.703   5.784
58895SOL     OW76710   9.469  12.309   7.052
58895SOL    HW176711   9.491  12.248   7.128
58895SOL    HW276712   9.479  12.260   6.966
58896SOL     OW76713  10.657  12.231   6.820
58896SOL    HW176714  10.681  12.168   6.746
58896SOL    HW276715  10.567  12.271   6.802
58897SOL     OW76716  10.612  12.027   5.895
58897SOL    HW176717  10.526  11.996   5.937
58897SOL    HW276718  10.608  12.013   5.796
58898SOL     OW76719   9.393  12.430   6.608
58898SOL    HW176720   9.388  12.429   6.708
58898SOL    HW276721   9.310  12.389   6.570
58899SOL     OW76722  11.036  11.307   6.109
58899SOL    HW176723  11.109  11.290   6.042
58899SOL    HW276724  11.005  11.220   6.147
58900SOL     OW76725  10.590  12.099   6.258
58900SOL    HW176726  10.650  12.018   6.260
58900SOL    HW276727  10.630  12.168   6.198
58901SOL     OW76728  10.140  12.445   7.008
58901SOL    HW176729  10.135  12.478   7.103
58901SOL    HW276730  10.054  12.464   6.962
58902SOL     OW76731  11.151  11.347   6.549
58902SOL    HW176732  11.190  11.262   6.513
58902SOL    HW276733  11.053  11.349   6.530
58903SOL     OW76734   9.573  11.498   6.306
58903SOL    HW176735   9.494  11.549   6.272
58903SOL    HW276736   9.564  11.483   6.404
58904SOL     OW76737  10.132  12.174   6.958
58904SOL    HW176738  10.172  12.173   6.866
58904SOL    HW276739  10.142  12.266   6.998
58905SOL     OW76740  10.226  12.082   5.877
58905SOL    HW176741  10.289  12.120   5.809
58905SOL    HW276742  10.266  11.999   5.916
58906SOL     OW76743   9.682  12.460   7.076
58906SOL    HW176744   9.669  12.553   7.042
58906SOL    HW276745   9.598  12.408   7.063
58907SOL     OW76746  10.924  12.464   6.875
58907SOL    HW176747  10.984  12.467   6.955
58907SOL    HW276748  10.849  12.528   6.888
58908SOL     OW76749  10.349  12.270   6.282
58908SOL    HW176750  10.279  12.223   6.336
58908SOL    HW276751  10.408  12.202   6.239
58909SOL     OW76752  10.324  11.408   6.557
58909SOL    HW176753  10.316  11.372   6.464
58909SOL    HW276754  10.322  11.332   6.622
58910SOL     OW76755  11.019  11.557   6.967
58910SOL    HW176756  11.092  11.626   6.971
58910SOL    HW276757  11.047  11.482   6.908
58911SOL     OW76758   9.565  12.520   5.876
58911SOL    HW176759   9.469  12.521   5.849
58911SOL    HW276760   9.577  12.573   5.960
58912SOL     OW76761   9.415  12.185   7.312
58912SOL    HW176762   9.338  12.152   7.366
58912SOL    HW276763   9.500  12.155   7.354
58913SOL     OW76764   9.982  11.375   7.075
58913SOL    HW176765  10.072  11.359   7.035
58913SOL    HW276766   9.990  11.380   7.174
58914SOL     OW76767   9.385  11.517   5.619
58914SOL    HW176768   9.293  11.489   5.590
58914SOL    HW276769   9.416  11.594   5.563
58915SOL     OW76770  10.750  12.028   6.984
58915SOL    HW176771  10.693  12.080   6.921
58915SOL    HW276772  10.846  12.040   6.960
58916SOL     OW76773   9.382  11.338   5.904
58916SOL    HW176774   9.365  11.421   5.850
58916SOL    HW276775   9.472  11.301   5.882
58917SOL     OW76776  10.493  12.507   5.705
58917SOL    HW176777  10.394  12.496   5.707
58917SOL    HW276778  10.527  12.522   5.798
58918SOL     OW76779   9.923  12.014   7.017
58918SOL    HW176780   9.979  12.095   7.000
58918SOL    HW276781   9.982  11.934   7.020
58919SOL     OW76782  10.026  11.737   7.294
58919SOL    HW176783  10.045  11.802   7.368
58919SOL    HW276784  10.086  11.657   7.303
58920SOL     OW76785  10.760  12.392   7.219
58920SOL    HW176786  10.751  12.382   7.318
58920SOL    HW276787  10.856  12.385   7.193
58921SOL     OW76788  10.984  12.055   6.840
58921SOL    HW176789  10.957  11.966   6.803
58921SOL    HW276790  10.985  12.123   6.767
58922SOL     OW76791  10.535  11.497   6.035
58922SOL    HW176792  10.600  11.423   6.024
58922SOL    HW276793  10.555  11.547   6.119
58923SOL     OW76794   9.904  11.917   6.238
58923SOL    HW176795   9.954  12.002   6.219
58923SOL    HW276796   9.816  11.919   6.190
58924SOL     OW76797  11.087  11.514   7.228
58924SOL    HW176798  11.070  11.545   7.134
58924SOL    HW276799  11.003  11.477   7.266
58925SOL     OW76800  11.040  12.106   7.103
58925SOL    HW176801  11.078  12.197   7.118
58925SOL    HW276802  11.032  12.089   7.004
58926SOL     OW76803  10.169  12.546   5.602
58926SOL    HW176804  10.123  12.561   5.690
58926SOL    HW276805  10.213  12.631   5.572
58927SOL     OW76806  10.169  12.128   6.447
58927SOL    HW176807  10.223  12.059   6.495
58927SOL    HW276808  10.137  12.197   6.513
58928SOL     OW76809  10.393  12.156   5.673
58928SOL    HW176810  10.370  12.209   5.591
58928SOL    HW276811  10.474  12.100   5.654
58929SOL     OW76812   9.531  12.486   7.430
58929SOL    HW176813   9.466  12.413   7.409
58929SOL    HW276814   9.535  12.500   7.528
58930SOL     OW76815   9.389  12.412   6.239
58930SOL    HW176816   9.388  12.365   6.327
58930SOL    HW276817   9.471  12.384   6.188
58931SOL     OW76818   9.982  12.563   7.210
58931SOL    HW176819   9.904  12.513   7.248
58931SOL    HW276820   9.979  12.658   7.241
58932SOL     OW76821  11.134  11.364   6.813
58932SOL    HW176822  11.130  11.274   6.857
58932SOL    HW276823  11.137  11.353   6.714
58933SOL     OW76824   9.738  11.596   6.106
58933SOL    HW176825   9.768  11.524   6.044
58933SOL    HW276826   9.699  11.556   6.189
58934SOL     OW76827  11.015  12.659   6.690
58934SOL    HW176828  10.922  12.634   6.663
58934SOL    HW276829  11.041  12.609   6.772
58935SOL     OW76830   9.627  11.719   6.866
58935SOL    HW176831   9.665  11.660   6.938
58935SOL    HW276832   9.667  11.693   6.778
58936SOL     OW76833  10.734  11.386   6.698
58936SOL    HW176834  10.786  11.321   6.753
58936SOL    HW276835  10.685  11.449   6.759
58937SOL     OW76836  10.311  11.206   6.740
58937SOL    HW176837  10.248  11.134   6.709
58937SOL    HW276838  10.404  11.170   6.740
58938SOL     OW76839  10.080  12.502   5.887
58938SOL    HW176840  10.034  12.415   5.904
58938SOL    HW276841  10.171  12.499   5.928
58939SOL     OW76842   9.928  12.739   6.870
58939SOL    HW176843   9.923  12.821   6.927
58939SOL    HW276844  10.017  12.736   6.825
58940SOL     OW76845  10.662  11.224   5.754
58940SOL    HW176846  10.697  11.183   5.670
58940SOL    HW276847  10.572  11.186   5.774
58941SOL     OW76848  10.610  11.625   6.277
58941SOL    HW176849  10.551  11.705   6.281
58941SOL    HW276850  10.625  11.590   6.370
58942SOL     OW76851  10.903  11.393   6.468
58942SOL    HW176852  10.819  11.392   6.522
58942SOL    HW276853  10.905  11.476   6.412
58943SOL     OW76854   9.349  12.249   5.886
58943SOL    HW176855   9.448  12.238   5.877
58943SOL    HW276856   9.309  12.163   5.918
58944SOL     OW76857   9.540  11.800   7.561
58944SOL    HW176858   9.447  11.798   7.598
58944SOL    HW276859   9.541  11.761   7.469
58945SOL     OW76860   9.535  11.447   8.444
58945SOL    HW176861   9.570  11.430   8.536
58945SOL    HW276862   9.447  11.402   8.432
58946SOL     OW76863   9.329  11.540   8.095
58946SOL    HW176864   9.247  11.583   8.134
58946SOL    HW276865   9.301  11.467   8.032
58947SOL     OW76866   9.879  12.447   8.613
58947SOL    HW176867   9.786  12.440   8.576
58947SOL    HW276868   9.890  12.536   8.657
58948SOL     OW76869  10.865  12.683   8.151
58948SOL    HW176870  10.808  12.667   8.232
58948SOL    HW276871  10.806  12.693   8.071
58949SOL     OW76872  10.445  11.875   8.165
58949SOL    HW176873  10.502  11.953   8.140
58949SOL    HW276874  10.385  11.901   8.241
58950SOL     OW76875  11.065  11.779   7.679
58950SOL    HW176876  11.053  11.766   7.580
58950SOL    HW276877  11.035  11.698   7.728
58951SOL     OW76878  10.078  12.316   8.471
58951SOL    HW176879  10.000  12.333   8.531
58951SOL    HW276880  10.112  12.403   8.435
58952SOL     OW76881  10.160  11.970   9.271
58952SOL    HW176882  10.156  12.046   9.336
58952SOL    HW276883  10.182  12.006   9.180
58953SOL     OW76884   9.995  12.184   8.113
58953SOL    HW176885  10.064  12.168   8.183
58953SOL    HW276886   9.922  12.241   8.151
58954SOL     OW76887   9.996  12.333   9.251
58954SOL    HW176888  10.056  12.412   9.265
58954SOL    HW276889   9.910  12.364   9.210
58955SOL     OW76890   9.645  12.607   8.509
58955SOL    HW176891   9.567  12.576   8.456
58955SOL    HW276892   9.703  12.665   8.452
58956SOL     OW76893  10.770  12.677   8.787
58956SOL    HW176894  10.794  12.771   8.813
58956SOL    HW276895  10.754  12.623   8.869
58957SOL     OW76896   9.748  11.564   8.947
58957SOL    HW176897   9.830  11.508   8.956
58957SOL    HW276898   9.667  11.506   8.951
58958SOL     OW76899  10.913  11.619   8.185
58958SOL    HW176900  10.839  11.665   8.135
58958SOL    HW276901  10.964  11.687   8.238
58959SOL     OW76902   9.541  12.885   7.931
58959SOL    HW176903   9.575  12.962   7.985
58959SOL    HW276904   9.585  12.885   7.841
58960SOL     OW76905  10.437  12.513   9.138
58960SOL    HW176906  10.484  12.513   9.226
58960SOL    HW276907  10.389  12.426   9.127
58961SOL     OW76908   9.540  12.606   7.986
58961SOL    HW176909   9.514  12.702   7.986
58961SOL    HW276910   9.469  12.552   8.031
58962SOL     OW76911   9.550  12.263   8.334
58962SOL    HW176912   9.564  12.179   8.386
58962SOL    HW276913   9.495  12.327   8.389
58963SOL     OW76914   9.916  12.136   7.571
58963SOL    HW176915   9.923  12.220   7.517
58963SOL    HW276916   9.962  12.149   7.659
58964SOL     OW76917  10.904  11.286   8.928
58964SOL    HW176918  10.886  11.353   8.856
58964SOL    HW276919  10.901  11.332   9.017
58965SOL     OW76920   9.432  11.815   8.011
58965SOL    HW176921   9.387  11.727   8.028
58965SOL    HW276922   9.431  11.869   8.095
58966SOL     OW76923   9.337  12.768   7.565
58966SOL    HW176924   9.318  12.672   7.586
58966SOL    HW276925   9.304  12.826   7.640
58967SOL     OW76926  10.999  12.094   8.060
58967SOL    HW176927  11.094  12.065   8.068
58967SOL    HW276928  10.991  12.159   7.985
58968SOL     OW76929  10.951  12.280   7.880
58968SOL    HW176930  11.037  12.282   7.828
58968SOL    HW276931  10.965  12.327   7.968
58969SOL     OW76932   9.423  11.909   9.045
58969SOL    HW176933   9.511  11.896   9.090
58969SOL    HW276934   9.410  12.006   9.023
58970SOL     OW76935   9.923  12.537   8.174
58970SOL    HW176936   9.874  12.450   8.183
58970SOL    HW276937   9.900  12.580   8.087
58971SOL     OW76938  10.603  12.400   8.871
58971SOL    HW176939  10.640  12.327   8.813
58971SOL    HW276940  10.655  12.405   8.956
58972SOL     OW76941  10.119  11.176   7.950
58972SOL    HW176942  10.159  11.267   7.941
58972SOL    HW276943  10.019  11.184   7.956
58973SOL     OW76944   9.507  12.148   8.712
58973SOL    HW176945   9.596  12.103   8.698
58973SOL    HW276946   9.434  12.083   8.693
58974SOL     OW76947  10.835  12.171   7.638
58974SOL    HW176948  10.772  12.095   7.651
58974SOL    HW276949  10.883  12.189   7.724
58975SOL     OW76950   9.627  11.423   9.249
58975SOL    HW176951   9.698  11.494   9.255
58975SOL    HW276952   9.539  11.462   9.277
58976SOL     OW76953  10.776  12.589   8.401
58976SOL    HW176954  10.717  12.595   8.481
58976SOL    HW276955  10.761  12.501   8.355
58977SOL     OW76956   9.908  11.901   7.718
58977SOL    HW176957   9.932  11.970   7.650
58977SOL    HW276958   9.830  11.934   7.772
58978SOL     OW76959  10.591  11.517   8.392
58978SOL    HW176960  10.505  11.467   8.379
58978SOL    HW276961  10.653  11.463   8.448
58979SOL     OW76962  10.117  11.777   8.913
58979SOL    HW176963  10.070  11.774   9.002
58979SOL    HW276964  10.066  11.722   8.847
58980SOL     OW76965  10.704  11.641   9.122
58980SOL    HW176966  10.684  11.684   9.210
58980SOL    HW276967  10.782  11.579   9.131
58981SOL     OW76968  10.283  12.062   9.020
58981SOL    HW176969  10.329  11.978   8.991
58981SOL    HW276970  10.227  12.096   8.945
58982SOL     OW76971  10.301  11.582   8.690
58982SOL    HW176972  10.224  11.616   8.744
58982SOL    HW276973  10.267  11.531   8.611
58983SOL     OW76974  10.351  11.873   7.877
58983SOL    HW176975  10.377  11.869   7.973
58983SOL    HW276976  10.266  11.822   7.863
58984SOL     OW76977   9.386  11.983   8.237
58984SOL    HW176978   9.485  11.971   8.246
58984SOL    HW276979   9.362  12.078   8.258
58985SOL     OW76980  10.175  11.520   7.643
58985SOL    HW176981  10.234  11.583   7.594
58985SOL    HW276982  10.194  11.426   7.614
58986SOL     OW76983  11.029  11.757   9.279
58986SOL    HW176984  11.003  11.846   9.243
58986SOL    HW276985  11.027  11.689   9.206
58987SOL     OW76986  10.672  12.316   7.993
58987SOL    HW176987  10.755  12.287   7.945
58987SOL    HW276988  10.623  12.383   7.937
58988SOL     OW76989   9.860  11.368   8.333
58988SOL    HW176990   9.855  11.363   8.433
58988SOL    HW276991   9.862  11.464   8.304
58989SOL     OW76992  10.318  12.628   7.925
58989SOL    HW176993  10.272  12.700   7.873
58989SOL    HW276994  10.314  12.648   8.023
58990SOL     OW76995  11.105  12.238   8.321
58990SOL    HW176996  11.043  12.223   8.245
58990SOL    HW276997  11.053  12.249   8.406
58991SOL     OW76998  10.537  12.722   8.954
58991SOL    HW176999  10.543  12.645   9.018
58991SOL    HW277000  10.485  12.696   8.874
58992SOL     OW77001   9.631  12.115   7.690
58992SOL    HW177002   9.713  12.154   7.648
58992SOL    HW277003   9.604  12.033   7.641
58993SOL     OW77004  10.768  11.907   8.176
58993SOL    HW177005  10.763  11.842   8.251
58993SOL    HW277006  10.848  11.966   8.189
58994SOL     OW77007   9.771  12.438   9.175
58994SOL    HW177008   9.721  12.439   9.089
58994SOL    HW277009   9.708  12.420   9.251
58995SOL     OW77010  10.421  12.948   7.685
58995SOL    HW177011  10.361  12.886   7.735
58995SOL    HW277012  10.452  12.904   7.600
58996SOL     OW77013   9.512  11.457   8.946
58996SOL    HW177014   9.432  11.517   8.933
58996SOL    HW277015   9.502  11.408   9.032
58997SOL     OW77016  10.942  12.549   7.529
58997SOL    HW177017  10.910  12.643   7.519
58997SOL    HW277018  10.866  12.486   7.517
58998SOL     OW77019  10.710  11.279   7.874
58998SOL    HW177020  10.686  11.242   7.784
58998SOL    HW277021  10.809  11.295   7.878
58999SOL     OW77022   9.692  11.872   7.928
58999SOL    HW177023   9.737  11.782   7.925
58999SOL    HW277024   9.598  11.861   7.961
59000SOL     OW77025  10.857  11.394   9.177
59000SOL    HW177026  10.852  11.431   9.269
59000SOL    HW277027  10.785  11.325   9.165
59001SOL     OW77028   9.924  11.294   7.565
59001SOL    HW177029  10.022  11.272   7.572
59001SOL    HW277030   9.893  11.277   7.472
59002SOL     OW77031  10.091  11.436   9.197
59002SOL    HW177032  10.158  11.375   9.240
59002SOL    HW277033  10.018  11.455   9.262
59003SOL     OW77034  10.661  11.762   8.881
59003SOL    HW177035  10.689  11.719   8.966
59003SOL    HW277036  10.686  11.858   8.882
59004SOL     OW77037  10.113  12.574   8.372
59004SOL    HW177038  10.203  12.588   8.330
59004SOL    HW277039  10.042  12.576   8.301
59005SOL     OW77040  10.232  11.675   8.347
59005SOL    HW177041  10.207  11.666   8.251
59005SOL    HW277042  10.280  11.593   8.378
59006SOL     OW77043   9.849  11.236   7.960
59006SOL    HW177044   9.768  11.237   8.018
59006SOL    HW277045   9.852  11.319   7.905
59007SOL     OW77046  10.744  12.360   7.489
59007SOL    HW177047  10.776  12.284   7.546
59007SOL    HW277048  10.652  12.387   7.519
59008SOL     OW77049   9.607  11.207   7.619
59008SOL    HW177050   9.656  11.291   7.598
59008SOL    HW277051   9.669  11.142   7.664
59009SOL     OW77052  10.245  11.408   7.928
59009SOL    HW177053  10.197  11.449   7.850
59009SOL    HW277054  10.344  11.406   7.909
59010SOL     OW77055  10.386  11.855   8.912
59010SOL    HW177056  10.306  11.794   8.915
59010SOL    HW277057  10.467  11.802   8.888
59011SOL     OW77058  10.537  12.742   8.241
59011SOL    HW177059  10.558  12.816   8.176
59011SOL    HW277060  10.605  12.742   8.314
59012SOL     OW77061   9.769  12.324   8.189
59012SOL    HW177062   9.698  12.297   8.254
59012SOL    HW277063   9.743  12.296   8.096
59013SOL     OW77064  10.342  11.721   7.464
59013SOL    HW177065  10.301  11.803   7.425
59013SOL    HW277066  10.406  11.747   7.537
59014SOL     OW77067   9.388  11.728   8.834
59014SOL    HW177068   9.480  11.727   8.793
59014SOL    HW277069   9.382  11.802   8.901
59015SOL     OW77070   9.871  11.394   8.595
59015SOL    HW177071   9.909  11.310   8.632
59015SOL    HW277072   9.783  11.413   8.639
59016SOL     OW77073  10.176  11.626   8.090
59016SOL    HW177074  10.144  11.698   8.028
59016SOL    HW277075  10.200  11.545   8.037
59017SOL     OW77076  10.327  11.211   8.201
59017SOL    HW177077  10.255  11.216   8.132
59017SOL    HW277078  10.303  11.142   8.270
59018SOL     OW77079  10.739  12.345   8.315
59018SOL    HW177080  10.684  12.261   8.308
59018SOL    HW277081  10.765  12.374   8.223
59019SOL     OW77082  10.776  11.762   8.440
59019SOL    HW177083  10.746  11.667   8.447
59019SOL    HW277084  10.849  11.778   8.506
59020SOL     OW77085  11.167  12.005   7.825
59020SOL    HW177086  11.209  11.941   7.889
59020SOL    HW277087  11.129  11.954   7.747
59021SOL     OW77088   9.798  12.557   7.622
59021SOL    HW177089   9.711  12.542   7.669
59021SOL    HW277090   9.781  12.583   7.527
59022SOL     OW77091  10.974  12.452   8.105
59022SOL    HW177092  11.073  12.460   8.119
59022SOL    HW277093  10.929  12.536   8.136
59023SOL     OW77094  10.700  11.747   7.526
59023SOL    HW177095  10.646  11.726   7.607
59023SOL    HW277096  10.791  11.706   7.535
59024SOL     OW77097   9.837  11.428   7.776
59024SOL    HW177098   9.864  11.369   7.701
59024SOL    HW277099   9.837  11.523   7.745
59025SOL     OW77100  11.064  12.395   9.036
59025SOL    HW177101  11.155  12.356   9.023
59025SOL    HW277102  11.072  12.491   9.060
59026SOL     OW77103  10.374  12.519   8.788
59026SOL    HW177104  10.294  12.496   8.843
59026SOL    HW277105  10.457  12.493   8.837
59027SOL     OW77106  10.421  12.367   8.548
59027SOL    HW177107  10.381  12.411   8.629
59027SOL    HW277108  10.380  12.404   8.465
59028SOL     OW77109  10.948  12.271   8.527
59028SOL    HW177110  10.953  12.352   8.586
59028SOL    HW277111  10.862  12.273   8.476
59029SOL     OW77112  10.225  11.261   8.850
59029SOL    HW177113  10.250  11.241   8.755
59029SOL    HW277114  10.297  11.317   8.892
59030SOL     OW77115  10.290  12.288   9.167
59030SOL    HW177116  10.191  12.294   9.177
59030SOL    HW277117  10.313  12.208   9.111
59031SOL     OW77118  10.015  12.222   7.816
59031SOL    HW177119  10.001  12.229   7.915
59031SOL    HW277120  10.099  12.171   7.798
59032SOL     OW77121   9.720  11.985   8.699
59032SOL    HW177122   9.806  11.997   8.749
59032SOL    HW277123   9.678  11.898   8.726
59033SOL     OW77124  10.584  11.558   8.710
59033SOL    HW177125  10.605  11.632   8.774
59033SOL    HW277126  10.495  11.575   8.667
59034SOL     OW77127   9.677  12.272   7.949
59034SOL    HW177128   9.670  12.355   7.893
59034SOL    HW277129   9.681  12.192   7.889
59035SOL     OW77130   9.876  11.709   8.313
59035SOL    HW177131   9.888  11.775   8.239
59035SOL    HW277132   9.922  11.743   8.396
59036SOL     OW77133  10.562  12.520   7.836
59036SOL    HW177134  10.612  12.597   7.876
59036SOL    HW277135  10.467  12.522   7.868
59037SOL     OW77136  10.582  12.617   8.590
59037SOL    HW177137  10.629  12.630   8.677
59037SOL    HW277138  10.516  12.543   8.599
59038SOL     OW77139  10.892  11.811   7.920
59038SOL    HW177140  10.861  11.872   7.993
59038SOL    HW277141  10.942  11.863   7.851
59039SOL     OW77142   9.664  12.682   8.777
59039SOL    HW177143   9.643  12.638   8.690
59039SOL    HW277144   9.761  12.708   8.780
59040SOL     OW77145   9.712  11.923   9.046
59040SOL    HW177146   9.780  11.978   8.999
59040SOL    HW277147   9.752  11.835   9.073
59041SOL     OW77148  10.897  11.951   9.118
59041SOL    HW177149  10.805  11.989   9.113
59041SOL    HW277150  10.957  11.998   9.053
59042SOL     OW77151  10.323  11.277   9.218
59042SOL    HW177152  10.329  11.362   9.166
59042SOL    HW277153  10.355  11.201   9.161
59043SOL     OW77154   9.814  11.222   9.188
59043SOL    HW177155   9.772  11.165   9.118
59043SOL    HW277156   9.748  11.291   9.220
59044SOL     OW77157   9.883  12.042   8.477
59044SOL    HW177158   9.927  12.131   8.468
59044SOL    HW277159   9.820  12.042   8.554
59045SOL     OW77160  10.670  12.034   8.493
59045SOL    HW177161  10.595  12.034   8.427
59045SOL    HW277162  10.707  11.942   8.502
59046SOL     OW77163  10.519  11.697   7.723
59046SOL    HW177164  10.532  11.613   7.777
59046SOL    HW277165  10.490  11.771   7.783
59047SOL     OW77166   9.617  11.385   8.679
59047SOL    HW177167   9.594  11.422   8.769
59047SOL    HW277168   9.587  11.290   8.673
59048SOL     OW77169   9.347  12.482   8.730
59048SOL    HW177170   9.400  12.433   8.798
59048SOL    HW277171   9.369  12.580   8.735
59049SOL     OW77172  10.042  11.806   8.512
59049SOL    HW177173  10.101  11.780   8.436
59049SOL    HW277174  10.014  11.902   8.501
59050SOL     OW77175  11.038  12.107   9.302
59050SOL    HW177176  10.992  12.100   9.213
59050SOL    HW277177  10.976  12.151   9.368
59051SOL     OW77178   9.617  11.235   8.066
59051SOL    HW177179   9.606  11.329   8.099
59051SOL    HW277180   9.612  11.172   8.143
59052SOL     OW77181  10.932  11.539   7.822
59052SOL    HW177182  10.934  11.463   7.886
59052SOL    HW277183  10.884  11.616   7.862
59053SOL     OW77184  10.333  11.938   8.414
59053SOL    HW177185  10.348  11.959   8.510
59053SOL    HW277186  10.303  11.843   8.405
59054SOL     OW77187  11.169  12.690   9.053
59054SOL    HW177188  11.183  12.717   8.958
59054SOL    HW277189  11.252  12.712   9.106
59055SOL     OW77190   9.660  12.070   9.252
59055SOL    HW177191   9.736  12.114   9.300
59055SOL    HW277192   9.695  12.023   9.170
59056SOL     OW77193  10.850  11.446   7.573
59056SOL    HW177194  10.789  11.371   7.596
59056SOL    HW277195  10.872  11.498   7.656
59057SOL     OW77196  10.613  12.010   7.490
59057SOL    HW177197  10.647  11.917   7.505
59057SOL    HW277198  10.631  12.037   7.395
59058SOL     OW77199  10.378  12.505   8.297
59058SOL    HW177200  10.385  12.421   8.242
59058SOL    HW277201  10.440  12.574   8.261
59059SOL     OW77202   9.629  11.982   8.397
59059SOL    HW177203   9.722  12.018   8.402
59059SOL    HW277204   9.623  11.897   8.449
59060SOL     OW77205   9.649  11.681   8.454
59060SOL    HW177206   9.597  11.598   8.437
59060SOL    HW277207   9.726  11.686   8.390
59061SOL     OW77208  10.448  11.552   9.126
59061SOL    HW177209  10.403  11.615   9.190
59061SOL    HW277210  10.541  11.583   9.109
59062SOL     OW77211  10.470  11.379   8.925
59062SOL    HW177212  10.470  11.443   9.002
59062SOL    HW277213  10.498  11.427   8.842
59063SOL     OW77214   9.318  12.498   7.648
59063SOL    HW177215   9.225  12.519   7.617
59063SOL    HW277216   9.328  12.399   7.661
59064SOL     OW77217  10.312  11.968   8.686
59064SOL    HW177218  10.353  11.936   8.772
59064SOL    HW277219  10.216  11.941   8.683
59065SOL     OW77220   9.350  11.716   8.562
59065SOL    HW177221   9.435  11.683   8.521
59065SOL    HW277222   9.363  11.731   8.660
59066SOL     OW77223   9.499  11.692   9.170
59066SOL    HW177224   9.558  11.652   9.100
59066SOL    HW277225   9.441  11.763   9.129
59067SOL     OW77226  10.679  12.122   9.108
59067SOL    HW177227  10.718  12.211   9.128
59067SOL    HW277228  10.689  12.102   9.011
59068SOL     OW77229  10.125  11.744   7.773
59068SOL    HW177230  10.132  11.655   7.727
59068SOL    HW277231  10.031  11.778   7.765
59069SOL     OW77232  10.967  11.776   8.654
59069SOL    HW177233  10.929  11.707   8.716
59069SOL    HW277234  11.049  11.740   8.610
59070SOL     OW77235   9.562  12.736   9.192
59070SOL    HW177236   9.532  12.793   9.268
59070SOL    HW277237   9.555  12.639   9.218
59071SOL     OW77238   9.981  11.636   8.717
59071SOL    HW177239   9.947  11.547   8.687
59071SOL    HW277240  10.007  11.690   8.637
59072SOL     OW77241   9.783  11.672   7.639
59072SOL    HW177242   9.844  11.752   7.643
59072SOL    HW277243   9.688  11.703   7.646
59073SOL     OW77244   9.469  12.309   8.914
59073SOL    HW177245   9.491  12.248   8.990
59073SOL    HW277246   9.479  12.260   8.828
59074SOL     OW77247  10.657  12.231   8.682
59074SOL    HW177248  10.681  12.168   8.608
59074SOL    HW277249  10.567  12.271   8.664
59075SOL     OW77250  10.612  12.027   7.757
59075SOL    HW177251  10.526  11.996   7.799
59075SOL    HW277252  10.608  12.013   7.658
59076SOL     OW77253   9.393  12.430   8.470
59076SOL    HW177254   9.388  12.429   8.570
59076SOL    HW277255   9.310  12.389   8.432
59077SOL     OW77256  11.036  11.307   7.971
59077SOL    HW177257  11.109  11.290   7.904
59077SOL    HW277258  11.005  11.220   8.009
59078SOL     OW77259  10.590  12.099   8.120
59078SOL    HW177260  10.650  12.018   8.122
59078SOL    HW277261  10.630  12.168   8.060
59079SOL     OW77262  10.140  12.445   8.870
59079SOL    HW177263  10.135  12.478   8.965
59079SOL    HW277264  10.054  12.464   8.824
59080SOL     OW77265  11.151  11.347   8.411
59080SOL    HW177266  11.190  11.262   8.375
59080SOL    HW277267  11.053  11.349   8.392
59081SOL     OW77268   9.573  11.498   8.168
59081SOL    HW177269   9.494  11.549   8.134
59081SOL    HW277270   9.564  11.483   8.266
59082SOL     OW77271  10.132  12.174   8.820
59082SOL    HW177272  10.172  12.173   8.728
59082SOL    HW277273  10.142  12.266   8.860
59083SOL     OW77274  10.226  12.082   7.739
59083SOL    HW177275  10.289  12.120   7.671
59083SOL    HW277276  10.266  11.999   7.778
59084SOL     OW77277   9.682  12.460   8.938
59084SOL    HW177278   9.669  12.553   8.904
59084SOL    HW277279   9.598  12.408   8.925
59085SOL     OW77280  10.924  12.464   8.737
59085SOL    HW177281  10.984  12.467   8.817
59085SOL    HW277282  10.849  12.528   8.750
59086SOL     OW77283  10.349  12.270   8.144
59086SOL    HW177284  10.279  12.223   8.198
59086SOL    HW277285  10.408  12.202   8.101
59087SOL     OW77286  10.324  11.408   8.419
59087SOL    HW177287  10.316  11.372   8.326
59087SOL    HW277288  10.322  11.332   8.484
59088SOL     OW77289  11.019  11.557   8.829
59088SOL    HW177290  11.092  11.626   8.833
59088SOL    HW277291  11.047  11.482   8.770
59089SOL     OW77292   9.565  12.520   7.738
59089SOL    HW177293   9.469  12.521   7.711
59089SOL    HW277294   9.577  12.573   7.822
59090SOL     OW77295   9.415  12.185   9.174
59090SOL    HW177296   9.338  12.152   9.228
59090SOL    HW277297   9.500  12.155   9.216
59091SOL     OW77298   9.982  11.375   8.937
59091SOL    HW177299  10.072  11.359   8.897
59091SOL    HW277300   9.990  11.380   9.036
59092SOL     OW77301   9.385  11.517   7.481
59092SOL    HW177302   9.293  11.489   7.452
59092SOL    HW277303   9.416  11.594   7.425
59093SOL     OW77304  10.750  12.028   8.846
59093SOL    HW177305  10.693  12.080   8.783
59093SOL    HW277306  10.846  12.040   8.822
59094SOL     OW77307   9.382  11.338   7.766
59094SOL    HW177308   9.365  11.421   7.712
59094SOL    HW277309   9.472  11.301   7.744
59095SOL     OW77310  10.493  12.507   7.567
59095SOL    HW177311  10.394  12.496   7.569
59095SOL    HW277312  10.527  12.522   7.660
59096SOL     OW77313   9.923  12.014   8.879
59096SOL    HW177314   9.979  12.095   8.862
59096SOL    HW277315   9.982  11.934   8.882
59097SOL     OW77316  10.026  11.737   9.156
59097SOL    HW177317  10.045  11.802   9.230
59097SOL    HW277318  10.086  11.657   9.165
59098SOL     OW77319  10.760  12.392   9.081
59098SOL    HW177320  10.751  12.382   9.180
59098SOL    HW277321  10.856  12.385   9.055
59099SOL     OW77322  10.984  12.055   8.702
59099SOL    HW177323  10.957  11.966   8.665
59099SOL    HW277324  10.985  12.123   8.629
59100SOL     OW77325  10.535  11.497   7.897
59100SOL    HW177326  10.600  11.423   7.886
59100SOL    HW277327  10.555  11.547   7.981
59101SOL     OW77328   9.904  11.917   8.100
59101SOL    HW177329   9.954  12.002   8.081
59101SOL    HW277330   9.816  11.919   8.052
59102SOL     OW77331  11.087  11.514   9.090
59102SOL    HW177332  11.070  11.545   8.996
59102SOL    HW277333  11.003  11.477   9.128
59103SOL     OW77334  11.040  12.106   8.965
59103SOL    HW177335  11.078  12.197   8.980
59103SOL    HW277336  11.032  12.089   8.866
59104SOL     OW77337  10.169  12.546   7.464
59104SOL    HW177338  10.123  12.561   7.552
59104SOL    HW277339  10.213  12.631   7.434
59105SOL     OW77340  10.169  12.128   8.309
59105SOL    HW177341  10.223  12.059   8.357
59105SOL    HW277342  10.137  12.197   8.375
59106SOL     OW77343  10.393  12.156   7.535
59106SOL    HW177344  10.370  12.209   7.453
59106SOL    HW277345  10.474  12.100   7.516
59107SOL     OW77346   9.531  12.486   9.292
59107SOL    HW177347   9.466  12.413   9.271
59107SOL    HW277348   9.535  12.500   9.390
59108SOL     OW77349   9.389  12.412   8.101
59108SOL    HW177350   9.388  12.365   8.189
59108SOL    HW277351   9.471  12.384   8.050
59109SOL     OW77352   9.982  12.563   9.072
59109SOL    HW177353   9.904  12.513   9.110
59109SOL    HW277354   9.979  12.658   9.103
59110SOL     OW77355  11.134  11.364   8.675
59110SOL    HW177356  11.130  11.274   8.719
59110SOL    HW277357  11.137  11.353   8.576
59111SOL     OW77358   9.738  11.596   7.968
59111SOL    HW177359   9.768  11.524   7.906
59111SOL    HW277360   9.699  11.556   8.051
59112SOL     OW77361  11.015  12.659   8.552
59112SOL    HW177362  10.922  12.634   8.525
59112SOL    HW277363  11.041  12.609   8.634
59113SOL     OW77364   9.627  11.719   8.728
59113SOL    HW177365   9.665  11.660   8.800
59113SOL    HW277366   9.667  11.693   8.640
59114SOL     OW77367  10.734  11.386   8.560
59114SOL    HW177368  10.786  11.321   8.615
59114SOL    HW277369  10.685  11.449   8.621
59115SOL     OW77370  10.311  11.206   8.602
59115SOL    HW177371  10.248  11.134   8.571
59115SOL    HW277372  10.404  11.170   8.602
59116SOL     OW77373  10.080  12.502   7.749
59116SOL    HW177374  10.034  12.415   7.766
59116SOL    HW277375  10.171  12.499   7.790
59117SOL     OW77376   9.928  12.739   8.732
59117SOL    HW177377   9.923  12.821   8.789
59117SOL    HW277378  10.017  12.736   8.687
59118SOL     OW77379  10.662  11.224   7.616
59118SOL    HW177380  10.697  11.183   7.532
59118SOL    HW277381  10.572  11.186   7.636
59119SOL     OW77382  10.610  11.625   8.139
59119SOL    HW177383  10.551  11.705   8.143
59119SOL    HW277384  10.625  11.590   8.232
59120SOL     OW77385  10.903  11.393   8.330
59120SOL    HW177386  10.819  11.392   8.384
59120SOL    HW277387  10.905  11.476   8.274
59121SOL     OW77388   9.349  12.249   7.748
59121SOL    HW177389   9.448  12.238   7.739
59121SOL    HW277390   9.309  12.163   7.780
59122SOL     OW77391   9.540  11.800   9.423
59122SOL    HW177392   9.447  11.798   9.460
59122SOL    HW277393   9.541  11.761   9.331
59123SOL     OW77394   9.535  11.447  10.306
59123SOL    HW177395   9.570  11.430  10.398
59123SOL    HW277396   9.447  11.402  10.294
59124SOL     OW77397   9.329  11.540   9.957
59124SOL    HW177398   9.247  11.583   9.996
59124SOL    HW277399   9.301  11.467   9.894
59125SOL     OW77400   9.879  12.447  10.475
59125SOL    HW177401   9.786  12.440  10.438
59125SOL    HW277402   9.890  12.536  10.519
59126SOL     OW77403  10.865  12.683  10.013
59126SOL    HW177404  10.808  12.667  10.094
59126SOL    HW277405  10.806  12.693   9.933
59127SOL     OW77406  10.445  11.875  10.027
59127SOL    HW177407  10.502  11.953  10.002
59127SOL    HW277408  10.385  11.901  10.103
59128SOL     OW77409  11.065  11.779   9.541
59128SOL    HW177410  11.053  11.766   9.442
59128SOL    HW277411  11.035  11.698   9.590
59129SOL     OW77412  10.078  12.316  10.333
59129SOL    HW177413  10.000  12.333  10.393
59129SOL    HW277414  10.112  12.403  10.297
59130SOL     OW77415  10.160  11.970  11.133
59130SOL    HW177416  10.156  12.046  11.198
59130SOL    HW277417  10.182  12.006  11.042
59131SOL     OW77418   9.995  12.184   9.975
59131SOL    HW177419  10.064  12.168  10.045
59131SOL    HW277420   9.922  12.241  10.013
59132SOL     OW77421   9.996  12.333  11.113
59132SOL    HW177422  10.056  12.412  11.127
59132SOL    HW277423   9.910  12.364  11.072
59133SOL     OW77424   9.645  12.607  10.371
59133SOL    HW177425   9.567  12.576  10.318
59133SOL    HW277426   9.703  12.665  10.314
59134SOL     OW77427  10.770  12.677  10.649
59134SOL    HW177428  10.794  12.771  10.675
59134SOL    HW277429  10.754  12.623  10.731
59135SOL     OW77430   9.748  11.564  10.809
59135SOL    HW177431   9.830  11.508  10.818
59135SOL    HW277432   9.667  11.506  10.813
59136SOL     OW77433  10.913  11.619  10.047
59136SOL    HW177434  10.839  11.665   9.997
59136SOL    HW277435  10.964  11.687  10.100
59137SOL     OW77436   9.541  12.885   9.793
59137SOL    HW177437   9.575  12.962   9.847
59137SOL    HW277438   9.585  12.885   9.703
59138SOL     OW77439  10.437  12.513  11.000
59138SOL    HW177440  10.484  12.513  11.088
59138SOL    HW277441  10.389  12.426  10.989
59139SOL     OW77442   9.540  12.606   9.848
59139SOL    HW177443   9.514  12.702   9.848
59139SOL    HW277444   9.469  12.552   9.893
59140SOL     OW77445   9.550  12.263  10.196
59140SOL    HW177446   9.564  12.179  10.248
59140SOL    HW277447   9.495  12.327  10.251
59141SOL     OW77448   9.916  12.136   9.433
59141SOL    HW177449   9.923  12.220   9.379
59141SOL    HW277450   9.962  12.149   9.521
59142SOL     OW77451  10.904  11.286  10.790
59142SOL    HW177452  10.886  11.353  10.718
59142SOL    HW277453  10.901  11.332  10.879
59143SOL     OW77454   9.432  11.815   9.873
59143SOL    HW177455   9.387  11.727   9.890
59143SOL    HW277456   9.431  11.869   9.957
59144SOL     OW77457   9.337  12.768   9.427
59144SOL    HW177458   9.318  12.672   9.448
59144SOL    HW277459   9.304  12.826   9.502
59145SOL     OW77460  10.999  12.094   9.922
59145SOL    HW177461  11.094  12.065   9.930
59145SOL    HW277462  10.991  12.159   9.847
59146SOL     OW77463  10.951  12.280   9.742
59146SOL    HW177464  11.037  12.282   9.690
59146SOL    HW277465  10.965  12.327   9.830
59147SOL     OW77466   9.423  11.909  10.907
59147SOL    HW177467   9.511  11.896  10.952
59147SOL    HW277468   9.410  12.006  10.885
59148SOL     OW77469   9.923  12.537  10.036
59148SOL    HW177470   9.874  12.450  10.045
59148SOL    HW277471   9.900  12.580   9.949
59149SOL     OW77472  10.603  12.400  10.733
59149SOL    HW177473  10.640  12.327  10.675
59149SOL    HW277474  10.655  12.405  10.818
59150SOL     OW77475  10.119  11.176   9.812
59150SOL    HW177476  10.159  11.267   9.803
59150SOL    HW277477  10.019  11.184   9.818
59151SOL     OW77478   9.507  12.148  10.574
59151SOL    HW177479   9.596  12.103  10.560
59151SOL    HW277480   9.434  12.083  10.555
59152SOL     OW77481  10.835  12.171   9.500
59152SOL    HW177482  10.772  12.095   9.513
59152SOL    HW277483  10.883  12.189   9.586
59153SOL     OW77484   9.627  11.423  11.111
59153SOL    HW177485   9.698  11.494  11.117
59153SOL    HW277486   9.539  11.462  11.139
59154SOL     OW77487  10.776  12.589  10.263
59154SOL    HW177488  10.717  12.595  10.343
59154SOL    HW277489  10.761  12.501  10.217
59155SOL     OW77490   9.908  11.901   9.580
59155SOL    HW177491   9.932  11.970   9.512
59155SOL    HW277492   9.830  11.934   9.634
59156SOL     OW77493  10.591  11.517  10.254
59156SOL    HW177494  10.505  11.467  10.241
59156SOL    HW277495  10.653  11.463  10.310
59157SOL     OW77496  10.117  11.777  10.775
59157SOL    HW177497  10.070  11.774  10.864
59157SOL    HW277498  10.066  11.722  10.709
59158SOL     OW77499  10.704  11.641  10.984
59158SOL    HW177500  10.684  11.684  11.072
59158SOL    HW277501  10.782  11.579  10.993
59159SOL     OW77502  10.283  12.062  10.882
59159SOL    HW177503  10.329  11.978  10.853
59159SOL    HW277504  10.227  12.096  10.807
59160SOL     OW77505  10.301  11.582  10.552
59160SOL    HW177506  10.224  11.616  10.606
59160SOL    HW277507  10.267  11.531  10.473
59161SOL     OW77508  10.351  11.873   9.739
59161SOL    HW177509  10.377  11.869   9.835
59161SOL    HW277510  10.266  11.822   9.725
59162SOL     OW77511   9.386  11.983  10.099
59162SOL    HW177512   9.485  11.971  10.108
59162SOL    HW277513   9.362  12.078  10.120
59163SOL     OW77514  10.175  11.520   9.505
59163SOL    HW177515  10.234  11.583   9.456
59163SOL    HW277516  10.194  11.426   9.476
59164SOL     OW77517  11.029  11.757  11.141
59164SOL    HW177518  11.003  11.846  11.105
59164SOL    HW277519  11.027  11.689  11.068
59165SOL     OW77520  10.672  12.316   9.855
59165SOL    HW177521  10.755  12.287   9.807
59165SOL    HW277522  10.623  12.383   9.799
59166SOL     OW77523   9.860  11.368  10.195
59166SOL    HW177524   9.855  11.363  10.295
59166SOL    HW277525   9.862  11.464  10.166
59167SOL     OW77526  10.318  12.628   9.787
59167SOL    HW177527  10.272  12.700   9.735
59167SOL    HW277528  10.314  12.648   9.885
59168SOL     OW77529  11.105  12.238  10.183
59168SOL    HW177530  11.043  12.223  10.107
59168SOL    HW277531  11.053  12.249  10.268
59169SOL     OW77532  10.537  12.722  10.816
59169SOL    HW177533  10.543  12.645  10.880
59169SOL    HW277534  10.485  12.696  10.736
59170SOL     OW77535   9.631  12.115   9.552
59170SOL    HW177536   9.713  12.154   9.510
59170SOL    HW277537   9.604  12.033   9.503
59171SOL     OW77538  10.768  11.907  10.038
59171SOL    HW177539  10.763  11.842  10.113
59171SOL    HW277540  10.848  11.966  10.051
59172SOL     OW77541   9.771  12.438  11.037
59172SOL    HW177542   9.721  12.439  10.951
59172SOL    HW277543   9.708  12.420  11.113
59173SOL     OW77544  10.421  12.948   9.547
59173SOL    HW177545  10.361  12.886   9.597
59173SOL    HW277546  10.452  12.904   9.462
59174SOL     OW77547   9.512  11.457  10.808
59174SOL    HW177548   9.432  11.517  10.795
59174SOL    HW277549   9.502  11.408  10.894
59175SOL     OW77550  10.942  12.549   9.391
59175SOL    HW177551  10.910  12.643   9.381
59175SOL    HW277552  10.866  12.486   9.379
59176SOL     OW77553  10.710  11.279   9.736
59176SOL    HW177554  10.686  11.242   9.646
59176SOL    HW277555  10.809  11.295   9.740
59177SOL     OW77556   9.692  11.872   9.790
59177SOL    HW177557   9.737  11.782   9.787
59177SOL    HW277558   9.598  11.861   9.823
59178SOL     OW77559  10.857  11.394  11.039
59178SOL    HW177560  10.852  11.431  11.131
59178SOL    HW277561  10.785  11.325  11.027
59179SOL     OW77562   9.924  11.294   9.427
59179SOL    HW177563  10.022  11.272   9.434
59179SOL    HW277564   9.893  11.277   9.334
59180SOL     OW77565  10.091  11.436  11.059
59180SOL    HW177566  10.158  11.375  11.102
59180SOL    HW277567  10.018  11.455  11.124
59181SOL     OW77568  10.661  11.762  10.743
59181SOL    HW177569  10.689  11.719  10.828
59181SOL    HW277570  10.686  11.858  10.744
59182SOL     OW77571  10.113  12.574  10.234
59182SOL    HW177572  10.203  12.588  10.192
59182SOL    HW277573  10.042  12.576  10.163
59183SOL     OW77574  10.232  11.675  10.209
59183SOL    HW177575  10.207  11.666  10.113
59183SOL    HW277576  10.280  11.593  10.240
59184SOL     OW77577   9.849  11.236   9.822
59184SOL    HW177578   9.768  11.237   9.880
59184SOL    HW277579   9.852  11.319   9.767
59185SOL     OW77580  10.744  12.360   9.351
59185SOL    HW177581  10.776  12.284   9.408
59185SOL    HW277582  10.652  12.387   9.381
59186SOL     OW77583   9.607  11.207   9.481
59186SOL    HW177584   9.656  11.291   9.460
59186SOL    HW277585   9.669  11.142   9.526
59187SOL     OW77586  10.245  11.408   9.790
59187SOL    HW177587  10.197  11.449   9.712
59187SOL    HW277588  10.344  11.406   9.771
59188SOL     OW77589  10.386  11.855  10.774
59188SOL    HW177590  10.306  11.794  10.777
59188SOL    HW277591  10.467  11.802  10.750
59189SOL     OW77592  10.537  12.742  10.103
59189SOL    HW177593  10.558  12.816  10.038
59189SOL    HW277594  10.605  12.742  10.176
59190SOL     OW77595   9.769  12.324  10.051
59190SOL    HW177596   9.698  12.297  10.116
59190SOL    HW277597   9.743  12.296   9.958
59191SOL     OW77598  10.342  11.721   9.326
59191SOL    HW177599  10.301  11.803   9.287
59191SOL    HW277600  10.406  11.747   9.399
59192SOL     OW77601   9.388  11.728  10.696
59192SOL    HW177602   9.480  11.727  10.655
59192SOL    HW277603   9.382  11.802  10.763
59193SOL     OW77604   9.871  11.394  10.457
59193SOL    HW177605   9.909  11.310  10.494
59193SOL    HW277606   9.783  11.413  10.501
59194SOL     OW77607  10.176  11.626   9.952
59194SOL    HW177608  10.144  11.698   9.890
59194SOL    HW277609  10.200  11.545   9.899
59195SOL     OW77610  10.327  11.211  10.063
59195SOL    HW177611  10.255  11.216   9.994
59195SOL    HW277612  10.303  11.142  10.132
59196SOL     OW77613  10.739  12.345  10.177
59196SOL    HW177614  10.684  12.261  10.170
59196SOL    HW277615  10.765  12.374  10.085
59197SOL     OW77616  10.776  11.762  10.302
59197SOL    HW177617  10.746  11.667  10.309
59197SOL    HW277618  10.849  11.778  10.368
59198SOL     OW77619  11.167  12.005   9.687
59198SOL    HW177620  11.209  11.941   9.751
59198SOL    HW277621  11.129  11.954   9.609
59199SOL     OW77622   9.798  12.557   9.484
59199SOL    HW177623   9.711  12.542   9.531
59199SOL    HW277624   9.781  12.583   9.389
59200SOL     OW77625  10.974  12.452   9.967
59200SOL    HW177626  11.073  12.460   9.981
59200SOL    HW277627  10.929  12.536   9.998
59201SOL     OW77628  10.700  11.747   9.388
59201SOL    HW177629  10.646  11.726   9.469
59201SOL    HW277630  10.791  11.706   9.397
59202SOL     OW77631   9.837  11.428   9.638
59202SOL    HW177632   9.864  11.369   9.563
59202SOL    HW277633   9.837  11.523   9.607
59203SOL     OW77634  11.064  12.395  10.898
59203SOL    HW177635  11.155  12.356  10.885
59203SOL    HW277636  11.072  12.491  10.922
59204SOL     OW77637  10.374  12.519  10.650
59204SOL    HW177638  10.294  12.496  10.705
59204SOL    HW277639  10.457  12.493  10.699
59205SOL     OW77640  10.421  12.367  10.410
59205SOL    HW177641  10.381  12.411  10.491
59205SOL    HW277642  10.380  12.404  10.327
59206SOL     OW77643  10.948  12.271  10.389
59206SOL    HW177644  10.953  12.352  10.448
59206SOL    HW277645  10.862  12.273  10.338
59207SOL     OW77646  10.225  11.261  10.712
59207SOL    HW177647  10.250  11.241  10.617
59207SOL    HW277648  10.297  11.317  10.754
59208SOL     OW77649  10.290  12.288  11.029
59208SOL    HW177650  10.191  12.294  11.039
59208SOL    HW277651  10.313  12.208  10.973
59209SOL     OW77652  10.015  12.222   9.678
59209SOL    HW177653  10.001  12.229   9.777
59209SOL    HW277654  10.099  12.171   9.660
59210SOL     OW77655   9.720  11.985  10.561
59210SOL    HW177656   9.806  11.997  10.611
59210SOL    HW277657   9.678  11.898  10.588
59211SOL     OW77658  10.584  11.558  10.572
59211SOL    HW177659  10.605  11.632  10.636
59211SOL    HW277660  10.495  11.575  10.529
59212SOL     OW77661   9.677  12.272   9.811
59212SOL    HW177662   9.670  12.355   9.755
59212SOL    HW277663   9.681  12.192   9.751
59213SOL     OW77664   9.876  11.709  10.175
59213SOL    HW177665   9.888  11.775  10.101
59213SOL    HW277666   9.922  11.743  10.258
59214SOL     OW77667  10.562  12.520   9.698
59214SOL    HW177668  10.612  12.597   9.738
59214SOL    HW277669  10.467  12.522   9.730
59215SOL     OW77670  10.582  12.617  10.452
59215SOL    HW177671  10.629  12.630  10.539
59215SOL    HW277672  10.516  12.543  10.461
59216SOL     OW77673  10.892  11.811   9.782
59216SOL    HW177674  10.861  11.872   9.855
59216SOL    HW277675  10.942  11.863   9.713
59217SOL     OW77676   9.664  12.682  10.639
59217SOL    HW177677   9.643  12.638  10.552
59217SOL    HW277678   9.761  12.708  10.642
59218SOL     OW77679   9.712  11.923  10.908
59218SOL    HW177680   9.780  11.978  10.861
59218SOL    HW277681   9.752  11.835  10.935
59219SOL     OW77682  10.897  11.951  10.980
59219SOL    HW177683  10.805  11.989  10.975
59219SOL    HW277684  10.957  11.998  10.915
59220SOL     OW77685  10.323  11.277  11.080
59220SOL    HW177686  10.329  11.362  11.028
59220SOL    HW277687  10.355  11.201  11.023
59221SOL     OW77688   9.814  11.222  11.050
59221SOL    HW177689   9.772  11.165  10.980
59221SOL    HW277690   9.748  11.291  11.082
59222SOL     OW77691   9.883  12.042  10.339
59222SOL    HW177692   9.927  12.131  10.330
59222SOL    HW277693   9.820  12.042  10.416
59223SOL     OW77694  10.670  12.034  10.355
59223SOL    HW177695  10.595  12.034  10.289
59223SOL    HW277696  10.707  11.942  10.364
59224SOL     OW77697  10.519  11.697   9.585
59224SOL    HW177698  10.532  11.613   9.639
59224SOL    HW277699  10.490  11.771   9.645
59225SOL     OW77700   9.617  11.385  10.541
59225SOL    HW177701   9.594  11.422  10.631
59225SOL    HW277702   9.587  11.290  10.535
59226SOL     OW77703   9.347  12.482  10.592
59226SOL    HW177704   9.400  12.433  10.660
59226SOL    HW277705   9.369  12.580  10.597
59227SOL     OW77706  10.042  11.806  10.374
59227SOL    HW177707  10.101  11.780  10.298
59227SOL    HW277708  10.014  11.902  10.363
59228SOL     OW77709  11.038  12.107  11.164
59228SOL    HW177710  10.992  12.100  11.075
59228SOL    HW277711  10.976  12.151  11.230
59229SOL     OW77712   9.617  11.235   9.928
59229SOL    HW177713   9.606  11.329   9.961
59229SOL    HW277714   9.612  11.172  10.005
59230SOL     OW77715  10.932  11.539   9.684
59230SOL    HW177716  10.934  11.463   9.748
59230SOL    HW277717  10.884  11.616   9.724
59231SOL     OW77718  10.333  11.938  10.276
59231SOL    HW177719  10.348  11.959  10.372
59231SOL    HW277720  10.303  11.843  10.267
59232SOL     OW77721  11.169  12.690  10.915
59232SOL    HW177722  11.183  12.717  10.820
59232SOL    HW277723  11.252  12.712  10.968
59233SOL     OW77724   9.660  12.070  11.114
59233SOL    HW177725   9.736  12.114  11.162
59233SOL    HW277726   9.695  12.023  11.032
59234SOL     OW77727  10.850  11.446   9.435
59234SOL    HW177728  10.789  11.371   9.458
59234SOL    HW277729  10.872  11.498   9.518
59235SOL     OW77730  10.613  12.010   9.352
59235SOL    HW177731  10.647  11.917   9.367
59235SOL    HW277732  10.631  12.037   9.257
59236SOL     OW77733  10.378  12.505  10.159
59236SOL    HW177734  10.385  12.421  10.104
59236SOL    HW277735  10.440  12.574  10.123
59237SOL     OW77736   9.629  11.982  10.259
59237SOL    HW177737   9.722  12.018  10.264
59237SOL    HW277738   9.623  11.897  10.311
59238SOL     OW77739   9.649  11.681  10.316
59238SOL    HW177740   9.597  11.598  10.299
59238SOL    HW277741   9.726  11.686  10.252
59239SOL     OW77742  10.448  11.552  10.988
59239SOL    HW177743  10.403  11.615  11.052
59239SOL    HW277744  10.541  11.583  10.971
59240SOL     OW77745  10.470  11.379  10.787
59240SOL    HW177746  10.470  11.443  10.864
59240SOL    HW277747  10.498  11.427  10.704
59241SOL     OW77748   9.318  12.498   9.510
59241SOL    HW177749   9.225  12.519   9.479
59241SOL    HW277750   9.328  12.399   9.523
59242SOL     OW77751  10.312  11.968  10.548
59242SOL    HW177752  10.353  11.936  10.634
59242SOL    HW277753  10.216  11.941  10.545
59243SOL     OW77754   9.350  11.716  10.424
59243SOL    HW177755   9.435  11.683  10.383
59243SOL    HW277756   9.363  11.731  10.522
59244SOL     OW77757   9.499  11.692  11.032
59244SOL    HW177758   9.558  11.652  10.962
59244SOL    HW277759   9.441  11.763  10.991
59245SOL     OW77760  10.679  12.122  10.970
59245SOL    HW177761  10.718  12.211  10.990
59245SOL    HW277762  10.689  12.102  10.873
59246SOL     OW77763  10.125  11.744   9.635
59246SOL    HW177764  10.132  11.655   9.589
59246SOL    HW277765  10.031  11.778   9.627
59247SOL     OW77766  10.967  11.776  10.516
59247SOL    HW177767  10.929  11.707  10.578
59247SOL    HW277768  11.049  11.740  10.472
59248SOL     OW77769   9.562  12.736  11.054
59248SOL    HW177770   9.532  12.793  11.130
59248SOL    HW277771   9.555  12.639  11.080
59249SOL     OW77772   9.981  11.636  10.579
59249SOL    HW177773   9.947  11.547  10.549
59249SOL    HW277774  10.007  11.690  10.499
59250SOL     OW77775   9.783  11.672   9.501
59250SOL    HW177776   9.844  11.752   9.505
59250SOL    HW277777   9.688  11.703   9.508
59251SOL     OW77778   9.469  12.309  10.776
59251SOL    HW177779   9.491  12.248  10.852
59251SOL    HW277780   9.479  12.260  10.690
59252SOL     OW77781  10.657  12.231  10.544
59252SOL    HW177782  10.681  12.168  10.470
59252SOL    HW277783  10.567  12.271  10.526
59253SOL     OW77784  10.612  12.027   9.619
59253SOL    HW177785  10.526  11.996   9.661
59253SOL    HW277786  10.608  12.013   9.520
59254SOL     OW77787   9.393  12.430  10.332
59254SOL    HW177788   9.388  12.429  10.432
59254SOL    HW277789   9.310  12.389  10.294
59255SOL     OW77790  11.036  11.307   9.833
59255SOL    HW177791  11.109  11.290   9.766
59255SOL    HW277792  11.005  11.220   9.871
59256SOL     OW77793  10.590  12.099   9.982
59256SOL    HW177794  10.650  12.018   9.984
59256SOL    HW277795  10.630  12.168   9.922
59257SOL     OW77796  10.140  12.445  10.732
59257SOL    HW177797  10.135  12.478  10.827
59257SOL    HW277798  10.054  12.464  10.686
59258SOL     OW77799  11.151  11.347  10.273
59258SOL    HW177800  11.190  11.262  10.237
59258SOL    HW277801  11.053  11.349  10.254
59259SOL     OW77802   9.573  11.498  10.030
59259SOL    HW177803   9.494  11.549   9.996
59259SOL    HW277804   9.564  11.483  10.128
59260SOL     OW77805  10.132  12.174  10.682
59260SOL    HW177806  10.172  12.173  10.590
59260SOL    HW277807  10.142  12.266  10.722
59261SOL     OW77808  10.226  12.082   9.601
59261SOL    HW177809  10.289  12.120   9.533
59261SOL    HW277810  10.266  11.999   9.640
59262SOL     OW77811   9.682  12.460  10.800
59262SOL    HW177812   9.669  12.553  10.766
59262SOL    HW277813   9.598  12.408  10.787
59263SOL     OW77814  10.924  12.464  10.599
59263SOL    HW177815  10.984  12.467  10.679
59263SOL    HW277816  10.849  12.528  10.612
59264SOL     OW77817  10.349  12.270  10.006
59264SOL    HW177818  10.279  12.223  10.060
59264SOL    HW277819  10.408  12.202   9.963
59265SOL     OW77820  10.324  11.408  10.281
59265SOL    HW177821  10.316  11.372  10.188
59265SOL    HW277822  10.322  11.332  10.346
59266SOL     OW77823  11.019  11.557  10.691
59266SOL    HW177824  11.092  11.626  10.695
59266SOL    HW277825  11.047  11.482  10.632
59267SOL     OW77826   9.565  12.520   9.600
59267SOL    HW177827   9.469  12.521   9.573
59267SOL    HW277828   9.577  12.573   9.684
59268SOL     OW77829   9.415  12.185  11.036
59268SOL    HW177830   9.338  12.152  11.090
59268SOL    HW277831   9.500  12.155  11.078
59269SOL     OW77832   9.982  11.375  10.799
59269SOL    HW177833  10.072  11.359  10.759
59269SOL    HW277834   9.990  11.380  10.898
59270SOL     OW77835   9.385  11.517   9.343
59270SOL    HW177836   9.293  11.489   9.314
59270SOL    HW277837   9.416  11.594   9.287
59271SOL     OW77838  10.750  12.028  10.708
59271SOL    HW177839  10.693  12.080  10.645
59271SOL    HW277840  10.846  12.040  10.684
59272SOL     OW77841   9.382  11.338   9.628
59272SOL    HW177842   9.365  11.421   9.574
59272SOL    HW277843   9.472  11.301   9.606
59273SOL     OW77844  10.493  12.507   9.429
59273SOL    HW177845  10.394  12.496   9.431
59273SOL    HW277846  10.527  12.522   9.522
59274SOL     OW77847   9.923  12.014  10.741
59274SOL    HW177848   9.979  12.095  10.724
59274SOL    HW277849   9.982  11.934  10.744
59275SOL     OW77850  10.026  11.737  11.018
59275SOL    HW177851  10.045  11.802  11.092
59275SOL    HW277852  10.086  11.657  11.027
59276SOL     OW77853  10.760  12.392  10.943
59276SOL    HW177854  10.751  12.382  11.042
59276SOL    HW277855  10.856  12.385  10.917
59277SOL     OW77856  10.984  12.055  10.564
59277SOL    HW177857  10.957  11.966  10.527
59277SOL    HW277858  10.985  12.123  10.491
59278SOL     OW77859  10.535  11.497   9.759
59278SOL    HW177860  10.600  11.423   9.748
59278SOL    HW277861  10.555  11.547   9.843
59279SOL     OW77862   9.904  11.917   9.962
59279SOL    HW177863   9.954  12.002   9.943
59279SOL    HW277864   9.816  11.919   9.914
59280SOL     OW77865  11.087  11.514  10.952
59280SOL    HW177866  11.070  11.545  10.858
59280SOL    HW277867  11.003  11.477  10.990
59281SOL     OW77868  11.040  12.106  10.827
59281SOL    HW177869  11.078  12.197  10.842
59281SOL    HW277870  11.032  12.089  10.728
59282SOL     OW77871  10.169  12.546   9.326
59282SOL    HW177872  10.123  12.561   9.414
59282SOL    HW277873  10.213  12.631   9.296
59283SOL     OW77874  10.169  12.128  10.171
59283SOL    HW177875  10.223  12.059  10.219
59283SOL    HW277876  10.137  12.197  10.237
59284SOL     OW77877  10.393  12.156   9.397
59284SOL    HW177878  10.370  12.209   9.315
59284SOL    HW277879  10.474  12.100   9.378
59285SOL     OW77880   9.531  12.486  11.154
59285SOL    HW177881   9.466  12.413  11.133
59285SOL    HW277882   9.535  12.500  11.252
59286SOL     OW77883   9.389  12.412   9.963
59286SOL    HW177884   9.388  12.365  10.051
59286SOL    HW277885   9.471  12.384   9.912
59287SOL     OW77886   9.982  12.563  10.934
59287SOL    HW177887   9.904  12.513  10.972
59287SOL    HW277888   9.979  12.658  10.965
59288SOL     OW77889  11.134  11.364  10.537
59288SOL    HW177890  11.130  11.274  10.581
59288SOL    HW277891  11.137  11.353  10.438
59289SOL     OW77892   9.738  11.596   9.830
59289SOL    HW177893   9.768  11.524   9.768
59289SOL    HW277894   9.699  11.556   9.913
59290SOL     OW77895  11.015  12.659  10.414
59290SOL    HW177896  10.922  12.634  10.387
59290SOL    HW277897  11.041  12.609  10.496
59291SOL     OW77898   9.627  11.719  10.590
59291SOL    HW177899   9.665  11.660  10.662
59291SOL    HW277900   9.667  11.693  10.502
59292SOL     OW77901  10.734  11.386  10.422
59292SOL    HW177902  10.786  11.321  10.477
59292SOL    HW277903  10.685  11.449  10.483
59293SOL     OW77904  10.311  11.206  10.464
59293SOL    HW177905  10.248  11.134  10.433
59293SOL    HW277906  10.404  11.170  10.464
59294SOL     OW77907  10.080  12.502   9.611
59294SOL    HW177908  10.034  12.415   9.628
59294SOL    HW277909  10.171  12.499   9.652
59295SOL     OW77910   9.928  12.739  10.594
59295SOL    HW177911   9.923  12.821  10.651
59295SOL    HW277912  10.017  12.736  10.549
59296SOL     OW77913  10.662  11.224   9.478
59296SOL    HW177914  10.697  11.183   9.394
59296SOL    HW277915  10.572  11.186   9.498
59297SOL     OW77916  10.610  11.625  10.001
59297SOL    HW177917  10.551  11.705  10.005
59297SOL    HW277918  10.625  11.590  10.094
59298SOL     OW77919  10.903  11.393  10.192
59298SOL    HW177920  10.819  11.392  10.246
59298SOL    HW277921  10.905  11.476  10.136
59299SOL     OW77922   9.349  12.249   9.610
59299SOL    HW177923   9.448  12.238   9.601
59299SOL    HW277924   9.309  12.163   9.642
59300SOL     OW77925   9.540  11.800  11.285
59300SOL    HW177926   9.447  11.798  11.322
59300SOL    HW277927   9.541  11.761  11.193
59301SOL     OW77928   9.535  11.447  12.168
59301SOL    HW177929   9.570  11.430  12.260
59301SOL    HW277930   9.447  11.402  12.156
59302SOL     OW77931   9.329  11.540  11.819
59302SOL    HW177932   9.247  11.583  11.858
59302SOL    HW277933   9.301  11.467  11.756
59303SOL     OW77934   9.879  12.447  12.337
59303SOL    HW177935   9.786  12.440  12.300
59303SOL    HW277936   9.890  12.536  12.381
59304SOL     OW77937  10.865  12.683  11.875
59304SOL    HW177938  10.808  12.667  11.956
59304SOL    HW277939  10.806  12.693  11.795
59305SOL     OW77940  10.445  11.875  11.889
59305SOL    HW177941  10.502  11.953  11.864
59305SOL    HW277942  10.385  11.901  11.965
59306SOL     OW77943  11.065  11.779  11.403
59306SOL    HW177944  11.053  11.766  11.304
59306SOL    HW277945  11.035  11.698  11.452
59307SOL     OW77946  10.078  12.316  12.195
59307SOL    HW177947  10.000  12.333  12.255
59307SOL    HW277948  10.112  12.403  12.159
59308SOL     OW77949   9.995  12.184  11.837
59308SOL    HW177950  10.064  12.168  11.907
59308SOL    HW277951   9.922  12.241  11.875
59309SOL     OW77952   9.645  12.607  12.233
59309SOL    HW177953   9.567  12.576  12.180
59309SOL    HW277954   9.703  12.665  12.176
59310SOL     OW77955  10.770  12.677  12.511
59310SOL    HW177956  10.794  12.771  12.537
59310SOL    HW277957  10.754  12.623  12.593
59311SOL     OW77958   9.748  11.564  12.671
59311SOL    HW177959   9.830  11.508  12.680
59311SOL    HW277960   9.667  11.506  12.675
59312SOL     OW77961  10.913  11.619  11.909
59312SOL    HW177962  10.839  11.665  11.859
59312SOL    HW277963  10.964  11.687  11.962
59313SOL     OW77964   9.541  12.885  11.655
59313SOL    HW177965   9.575  12.962  11.709
59313SOL    HW277966   9.585  12.885  11.565
59314SOL     OW77967   9.540  12.606  11.710
59314SOL    HW177968   9.514  12.702  11.710
59314SOL    HW277969   9.469  12.552  11.755
59315SOL     OW77970   9.550  12.263  12.058
59315SOL    HW177971   9.564  12.179  12.110
59315SOL    HW277972   9.495  12.327  12.113
59316SOL     OW77973   9.916  12.136  11.295
59316SOL    HW177974   9.923  12.220  11.241
59316SOL    HW277975   9.962  12.149  11.383
59317SOL     OW77976  10.904  11.286  12.652
59317SOL    HW177977  10.886  11.353  12.580
59317SOL    HW277978  10.901  11.332  12.741
59318SOL     OW77979   9.432  11.815  11.735
59318SOL    HW177980   9.387  11.727  11.752
59318SOL    HW277981   9.431  11.869  11.819
59319SOL     OW77982   9.337  12.768  11.289
59319SOL    HW177983   9.318  12.672  11.310
59319SOL    HW277984   9.304  12.826  11.364
59320SOL     OW77985  10.999  12.094  11.784
59320SOL    HW177986  11.094  12.065  11.792
59320SOL    HW277987  10.991  12.159  11.709
59321SOL     OW77988  10.951  12.280  11.604
59321SOL    HW177989  11.037  12.282  11.552
59321SOL    HW277990  10.965  12.327  11.692
59322SOL     OW77991   9.923  12.537  11.898
59322SOL    HW177992   9.874  12.450  11.907
59322SOL    HW277993   9.900  12.580  11.811
59323SOL     OW77994  10.119  11.176  11.674
59323SOL    HW177995  10.159  11.267  11.665
59323SOL    HW277996  10.019  11.184  11.680
59324SOL     OW77997   9.507  12.148  12.436
59324SOL    HW177998   9.596  12.103  12.422
59324SOL    HW277999   9.434  12.083  12.417
59325SOL     OW78000  10.835  12.171  11.362
59325SOL    HW178001  10.772  12.095  11.375
59325SOL    HW278002  10.883  12.189  11.448
59326SOL     OW78003   9.627  11.423  12.973
59326SOL    HW178004   9.698  11.494  12.979
59326SOL    HW278005   9.539  11.462  13.001
59327SOL     OW78006  10.776  12.589  12.125
59327SOL    HW178007  10.717  12.595  12.205
59327SOL    HW278008  10.761  12.501  12.079
59328SOL     OW78009   9.908  11.901  11.442
59328SOL    HW178010   9.932  11.970  11.374
59328SOL    HW278011   9.830  11.934  11.496
59329SOL     OW78012  10.591  11.517  12.116
59329SOL    HW178013  10.505  11.467  12.103
59329SOL    HW278014  10.653  11.463  12.172
59330SOL     OW78015  10.117  11.777  12.637
59330SOL    HW178016  10.070  11.774  12.726
59330SOL    HW278017  10.066  11.722  12.571
59331SOL     OW78018  10.301  11.582  12.414
59331SOL    HW178019  10.224  11.616  12.468
59331SOL    HW278020  10.267  11.531  12.335
59332SOL     OW78021  10.351  11.873  11.601
59332SOL    HW178022  10.377  11.869  11.697
59332SOL    HW278023  10.266  11.822  11.587
59333SOL     OW78024   9.386  11.983  11.961
59333SOL    HW178025   9.485  11.971  11.970
59333SOL    HW278026   9.362  12.078  11.982
59334SOL     OW78027  10.175  11.520  11.367
59334SOL    HW178028  10.234  11.583  11.318
59334SOL    HW278029  10.194  11.426  11.338
59335SOL     OW78030  10.672  12.316  11.717
59335SOL    HW178031  10.755  12.287  11.669
59335SOL    HW278032  10.623  12.383  11.661
59336SOL     OW78033   9.860  11.368  12.057
59336SOL    HW178034   9.855  11.363  12.157
59336SOL    HW278035   9.862  11.464  12.028
59337SOL     OW78036  10.318  12.628  11.649
59337SOL    HW178037  10.272  12.700  11.597
59337SOL    HW278038  10.314  12.648  11.747
59338SOL     OW78039  11.105  12.238  12.045
59338SOL    HW178040  11.043  12.223  11.969
59338SOL    HW278041  11.053  12.249  12.130
59339SOL     OW78042   9.631  12.115  11.414
59339SOL    HW178043   9.713  12.154  11.372
59339SOL    HW278044   9.604  12.033  11.365
59340SOL     OW78045  10.768  11.907  11.900
59340SOL    HW178046  10.763  11.842  11.975
59340SOL    HW278047  10.848  11.966  11.913
59341SOL     OW78048  10.421  12.948  11.409
59341SOL    HW178049  10.361  12.886  11.459
59341SOL    HW278050  10.452  12.904  11.324
59342SOL     OW78051   9.512  11.457  12.670
59342SOL    HW178052   9.432  11.517  12.657
59342SOL    HW278053   9.502  11.408  12.756
59343SOL     OW78054  10.942  12.549  11.253
59343SOL    HW178055  10.910  12.643  11.243
59343SOL    HW278056  10.866  12.486  11.241
59344SOL     OW78057  10.710  11.279  11.598
59344SOL    HW178058  10.686  11.242  11.508
59344SOL    HW278059  10.809  11.295  11.602
59345SOL     OW78060   9.692  11.872  11.652
59345SOL    HW178061   9.737  11.782  11.649
59345SOL    HW278062   9.598  11.861  11.685
59346SOL     OW78063   9.924  11.294  11.289
59346SOL    HW178064  10.022  11.272  11.296
59346SOL    HW278065   9.893  11.277  11.196
59347SOL     OW78066  10.113  12.574  12.096
59347SOL    HW178067  10.203  12.588  12.054
59347SOL    HW278068  10.042  12.576  12.025
59348SOL     OW78069  10.232  11.675  12.071
59348SOL    HW178070  10.207  11.666  11.975
59348SOL    HW278071  10.280  11.593  12.102
59349SOL     OW78072   9.849  11.236  11.684
59349SOL    HW178073   9.768  11.237  11.742
59349SOL    HW278074   9.852  11.319  11.629
59350SOL     OW78075  10.744  12.360  11.213
59350SOL    HW178076  10.776  12.284  11.270
59350SOL    HW278077  10.652  12.387  11.243
59351SOL     OW78078   9.607  11.207  11.343
59351SOL    HW178079   9.656  11.291  11.322
59351SOL    HW278080   9.669  11.142  11.388
59352SOL     OW78081  10.245  11.408  11.652
59352SOL    HW178082  10.197  11.449  11.574
59352SOL    HW278083  10.344  11.406  11.633
59353SOL     OW78084  10.537  12.742  11.965
59353SOL    HW178085  10.558  12.816  11.900
59353SOL    HW278086  10.605  12.742  12.038
59354SOL     OW78087   9.769  12.324  11.913
59354SOL    HW178088   9.698  12.297  11.978
59354SOL    HW278089   9.743  12.296  11.820
59355SOL     OW78090  10.342  11.721  11.188
59355SOL    HW178091  10.301  11.803  11.149
59355SOL    HW278092  10.406  11.747  11.261
59356SOL     OW78093   9.388  11.728  12.558
59356SOL    HW178094   9.480  11.727  12.517
59356SOL    HW278095   9.382  11.802  12.625
59357SOL     OW78096   9.871  11.394  12.319
59357SOL    HW178097   9.909  11.310  12.356
59357SOL    HW278098   9.783  11.413  12.363
59358SOL     OW78099  10.176  11.626  11.814
59358SOL    HW178100  10.144  11.698  11.752
59358SOL    HW278101  10.200  11.545  11.761
59359SOL     OW78102  10.327  11.211  11.925
59359SOL    HW178103  10.255  11.216  11.856
59359SOL    HW278104  10.303  11.142  11.994
59360SOL     OW78105  10.739  12.345  12.039
59360SOL    HW178106  10.684  12.261  12.032
59360SOL    HW278107  10.765  12.374  11.947
59361SOL     OW78108  10.776  11.762  12.164
59361SOL    HW178109  10.746  11.667  12.171
59361SOL    HW278110  10.849  11.778  12.230
59362SOL     OW78111  11.167  12.005  11.549
59362SOL    HW178112  11.209  11.941  11.613
59362SOL    HW278113  11.129  11.954  11.471
59363SOL     OW78114   9.798  12.557  11.346
59363SOL    HW178115   9.711  12.542  11.393
59363SOL    HW278116   9.781  12.583  11.251
59364SOL     OW78117  10.974  12.452  11.829
59364SOL    HW178118  11.073  12.460  11.843
59364SOL    HW278119  10.929  12.536  11.860
59365SOL     OW78120  10.700  11.747  11.250
59365SOL    HW178121  10.646  11.726  11.331
59365SOL    HW278122  10.791  11.706  11.259
59366SOL     OW78123   9.837  11.428  11.500
59366SOL    HW178124   9.864  11.369  11.425
59366SOL    HW278125   9.837  11.523  11.469
59367SOL     OW78126  10.374  12.519  12.512
59367SOL    HW178127  10.294  12.496  12.567
59367SOL    HW278128  10.457  12.493  12.561
59368SOL     OW78129  10.421  12.367  12.272
59368SOL    HW178130  10.381  12.411  12.353
59368SOL    HW278131  10.380  12.404  12.189
59369SOL     OW78132  10.948  12.271  12.251
59369SOL    HW178133  10.953  12.352  12.310
59369SOL    HW278134  10.862  12.273  12.200
59370SOL     OW78135  10.225  11.261  12.574
59370SOL    HW178136  10.250  11.241  12.479
59370SOL    HW278137  10.297  11.317  12.616
59371SOL     OW78138  10.015  12.222  11.540
59371SOL    HW178139  10.001  12.229  11.639
59371SOL    HW278140  10.099  12.171  11.522
59372SOL     OW78141   9.720  11.985  12.423
59372SOL    HW178142   9.806  11.997  12.473
59372SOL    HW278143   9.678  11.898  12.450
59373SOL     OW78144  10.584  11.558  12.434
59373SOL    HW178145  10.605  11.632  12.498
59373SOL    HW278146  10.495  11.575  12.391
59374SOL     OW78147   9.677  12.272  11.673
59374SOL    HW178148   9.670  12.355  11.617
59374SOL    HW278149   9.681  12.192  11.613
59375SOL     OW78150   9.876  11.709  12.037
59375SOL    HW178151   9.888  11.775  11.963
59375SOL    HW278152   9.922  11.743  12.120
59376SOL     OW78153  10.562  12.520  11.560
59376SOL    HW178154  10.612  12.597  11.600
59376SOL    HW278155  10.467  12.522  11.592
59377SOL     OW78156  10.582  12.617  12.314
59377SOL    HW178157  10.629  12.630  12.401
59377SOL    HW278158  10.516  12.543  12.323
59378SOL     OW78159  10.892  11.811  11.644
59378SOL    HW178160  10.861  11.872  11.717
59378SOL    HW278161  10.942  11.863  11.575
59379SOL     OW78162   9.664  12.682  12.501
59379SOL    HW178163   9.643  12.638  12.414
59379SOL    HW278164   9.761  12.708  12.504
59380SOL     OW78165   9.712  11.923  12.770
59380SOL    HW178166   9.780  11.978  12.723
59380SOL    HW278167   9.752  11.835  12.797
59381SOL     OW78168  10.897  11.951  12.842
59381SOL    HW178169  10.805  11.989  12.837
59381SOL    HW278170  10.957  11.998  12.777
59382SOL     OW78171   9.883  12.042  12.201
59382SOL    HW178172   9.927  12.131  12.192
59382SOL    HW278173   9.820  12.042  12.278
59383SOL     OW78174  10.670  12.034  12.217
59383SOL    HW178175  10.595  12.034  12.151
59383SOL    HW278176  10.707  11.942  12.226
59384SOL     OW78177  10.519  11.697  11.447
59384SOL    HW178178  10.532  11.613  11.501
59384SOL    HW278179  10.490  11.771  11.507
59385SOL     OW78180   9.617  11.385  12.403
59385SOL    HW178181   9.594  11.422  12.493
59385SOL    HW278182   9.587  11.290  12.397
59386SOL     OW78183   9.347  12.482  12.454
59386SOL    HW178184   9.400  12.433  12.522
59386SOL    HW278185   9.369  12.580  12.459
59387SOL     OW78186  10.042  11.806  12.236
59387SOL    HW178187  10.101  11.780  12.160
59387SOL    HW278188  10.014  11.902  12.225
59388SOL     OW78189   9.617  11.235  11.790
59388SOL    HW178190   9.606  11.329  11.823
59388SOL    HW278191   9.612  11.172  11.867
59389SOL     OW78192  10.932  11.539  11.546
59389SOL    HW178193  10.934  11.463  11.610
59389SOL    HW278194  10.884  11.616  11.586
59390SOL     OW78195  10.333  11.938  12.138
59390SOL    HW178196  10.348  11.959  12.234
59390SOL    HW278197  10.303  11.843  12.129
59391SOL     OW78198  10.850  11.446  11.297
59391SOL    HW178199  10.789  11.371  11.320
59391SOL    HW278200  10.872  11.498  11.380
59392SOL     OW78201  10.613  12.010  11.214
59392SOL    HW178202  10.647  11.917  11.229
59392SOL    HW278203  10.631  12.037  11.119
59393SOL     OW78204  10.378  12.505  12.021
59393SOL    HW178205  10.385  12.421  11.966
59393SOL    HW278206  10.440  12.574  11.985
59394SOL     OW78207   9.629  11.982  12.121
59394SOL    HW178208   9.722  12.018  12.126
59394SOL    HW278209   9.623  11.897  12.173
59395SOL     OW78210   9.649  11.681  12.178
59395SOL    HW178211   9.597  11.598  12.161
59395SOL    HW278212   9.726  11.686  12.114
59396SOL     OW78213  10.448  11.552  12.850
59396SOL    HW178214  10.403  11.615  12.914
59396SOL    HW278215  10.541  11.583  12.833
59397SOL     OW78216  10.470  11.379  12.649
59397SOL    HW178217  10.470  11.443  12.726
59397SOL    HW278218  10.498  11.427  12.566
59398SOL     OW78219   9.318  12.498  11.372
59398SOL    HW178220   9.225  12.519  11.341
59398SOL    HW278221   9.328  12.399  11.385
59399SOL     OW78222  10.312  11.968  12.410
59399SOL    HW178223  10.353  11.936  12.496
59399SOL    HW278224  10.216  11.941  12.407
59400SOL     OW78225   9.350  11.716  12.286
59400SOL    HW178226   9.435  11.683  12.245
59400SOL    HW278227   9.363  11.731  12.384
59401SOL     OW78228  10.125  11.744  11.497
59401SOL    HW178229  10.132  11.655  11.451
59401SOL    HW278230  10.031  11.778  11.489
59402SOL     OW78231  10.967  11.776  12.378
59402SOL    HW178232  10.929  11.707  12.440
59402SOL    HW278233  11.049  11.740  12.334
59403SOL     OW78234   9.981  11.636  12.441
59403SOL    HW178235   9.947  11.547  12.411
59403SOL    HW278236  10.007  11.690  12.361
59404SOL     OW78237   9.783  11.672  11.363
59404SOL    HW178238   9.844  11.752  11.367
59404SOL    HW278239   9.688  11.703  11.370
59405SOL     OW78240   9.469  12.309  12.638
59405SOL    HW178241   9.491  12.248  12.714
59405SOL    HW278242   9.479  12.260  12.552
59406SOL     OW78243  10.657  12.231  12.406
59406SOL    HW178244  10.681  12.168  12.332
59406SOL    HW278245  10.567  12.271  12.388
59407SOL     OW78246  10.612  12.027  11.481
59407SOL    HW178247  10.526  11.996  11.523
59407SOL    HW278248  10.608  12.013  11.382
59408SOL     OW78249   9.393  12.430  12.194
59408SOL    HW178250   9.388  12.429  12.294
59408SOL    HW278251   9.310  12.389  12.156
59409SOL     OW78252  11.036  11.307  11.695
59409SOL    HW178253  11.109  11.290  11.628
59409SOL    HW278254  11.005  11.220  11.733
59410SOL     OW78255  10.590  12.099  11.844
59410SOL    HW178256  10.650  12.018  11.846
59410SOL    HW278257  10.630  12.168  11.784
59411SOL     OW78258  11.151  11.347  12.135
59411SOL    HW178259  11.190  11.262  12.099
59411SOL    HW278260  11.053  11.349  12.116
59412SOL     OW78261   9.573  11.498  11.892
59412SOL    HW178262   9.494  11.549  11.858
59412SOL    HW278263   9.564  11.483  11.990
59413SOL     OW78264  10.132  12.174  12.544
59413SOL    HW178265  10.172  12.173  12.452
59413SOL    HW278266  10.142  12.266  12.584
59414SOL     OW78267  10.226  12.082  11.463
59414SOL    HW178268  10.289  12.120  11.395
59414SOL    HW278269  10.266  11.999  11.502
59415SOL     OW78270   9.682  12.460  12.662
59415SOL    HW178271   9.669  12.553  12.628
59415SOL    HW278272   9.598  12.408  12.649
59416SOL     OW78273  10.924  12.464  12.461
59416SOL    HW178274  10.984  12.467  12.541
59416SOL    HW278275  10.849  12.528  12.474
59417SOL     OW78276  10.349  12.270  11.868
59417SOL    HW178277  10.279  12.223  11.922
59417SOL    HW278278  10.408  12.202  11.825
59418SOL     OW78279  10.324  11.408  12.143
59418SOL    HW178280  10.316  11.372  12.050
59418SOL    HW278281  10.322  11.332  12.208
59419SOL     OW78282  11.019  11.557  12.553
59419SOL    HW178283  11.092  11.626  12.557
59419SOL    HW278284  11.047  11.482  12.494
59420SOL     OW78285   9.565  12.520  11.462
59420SOL    HW178286   9.469  12.521  11.435
59420SOL    HW278287   9.577  12.573  11.546
59421SOL     OW78288   9.385  11.517  11.205
59421SOL    HW178289   9.293  11.489  11.176
59421SOL    HW278290   9.416  11.594  11.149
59422SOL     OW78291  10.750  12.028  12.570
59422SOL    HW178292  10.693  12.080  12.507
59422SOL    HW278293  10.846  12.040  12.546
59423SOL     OW78294   9.382  11.338  11.490
59423SOL    HW178295   9.365  11.421  11.436
59423SOL    HW278296   9.472  11.301  11.468
59424SOL     OW78297  10.493  12.507  11.291
59424SOL    HW178298  10.394  12.496  11.293
59424SOL    HW278299  10.527  12.522  11.384
59425SOL     OW78300   9.923  12.014  12.603
59425SOL    HW178301   9.979  12.095  12.586
59425SOL    HW278302   9.982  11.934  12.606
59426SOL     OW78303  10.984  12.055  12.426
59426SOL    HW178304  10.957  11.966  12.389
59426SOL    HW278305  10.985  12.123  12.353
59427SOL     OW78306  10.535  11.497  11.621
59427SOL    HW178307  10.600  11.423  11.610
59427SOL    HW278308  10.555  11.547  11.705
59428SOL     OW78309   9.904  11.917  11.824
59428SOL    HW178310   9.954  12.002  11.805
59428SOL    HW278311   9.816  11.919  11.776
59429SOL     OW78312  11.087  11.514  12.814
59429SOL    HW178313  11.070  11.545  12.720
59429SOL    HW278314  11.003  11.477  12.852
59430SOL     OW78315  11.040  12.106  12.689
59430SOL    HW178316  11.078  12.197  12.704
59430SOL    HW278317  11.032  12.089  12.590
59431SOL     OW78318  10.169  12.546  11.188
59431SOL    HW178319  10.123  12.561  11.276
59431SOL    HW278320  10.213  12.631  11.158
59432SOL     OW78321  10.169  12.128  12.033
59432SOL    HW178322  10.223  12.059  12.081
59432SOL    HW278323  10.137  12.197  12.099
59433SOL     OW78324  10.393  12.156  11.259
59433SOL    HW178325  10.370  12.209  11.177
59433SOL    HW278326  10.474  12.100  11.240
59434SOL     OW78327   9.389  12.412  11.825
59434SOL    HW178328   9.388  12.365  11.913
59434SOL    HW278329   9.471  12.384  11.774
59435SOL     OW78330  11.134  11.364  12.399
59435SOL    HW178331  11.130  11.274  12.443
59435SOL    HW278332  11.137  11.353  12.300
59436SOL     OW78333   9.738  11.596  11.692
59436SOL    HW178334   9.768  11.524  11.630
59436SOL    HW278335   9.699  11.556  11.775
59437SOL     OW78336  11.015  12.659  12.276
59437SOL    HW178337  10.922  12.634  12.249
59437SOL    HW278338  11.041  12.609  12.358
59438SOL     OW78339   9.627  11.719  12.452
59438SOL    HW178340   9.665  11.660  12.524
59438SOL    HW278341   9.667  11.693  12.364
59439SOL     OW78342  10.734  11.386  12.284
59439SOL    HW178343  10.786  11.321  12.339
59439SOL    HW278344  10.685  11.449  12.345
59440SOL     OW78345  10.311  11.206  12.326
59440SOL    HW178346  10.248  11.134  12.295
59440SOL    HW278347  10.404  11.170  12.326
59441SOL     OW78348  10.080  12.502  11.473
59441SOL    HW178349  10.034  12.415  11.490
59441SOL    HW278350  10.171  12.499  11.514
59442SOL     OW78351   9.928  12.739  12.456
59442SOL    HW178352   9.923  12.821  12.513
59442SOL    HW278353  10.017  12.736  12.411
59443SOL     OW78354  10.662  11.224  11.340
59443SOL    HW178355  10.697  11.183  11.256
59443SOL    HW278356  10.572  11.186  11.360
59444SOL     OW78357  10.610  11.625  11.863
59444SOL    HW178358  10.551  11.705  11.867
59444SOL    HW278359  10.625  11.590  11.956
59445SOL     OW78360  10.903  11.393  12.054
59445SOL    HW178361  10.819  11.392  12.108
59445SOL    HW278362  10.905  11.476  11.998
59446SOL     OW78363   9.349  12.249  11.472
59446SOL    HW178364   9.448  12.238  11.463
59446SOL    HW278365   9.309  12.163  11.504
59447SOL     OW78366  11.402   0.628   0.113
59447SOL    HW178367  11.309   0.626   0.150
59447SOL    HW278368  11.403   0.589   0.021
59448SOL     OW78369  11.397   0.275   0.996
59448SOL    HW178370  11.432   0.258   1.088
59448SOL    HW278371  11.309   0.230   0.984
59449SOL     OW78372  11.191   0.368   0.647
59449SOL    HW178373  11.109   0.411   0.686
59449SOL    HW278374  11.163   0.295   0.584
59450SOL     OW78375  11.741   1.275   1.165
59450SOL    HW178376  11.648   1.268   1.128
59450SOL    HW278377  11.752   1.364   1.209
59451SOL     OW78378  12.727   1.511   0.703
59451SOL    HW178379  12.670   1.495   0.784
59451SOL    HW278380  12.668   1.521   0.623
59452SOL     OW78381  12.307   0.703   0.717
59452SOL    HW178382  12.364   0.781   0.692
59452SOL    HW278383  12.247   0.729   0.793
59453SOL     OW78384  11.940   1.144   1.023
59453SOL    HW178385  11.862   1.161   1.083
59453SOL    HW278386  11.974   1.231   0.987
59454SOL     OW78387  12.022   0.798   1.823
59454SOL    HW178388  12.018   0.874   1.888
59454SOL    HW278389  12.044   0.834   1.732
59455SOL     OW78390  11.857   1.012   0.665
59455SOL    HW178391  11.926   0.996   0.735
59455SOL    HW278392  11.784   1.069   0.703
59456SOL     OW78393  11.858   1.161   1.803
59456SOL    HW178394  11.918   1.240   1.817
59456SOL    HW278395  11.772   1.192   1.762
59457SOL     OW78396  11.507   1.435   1.061
59457SOL    HW178397  11.429   1.404   1.008
59457SOL    HW278398  11.565   1.493   1.004
59458SOL     OW78399  11.610   0.392   1.499
59458SOL    HW178400  11.692   0.336   1.508
59458SOL    HW278401  11.529   0.334   1.503
59459SOL     OW78402  11.403   1.713   0.483
59459SOL    HW178403  11.437   1.790   0.537
59459SOL    HW278404  11.447   1.713   0.393
59460SOL     OW78405  12.299   1.341   1.690
59460SOL    HW178406  12.346   1.341   1.778
59460SOL    HW278407  12.251   1.254   1.679
59461SOL     OW78408  11.402   1.434   0.538
59461SOL    HW178409  11.376   1.530   0.538
59461SOL    HW278410  11.331   1.380   0.583
59462SOL     OW78411  11.412   1.091   0.886
59462SOL    HW178412  11.426   1.007   0.938
59462SOL    HW278413  11.357   1.155   0.941
59463SOL     OW78414  11.792   1.786   1.439
59463SOL    HW178415  11.700   1.769   1.474
59463SOL    HW278416  11.820   1.878   1.465
59464SOL     OW78417  11.778   0.964   0.123
59464SOL    HW178418  11.785   1.048   0.069
59464SOL    HW278419  11.824   0.977   0.211
59465SOL     OW78420  12.766   0.114   1.480
59465SOL    HW178421  12.748   0.181   1.408
59465SOL    HW278422  12.763   0.160   1.569
59466SOL     OW78423  11.294   0.643   0.563
59466SOL    HW178424  11.249   0.555   0.580
59466SOL    HW278425  11.293   0.697   0.647
59467SOL     OW78426  11.199   1.596   0.117
59467SOL    HW178427  11.180   1.500   0.138
59467SOL    HW278428  11.166   1.654   0.192
59468SOL     OW78429  12.861   0.922   0.612
59468SOL    HW178430  12.956   0.893   0.620
59468SOL    HW278431  12.853   0.987   0.537
59469SOL     OW78432  11.285   0.737   1.597
59469SOL    HW178433  11.373   0.724   1.642
59469SOL    HW278434  11.272   0.834   1.575
59470SOL     OW78435  11.785   1.365   0.726
59470SOL    HW178436  11.736   1.278   0.735
59470SOL    HW278437  11.762   1.408   0.639
59471SOL     OW78438  12.465   1.228   1.423
59471SOL    HW178439  12.502   1.155   1.365
59471SOL    HW278440  12.517   1.233   1.508
59472SOL     OW78441  11.981   0.004   0.502
59472SOL    HW178442  12.021   0.095   0.493
59472SOL    HW278443  11.881   0.012   0.508
59473SOL     OW78444  11.369   0.976   1.264
59473SOL    HW178445  11.458   0.931   1.250
59473SOL    HW278446  11.296   0.911   1.245
59474SOL     OW78447  12.359   1.792   1.616
59474SOL    HW178448  12.383   1.852   1.540
59474SOL    HW278449  12.366   1.697   1.586
59475SOL     OW78450  11.489   0.251   1.801
59475SOL    HW178451  11.560   0.322   1.807
59475SOL    HW278452  11.401   0.290   1.829
59476SOL     OW78453  12.638   1.417   0.953
59476SOL    HW178454  12.579   1.423   1.033
59476SOL    HW278455  12.623   1.329   0.907
59477SOL     OW78456  11.770   0.729   0.270
59477SOL    HW178457  11.794   0.798   0.202
59477SOL    HW278458  11.692   0.762   0.324
59478SOL     OW78459  12.453   0.345   0.944
59478SOL    HW178460  12.367   0.295   0.931
59478SOL    HW278461  12.515   0.291   1.000
59479SOL     OW78462  11.979   0.605   1.465
59479SOL    HW178463  11.932   0.602   1.554
59479SOL    HW278464  11.928   0.550   1.399
59480SOL     OW78465  12.566   0.469   1.674
59480SOL    HW178466  12.546   0.512   1.762
59480SOL    HW278467  12.644   0.407   1.683
59481SOL     OW78468  12.145   0.890   1.572
59481SOL    HW178469  12.191   0.806   1.543
59481SOL    HW278470  12.089   0.924   1.497
59482SOL     OW78471  12.163   0.410   1.242
59482SOL    HW178472  12.086   0.444   1.296
59482SOL    HW278473  12.129   0.359   1.163
59483SOL     OW78474  12.213   0.701   0.429
59483SOL    HW178475  12.239   0.697   0.525
59483SOL    HW278476  12.128   0.650   0.415
59484SOL     OW78477  11.248   0.811   0.789
59484SOL    HW178478  11.347   0.799   0.798
59484SOL    HW278479  11.224   0.906   0.810
59485SOL     OW78480  11.302   1.821   1.571
59485SOL    HW178481  11.292   1.806   1.670
59485SOL    HW278482  11.216   1.857   1.535
59486SOL     OW78483  12.037   0.348   0.195
59486SOL    HW178484  12.096   0.411   0.146
59486SOL    HW278485  12.056   0.254   0.166
59487SOL     OW78486  12.534   1.144   0.545
59487SOL    HW178487  12.617   1.115   0.497
59487SOL    HW278488  12.485   1.211   0.489
59488SOL     OW78489  11.722   0.196   0.885
59488SOL    HW178490  11.717   0.191   0.985
59488SOL    HW278491  11.724   0.292   0.856
59489SOL     OW78492  12.180   1.456   0.477
59489SOL    HW178493  12.134   1.528   0.425
59489SOL    HW278494  12.176   1.476   0.575
59490SOL     OW78495  11.523   1.801   0.853
59490SOL    HW178496  11.573   1.715   0.859
59490SOL    HW278497  11.588   1.878   0.850
59491SOL     OW78498  12.399   1.550   1.506
59491SOL    HW178499  12.405   1.473   1.570
59491SOL    HW278500  12.347   1.524   1.426
59492SOL     OW78501  11.493   0.943   0.242
59492SOL    HW178502  11.575   0.982   0.200
59492SOL    HW278503  11.466   0.861   0.193
59493SOL     OW78504  11.633   1.266   1.727
59493SOL    HW178505  11.583   1.267   1.641
59493SOL    HW278506  11.570   1.248   1.803
59494SOL     OW78507  12.283   1.776   0.237
59494SOL    HW178508  12.223   1.714   0.287
59494SOL    HW278509  12.314   1.732   0.152
59495SOL     OW78510  11.374   0.285   1.498
59495SOL    HW178511  11.294   0.345   1.485
59495SOL    HW278512  11.364   0.236   1.584
59496SOL     OW78513  11.636   1.743   0.323
59496SOL    HW178514  11.669   1.782   0.409
59496SOL    HW278515  11.712   1.736   0.258
59497SOL     OW78516  12.572   0.107   0.426
59497SOL    HW178517  12.548   0.070   0.336
59497SOL    HW278518  12.671   0.123   0.430
59498SOL     OW78519  11.421   1.785   1.241
59498SOL    HW178520  11.478   1.720   1.291
59498SOL    HW278521  11.405   1.752   1.148
59499SOL     OW78522  12.112   1.698   0.904
59499SOL    HW178523  12.192   1.641   0.925
59499SOL    HW278524  12.063   1.658   0.827
59500SOL     OW78525  11.554   0.700   0.480
59500SOL    HW178526  11.599   0.610   0.477
59500SOL    HW278527  11.460   0.689   0.513
59501SOL     OW78528  11.786   0.122   0.117
59501SOL    HW178529  11.884   0.100   0.124
59501SOL    HW278530  11.755   0.105   0.024
59502SOL     OW78531  11.953   0.264   1.749
59502SOL    HW178532  12.020   0.203   1.792
59502SOL    HW278533  11.880   0.283   1.814
59503SOL     OW78534  12.060   1.514   1.195
59503SOL    HW178535  12.037   1.489   1.101
59503SOL    HW278536  12.121   1.445   1.234
59504SOL     OW78537  12.523   0.590   1.433
59504SOL    HW178538  12.551   0.547   1.518
59504SOL    HW278539  12.548   0.686   1.434
59505SOL     OW78540  11.975   1.402   0.924
59505SOL    HW178541  12.065   1.416   0.882
59505SOL    HW278542  11.904   1.404   0.853
59506SOL     OW78543  12.094   0.503   0.899
59506SOL    HW178544  12.069   0.494   0.803
59506SOL    HW278545  12.142   0.421   0.930
59507SOL     OW78546  11.711   0.064   0.512
59507SOL    HW178547  11.630   0.065   0.570
59507SOL    HW278548  11.714   0.147   0.457
59508SOL     OW78549  12.606   1.188   0.041
59508SOL    HW178550  12.638   1.112   0.098
59508SOL    HW278551  12.514   1.215   0.071
59509SOL     OW78552  11.469   0.035   0.171
59509SOL    HW178553  11.518   0.119   0.150
59509SOL    HW278554  11.531  -0.030   0.216
59510SOL     OW78555  12.107   0.236   0.480
59510SOL    HW178556  12.059   0.277   0.402
59510SOL    HW278557  12.206   0.234   0.461
59511SOL     OW78558  12.248   0.683   1.464
59511SOL    HW178559  12.168   0.622   1.467
59511SOL    HW278560  12.329   0.630   1.440
59512SOL     OW78561  12.399   1.570   0.793
59512SOL    HW178562  12.420   1.644   0.728
59512SOL    HW278563  12.467   1.570   0.866
59513SOL     OW78564  11.631   1.152   0.741
59513SOL    HW178565  11.560   1.125   0.806
59513SOL    HW278566  11.605   1.124   0.648
59514SOL     OW78567  12.443   1.797   0.591
59514SOL    HW178568  12.487   1.861   0.527
59514SOL    HW278569  12.393   1.849   0.661
59515SOL     OW78570  12.204   0.549   0.016
59515SOL    HW178571  12.163   0.631  -0.023
59515SOL    HW278572  12.268   0.575   0.089
59516SOL     OW78573  11.250   0.556   1.386
59516SOL    HW178574  11.342   0.555   1.345
59516SOL    HW278575  11.244   0.630   1.453
59517SOL     OW78576  11.733   0.222   1.147
59517SOL    HW178577  11.771   0.138   1.184
59517SOL    HW278578  11.645   0.241   1.191
59518SOL     OW78579  12.038   0.454   0.642
59518SOL    HW178580  12.006   0.526   0.580
59518SOL    HW278581  12.062   0.373   0.589
59519SOL     OW78582  12.189   0.039   0.753
59519SOL    HW178583  12.117   0.044   0.684
59519SOL    HW278584  12.165  -0.030   0.822
59520SOL     OW78585  12.601   1.173   0.867
59520SOL    HW178586  12.546   1.089   0.860
59520SOL    HW278587  12.627   1.202   0.775
59521SOL     OW78588  11.660   1.385   0.174
59521SOL    HW178589  11.573   1.370   0.221
59521SOL    HW278590  11.643   1.411   0.079
59522SOL     OW78591  12.562   0.575   0.078
59522SOL    HW178592  12.508   0.554   0.159
59522SOL    HW278593  12.653   0.534   0.087
59523SOL     OW78594  11.699   0.256   0.328
59523SOL    HW178595  11.726   0.197   0.253
59523SOL    HW278596  11.699   0.351   0.297
59524SOL     OW78597  12.236   1.347   1.340
59524SOL    HW178598  12.156   1.324   1.395
59524SOL    HW278599  12.319   1.321   1.389
59525SOL     OW78600  12.764   1.629   1.625
59525SOL    HW178601  12.791   1.663   1.535
59525SOL    HW278602  12.843   1.591   1.671
59526SOL     OW78603  12.283   1.195   1.100
59526SOL    HW178604  12.243   1.239   1.181
59526SOL    HW278605  12.242   1.232   1.017
59527SOL     OW78606  12.087   0.089   1.402
59527SOL    HW178607  12.112   0.069   1.307
59527SOL    HW278608  12.159   0.145   1.444
59528SOL     OW78609  12.152   1.116   1.719
59528SOL    HW178610  12.053   1.122   1.729
59528SOL    HW278611  12.175   1.036   1.663
59529SOL     OW78612  11.877   1.050   0.368
59529SOL    HW178613  11.863   1.057   0.467
59529SOL    HW278614  11.961   0.999   0.350
59530SOL     OW78615  11.582   0.813   1.251
59530SOL    HW178616  11.668   0.825   1.301
59530SOL    HW278617  11.540   0.726   1.278
59531SOL     OW78618  12.446   0.386   1.262
59531SOL    HW178619  12.467   0.460   1.326
59531SOL    HW278620  12.357   0.403   1.219
59532SOL     OW78621  11.236   1.564   1.331
59532SOL    HW178622  11.190   1.646   1.297
59532SOL    HW278623  11.334   1.583   1.340
59533SOL     OW78624  11.539   1.100   0.501
59533SOL    HW178625  11.532   1.183   0.445
59533SOL    HW278626  11.543   1.020   0.441
59534SOL     OW78627  11.738   0.537   0.865
59534SOL    HW178628  11.750   0.603   0.791
59534SOL    HW278629  11.784   0.571   0.948
59535SOL     OW78630  12.424   1.348   0.388
59535SOL    HW178631  12.474   1.425   0.428
59535SOL    HW278632  12.329   1.350   0.420
59536SOL     OW78633  12.444   1.445   1.142
59536SOL    HW178634  12.491   1.458   1.229
59536SOL    HW278635  12.378   1.371   1.151
59537SOL     OW78636  11.526   1.510   1.329
59537SOL    HW178637  11.505   1.466   1.242
59537SOL    HW278638  11.623   1.536   1.332
59538SOL     OW78639  11.574   0.751   1.598
59538SOL    HW178640  11.642   0.806   1.551
59538SOL    HW278641  11.614   0.663   1.625
59539SOL     OW78642  12.185   0.105   1.770
59539SOL    HW178643  12.191   0.190   1.718
59539SOL    HW278644  12.217   0.029   1.713
59540SOL     OW78645  11.676   0.050   1.740
59540SOL    HW178646  11.634  -0.007   1.670
59540SOL    HW278647  11.610   0.119   1.772
59541SOL     OW78648  11.745   0.870   1.029
59541SOL    HW178649  11.789   0.959   1.020
59541SOL    HW278650  11.682   0.870   1.106
59542SOL     OW78651  12.532   0.862   1.045
59542SOL    HW178652  12.457   0.862   0.979
59542SOL    HW278653  12.569   0.770   1.054
59543SOL     OW78654  12.381   0.525   0.275
59543SOL    HW178655  12.394   0.441   0.329
59543SOL    HW278656  12.352   0.599   0.335
59544SOL     OW78657  11.479   0.213   1.231
59544SOL    HW178658  11.456   0.250   1.321
59544SOL    HW278659  11.449   0.118   1.225
59545SOL     OW78660  11.209   1.310   1.282
59545SOL    HW178661  11.262   1.261   1.350
59545SOL    HW278662  11.231   1.408   1.287
59546SOL     OW78663  11.904   0.634   1.064
59546SOL    HW178664  11.963   0.608   0.988
59546SOL    HW278665  11.876   0.730   1.053
59547SOL     OW78666  11.479   0.063   0.618
59547SOL    HW178667  11.468   0.157   0.651
59547SOL    HW278668  11.474   0.000   0.695
59548SOL     OW78669  12.794   0.367   0.374
59548SOL    HW178670  12.796   0.291   0.438
59548SOL    HW278671  12.746   0.444   0.414
59549SOL     OW78672  12.195   0.766   0.966
59549SOL    HW178673  12.210   0.787   1.062
59549SOL    HW278674  12.165   0.671   0.957
59550SOL     OW78675  12.152   1.573   1.700
59550SOL    HW178676  12.132   1.617   1.612
59550SOL    HW278677  12.191   1.482   1.684
59551SOL     OW78678  11.522   0.898   1.804
59551SOL    HW178679  11.598   0.942   1.852
59551SOL    HW278680  11.557   0.851   1.722
59552SOL     OW78681  12.475   0.838   0.042
59552SOL    HW178682  12.509   0.745   0.057
59552SOL    HW278683  12.493   0.865  -0.053
59553SOL     OW78684  12.240   1.333   0.849
59553SOL    HW178685  12.247   1.249   0.794
59553SOL    HW278686  12.302   1.402   0.813
59554SOL     OW78687  11.491   0.810   0.949
59554SOL    HW178688  11.584   0.846   0.954
59554SOL    HW278689  11.485   0.725   1.001
59555SOL     OW78690  11.511   0.509   1.006
59555SOL    HW178691  11.459   0.426   0.989
59555SOL    HW278692  11.588   0.514   0.942
59556SOL     OW78693  12.310   0.380   1.678
59556SOL    HW178694  12.265   0.443   1.742
59556SOL    HW278695  12.403   0.411   1.661
59557SOL     OW78696  12.332   0.207   1.477
59557SOL    HW178697  12.332   0.271   1.554
59557SOL    HW278698  12.360   0.255   1.394
59558SOL     OW78699  11.180   1.326   0.200
59558SOL    HW178700  11.087   1.347   0.169
59558SOL    HW278701  11.190   1.227   0.213
59559SOL     OW78702  11.260   1.801   0.927
59559SOL    HW178703  11.218   1.715   0.900
59559SOL    HW278704  11.354   1.804   0.893
59560SOL     OW78705  11.676   1.568   0.910
59560SOL    HW178706  11.742   1.642   0.919
59560SOL    HW278707  11.720   1.489   0.868
59561SOL     OW78708  12.174   0.796   1.238
59561SOL    HW178709  12.215   0.764   1.324
59561SOL    HW278710  12.078   0.769   1.235
59562SOL     OW78711  11.212   0.544   1.114
59562SOL    HW178712  11.297   0.511   1.073
59562SOL    HW278713  11.225   0.559   1.212
59563SOL     OW78714  11.361   0.520   1.722
59563SOL    HW178715  11.420   0.480   1.652
59563SOL    HW278716  11.303   0.591   1.681
59564SOL     OW78717  12.541   0.950   1.660
59564SOL    HW178718  12.580   1.039   1.680
59564SOL    HW278719  12.551   0.930   1.563
59565SOL     OW78720  11.987   0.572   0.325
59565SOL    HW178721  11.994   0.483   0.279
59565SOL    HW278722  11.893   0.606   0.317
59566SOL     OW78723  11.424   1.564   1.744
59566SOL    HW178724  11.394   1.621   1.820
59566SOL    HW278725  11.417   1.467   1.770
59567SOL     OW78726  11.843   0.464   1.269
59567SOL    HW178727  11.809   0.375   1.239
59567SOL    HW278728  11.869   0.518   1.189
59568SOL     OW78729  12.102   1.678   1.465
59568SOL    HW178730  12.078   1.660   1.370
59568SOL    HW278731  12.132   1.772   1.475
59569SOL     OW78732  11.645   0.500   0.191
59569SOL    HW178733  11.706   0.580   0.195
59569SOL    HW278734  11.550   0.531   0.198
59570SOL     OW78735  11.331   1.137   1.466
59570SOL    HW178736  11.353   1.076   1.542
59570SOL    HW278737  11.341   1.088   1.380
59571SOL     OW78738  12.519   1.059   1.234
59571SOL    HW178739  12.543   0.996   1.160
59571SOL    HW278740  12.429   1.099   1.216
59572SOL     OW78741  12.474   0.855   0.309
59572SOL    HW178742  12.388   0.824   0.351
59572SOL    HW278743  12.470   0.841   0.210
59573SOL     OW78744  12.424   1.731   1.128
59573SOL    HW178745  12.508   1.736   1.074
59573SOL    HW278746  12.401   1.635   1.146
59574SOL     OW78747  11.255   1.258   1.022
59574SOL    HW178748  11.250   1.257   1.122
59574SOL    HW278749  11.172   1.217   0.984
59575SOL     OW78750  11.860   1.662   1.716
59575SOL    HW178751  11.804   1.743   1.725
59575SOL    HW278752  11.912   1.666   1.630
59576SOL     OW78753  12.075   0.086   0.133
59576SOL    HW178754  12.126   0.087   0.047
59576SOL    HW278755  12.131   0.044   0.204
59577SOL     OW78756  12.560   1.573   0.477
59577SOL    HW178757  12.627   1.585   0.403
59577SOL    HW278758  12.520   1.662   0.500
59578SOL     OW78759  11.302   1.794   1.851
59578SOL    HW178760  11.261   1.720   1.904
59578SOL    HW278761  11.366   1.845   1.909
59579SOL     OW78762  12.452   0.927   0.672
59579SOL    HW178763  12.512   0.846   0.674
59579SOL    HW278764  12.492   0.996   0.612
59580SOL     OW78765  12.002   1.273   1.422
59580SOL    HW178766  11.997   1.306   1.517
59580SOL    HW278767  11.916   1.292   1.376
59581SOL     OW78768  11.844   1.616   0.154
59581SOL    HW178769  11.853   1.626   0.055
59581SOL    HW278770  11.804   1.527   0.175
59582SOL     OW78771  11.435   0.326   0.720
59582SOL    HW178772  11.356   0.377   0.686
59582SOL    HW278773  11.426   0.311   0.818
59583SOL     OW78774  12.366   1.612   0.031
59583SOL    HW178775  12.372   1.519   0.068
59583SOL    HW278776  12.307   1.612  -0.049
59584SOL     OW78777  11.994   1.002   1.372
59584SOL    HW178778  12.034   1.001   1.280
59584SOL    HW278779  12.004   1.094   1.412
59585SOL     OW78780  12.088   0.910   0.291
59585SOL    HW178781  12.151   0.948   0.223
59585SOL    HW278782  12.128   0.827   0.330
59586SOL     OW78783  11.544   1.288   1.490
59586SOL    HW178784  11.531   1.381   1.456
59586SOL    HW278785  11.460   1.236   1.477
59587SOL     OW78786  12.211   1.098   0.696
59587SOL    HW178787  12.141   1.051   0.750
59587SOL    HW278788  12.270   1.030   0.653
59588SOL     OW78789  12.186   0.236   0.971
59588SOL    HW178790  12.178   0.200   0.878
59588SOL    HW278791  12.184   0.160   1.036
59589SOL     OW78792  11.762   1.487   0.491
59589SOL    HW178793  11.804   1.429   0.421
59589SOL    HW278794  11.718   1.566   0.447
59590SOL     OW78795  11.427   1.348   0.290
59590SOL    HW178796  11.331   1.349   0.263
59590SOL    HW278797  11.439   1.401   0.374
59591SOL     OW78798  11.277   1.013   1.726
59591SOL    HW178799  11.200   0.980   1.780
59591SOL    HW278800  11.362   0.983   1.768
59592SOL     OW78801  11.844   0.203   1.489
59592SOL    HW178802  11.934   0.187   1.449
59592SOL    HW278803  11.852   0.208   1.588
59593SOL     OW78804  12.612   0.856   1.398
59593SOL    HW178805  12.555   0.908   1.335
59593SOL    HW278806  12.708   0.868   1.374
59594SOL     OW78807  11.244   0.166   0.318
59594SOL    HW178808  11.227   0.249   0.264
59594SOL    HW278809  11.334   0.129   0.296
59595SOL     OW78810  12.355   1.335   0.119
59595SOL    HW178811  12.256   1.324   0.121
59595SOL    HW278812  12.389   1.350   0.212
59596SOL     OW78813  11.785   0.842   1.431
59596SOL    HW178814  11.841   0.923   1.414
59596SOL    HW278815  11.844   0.762   1.434
59597SOL     OW78816  11.888   0.565   1.708
59597SOL    HW178817  11.907   0.630   1.782
59597SOL    HW278818  11.948   0.485   1.717
59598SOL     OW78819  12.622   1.220   1.633
59598SOL    HW178820  12.613   1.210   1.732
59598SOL    HW278821  12.718   1.213   1.607
59599SOL     OW78822  11.562   1.741   1.560
59599SOL    HW178823  11.471   1.782   1.558
59599SOL    HW278824  11.555   1.647   1.592
59600SOL     OW78825  12.397   0.325   0.449
59600SOL    HW178826  12.462   0.251   0.438
59600SOL    HW278827  12.417   0.375   0.533
59601SOL     OW78828  11.766   0.745   0.652
59601SOL    HW178829  11.816   0.830   0.633
59601SOL    HW278830  11.678   0.747   0.604
59602SOL     OW78831  12.031   1.374   0.016
59602SOL    HW178832  11.985   1.389   0.104
59602SOL    HW278833  12.075   1.459  -0.014
59603SOL     OW78834  11.833   1.790   0.953
59603SOL    HW178835  11.787   1.878   0.940
59603SOL    HW278836  11.932   1.802   0.946
59604SOL     OW78837  12.031   0.956   0.861
59604SOL    HW178838  12.085   0.887   0.909
59604SOL    HW278839  11.999   1.025   0.927
59605SOL     OW78840  12.255   0.984   0.087
59605SOL    HW178841  12.232   1.037   0.005
59605SOL    HW278842  12.336   0.928   0.068
59606SOL     OW78843  11.393   1.314   1.844
59606SOL    HW178844  11.328   1.241   1.823
59606SOL    HW278845  11.397   1.328   1.942
59607SOL     OW78846  11.251   1.240   0.653
59607SOL    HW178847  11.250   1.193   0.741
59607SOL    HW278848  11.333   1.212   0.602
59608SOL     OW78849  11.844   1.391   1.624
59608SOL    HW178850  11.766   1.341   1.662
59608SOL    HW278851  11.841   1.486   1.655
59609SOL     OW78852  11.600   0.424   0.520
59609SOL    HW178853  11.630   0.352   0.458
59609SOL    HW278854  11.561   0.384   0.603
59610SOL     OW78855  12.877   1.487   1.104
59610SOL    HW178856  12.784   1.462   1.077
59610SOL    HW278857  12.903   1.437   1.186
59611SOL     OW78858  11.489   0.547   1.280
59611SOL    HW178859  11.527   0.488   1.352
59611SOL    HW278860  11.529   0.521   1.192
59612SOL     OW78861  11.984   1.586   0.687
59612SOL    HW178862  12.016   1.596   0.593
59612SOL    HW278863  11.905   1.524   0.689
59613SOL     OW78864  12.596   0.214   1.112
59613SOL    HW178865  12.648   0.149   1.167
59613SOL    HW278866  12.547   0.277   1.173
59614SOL     OW78867  12.173   0.034   1.154
59614SOL    HW178868  12.110  -0.038   1.123
59614SOL    HW278869  12.266  -0.002   1.154
59615SOL     OW78870  11.942   1.330   0.301
59615SOL    HW178871  11.896   1.243   0.318
59615SOL    HW278872  12.033   1.327   0.342
59616SOL     OW78873  11.790   1.567   1.284
59616SOL    HW178874  11.785   1.649   1.341
59616SOL    HW278875  11.879   1.564   1.239
59617SOL     OW78876  12.524   0.052   0.168
59617SOL    HW178877  12.559   0.011   0.084
59617SOL    HW278878  12.434   0.014   0.188
59618SOL     OW78879  12.472   0.453   0.691
59618SOL    HW178880  12.413   0.533   0.695
59618SOL    HW278881  12.487   0.418   0.784
59619SOL     OW78882  11.211   1.077   0.300
59619SOL    HW178883  11.310   1.066   0.291
59619SOL    HW278884  11.171   0.991   0.332
59620SOL     OW78885  12.047   1.646   0.337
59620SOL    HW178886  11.970   1.611   0.283
59620SOL    HW278887  12.015   1.717   0.399
59621SOL     OW78888  11.402   0.628   1.975
59621SOL    HW178889  11.309   0.626   2.012
59621SOL    HW278890  11.403   0.589   1.883
59622SOL     OW78891  11.397   0.275   2.858
59622SOL    HW178892  11.432   0.258   2.950
59622SOL    HW278893  11.309   0.230   2.846
59623SOL     OW78894  11.191   0.368   2.509
59623SOL    HW178895  11.109   0.411   2.548
59623SOL    HW278896  11.163   0.295   2.446
59624SOL     OW78897  11.741   1.275   3.027
59624SOL    HW178898  11.648   1.268   2.990
59624SOL    HW278899  11.752   1.364   3.071
59625SOL     OW78900  12.727   1.511   2.565
59625SOL    HW178901  12.670   1.495   2.646
59625SOL    HW278902  12.668   1.521   2.485
59626SOL     OW78903  12.307   0.703   2.579
59626SOL    HW178904  12.364   0.781   2.554
59626SOL    HW278905  12.247   0.729   2.655
59627SOL     OW78906  11.940   1.144   2.885
59627SOL    HW178907  11.862   1.161   2.945
59627SOL    HW278908  11.974   1.231   2.849
59628SOL     OW78909  12.022   0.798   3.685
59628SOL    HW178910  12.018   0.874   3.750
59628SOL    HW278911  12.044   0.834   3.594
59629SOL     OW78912  11.857   1.012   2.527
59629SOL    HW178913  11.926   0.996   2.597
59629SOL    HW278914  11.784   1.069   2.565
59630SOL     OW78915  11.858   1.161   3.665
59630SOL    HW178916  11.918   1.240   3.679
59630SOL    HW278917  11.772   1.192   3.624
59631SOL     OW78918  11.507   1.435   2.923
59631SOL    HW178919  11.429   1.404   2.870
59631SOL    HW278920  11.565   1.493   2.866
59632SOL     OW78921  11.610   0.392   3.361
59632SOL    HW178922  11.692   0.336   3.370
59632SOL    HW278923  11.529   0.334   3.365
59633SOL     OW78924  11.403   1.713   2.345
59633SOL    HW178925  11.437   1.790   2.399
59633SOL    HW278926  11.447   1.713   2.255
59634SOL     OW78927  12.299   1.341   3.552
59634SOL    HW178928  12.346   1.341   3.640
59634SOL    HW278929  12.251   1.254   3.541
59635SOL     OW78930  11.402   1.434   2.400
59635SOL    HW178931  11.376   1.530   2.400
59635SOL    HW278932  11.331   1.380   2.445
59636SOL     OW78933  11.412   1.091   2.748
59636SOL    HW178934  11.426   1.007   2.800
59636SOL    HW278935  11.357   1.155   2.803
59637SOL     OW78936  11.792   1.786   3.301
59637SOL    HW178937  11.700   1.769   3.336
59637SOL    HW278938  11.820   1.878   3.327
59638SOL     OW78939  11.778   0.964   1.985
59638SOL    HW178940  11.785   1.048   1.931
59638SOL    HW278941  11.824   0.977   2.073
59639SOL     OW78942  12.766   0.114   3.342
59639SOL    HW178943  12.748   0.181   3.270
59639SOL    HW278944  12.763   0.160   3.431
59640SOL     OW78945  11.294   0.643   2.425
59640SOL    HW178946  11.249   0.555   2.442
59640SOL    HW278947  11.293   0.697   2.509
59641SOL     OW78948  11.199   1.596   1.979
59641SOL    HW178949  11.180   1.500   2.000
59641SOL    HW278950  11.166   1.654   2.054
59642SOL     OW78951  12.861   0.922   2.474
59642SOL    HW178952  12.956   0.893   2.482
59642SOL    HW278953  12.853   0.987   2.399
59643SOL     OW78954  11.285   0.737   3.459
59643SOL    HW178955  11.373   0.724   3.504
59643SOL    HW278956  11.272   0.834   3.437
59644SOL     OW78957  11.785   1.365   2.588
59644SOL    HW178958  11.736   1.278   2.597
59644SOL    HW278959  11.762   1.408   2.501
59645SOL     OW78960  12.465   1.228   3.285
59645SOL    HW178961  12.502   1.155   3.227
59645SOL    HW278962  12.517   1.233   3.370
59646SOL     OW78963  11.981   0.004   2.364
59646SOL    HW178964  12.021   0.095   2.355
59646SOL    HW278965  11.881   0.012   2.370
59647SOL     OW78966  11.369   0.976   3.126
59647SOL    HW178967  11.458   0.931   3.112
59647SOL    HW278968  11.296   0.911   3.107
59648SOL     OW78969  12.359   1.792   3.478
59648SOL    HW178970  12.383   1.852   3.402
59648SOL    HW278971  12.366   1.697   3.448
59649SOL     OW78972  11.489   0.251   3.663
59649SOL    HW178973  11.560   0.322   3.669
59649SOL    HW278974  11.401   0.290   3.691
59650SOL     OW78975  12.638   1.417   2.815
59650SOL    HW178976  12.579   1.423   2.895
59650SOL    HW278977  12.623   1.329   2.769
59651SOL     OW78978  11.770   0.729   2.132
59651SOL    HW178979  11.794   0.798   2.064
59651SOL    HW278980  11.692   0.762   2.186
59652SOL     OW78981  12.453   0.345   2.806
59652SOL    HW178982  12.367   0.295   2.793
59652SOL    HW278983  12.515   0.291   2.862
59653SOL     OW78984  11.979   0.605   3.327
59653SOL    HW178985  11.932   0.602   3.416
59653SOL    HW278986  11.928   0.550   3.261
59654SOL     OW78987  12.566   0.469   3.536
59654SOL    HW178988  12.546   0.512   3.624
59654SOL    HW278989  12.644   0.407   3.545
59655SOL     OW78990  12.145   0.890   3.434
59655SOL    HW178991  12.191   0.806   3.405
59655SOL    HW278992  12.089   0.924   3.359
59656SOL     OW78993  12.163   0.410   3.104
59656SOL    HW178994  12.086   0.444   3.158
59656SOL    HW278995  12.129   0.359   3.025
59657SOL     OW78996  12.213   0.701   2.291
59657SOL    HW178997  12.239   0.697   2.387
59657SOL    HW278998  12.128   0.650   2.277
59658SOL     OW78999  11.248   0.811   2.651
59658SOL    HW179000  11.347   0.799   2.660
59658SOL    HW279001  11.224   0.906   2.672
59659SOL     OW79002  11.302   1.821   3.433
59659SOL    HW179003  11.292   1.806   3.532
59659SOL    HW279004  11.216   1.857   3.397
59660SOL     OW79005  12.037   0.348   2.057
59660SOL    HW179006  12.096   0.411   2.008
59660SOL    HW279007  12.056   0.254   2.028
59661SOL     OW79008  12.534   1.144   2.407
59661SOL    HW179009  12.617   1.115   2.359
59661SOL    HW279010  12.485   1.211   2.351
59662SOL     OW79011  11.722   0.196   2.747
59662SOL    HW179012  11.717   0.191   2.847
59662SOL    HW279013  11.724   0.292   2.718
59663SOL     OW79014  12.180   1.456   2.339
59663SOL    HW179015  12.134   1.528   2.287
59663SOL    HW279016  12.176   1.476   2.437
59664SOL     OW79017  11.523   1.801   2.715
59664SOL    HW179018  11.573   1.715   2.721
59664SOL    HW279019  11.588   1.878   2.712
59665SOL     OW79020  12.399   1.550   3.368
59665SOL    HW179021  12.405   1.473   3.432
59665SOL    HW279022  12.347   1.524   3.288
59666SOL     OW79023  11.493   0.943   2.104
59666SOL    HW179024  11.575   0.982   2.062
59666SOL    HW279025  11.466   0.861   2.055
59667SOL     OW79026  11.633   1.266   3.589
59667SOL    HW179027  11.583   1.267   3.503
59667SOL    HW279028  11.570   1.248   3.665
59668SOL     OW79029  12.283   1.776   2.099
59668SOL    HW179030  12.223   1.714   2.149
59668SOL    HW279031  12.314   1.732   2.014
59669SOL     OW79032  11.374   0.285   3.360
59669SOL    HW179033  11.294   0.345   3.347
59669SOL    HW279034  11.364   0.236   3.446
59670SOL     OW79035  11.636   1.743   2.185
59670SOL    HW179036  11.669   1.782   2.271
59670SOL    HW279037  11.712   1.736   2.120
59671SOL     OW79038  12.572   0.107   2.288
59671SOL    HW179039  12.548   0.070   2.198
59671SOL    HW279040  12.671   0.123   2.292
59672SOL     OW79041  11.421   1.785   3.103
59672SOL    HW179042  11.478   1.720   3.153
59672SOL    HW279043  11.405   1.752   3.010
59673SOL     OW79044  12.112   1.698   2.766
59673SOL    HW179045  12.192   1.641   2.787
59673SOL    HW279046  12.063   1.658   2.689
59674SOL     OW79047  11.554   0.700   2.342
59674SOL    HW179048  11.599   0.610   2.339
59674SOL    HW279049  11.460   0.689   2.375
59675SOL     OW79050  11.786   0.122   1.979
59675SOL    HW179051  11.884   0.100   1.986
59675SOL    HW279052  11.755   0.105   1.886
59676SOL     OW79053  11.953   0.264   3.611
59676SOL    HW179054  12.020   0.203   3.654
59676SOL    HW279055  11.880   0.283   3.676
59677SOL     OW79056  12.060   1.514   3.057
59677SOL    HW179057  12.037   1.489   2.963
59677SOL    HW279058  12.121   1.445   3.096
59678SOL     OW79059  12.523   0.590   3.295
59678SOL    HW179060  12.551   0.547   3.380
59678SOL    HW279061  12.548   0.686   3.296
59679SOL     OW79062  11.975   1.402   2.786
59679SOL    HW179063  12.065   1.416   2.744
59679SOL    HW279064  11.904   1.404   2.715
59680SOL     OW79065  12.094   0.503   2.761
59680SOL    HW179066  12.069   0.494   2.665
59680SOL    HW279067  12.142   0.421   2.792
59681SOL     OW79068  11.711   0.064   2.374
59681SOL    HW179069  11.630   0.065   2.432
59681SOL    HW279070  11.714   0.147   2.319
59682SOL     OW79071  12.606   1.188   1.903
59682SOL    HW179072  12.638   1.112   1.960
59682SOL    HW279073  12.514   1.215   1.933
59683SOL     OW79074  11.469   0.035   2.033
59683SOL    HW179075  11.518   0.119   2.012
59683SOL    HW279076  11.531  -0.030   2.078
59684SOL     OW79077  12.107   0.236   2.342
59684SOL    HW179078  12.059   0.277   2.264
59684SOL    HW279079  12.206   0.234   2.323
59685SOL     OW79080  12.248   0.683   3.326
59685SOL    HW179081  12.168   0.622   3.329
59685SOL    HW279082  12.329   0.630   3.302
59686SOL     OW79083  12.399   1.570   2.655
59686SOL    HW179084  12.420   1.644   2.590
59686SOL    HW279085  12.467   1.570   2.728
59687SOL     OW79086  11.631   1.152   2.603
59687SOL    HW179087  11.560   1.125   2.668
59687SOL    HW279088  11.605   1.124   2.510
59688SOL     OW79089  12.443   1.797   2.453
59688SOL    HW179090  12.487   1.861   2.389
59688SOL    HW279091  12.393   1.849   2.523
59689SOL     OW79092  12.204   0.549   1.878
59689SOL    HW179093  12.163   0.631   1.839
59689SOL    HW279094  12.268   0.575   1.951
59690SOL     OW79095  11.250   0.556   3.248
59690SOL    HW179096  11.342   0.555   3.207
59690SOL    HW279097  11.244   0.630   3.315
59691SOL     OW79098  11.733   0.222   3.009
59691SOL    HW179099  11.771   0.138   3.046
59691SOL    HW279100  11.645   0.241   3.053
59692SOL     OW79101  12.038   0.454   2.504
59692SOL    HW179102  12.006   0.526   2.442
59692SOL    HW279103  12.062   0.373   2.451
59693SOL     OW79104  12.189   0.039   2.615
59693SOL    HW179105  12.117   0.044   2.546
59693SOL    HW279106  12.165  -0.030   2.684
59694SOL     OW79107  12.601   1.173   2.729
59694SOL    HW179108  12.546   1.089   2.722
59694SOL    HW279109  12.627   1.202   2.637
59695SOL     OW79110  11.660   1.385   2.036
59695SOL    HW179111  11.573   1.370   2.083
59695SOL    HW279112  11.643   1.411   1.941
59696SOL     OW79113  12.562   0.575   1.940
59696SOL    HW179114  12.508   0.554   2.021
59696SOL    HW279115  12.653   0.534   1.949
59697SOL     OW79116  11.699   0.256   2.190
59697SOL    HW179117  11.726   0.197   2.115
59697SOL    HW279118  11.699   0.351   2.159
59698SOL     OW79119  12.236   1.347   3.202
59698SOL    HW179120  12.156   1.324   3.257
59698SOL    HW279121  12.319   1.321   3.251
59699SOL     OW79122  12.764   1.629   3.487
59699SOL    HW179123  12.791   1.663   3.397
59699SOL    HW279124  12.843   1.591   3.533
59700SOL     OW79125  12.283   1.195   2.962
59700SOL    HW179126  12.243   1.239   3.043
59700SOL    HW279127  12.242   1.232   2.879
59701SOL     OW79128  12.087   0.089   3.264
59701SOL    HW179129  12.112   0.069   3.169
59701SOL    HW279130  12.159   0.145   3.306
59702SOL     OW79131  12.152   1.116   3.581
59702SOL    HW179132  12.053   1.122   3.591
59702SOL    HW279133  12.175   1.036   3.525
59703SOL     OW79134  11.877   1.050   2.230
59703SOL    HW179135  11.863   1.057   2.329
59703SOL    HW279136  11.961   0.999   2.212
59704SOL     OW79137  11.582   0.813   3.113
59704SOL    HW179138  11.668   0.825   3.163
59704SOL    HW279139  11.540   0.726   3.140
59705SOL     OW79140  12.446   0.386   3.124
59705SOL    HW179141  12.467   0.460   3.188
59705SOL    HW279142  12.357   0.403   3.081
59706SOL     OW79143  11.236   1.564   3.193
59706SOL    HW179144  11.190   1.646   3.159
59706SOL    HW279145  11.334   1.583   3.202
59707SOL     OW79146  11.539   1.100   2.363
59707SOL    HW179147  11.532   1.183   2.307
59707SOL    HW279148  11.543   1.020   2.303
59708SOL     OW79149  11.738   0.537   2.727
59708SOL    HW179150  11.750   0.603   2.653
59708SOL    HW279151  11.784   0.571   2.810
59709SOL     OW79152  12.424   1.348   2.250
59709SOL    HW179153  12.474   1.425   2.290
59709SOL    HW279154  12.329   1.350   2.282
59710SOL     OW79155  12.444   1.445   3.004
59710SOL    HW179156  12.491   1.458   3.091
59710SOL    HW279157  12.378   1.371   3.013
59711SOL     OW79158  11.526   1.510   3.191
59711SOL    HW179159  11.505   1.466   3.104
59711SOL    HW279160  11.623   1.536   3.194
59712SOL     OW79161  11.574   0.751   3.460
59712SOL    HW179162  11.642   0.806   3.413
59712SOL    HW279163  11.614   0.663   3.487
59713SOL     OW79164  12.185   0.105   3.632
59713SOL    HW179165  12.191   0.190   3.580
59713SOL    HW279166  12.217   0.029   3.575
59714SOL     OW79167  11.676   0.050   3.602
59714SOL    HW179168  11.634  -0.007   3.532
59714SOL    HW279169  11.610   0.119   3.634
59715SOL     OW79170  11.745   0.870   2.891
59715SOL    HW179171  11.789   0.959   2.882
59715SOL    HW279172  11.682   0.870   2.968
59716SOL     OW79173  12.532   0.862   2.907
59716SOL    HW179174  12.457   0.862   2.841
59716SOL    HW279175  12.569   0.770   2.916
59717SOL     OW79176  12.381   0.525   2.137
59717SOL    HW179177  12.394   0.441   2.191
59717SOL    HW279178  12.352   0.599   2.197
59718SOL     OW79179  11.479   0.213   3.093
59718SOL    HW179180  11.456   0.250   3.183
59718SOL    HW279181  11.449   0.118   3.087
59719SOL     OW79182  11.209   1.310   3.144
59719SOL    HW179183  11.262   1.261   3.212
59719SOL    HW279184  11.231   1.408   3.149
59720SOL     OW79185  11.904   0.634   2.926
59720SOL    HW179186  11.963   0.608   2.850
59720SOL    HW279187  11.876   0.730   2.915
59721SOL     OW79188  11.479   0.063   2.480
59721SOL    HW179189  11.468   0.157   2.513
59721SOL    HW279190  11.474   0.000   2.557
59722SOL     OW79191  12.794   0.367   2.236
59722SOL    HW179192  12.796   0.291   2.300
59722SOL    HW279193  12.746   0.444   2.276
59723SOL     OW79194  12.195   0.766   2.828
59723SOL    HW179195  12.210   0.787   2.924
59723SOL    HW279196  12.165   0.671   2.819
59724SOL     OW79197  12.152   1.573   3.562
59724SOL    HW179198  12.132   1.617   3.474
59724SOL    HW279199  12.191   1.482   3.546
59725SOL     OW79200  11.522   0.898   3.666
59725SOL    HW179201  11.598   0.942   3.714
59725SOL    HW279202  11.557   0.851   3.584
59726SOL     OW79203  12.475   0.838   1.904
59726SOL    HW179204  12.509   0.745   1.919
59726SOL    HW279205  12.493   0.865   1.809
59727SOL     OW79206  12.240   1.333   2.711
59727SOL    HW179207  12.247   1.249   2.656
59727SOL    HW279208  12.302   1.402   2.675
59728SOL     OW79209  11.491   0.810   2.811
59728SOL    HW179210  11.584   0.846   2.816
59728SOL    HW279211  11.485   0.725   2.863
59729SOL     OW79212  11.511   0.509   2.868
59729SOL    HW179213  11.459   0.426   2.851
59729SOL    HW279214  11.588   0.514   2.804
59730SOL     OW79215  12.310   0.380   3.540
59730SOL    HW179216  12.265   0.443   3.604
59730SOL    HW279217  12.403   0.411   3.523
59731SOL     OW79218  12.332   0.207   3.339
59731SOL    HW179219  12.332   0.271   3.416
59731SOL    HW279220  12.360   0.255   3.256
59732SOL     OW79221  11.180   1.326   2.062
59732SOL    HW179222  11.087   1.347   2.031
59732SOL    HW279223  11.190   1.227   2.075
59733SOL     OW79224  11.260   1.801   2.789
59733SOL    HW179225  11.218   1.715   2.762
59733SOL    HW279226  11.354   1.804   2.755
59734SOL     OW79227  11.676   1.568   2.772
59734SOL    HW179228  11.742   1.642   2.781
59734SOL    HW279229  11.720   1.489   2.730
59735SOL     OW79230  12.174   0.796   3.100
59735SOL    HW179231  12.215   0.764   3.186
59735SOL    HW279232  12.078   0.769   3.097
59736SOL     OW79233  11.212   0.544   2.976
59736SOL    HW179234  11.297   0.511   2.935
59736SOL    HW279235  11.225   0.559   3.074
59737SOL     OW79236  11.361   0.520   3.584
59737SOL    HW179237  11.420   0.480   3.514
59737SOL    HW279238  11.303   0.591   3.543
59738SOL     OW79239  12.541   0.950   3.522
59738SOL    HW179240  12.580   1.039   3.542
59738SOL    HW279241  12.551   0.930   3.425
59739SOL     OW79242  11.987   0.572   2.187
59739SOL    HW179243  11.994   0.483   2.141
59739SOL    HW279244  11.893   0.606   2.179
59740SOL     OW79245  11.424   1.564   3.606
59740SOL    HW179246  11.394   1.621   3.682
59740SOL    HW279247  11.417   1.467   3.632
59741SOL     OW79248  11.843   0.464   3.131
59741SOL    HW179249  11.809   0.375   3.101
59741SOL    HW279250  11.869   0.518   3.051
59742SOL     OW79251  12.102   1.678   3.327
59742SOL    HW179252  12.078   1.660   3.232
59742SOL    HW279253  12.132   1.772   3.337
59743SOL     OW79254  11.645   0.500   2.053
59743SOL    HW179255  11.706   0.580   2.057
59743SOL    HW279256  11.550   0.531   2.060
59744SOL     OW79257  11.331   1.137   3.328
59744SOL    HW179258  11.353   1.076   3.404
59744SOL    HW279259  11.341   1.088   3.242
59745SOL     OW79260  12.519   1.059   3.096
59745SOL    HW179261  12.543   0.996   3.022
59745SOL    HW279262  12.429   1.099   3.078
59746SOL     OW79263  12.474   0.855   2.171
59746SOL    HW179264  12.388   0.824   2.213
59746SOL    HW279265  12.470   0.841   2.072
59747SOL     OW79266  12.424   1.731   2.990
59747SOL    HW179267  12.508   1.736   2.936
59747SOL    HW279268  12.401   1.635   3.008
59748SOL     OW79269  11.255   1.258   2.884
59748SOL    HW179270  11.250   1.257   2.984
59748SOL    HW279271  11.172   1.217   2.846
59749SOL     OW79272  11.860   1.662   3.578
59749SOL    HW179273  11.804   1.743   3.587
59749SOL    HW279274  11.912   1.666   3.492
59750SOL     OW79275  12.560   1.573   2.339
59750SOL    HW179276  12.627   1.585   2.265
59750SOL    HW279277  12.520   1.662   2.362
59751SOL     OW79278  11.302   1.794   3.713
59751SOL    HW179279  11.261   1.720   3.766
59751SOL    HW279280  11.366   1.845   3.771
59752SOL     OW79281  12.452   0.927   2.534
59752SOL    HW179282  12.512   0.846   2.536
59752SOL    HW279283  12.492   0.996   2.474
59753SOL     OW79284  12.002   1.273   3.284
59753SOL    HW179285  11.997   1.306   3.379
59753SOL    HW279286  11.916   1.292   3.238
59754SOL     OW79287  11.844   1.616   2.016
59754SOL    HW179288  11.853   1.626   1.917
59754SOL    HW279289  11.804   1.527   2.037
59755SOL     OW79290  11.435   0.326   2.582
59755SOL    HW179291  11.356   0.377   2.548
59755SOL    HW279292  11.426   0.311   2.680
59756SOL     OW79293  12.366   1.612   1.893
59756SOL    HW179294  12.372   1.519   1.930
59756SOL    HW279295  12.307   1.612   1.813
59757SOL     OW79296  11.994   1.002   3.234
59757SOL    HW179297  12.034   1.001   3.142
59757SOL    HW279298  12.004   1.094   3.274
59758SOL     OW79299  12.088   0.910   2.153
59758SOL    HW179300  12.151   0.948   2.085
59758SOL    HW279301  12.128   0.827   2.192
59759SOL     OW79302  11.544   1.288   3.352
59759SOL    HW179303  11.531   1.381   3.318
59759SOL    HW279304  11.460   1.236   3.339
59760SOL     OW79305  12.211   1.098   2.558
59760SOL    HW179306  12.141   1.051   2.612
59760SOL    HW279307  12.270   1.030   2.515
59761SOL     OW79308  12.186   0.236   2.833
59761SOL    HW179309  12.178   0.200   2.740
59761SOL    HW279310  12.184   0.160   2.898
59762SOL     OW79311  11.762   1.487   2.353
59762SOL    HW179312  11.804   1.429   2.283
59762SOL    HW279313  11.718   1.566   2.309
59763SOL     OW79314  11.427   1.348   2.152
59763SOL    HW179315  11.331   1.349   2.125
59763SOL    HW279316  11.439   1.401   2.236
59764SOL     OW79317  11.277   1.013   3.588
59764SOL    HW179318  11.200   0.980   3.642
59764SOL    HW279319  11.362   0.983   3.630
59765SOL     OW79320  11.844   0.203   3.351
59765SOL    HW179321  11.934   0.187   3.311
59765SOL    HW279322  11.852   0.208   3.450
59766SOL     OW79323  11.247   0.345   1.895
59766SOL    HW179324  11.155   0.317   1.866
59766SOL    HW279325  11.278   0.422   1.839
59767SOL     OW79326  12.612   0.856   3.260
59767SOL    HW179327  12.555   0.908   3.197
59767SOL    HW279328  12.708   0.868   3.236
59768SOL     OW79329  11.244   0.166   2.180
59768SOL    HW179330  11.227   0.249   2.126
59768SOL    HW279331  11.334   0.129   2.158
59769SOL     OW79332  12.355   1.335   1.981
59769SOL    HW179333  12.256   1.324   1.983
59769SOL    HW279334  12.389   1.350   2.074
59770SOL     OW79335  11.785   0.842   3.293
59770SOL    HW179336  11.841   0.923   3.276
59770SOL    HW279337  11.844   0.762   3.296
59771SOL     OW79338  11.888   0.565   3.570
59771SOL    HW179339  11.907   0.630   3.644
59771SOL    HW279340  11.948   0.485   3.579
59772SOL     OW79341  12.622   1.220   3.495
59772SOL    HW179342  12.613   1.210   3.594
59772SOL    HW279343  12.718   1.213   3.469
59773SOL     OW79344  11.562   1.741   3.422
59773SOL    HW179345  11.471   1.782   3.420
59773SOL    HW279346  11.555   1.647   3.454
59774SOL     OW79347  12.397   0.325   2.311
59774SOL    HW179348  12.462   0.251   2.300
59774SOL    HW279349  12.417   0.375   2.395
59775SOL     OW79350  11.766   0.745   2.514
59775SOL    HW179351  11.816   0.830   2.495
59775SOL    HW279352  11.678   0.747   2.466
59776SOL     OW79353  12.031   1.374   1.878
59776SOL    HW179354  11.985   1.389   1.966
59776SOL    HW279355  12.075   1.459   1.848
59777SOL     OW79356  11.833   1.790   2.815
59777SOL    HW179357  11.787   1.878   2.802
59777SOL    HW279358  11.932   1.802   2.808
59778SOL     OW79359  12.031   0.956   2.723
59778SOL    HW179360  12.085   0.887   2.771
59778SOL    HW279361  11.999   1.025   2.789
59779SOL     OW79362  12.255   0.984   1.949
59779SOL    HW179363  12.232   1.037   1.867
59779SOL    HW279364  12.336   0.928   1.930
59780SOL     OW79365  11.393   1.314   3.706
59780SOL    HW179366  11.328   1.241   3.685
59780SOL    HW279367  11.397   1.328   3.804
59781SOL     OW79368  11.251   1.240   2.515
59781SOL    HW179369  11.250   1.193   2.603
59781SOL    HW279370  11.333   1.212   2.464
59782SOL     OW79371  11.844   1.391   3.486
59782SOL    HW179372  11.766   1.341   3.524
59782SOL    HW279373  11.841   1.486   3.517
59783SOL     OW79374  11.600   0.424   2.382
59783SOL    HW179375  11.630   0.352   2.320
59783SOL    HW279376  11.561   0.384   2.465
59784SOL     OW79377  12.877   1.487   2.966
59784SOL    HW179378  12.784   1.462   2.939
59784SOL    HW279379  12.903   1.437   3.048
59785SOL     OW79380  11.489   0.547   3.142
59785SOL    HW179381  11.527   0.488   3.214
59785SOL    HW279382  11.529   0.521   3.054
59786SOL     OW79383  11.984   1.586   2.549
59786SOL    HW179384  12.016   1.596   2.455
59786SOL    HW279385  11.905   1.524   2.551
59787SOL     OW79386  12.596   0.214   2.974
59787SOL    HW179387  12.648   0.149   3.029
59787SOL    HW279388  12.547   0.277   3.035
59788SOL     OW79389  12.173   0.034   3.016
59788SOL    HW179390  12.110  -0.038   2.985
59788SOL    HW279391  12.266  -0.002   3.016
59789SOL     OW79392  11.942   1.330   2.163
59789SOL    HW179393  11.896   1.243   2.180
59789SOL    HW279394  12.033   1.327   2.204
59790SOL     OW79395  11.790   1.567   3.146
59790SOL    HW179396  11.785   1.649   3.203
59790SOL    HW279397  11.879   1.564   3.101
59791SOL     OW79398  12.524   0.052   2.030
59791SOL    HW179399  12.559   0.011   1.946
59791SOL    HW279400  12.434   0.014   2.050
59792SOL     OW79401  12.472   0.453   2.553
59792SOL    HW179402  12.413   0.533   2.557
59792SOL    HW279403  12.487   0.418   2.646
59793SOL     OW79404  11.211   1.077   2.162
59793SOL    HW179405  11.310   1.066   2.153
59793SOL    HW279406  11.171   0.991   2.194
59794SOL     OW79407  12.047   1.646   2.199
59794SOL    HW179408  11.970   1.611   2.145
59794SOL    HW279409  12.015   1.717   2.261
59795SOL     OW79410  11.402   0.628   3.837
59795SOL    HW179411  11.309   0.626   3.874
59795SOL    HW279412  11.403   0.589   3.745
59796SOL     OW79413  11.397   0.275   4.720
59796SOL    HW179414  11.432   0.258   4.812
59796SOL    HW279415  11.309   0.230   4.708
59797SOL     OW79416  11.191   0.368   4.371
59797SOL    HW179417  11.109   0.411   4.410
59797SOL    HW279418  11.163   0.295   4.308
59798SOL     OW79419  11.741   1.275   4.889
59798SOL    HW179420  11.648   1.268   4.852
59798SOL    HW279421  11.752   1.364   4.933
59799SOL     OW79422  12.727   1.511   4.427
59799SOL    HW179423  12.670   1.495   4.508
59799SOL    HW279424  12.668   1.521   4.347
59800SOL     OW79425  12.307   0.703   4.441
59800SOL    HW179426  12.364   0.781   4.416
59800SOL    HW279427  12.247   0.729   4.517
59801SOL     OW79428  11.940   1.144   4.747
59801SOL    HW179429  11.862   1.161   4.807
59801SOL    HW279430  11.974   1.231   4.711
59802SOL     OW79431  12.022   0.798   5.547
59802SOL    HW179432  12.018   0.874   5.612
59802SOL    HW279433  12.044   0.834   5.456
59803SOL     OW79434  11.857   1.012   4.389
59803SOL    HW179435  11.926   0.996   4.459
59803SOL    HW279436  11.784   1.069   4.427
59804SOL     OW79437  11.858   1.161   5.527
59804SOL    HW179438  11.918   1.240   5.541
59804SOL    HW279439  11.772   1.192   5.486
59805SOL     OW79440  11.507   1.435   4.785
59805SOL    HW179441  11.429   1.404   4.732
59805SOL    HW279442  11.565   1.493   4.728
59806SOL     OW79443  11.610   0.392   5.223
59806SOL    HW179444  11.692   0.336   5.232
59806SOL    HW279445  11.529   0.334   5.227
59807SOL     OW79446  11.403   1.713   4.207
59807SOL    HW179447  11.437   1.790   4.261
59807SOL    HW279448  11.447   1.713   4.117
59808SOL     OW79449  12.299   1.341   5.414
59808SOL    HW179450  12.346   1.341   5.502
59808SOL    HW279451  12.251   1.254   5.403
59809SOL     OW79452  11.402   1.434   4.262
59809SOL    HW179453  11.376   1.530   4.262
59809SOL    HW279454  11.331   1.380   4.307
59810SOL     OW79455  11.412   1.091   4.610
59810SOL    HW179456  11.426   1.007   4.662
59810SOL    HW279457  11.357   1.155   4.665
59811SOL     OW79458  11.792   1.786   5.163
59811SOL    HW179459  11.700   1.769   5.198
59811SOL    HW279460  11.820   1.878   5.189
59812SOL     OW79461  11.778   0.964   3.847
59812SOL    HW179462  11.785   1.048   3.793
59812SOL    HW279463  11.824   0.977   3.935
59813SOL     OW79464  12.766   0.114   5.204
59813SOL    HW179465  12.748   0.181   5.132
59813SOL    HW279466  12.763   0.160   5.293
59814SOL     OW79467  11.294   0.643   4.287
59814SOL    HW179468  11.249   0.555   4.304
59814SOL    HW279469  11.293   0.697   4.371
59815SOL     OW79470  11.199   1.596   3.841
59815SOL    HW179471  11.180   1.500   3.862
59815SOL    HW279472  11.166   1.654   3.916
59816SOL     OW79473  12.861   0.922   4.336
59816SOL    HW179474  12.956   0.893   4.344
59816SOL    HW279475  12.853   0.987   4.261
59817SOL     OW79476  11.285   0.737   5.321
59817SOL    HW179477  11.373   0.724   5.366
59817SOL    HW279478  11.272   0.834   5.299
59818SOL     OW79479  11.785   1.365   4.450
59818SOL    HW179480  11.736   1.278   4.459
59818SOL    HW279481  11.762   1.408   4.363
59819SOL     OW79482  12.465   1.228   5.147
59819SOL    HW179483  12.502   1.155   5.089
59819SOL    HW279484  12.517   1.233   5.232
59820SOL     OW79485  11.981   0.004   4.226
59820SOL    HW179486  12.021   0.095   4.217
59820SOL    HW279487  11.881   0.012   4.232
59821SOL     OW79488  11.369   0.976   4.988
59821SOL    HW179489  11.458   0.931   4.974
59821SOL    HW279490  11.296   0.911   4.969
59822SOL     OW79491  12.359   1.792   5.340
59822SOL    HW179492  12.383   1.852   5.264
59822SOL    HW279493  12.366   1.697   5.310
59823SOL     OW79494  11.489   0.251   5.525
59823SOL    HW179495  11.560   0.322   5.531
59823SOL    HW279496  11.401   0.290   5.553
59824SOL     OW79497  12.638   1.417   4.677
59824SOL    HW179498  12.579   1.423   4.757
59824SOL    HW279499  12.623   1.329   4.631
59825SOL     OW79500  11.770   0.729   3.994
59825SOL    HW179501  11.794   0.798   3.926
59825SOL    HW279502  11.692   0.762   4.048
59826SOL     OW79503  12.453   0.345   4.668
59826SOL    HW179504  12.367   0.295   4.655
59826SOL    HW279505  12.515   0.291   4.724
59827SOL     OW79506  11.979   0.605   5.189
59827SOL    HW179507  11.932   0.602   5.278
59827SOL    HW279508  11.928   0.550   5.123
59828SOL     OW79509  12.566   0.469   5.398
59828SOL    HW179510  12.546   0.512   5.486
59828SOL    HW279511  12.644   0.407   5.407
59829SOL     OW79512  12.145   0.890   5.296
59829SOL    HW179513  12.191   0.806   5.267
59829SOL    HW279514  12.089   0.924   5.221
59830SOL     OW79515  12.163   0.410   4.966
59830SOL    HW179516  12.086   0.444   5.020
59830SOL    HW279517  12.129   0.359   4.887
59831SOL     OW79518  12.213   0.701   4.153
59831SOL    HW179519  12.239   0.697   4.249
59831SOL    HW279520  12.128   0.650   4.139
59832SOL     OW79521  11.248   0.811   4.513
59832SOL    HW179522  11.347   0.799   4.522
59832SOL    HW279523  11.224   0.906   4.534
59833SOL     OW79524  11.302   1.821   5.295
59833SOL    HW179525  11.292   1.806   5.394
59833SOL    HW279526  11.216   1.857   5.259
59834SOL     OW79527  12.037   0.348   3.919
59834SOL    HW179528  12.096   0.411   3.870
59834SOL    HW279529  12.056   0.254   3.890
59835SOL     OW79530  12.534   1.144   4.269
59835SOL    HW179531  12.617   1.115   4.221
59835SOL    HW279532  12.485   1.211   4.213
59836SOL     OW79533  11.722   0.196   4.609
59836SOL    HW179534  11.717   0.191   4.709
59836SOL    HW279535  11.724   0.292   4.580
59837SOL     OW79536  12.180   1.456   4.201
59837SOL    HW179537  12.134   1.528   4.149
59837SOL    HW279538  12.176   1.476   4.299
59838SOL     OW79539  11.523   1.801   4.577
59838SOL    HW179540  11.573   1.715   4.583
59838SOL    HW279541  11.588   1.878   4.574
59839SOL     OW79542  12.399   1.550   5.230
59839SOL    HW179543  12.405   1.473   5.294
59839SOL    HW279544  12.347   1.524   5.150
59840SOL     OW79545  11.493   0.943   3.966
59840SOL    HW179546  11.575   0.982   3.924
59840SOL    HW279547  11.466   0.861   3.917
59841SOL     OW79548  11.633   1.266   5.451
59841SOL    HW179549  11.583   1.267   5.365
59841SOL    HW279550  11.570   1.248   5.527
59842SOL     OW79551  12.283   1.776   3.961
59842SOL    HW179552  12.223   1.714   4.011
59842SOL    HW279553  12.314   1.732   3.876
59843SOL     OW79554  11.374   0.285   5.222
59843SOL    HW179555  11.294   0.345   5.209
59843SOL    HW279556  11.364   0.236   5.308
59844SOL     OW79557  11.636   1.743   4.047
59844SOL    HW179558  11.669   1.782   4.133
59844SOL    HW279559  11.712   1.736   3.982
59845SOL     OW79560  12.572   0.107   4.150
59845SOL    HW179561  12.548   0.070   4.060
59845SOL    HW279562  12.671   0.123   4.154
59846SOL     OW79563  11.421   1.785   4.965
59846SOL    HW179564  11.478   1.720   5.015
59846SOL    HW279565  11.405   1.752   4.872
59847SOL     OW79566  12.112   1.698   4.628
59847SOL    HW179567  12.192   1.641   4.649
59847SOL    HW279568  12.063   1.658   4.551
59848SOL     OW79569  11.554   0.700   4.204
59848SOL    HW179570  11.599   0.610   4.201
59848SOL    HW279571  11.460   0.689   4.237
59849SOL     OW79572  11.786   0.122   3.841
59849SOL    HW179573  11.884   0.100   3.848
59849SOL    HW279574  11.755   0.105   3.748
59850SOL     OW79575  11.953   0.264   5.473
59850SOL    HW179576  12.020   0.203   5.516
59850SOL    HW279577  11.880   0.283   5.538
59851SOL     OW79578  12.060   1.514   4.919
59851SOL    HW179579  12.037   1.489   4.825
59851SOL    HW279580  12.121   1.445   4.958
59852SOL     OW79581  12.523   0.590   5.157
59852SOL    HW179582  12.551   0.547   5.242
59852SOL    HW279583  12.548   0.686   5.158
59853SOL     OW79584  11.975   1.402   4.648
59853SOL    HW179585  12.065   1.416   4.606
59853SOL    HW279586  11.904   1.404   4.577
59854SOL     OW79587  12.094   0.503   4.623
59854SOL    HW179588  12.069   0.494   4.527
59854SOL    HW279589  12.142   0.421   4.654
59855SOL     OW79590  11.711   0.064   4.236
59855SOL    HW179591  11.630   0.065   4.294
59855SOL    HW279592  11.714   0.147   4.181
59856SOL     OW79593  12.606   1.188   3.765
59856SOL    HW179594  12.638   1.112   3.822
59856SOL    HW279595  12.514   1.215   3.795
59857SOL     OW79596  11.469   0.035   3.895
59857SOL    HW179597  11.518   0.119   3.874
59857SOL    HW279598  11.531  -0.030   3.940
59858SOL     OW79599  12.107   0.236   4.204
59858SOL    HW179600  12.059   0.277   4.126
59858SOL    HW279601  12.206   0.234   4.185
59859SOL     OW79602  12.248   0.683   5.188
59859SOL    HW179603  12.168   0.622   5.191
59859SOL    HW279604  12.329   0.630   5.164
59860SOL     OW79605  12.399   1.570   4.517
59860SOL    HW179606  12.420   1.644   4.452
59860SOL    HW279607  12.467   1.570   4.590
59861SOL     OW79608  11.631   1.152   4.465
59861SOL    HW179609  11.560   1.125   4.530
59861SOL    HW279610  11.605   1.124   4.372
59862SOL     OW79611  12.443   1.797   4.315
59862SOL    HW179612  12.487   1.861   4.251
59862SOL    HW279613  12.393   1.849   4.385
59863SOL     OW79614  12.204   0.549   3.740
59863SOL    HW179615  12.163   0.631   3.701
59863SOL    HW279616  12.268   0.575   3.813
59864SOL     OW79617  11.250   0.556   5.110
59864SOL    HW179618  11.342   0.555   5.069
59864SOL    HW279619  11.244   0.630   5.177
59865SOL     OW79620  11.733   0.222   4.871
59865SOL    HW179621  11.771   0.138   4.908
59865SOL    HW279622  11.645   0.241   4.915
59866SOL     OW79623  12.038   0.454   4.366
59866SOL    HW179624  12.006   0.526   4.304
59866SOL    HW279625  12.062   0.373   4.313
59867SOL     OW79626  12.189   0.039   4.477
59867SOL    HW179627  12.117   0.044   4.408
59867SOL    HW279628  12.165  -0.030   4.546
59868SOL     OW79629  12.601   1.173   4.591
59868SOL    HW179630  12.546   1.089   4.584
59868SOL    HW279631  12.627   1.202   4.499
59869SOL     OW79632  11.660   1.385   3.898
59869SOL    HW179633  11.573   1.370   3.945
59869SOL    HW279634  11.643   1.411   3.803
59870SOL     OW79635  12.562   0.575   3.802
59870SOL    HW179636  12.508   0.554   3.883
59870SOL    HW279637  12.653   0.534   3.811
59871SOL     OW79638  11.699   0.256   4.052
59871SOL    HW179639  11.726   0.197   3.977
59871SOL    HW279640  11.699   0.351   4.021
59872SOL     OW79641  12.236   1.347   5.064
59872SOL    HW179642  12.156   1.324   5.119
59872SOL    HW279643  12.319   1.321   5.113
59873SOL     OW79644  12.764   1.629   5.349
59873SOL    HW179645  12.791   1.663   5.259
59873SOL    HW279646  12.843   1.591   5.395
59874SOL     OW79647  12.283   1.195   4.824
59874SOL    HW179648  12.243   1.239   4.905
59874SOL    HW279649  12.242   1.232   4.741
59875SOL     OW79650  12.087   0.089   5.126
59875SOL    HW179651  12.112   0.069   5.031
59875SOL    HW279652  12.159   0.145   5.168
59876SOL     OW79653  12.152   1.116   5.443
59876SOL    HW179654  12.053   1.122   5.453
59876SOL    HW279655  12.175   1.036   5.387
59877SOL     OW79656  11.877   1.050   4.092
59877SOL    HW179657  11.863   1.057   4.191
59877SOL    HW279658  11.961   0.999   4.074
59878SOL     OW79659  11.582   0.813   4.975
59878SOL    HW179660  11.668   0.825   5.025
59878SOL    HW279661  11.540   0.726   5.002
59879SOL     OW79662  12.446   0.386   4.986
59879SOL    HW179663  12.467   0.460   5.050
59879SOL    HW279664  12.357   0.403   4.943
59880SOL     OW79665  11.236   1.564   5.055
59880SOL    HW179666  11.190   1.646   5.021
59880SOL    HW279667  11.334   1.583   5.064
59881SOL     OW79668  11.539   1.100   4.225
59881SOL    HW179669  11.532   1.183   4.169
59881SOL    HW279670  11.543   1.020   4.165
59882SOL     OW79671  11.738   0.537   4.589
59882SOL    HW179672  11.750   0.603   4.515
59882SOL    HW279673  11.784   0.571   4.672
59883SOL     OW79674  12.424   1.348   4.112
59883SOL    HW179675  12.474   1.425   4.152
59883SOL    HW279676  12.329   1.350   4.144
59884SOL     OW79677  12.444   1.445   4.866
59884SOL    HW179678  12.491   1.458   4.953
59884SOL    HW279679  12.378   1.371   4.875
59885SOL     OW79680  11.526   1.510   5.053
59885SOL    HW179681  11.505   1.466   4.966
59885SOL    HW279682  11.623   1.536   5.056
59886SOL     OW79683  11.574   0.751   5.322
59886SOL    HW179684  11.642   0.806   5.275
59886SOL    HW279685  11.614   0.663   5.349
59887SOL     OW79686  12.185   0.105   5.494
59887SOL    HW179687  12.191   0.190   5.442
59887SOL    HW279688  12.217   0.029   5.437
59888SOL     OW79689  11.676   0.050   5.464
59888SOL    HW179690  11.634  -0.007   5.394
59888SOL    HW279691  11.610   0.119   5.496
59889SOL     OW79692  11.745   0.870   4.753
59889SOL    HW179693  11.789   0.959   4.744
59889SOL    HW279694  11.682   0.870   4.830
59890SOL     OW79695  12.532   0.862   4.769
59890SOL    HW179696  12.457   0.862   4.703
59890SOL    HW279697  12.569   0.770   4.778
59891SOL     OW79698  12.381   0.525   3.999
59891SOL    HW179699  12.394   0.441   4.053
59891SOL    HW279700  12.352   0.599   4.059
59892SOL     OW79701  11.479   0.213   4.955
59892SOL    HW179702  11.456   0.250   5.045
59892SOL    HW279703  11.449   0.118   4.949
59893SOL     OW79704  11.209   1.310   5.006
59893SOL    HW179705  11.262   1.261   5.074
59893SOL    HW279706  11.231   1.408   5.011
59894SOL     OW79707  11.904   0.634   4.788
59894SOL    HW179708  11.963   0.608   4.712
59894SOL    HW279709  11.876   0.730   4.777
59895SOL     OW79710  11.479   0.063   4.342
59895SOL    HW179711  11.468   0.157   4.375
59895SOL    HW279712  11.474   0.000   4.419
59896SOL     OW79713  12.794   0.367   4.098
59896SOL    HW179714  12.796   0.291   4.162
59896SOL    HW279715  12.746   0.444   4.138
59897SOL     OW79716  12.195   0.766   4.690
59897SOL    HW179717  12.210   0.787   4.786
59897SOL    HW279718  12.165   0.671   4.681
59898SOL     OW79719  12.152   1.573   5.424
59898SOL    HW179720  12.132   1.617   5.336
59898SOL    HW279721  12.191   1.482   5.408
59899SOL     OW79722  11.522   0.898   5.528
59899SOL    HW179723  11.598   0.942   5.576
59899SOL    HW279724  11.557   0.851   5.446
59900SOL     OW79725  12.475   0.838   3.766
59900SOL    HW179726  12.509   0.745   3.781
59900SOL    HW279727  12.493   0.865   3.671
59901SOL     OW79728  12.240   1.333   4.573
59901SOL    HW179729  12.247   1.249   4.518
59901SOL    HW279730  12.302   1.402   4.537
59902SOL     OW79731  11.491   0.810   4.673
59902SOL    HW179732  11.584   0.846   4.678
59902SOL    HW279733  11.485   0.725   4.725
59903SOL     OW79734  11.511   0.509   4.730
59903SOL    HW179735  11.459   0.426   4.713
59903SOL    HW279736  11.588   0.514   4.666
59904SOL     OW79737  12.310   0.380   5.402
59904SOL    HW179738  12.265   0.443   5.466
59904SOL    HW279739  12.403   0.411   5.385
59905SOL     OW79740  12.332   0.207   5.201
59905SOL    HW179741  12.332   0.271   5.278
59905SOL    HW279742  12.360   0.255   5.118
59906SOL     OW79743  11.180   1.326   3.924
59906SOL    HW179744  11.087   1.347   3.893
59906SOL    HW279745  11.190   1.227   3.937
59907SOL     OW79746  11.260   1.801   4.651
59907SOL    HW179747  11.218   1.715   4.624
59907SOL    HW279748  11.354   1.804   4.617
59908SOL     OW79749  11.676   1.568   4.634
59908SOL    HW179750  11.742   1.642   4.643
59908SOL    HW279751  11.720   1.489   4.592
59909SOL     OW79752  12.174   0.796   4.962
59909SOL    HW179753  12.215   0.764   5.048
59909SOL    HW279754  12.078   0.769   4.959
59910SOL     OW79755  11.212   0.544   4.838
59910SOL    HW179756  11.297   0.511   4.797
59910SOL    HW279757  11.225   0.559   4.936
59911SOL     OW79758  11.361   0.520   5.446
59911SOL    HW179759  11.420   0.480   5.376
59911SOL    HW279760  11.303   0.591   5.405
59912SOL     OW79761  12.541   0.950   5.384
59912SOL    HW179762  12.580   1.039   5.404
59912SOL    HW279763  12.551   0.930   5.287
59913SOL     OW79764  11.987   0.572   4.049
59913SOL    HW179765  11.994   0.483   4.003
59913SOL    HW279766  11.893   0.606   4.041
59914SOL     OW79767  11.424   1.564   5.468
59914SOL    HW179768  11.394   1.621   5.544
59914SOL    HW279769  11.417   1.467   5.494
59915SOL     OW79770  11.843   0.464   4.993
59915SOL    HW179771  11.809   0.375   4.963
59915SOL    HW279772  11.869   0.518   4.913
59916SOL     OW79773  12.102   1.678   5.189
59916SOL    HW179774  12.078   1.660   5.094
59916SOL    HW279775  12.132   1.772   5.199
59917SOL     OW79776  11.645   0.500   3.915
59917SOL    HW179777  11.706   0.580   3.919
59917SOL    HW279778  11.550   0.531   3.922
59918SOL     OW79779  11.331   1.137   5.190
59918SOL    HW179780  11.353   1.076   5.266
59918SOL    HW279781  11.341   1.088   5.104
59919SOL     OW79782  12.519   1.059   4.958
59919SOL    HW179783  12.543   0.996   4.884
59919SOL    HW279784  12.429   1.099   4.940
59920SOL     OW79785  12.474   0.855   4.033
59920SOL    HW179786  12.388   0.824   4.075
59920SOL    HW279787  12.470   0.841   3.934
59921SOL     OW79788  12.424   1.731   4.852
59921SOL    HW179789  12.508   1.736   4.798
59921SOL    HW279790  12.401   1.635   4.870
59922SOL     OW79791  11.255   1.258   4.746
59922SOL    HW179792  11.250   1.257   4.846
59922SOL    HW279793  11.172   1.217   4.708
59923SOL     OW79794  11.860   1.662   5.440
59923SOL    HW179795  11.804   1.743   5.449
59923SOL    HW279796  11.912   1.666   5.354
59924SOL     OW79797  12.560   1.573   4.201
59924SOL    HW179798  12.627   1.585   4.127
59924SOL    HW279799  12.520   1.662   4.224
59925SOL     OW79800  11.302   1.794   5.575
59925SOL    HW179801  11.261   1.720   5.628
59925SOL    HW279802  11.366   1.845   5.633
59926SOL     OW79803  12.452   0.927   4.396
59926SOL    HW179804  12.512   0.846   4.398
59926SOL    HW279805  12.492   0.996   4.336
59927SOL     OW79806  12.002   1.273   5.146
59927SOL    HW179807  11.997   1.306   5.241
59927SOL    HW279808  11.916   1.292   5.100
59928SOL     OW79809  11.844   1.616   3.878
59928SOL    HW179810  11.853   1.626   3.779
59928SOL    HW279811  11.804   1.527   3.899
59929SOL     OW79812  11.435   0.326   4.444
59929SOL    HW179813  11.356   0.377   4.410
59929SOL    HW279814  11.426   0.311   4.542
59930SOL     OW79815  12.366   1.612   3.755
59930SOL    HW179816  12.372   1.519   3.792
59930SOL    HW279817  12.307   1.612   3.675
59931SOL     OW79818  11.994   1.002   5.096
59931SOL    HW179819  12.034   1.001   5.004
59931SOL    HW279820  12.004   1.094   5.136
59932SOL     OW79821  12.088   0.910   4.015
59932SOL    HW179822  12.151   0.948   3.947
59932SOL    HW279823  12.128   0.827   4.054
59933SOL     OW79824  11.544   1.288   5.214
59933SOL    HW179825  11.531   1.381   5.180
59933SOL    HW279826  11.460   1.236   5.201
59934SOL     OW79827  12.211   1.098   4.420
59934SOL    HW179828  12.141   1.051   4.474
59934SOL    HW279829  12.270   1.030   4.377
59935SOL     OW79830  12.186   0.236   4.695
59935SOL    HW179831  12.178   0.200   4.602
59935SOL    HW279832  12.184   0.160   4.760
59936SOL     OW79833  11.762   1.487   4.215
59936SOL    HW179834  11.804   1.429   4.145
59936SOL    HW279835  11.718   1.566   4.171
59937SOL     OW79836  11.427   1.348   4.014
59937SOL    HW179837  11.331   1.349   3.987
59937SOL    HW279838  11.439   1.401   4.098
59938SOL     OW79839  11.277   1.013   5.450
59938SOL    HW179840  11.200   0.980   5.504
59938SOL    HW279841  11.362   0.983   5.492
59939SOL     OW79842  11.844   0.203   5.213
59939SOL    HW179843  11.934   0.187   5.173
59939SOL    HW279844  11.852   0.208   5.312
59940SOL     OW79845  11.247   0.345   3.757
59940SOL    HW179846  11.155   0.317   3.728
59940SOL    HW279847  11.278   0.422   3.701
59941SOL     OW79848  12.612   0.856   5.122
59941SOL    HW179849  12.555   0.908   5.059
59941SOL    HW279850  12.708   0.868   5.098
59942SOL     OW79851  11.244   0.166   4.042
59942SOL    HW179852  11.227   0.249   3.988
59942SOL    HW279853  11.334   0.129   4.020
59943SOL     OW79854  12.355   1.335   3.843
59943SOL    HW179855  12.256   1.324   3.845
59943SOL    HW279856  12.389   1.350   3.936
59944SOL     OW79857  11.785   0.842   5.155
59944SOL    HW179858  11.841   0.923   5.138
59944SOL    HW279859  11.844   0.762   5.158
59945SOL     OW79860  11.888   0.565   5.432
59945SOL    HW179861  11.907   0.630   5.506
59945SOL    HW279862  11.948   0.485   5.441
59946SOL     OW79863  12.622   1.220   5.357
59946SOL    HW179864  12.613   1.210   5.456
59946SOL    HW279865  12.718   1.213   5.331
59947SOL     OW79866  11.562   1.741   5.284
59947SOL    HW179867  11.471   1.782   5.282
59947SOL    HW279868  11.555   1.647   5.316
59948SOL     OW79869  12.397   0.325   4.173
59948SOL    HW179870  12.462   0.251   4.162
59948SOL    HW279871  12.417   0.375   4.257
59949SOL     OW79872  11.766   0.745   4.376
59949SOL    HW179873  11.816   0.830   4.357
59949SOL    HW279874  11.678   0.747   4.328
59950SOL     OW79875  12.031   1.374   3.740
59950SOL    HW179876  11.985   1.389   3.828
59950SOL    HW279877  12.075   1.459   3.710
59951SOL     OW79878  11.833   1.790   4.677
59951SOL    HW179879  11.787   1.878   4.664
59951SOL    HW279880  11.932   1.802   4.670
59952SOL     OW79881  12.031   0.956   4.585
59952SOL    HW179882  12.085   0.887   4.633
59952SOL    HW279883  11.999   1.025   4.651
59953SOL     OW79884  12.255   0.984   3.811
59953SOL    HW179885  12.232   1.037   3.729
59953SOL    HW279886  12.336   0.928   3.792
59954SOL     OW79887  11.393   1.314   5.568
59954SOL    HW179888  11.328   1.241   5.547
59954SOL    HW279889  11.397   1.328   5.666
59955SOL     OW79890  11.251   1.240   4.377
59955SOL    HW179891  11.250   1.193   4.465
59955SOL    HW279892  11.333   1.212   4.326
59956SOL     OW79893  11.844   1.391   5.348
59956SOL    HW179894  11.766   1.341   5.386
59956SOL    HW279895  11.841   1.486   5.379
59957SOL     OW79896  11.600   0.424   4.244
59957SOL    HW179897  11.630   0.352   4.182
59957SOL    HW279898  11.561   0.384   4.327
59958SOL     OW79899  12.877   1.487   4.828
59958SOL    HW179900  12.784   1.462   4.801
59958SOL    HW279901  12.903   1.437   4.910
59959SOL     OW79902  11.489   0.547   5.004
59959SOL    HW179903  11.527   0.488   5.076
59959SOL    HW279904  11.529   0.521   4.916
59960SOL     OW79905  11.984   1.586   4.411
59960SOL    HW179906  12.016   1.596   4.317
59960SOL    HW279907  11.905   1.524   4.413
59961SOL     OW79908  12.596   0.214   4.836
59961SOL    HW179909  12.648   0.149   4.891
59961SOL    HW279910  12.547   0.277   4.897
59962SOL     OW79911  12.173   0.034   4.878
59962SOL    HW179912  12.110  -0.038   4.847
59962SOL    HW279913  12.266  -0.002   4.878
59963SOL     OW79914  11.942   1.330   4.025
59963SOL    HW179915  11.896   1.243   4.042
59963SOL    HW279916  12.033   1.327   4.066
59964SOL     OW79917  11.790   1.567   5.008
59964SOL    HW179918  11.785   1.649   5.065
59964SOL    HW279919  11.879   1.564   4.963
59965SOL     OW79920  12.524   0.052   3.892
59965SOL    HW179921  12.559   0.011   3.808
59965SOL    HW279922  12.434   0.014   3.912
59966SOL     OW79923  12.472   0.453   4.415
59966SOL    HW179924  12.413   0.533   4.419
59966SOL    HW279925  12.487   0.418   4.508
59967SOL     OW79926  11.211   1.077   4.024
59967SOL    HW179927  11.310   1.066   4.015
59967SOL    HW279928  11.171   0.991   4.056
59968SOL     OW79929  12.047   1.646   4.061
59968SOL    HW179930  11.970   1.611   4.007
59968SOL    HW279931  12.015   1.717   4.123
59969SOL     OW79932  11.402   0.628   5.699
59969SOL    HW179933  11.309   0.626   5.736
59969SOL    HW279934  11.403   0.589   5.607
59970SOL     OW79935  11.397   0.275   6.582
59970SOL    HW179936  11.432   0.258   6.674
59970SOL    HW279937  11.309   0.230   6.570
59971SOL     OW79938  11.191   0.368   6.233
59971SOL    HW179939  11.109   0.411   6.272
59971SOL    HW279940  11.163   0.295   6.170
59972SOL     OW79941  11.741   1.275   6.751
59972SOL    HW179942  11.648   1.268   6.714
59972SOL    HW279943  11.752   1.364   6.795
59973SOL     OW79944  12.727   1.511   6.289
59973SOL    HW179945  12.670   1.495   6.370
59973SOL    HW279946  12.668   1.521   6.209
59974SOL     OW79947  12.307   0.703   6.303
59974SOL    HW179948  12.364   0.781   6.278
59974SOL    HW279949  12.247   0.729   6.379
59975SOL     OW79950  11.940   1.144   6.609
59975SOL    HW179951  11.862   1.161   6.669
59975SOL    HW279952  11.974   1.231   6.573
59976SOL     OW79953  12.022   0.798   7.409
59976SOL    HW179954  12.018   0.874   7.474
59976SOL    HW279955  12.044   0.834   7.318
59977SOL     OW79956  11.857   1.012   6.251
59977SOL    HW179957  11.926   0.996   6.321
59977SOL    HW279958  11.784   1.069   6.289
59978SOL     OW79959  11.858   1.161   7.389
59978SOL    HW179960  11.918   1.240   7.403
59978SOL    HW279961  11.772   1.192   7.348
59979SOL     OW79962  11.507   1.435   6.647
59979SOL    HW179963  11.429   1.404   6.594
59979SOL    HW279964  11.565   1.493   6.590
59980SOL     OW79965  11.610   0.392   7.085
59980SOL    HW179966  11.692   0.336   7.094
59980SOL    HW279967  11.529   0.334   7.089
59981SOL     OW79968  11.403   1.713   6.069
59981SOL    HW179969  11.437   1.790   6.123
59981SOL    HW279970  11.447   1.713   5.979
59982SOL     OW79971  12.299   1.341   7.276
59982SOL    HW179972  12.346   1.341   7.364
59982SOL    HW279973  12.251   1.254   7.265
59983SOL     OW79974  11.402   1.434   6.124
59983SOL    HW179975  11.376   1.530   6.124
59983SOL    HW279976  11.331   1.380   6.169
59984SOL     OW79977  11.412   1.091   6.472
59984SOL    HW179978  11.426   1.007   6.524
59984SOL    HW279979  11.357   1.155   6.527
59985SOL     OW79980  11.792   1.786   7.025
59985SOL    HW179981  11.700   1.769   7.060
59985SOL    HW279982  11.820   1.878   7.051
59986SOL     OW79983  11.778   0.964   5.709
59986SOL    HW179984  11.785   1.048   5.655
59986SOL    HW279985  11.824   0.977   5.797
59987SOL     OW79986  12.766   0.114   7.066
59987SOL    HW179987  12.748   0.181   6.994
59987SOL    HW279988  12.763   0.160   7.155
59988SOL     OW79989  11.294   0.643   6.149
59988SOL    HW179990  11.249   0.555   6.166
59988SOL    HW279991  11.293   0.697   6.233
59989SOL     OW79992  11.199   1.596   5.703
59989SOL    HW179993  11.180   1.500   5.724
59989SOL    HW279994  11.166   1.654   5.778
59990SOL     OW79995  12.861   0.922   6.198
59990SOL    HW179996  12.956   0.893   6.206
59990SOL    HW279997  12.853   0.987   6.123
59991SOL     OW79998  11.285   0.737   7.183
59991SOL    HW179999  11.373   0.724   7.228
59991SOL    HW280000  11.272   0.834   7.161
59992SOL     OW80001  11.785   1.365   6.312
59992SOL    HW180002  11.736   1.278   6.321
59992SOL    HW280003  11.762   1.408   6.225
59993SOL     OW80004  12.465   1.228   7.009
59993SOL    HW180005  12.502   1.155   6.951
59993SOL    HW280006  12.517   1.233   7.094
59994SOL     OW80007  11.981   0.004   6.088
59994SOL    HW180008  12.021   0.095   6.079
59994SOL    HW280009  11.881   0.012   6.094
59995SOL     OW80010  11.369   0.976   6.850
59995SOL    HW180011  11.458   0.931   6.836
59995SOL    HW280012  11.296   0.911   6.831
59996SOL     OW80013  12.359   1.792   7.202
59996SOL    HW180014  12.383   1.852   7.126
59996SOL    HW280015  12.366   1.697   7.172
59997SOL     OW80016  11.489   0.251   7.387
59997SOL    HW180017  11.560   0.322   7.393
59997SOL    HW280018  11.401   0.290   7.415
59998SOL     OW80019  12.638   1.417   6.539
59998SOL    HW180020  12.579   1.423   6.619
59998SOL    HW280021  12.623   1.329   6.493
59999SOL     OW80022  11.770   0.729   5.856
59999SOL    HW180023  11.794   0.798   5.788
59999SOL    HW280024  11.692   0.762   5.910
60000SOL     OW80025  12.453   0.345   6.530
60000SOL    HW180026  12.367   0.295   6.517
60000SOL    HW280027  12.515   0.291   6.586
60001SOL     OW80028  11.979   0.605   7.051
60001SOL    HW180029  11.932   0.602   7.140
60001SOL    HW280030  11.928   0.550   6.985
60002SOL     OW80031  12.566   0.469   7.260
60002SOL    HW180032  12.546   0.512   7.348
60002SOL    HW280033  12.644   0.407   7.269
60003SOL     OW80034  12.145   0.890   7.158
60003SOL    HW180035  12.191   0.806   7.129
60003SOL    HW280036  12.089   0.924   7.083
60004SOL     OW80037  12.163   0.410   6.828
60004SOL    HW180038  12.086   0.444   6.882
60004SOL    HW280039  12.129   0.359   6.749
60005SOL     OW80040  12.213   0.701   6.015
60005SOL    HW180041  12.239   0.697   6.111
60005SOL    HW280042  12.128   0.650   6.001
60006SOL     OW80043  11.248   0.811   6.375
60006SOL    HW180044  11.347   0.799   6.384
60006SOL    HW280045  11.224   0.906   6.396
60007SOL     OW80046  11.302   1.821   7.157
60007SOL    HW180047  11.292   1.806   7.256
60007SOL    HW280048  11.216   1.857   7.121
60008SOL     OW80049  12.037   0.348   5.781
60008SOL    HW180050  12.096   0.411   5.732
60008SOL    HW280051  12.056   0.254   5.752
60009SOL     OW80052  12.534   1.144   6.131
60009SOL    HW180053  12.617   1.115   6.083
60009SOL    HW280054  12.485   1.211   6.075
60010SOL     OW80055  11.722   0.196   6.471
60010SOL    HW180056  11.717   0.191   6.571
60010SOL    HW280057  11.724   0.292   6.442
60011SOL     OW80058  12.180   1.456   6.063
60011SOL    HW180059  12.134   1.528   6.011
60011SOL    HW280060  12.176   1.476   6.161
60012SOL     OW80061  11.523   1.801   6.439
60012SOL    HW180062  11.573   1.715   6.445
60012SOL    HW280063  11.588   1.878   6.436
60013SOL     OW80064  12.399   1.550   7.092
60013SOL    HW180065  12.405   1.473   7.156
60013SOL    HW280066  12.347   1.524   7.012
60014SOL     OW80067  11.493   0.943   5.828
60014SOL    HW180068  11.575   0.982   5.786
60014SOL    HW280069  11.466   0.861   5.779
60015SOL     OW80070  11.633   1.266   7.313
60015SOL    HW180071  11.583   1.267   7.227
60015SOL    HW280072  11.570   1.248   7.389
60016SOL     OW80073  12.283   1.776   5.823
60016SOL    HW180074  12.223   1.714   5.873
60016SOL    HW280075  12.314   1.732   5.738
60017SOL     OW80076  11.374   0.285   7.084
60017SOL    HW180077  11.294   0.345   7.071
60017SOL    HW280078  11.364   0.236   7.170
60018SOL     OW80079  11.636   1.743   5.909
60018SOL    HW180080  11.669   1.782   5.995
60018SOL    HW280081  11.712   1.736   5.844
60019SOL     OW80082  12.572   0.107   6.012
60019SOL    HW180083  12.548   0.070   5.922
60019SOL    HW280084  12.671   0.123   6.016
60020SOL     OW80085  11.421   1.785   6.827
60020SOL    HW180086  11.478   1.720   6.877
60020SOL    HW280087  11.405   1.752   6.734
60021SOL     OW80088  12.112   1.698   6.490
60021SOL    HW180089  12.192   1.641   6.511
60021SOL    HW280090  12.063   1.658   6.413
60022SOL     OW80091  11.554   0.700   6.066
60022SOL    HW180092  11.599   0.610   6.063
60022SOL    HW280093  11.460   0.689   6.099
60023SOL     OW80094  11.786   0.122   5.703
60023SOL    HW180095  11.884   0.100   5.710
60023SOL    HW280096  11.755   0.105   5.610
60024SOL     OW80097  11.953   0.264   7.335
60024SOL    HW180098  12.020   0.203   7.378
60024SOL    HW280099  11.880   0.283   7.400
60025SOL     OW80100  12.060   1.514   6.781
60025SOL    HW180101  12.037   1.489   6.687
60025SOL    HW280102  12.121   1.445   6.820
60026SOL     OW80103  12.523   0.590   7.019
60026SOL    HW180104  12.551   0.547   7.104
60026SOL    HW280105  12.548   0.686   7.020
60027SOL     OW80106  11.975   1.402   6.510
60027SOL    HW180107  12.065   1.416   6.468
60027SOL    HW280108  11.904   1.404   6.439
60028SOL     OW80109  12.094   0.503   6.485
60028SOL    HW180110  12.069   0.494   6.389
60028SOL    HW280111  12.142   0.421   6.516
60029SOL     OW80112  11.711   0.064   6.098
60029SOL    HW180113  11.630   0.065   6.156
60029SOL    HW280114  11.714   0.147   6.043
60030SOL     OW80115  12.606   1.188   5.627
60030SOL    HW180116  12.638   1.112   5.684
60030SOL    HW280117  12.514   1.215   5.657
60031SOL     OW80118  11.469   0.035   5.757
60031SOL    HW180119  11.518   0.119   5.736
60031SOL    HW280120  11.531  -0.030   5.802
60032SOL     OW80121  12.107   0.236   6.066
60032SOL    HW180122  12.059   0.277   5.988
60032SOL    HW280123  12.206   0.234   6.047
60033SOL     OW80124  12.248   0.683   7.050
60033SOL    HW180125  12.168   0.622   7.053
60033SOL    HW280126  12.329   0.630   7.026
60034SOL     OW80127  12.399   1.570   6.379
60034SOL    HW180128  12.420   1.644   6.314
60034SOL    HW280129  12.467   1.570   6.452
60035SOL     OW80130  11.631   1.152   6.327
60035SOL    HW180131  11.560   1.125   6.392
60035SOL    HW280132  11.605   1.124   6.234
60036SOL     OW80133  12.443   1.797   6.177
60036SOL    HW180134  12.487   1.861   6.113
60036SOL    HW280135  12.393   1.849   6.247
60037SOL     OW80136  12.204   0.549   5.602
60037SOL    HW180137  12.163   0.631   5.563
60037SOL    HW280138  12.268   0.575   5.675
60038SOL     OW80139  11.250   0.556   6.972
60038SOL    HW180140  11.342   0.555   6.931
60038SOL    HW280141  11.244   0.630   7.039
60039SOL     OW80142  11.733   0.222   6.733
60039SOL    HW180143  11.771   0.138   6.770
60039SOL    HW280144  11.645   0.241   6.777
60040SOL     OW80145  12.038   0.454   6.228
60040SOL    HW180146  12.006   0.526   6.166
60040SOL    HW280147  12.062   0.373   6.175
60041SOL     OW80148  12.189   0.039   6.339
60041SOL    HW180149  12.117   0.044   6.270
60041SOL    HW280150  12.165  -0.030   6.408
60042SOL     OW80151  12.601   1.173   6.453
60042SOL    HW180152  12.546   1.089   6.446
60042SOL    HW280153  12.627   1.202   6.361
60043SOL     OW80154  11.660   1.385   5.760
60043SOL    HW180155  11.573   1.370   5.807
60043SOL    HW280156  11.643   1.411   5.665
60044SOL     OW80157  12.562   0.575   5.664
60044SOL    HW180158  12.508   0.554   5.745
60044SOL    HW280159  12.653   0.534   5.673
60045SOL     OW80160  11.699   0.256   5.914
60045SOL    HW180161  11.726   0.197   5.839
60045SOL    HW280162  11.699   0.351   5.883
60046SOL     OW80163  12.236   1.347   6.926
60046SOL    HW180164  12.156   1.324   6.981
60046SOL    HW280165  12.319   1.321   6.975
60047SOL     OW80166  12.764   1.629   7.211
60047SOL    HW180167  12.791   1.663   7.121
60047SOL    HW280168  12.843   1.591   7.257
60048SOL     OW80169  12.283   1.195   6.686
60048SOL    HW180170  12.243   1.239   6.767
60048SOL    HW280171  12.242   1.232   6.603
60049SOL     OW80172  12.087   0.089   6.988
60049SOL    HW180173  12.112   0.069   6.893
60049SOL    HW280174  12.159   0.145   7.030
60050SOL     OW80175  12.152   1.116   7.305
60050SOL    HW180176  12.053   1.122   7.315
60050SOL    HW280177  12.175   1.036   7.249
60051SOL     OW80178  11.877   1.050   5.954
60051SOL    HW180179  11.863   1.057   6.053
60051SOL    HW280180  11.961   0.999   5.936
60052SOL     OW80181  11.582   0.813   6.837
60052SOL    HW180182  11.668   0.825   6.887
60052SOL    HW280183  11.540   0.726   6.864
60053SOL     OW80184  12.446   0.386   6.848
60053SOL    HW180185  12.467   0.460   6.912
60053SOL    HW280186  12.357   0.403   6.805
60054SOL     OW80187  11.236   1.564   6.917
60054SOL    HW180188  11.190   1.646   6.883
60054SOL    HW280189  11.334   1.583   6.926
60055SOL     OW80190  11.539   1.100   6.087
60055SOL    HW180191  11.532   1.183   6.031
60055SOL    HW280192  11.543   1.020   6.027
60056SOL     OW80193  11.738   0.537   6.451
60056SOL    HW180194  11.750   0.603   6.377
60056SOL    HW280195  11.784   0.571   6.534
60057SOL     OW80196  12.424   1.348   5.974
60057SOL    HW180197  12.474   1.425   6.014
60057SOL    HW280198  12.329   1.350   6.006
60058SOL     OW80199  12.444   1.445   6.728
60058SOL    HW180200  12.491   1.458   6.815
60058SOL    HW280201  12.378   1.371   6.737
60059SOL     OW80202  11.526   1.510   6.915
60059SOL    HW180203  11.505   1.466   6.828
60059SOL    HW280204  11.623   1.536   6.918
60060SOL     OW80205  11.574   0.751   7.184
60060SOL    HW180206  11.642   0.806   7.137
60060SOL    HW280207  11.614   0.663   7.211
60061SOL     OW80208  12.185   0.105   7.356
60061SOL    HW180209  12.191   0.190   7.304
60061SOL    HW280210  12.217   0.029   7.299
60062SOL     OW80211  11.676   0.050   7.326
60062SOL    HW180212  11.634  -0.007   7.256
60062SOL    HW280213  11.610   0.119   7.358
60063SOL     OW80214  11.745   0.870   6.615
60063SOL    HW180215  11.789   0.959   6.606
60063SOL    HW280216  11.682   0.870   6.692
60064SOL     OW80217  12.532   0.862   6.631
60064SOL    HW180218  12.457   0.862   6.565
60064SOL    HW280219  12.569   0.770   6.640
60065SOL     OW80220  12.381   0.525   5.861
60065SOL    HW180221  12.394   0.441   5.915
60065SOL    HW280222  12.352   0.599   5.921
60066SOL     OW80223  11.479   0.213   6.817
60066SOL    HW180224  11.456   0.250   6.907
60066SOL    HW280225  11.449   0.118   6.811
60067SOL     OW80226  11.209   1.310   6.868
60067SOL    HW180227  11.262   1.261   6.936
60067SOL    HW280228  11.231   1.408   6.873
60068SOL     OW80229  11.904   0.634   6.650
60068SOL    HW180230  11.963   0.608   6.574
60068SOL    HW280231  11.876   0.730   6.639
60069SOL     OW80232  11.479   0.063   6.204
60069SOL    HW180233  11.468   0.157   6.237
60069SOL    HW280234  11.474   0.000   6.281
60070SOL     OW80235  12.794   0.367   5.960
60070SOL    HW180236  12.796   0.291   6.024
60070SOL    HW280237  12.746   0.444   6.000
60071SOL     OW80238  12.195   0.766   6.552
60071SOL    HW180239  12.210   0.787   6.648
60071SOL    HW280240  12.165   0.671   6.543
60072SOL     OW80241  12.152   1.573   7.286
60072SOL    HW180242  12.132   1.617   7.198
60072SOL    HW280243  12.191   1.482   7.270
60073SOL     OW80244  11.522   0.898   7.390
60073SOL    HW180245  11.598   0.942   7.438
60073SOL    HW280246  11.557   0.851   7.308
60074SOL     OW80247  12.475   0.838   5.628
60074SOL    HW180248  12.509   0.745   5.643
60074SOL    HW280249  12.493   0.865   5.533
60075SOL     OW80250  12.240   1.333   6.435
60075SOL    HW180251  12.247   1.249   6.380
60075SOL    HW280252  12.302   1.402   6.399
60076SOL     OW80253  11.491   0.810   6.535
60076SOL    HW180254  11.584   0.846   6.540
60076SOL    HW280255  11.485   0.725   6.587
60077SOL     OW80256  11.511   0.509   6.592
60077SOL    HW180257  11.459   0.426   6.575
60077SOL    HW280258  11.588   0.514   6.528
60078SOL     OW80259  12.310   0.380   7.264
60078SOL    HW180260  12.265   0.443   7.328
60078SOL    HW280261  12.403   0.411   7.247
60079SOL     OW80262  12.332   0.207   7.063
60079SOL    HW180263  12.332   0.271   7.140
60079SOL    HW280264  12.360   0.255   6.980
60080SOL     OW80265  11.180   1.326   5.786
60080SOL    HW180266  11.087   1.347   5.755
60080SOL    HW280267  11.190   1.227   5.799
60081SOL     OW80268  11.260   1.801   6.513
60081SOL    HW180269  11.218   1.715   6.486
60081SOL    HW280270  11.354   1.804   6.479
60082SOL     OW80271  11.676   1.568   6.496
60082SOL    HW180272  11.742   1.642   6.505
60082SOL    HW280273  11.720   1.489   6.454
60083SOL     OW80274  12.174   0.796   6.824
60083SOL    HW180275  12.215   0.764   6.910
60083SOL    HW280276  12.078   0.769   6.821
60084SOL     OW80277  11.212   0.544   6.700
60084SOL    HW180278  11.297   0.511   6.659
60084SOL    HW280279  11.225   0.559   6.798
60085SOL     OW80280  11.361   0.520   7.308
60085SOL    HW180281  11.420   0.480   7.238
60085SOL    HW280282  11.303   0.591   7.267
60086SOL     OW80283  12.541   0.950   7.246
60086SOL    HW180284  12.580   1.039   7.266
60086SOL    HW280285  12.551   0.930   7.149
60087SOL     OW80286  11.987   0.572   5.911
60087SOL    HW180287  11.994   0.483   5.865
60087SOL    HW280288  11.893   0.606   5.903
60088SOL     OW80289  11.424   1.564   7.330
60088SOL    HW180290  11.394   1.621   7.406
60088SOL    HW280291  11.417   1.467   7.356
60089SOL     OW80292  11.843   0.464   6.855
60089SOL    HW180293  11.809   0.375   6.825
60089SOL    HW280294  11.869   0.518   6.775
60090SOL     OW80295  12.102   1.678   7.051
60090SOL    HW180296  12.078   1.660   6.956
60090SOL    HW280297  12.132   1.772   7.061
60091SOL     OW80298  11.645   0.500   5.777
60091SOL    HW180299  11.706   0.580   5.781
60091SOL    HW280300  11.550   0.531   5.784
60092SOL     OW80301  11.331   1.137   7.052
60092SOL    HW180302  11.353   1.076   7.128
60092SOL    HW280303  11.341   1.088   6.966
60093SOL     OW80304  12.519   1.059   6.820
60093SOL    HW180305  12.543   0.996   6.746
60093SOL    HW280306  12.429   1.099   6.802
60094SOL     OW80307  12.474   0.855   5.895
60094SOL    HW180308  12.388   0.824   5.937
60094SOL    HW280309  12.470   0.841   5.796
60095SOL     OW80310  12.424   1.731   6.714
60095SOL    HW180311  12.508   1.736   6.660
60095SOL    HW280312  12.401   1.635   6.732
60096SOL     OW80313  11.255   1.258   6.608
60096SOL    HW180314  11.250   1.257   6.708
60096SOL    HW280315  11.172   1.217   6.570
60097SOL     OW80316  11.860   1.662   7.302
60097SOL    HW180317  11.804   1.743   7.311
60097SOL    HW280318  11.912   1.666   7.216
60098SOL     OW80319  12.560   1.573   6.063
60098SOL    HW180320  12.627   1.585   5.989
60098SOL    HW280321  12.520   1.662   6.086
60099SOL     OW80322  11.302   1.794   7.437
60099SOL    HW180323  11.261   1.720   7.490
60099SOL    HW280324  11.366   1.845   7.495
60100SOL     OW80325  12.452   0.927   6.258
60100SOL    HW180326  12.512   0.846   6.260
60100SOL    HW280327  12.492   0.996   6.198
60101SOL     OW80328  12.002   1.273   7.008
60101SOL    HW180329  11.997   1.306   7.103
60101SOL    HW280330  11.916   1.292   6.962
60102SOL     OW80331  11.844   1.616   5.740
60102SOL    HW180332  11.853   1.626   5.641
60102SOL    HW280333  11.804   1.527   5.761
60103SOL     OW80334  11.435   0.326   6.306
60103SOL    HW180335  11.356   0.377   6.272
60103SOL    HW280336  11.426   0.311   6.404
60104SOL     OW80337  12.366   1.612   5.617
60104SOL    HW180338  12.372   1.519   5.654
60104SOL    HW280339  12.307   1.612   5.537
60105SOL     OW80340  11.994   1.002   6.958
60105SOL    HW180341  12.034   1.001   6.866
60105SOL    HW280342  12.004   1.094   6.998
60106SOL     OW80343  12.088   0.910   5.877
60106SOL    HW180344  12.151   0.948   5.809
60106SOL    HW280345  12.128   0.827   5.916
60107SOL     OW80346  11.544   1.288   7.076
60107SOL    HW180347  11.531   1.381   7.042
60107SOL    HW280348  11.460   1.236   7.063
60108SOL     OW80349  12.211   1.098   6.282
60108SOL    HW180350  12.141   1.051   6.336
60108SOL    HW280351  12.270   1.030   6.239
60109SOL     OW80352  12.186   0.236   6.557
60109SOL    HW180353  12.178   0.200   6.464
60109SOL    HW280354  12.184   0.160   6.622
60110SOL     OW80355  11.762   1.487   6.077
60110SOL    HW180356  11.804   1.429   6.007
60110SOL    HW280357  11.718   1.566   6.033
60111SOL     OW80358  11.427   1.348   5.876
60111SOL    HW180359  11.331   1.349   5.849
60111SOL    HW280360  11.439   1.401   5.960
60112SOL     OW80361  11.277   1.013   7.312
60112SOL    HW180362  11.200   0.980   7.366
60112SOL    HW280363  11.362   0.983   7.354
60113SOL     OW80364  11.844   0.203   7.075
60113SOL    HW180365  11.934   0.187   7.035
60113SOL    HW280366  11.852   0.208   7.174
60114SOL     OW80367  11.247   0.345   5.619
60114SOL    HW180368  11.155   0.317   5.590
60114SOL    HW280369  11.278   0.422   5.563
60115SOL     OW80370  12.612   0.856   6.984
60115SOL    HW180371  12.555   0.908   6.921
60115SOL    HW280372  12.708   0.868   6.960
60116SOL     OW80373  11.244   0.166   5.904
60116SOL    HW180374  11.227   0.249   5.850
60116SOL    HW280375  11.334   0.129   5.882
60117SOL     OW80376  12.355   1.335   5.705
60117SOL    HW180377  12.256   1.324   5.707
60117SOL    HW280378  12.389   1.350   5.798
60118SOL     OW80379  11.785   0.842   7.017
60118SOL    HW180380  11.841   0.923   7.000
60118SOL    HW280381  11.844   0.762   7.020
60119SOL     OW80382  11.888   0.565   7.294
60119SOL    HW180383  11.907   0.630   7.368
60119SOL    HW280384  11.948   0.485   7.303
60120SOL     OW80385  12.622   1.220   7.219
60120SOL    HW180386  12.613   1.210   7.318
60120SOL    HW280387  12.718   1.213   7.193
60121SOL     OW80388  11.562   1.741   7.146
60121SOL    HW180389  11.471   1.782   7.144
60121SOL    HW280390  11.555   1.647   7.178
60122SOL     OW80391  12.397   0.325   6.035
60122SOL    HW180392  12.462   0.251   6.024
60122SOL    HW280393  12.417   0.375   6.119
60123SOL     OW80394  11.766   0.745   6.238
60123SOL    HW180395  11.816   0.830   6.219
60123SOL    HW280396  11.678   0.747   6.190
60124SOL     OW80397  12.031   1.374   5.602
60124SOL    HW180398  11.985   1.389   5.690
60124SOL    HW280399  12.075   1.459   5.572
60125SOL     OW80400  11.833   1.790   6.539
60125SOL    HW180401  11.787   1.878   6.526
60125SOL    HW280402  11.932   1.802   6.532
60126SOL     OW80403  12.031   0.956   6.447
60126SOL    HW180404  12.085   0.887   6.495
60126SOL    HW280405  11.999   1.025   6.513
60127SOL     OW80406  12.255   0.984   5.673
60127SOL    HW180407  12.232   1.037   5.591
60127SOL    HW280408  12.336   0.928   5.654
60128SOL     OW80409  11.393   1.314   7.430
60128SOL    HW180410  11.328   1.241   7.409
60128SOL    HW280411  11.397   1.328   7.528
60129SOL     OW80412  11.251   1.240   6.239
60129SOL    HW180413  11.250   1.193   6.327
60129SOL    HW280414  11.333   1.212   6.188
60130SOL     OW80415  11.844   1.391   7.210
60130SOL    HW180416  11.766   1.341   7.248
60130SOL    HW280417  11.841   1.486   7.241
60131SOL     OW80418  11.600   0.424   6.106
60131SOL    HW180419  11.630   0.352   6.044
60131SOL    HW280420  11.561   0.384   6.189
60132SOL     OW80421  12.877   1.487   6.690
60132SOL    HW180422  12.784   1.462   6.663
60132SOL    HW280423  12.903   1.437   6.772
60133SOL     OW80424  11.489   0.547   6.866
60133SOL    HW180425  11.527   0.488   6.938
60133SOL    HW280426  11.529   0.521   6.778
60134SOL     OW80427  11.984   1.586   6.273
60134SOL    HW180428  12.016   1.596   6.179
60134SOL    HW280429  11.905   1.524   6.275
60135SOL     OW80430  12.596   0.214   6.698
60135SOL    HW180431  12.648   0.149   6.753
60135SOL    HW280432  12.547   0.277   6.759
60136SOL     OW80433  12.173   0.034   6.740
60136SOL    HW180434  12.110  -0.038   6.709
60136SOL    HW280435  12.266  -0.002   6.740
60137SOL     OW80436  11.942   1.330   5.887
60137SOL    HW180437  11.896   1.243   5.904
60137SOL    HW280438  12.033   1.327   5.928
60138SOL     OW80439  11.790   1.567   6.870
60138SOL    HW180440  11.785   1.649   6.927
60138SOL    HW280441  11.879   1.564   6.825
60139SOL     OW80442  12.524   0.052   5.754
60139SOL    HW180443  12.559   0.011   5.670
60139SOL    HW280444  12.434   0.014   5.774
60140SOL     OW80445  12.472   0.453   6.277
60140SOL    HW180446  12.413   0.533   6.281
60140SOL    HW280447  12.487   0.418   6.370
60141SOL     OW80448  11.211   1.077   5.886
60141SOL    HW180449  11.310   1.066   5.877
60141SOL    HW280450  11.171   0.991   5.918
60142SOL     OW80451  12.047   1.646   5.923
60142SOL    HW180452  11.970   1.611   5.869
60142SOL    HW280453  12.015   1.717   5.985
60143SOL     OW80454  11.402   0.628   7.561
60143SOL    HW180455  11.309   0.626   7.598
60143SOL    HW280456  11.403   0.589   7.469
60144SOL     OW80457  11.397   0.275   8.444
60144SOL    HW180458  11.432   0.258   8.536
60144SOL    HW280459  11.309   0.230   8.432
60145SOL     OW80460  11.191   0.368   8.095
60145SOL    HW180461  11.109   0.411   8.134
60145SOL    HW280462  11.163   0.295   8.032
60146SOL     OW80463  11.741   1.275   8.613
60146SOL    HW180464  11.648   1.268   8.576
60146SOL    HW280465  11.752   1.364   8.657
60147SOL     OW80466  12.727   1.511   8.151
60147SOL    HW180467  12.670   1.495   8.232
60147SOL    HW280468  12.668   1.521   8.071
60148SOL     OW80469  12.307   0.703   8.165
60148SOL    HW180470  12.364   0.781   8.140
60148SOL    HW280471  12.247   0.729   8.241
60149SOL     OW80472  11.940   1.144   8.471
60149SOL    HW180473  11.862   1.161   8.531
60149SOL    HW280474  11.974   1.231   8.435
60150SOL     OW80475  12.022   0.798   9.271
60150SOL    HW180476  12.018   0.874   9.336
60150SOL    HW280477  12.044   0.834   9.180
60151SOL     OW80478  11.857   1.012   8.113
60151SOL    HW180479  11.926   0.996   8.183
60151SOL    HW280480  11.784   1.069   8.151
60152SOL     OW80481  11.858   1.161   9.251
60152SOL    HW180482  11.918   1.240   9.265
60152SOL    HW280483  11.772   1.192   9.210
60153SOL     OW80484  11.507   1.435   8.509
60153SOL    HW180485  11.429   1.404   8.456
60153SOL    HW280486  11.565   1.493   8.452
60154SOL     OW80487  11.610   0.392   8.947
60154SOL    HW180488  11.692   0.336   8.956
60154SOL    HW280489  11.529   0.334   8.951
60155SOL     OW80490  11.403   1.713   7.931
60155SOL    HW180491  11.437   1.790   7.985
60155SOL    HW280492  11.447   1.713   7.841
60156SOL     OW80493  12.299   1.341   9.138
60156SOL    HW180494  12.346   1.341   9.226
60156SOL    HW280495  12.251   1.254   9.127
60157SOL     OW80496  11.402   1.434   7.986
60157SOL    HW180497  11.376   1.530   7.986
60157SOL    HW280498  11.331   1.380   8.031
60158SOL     OW80499  11.412   1.091   8.334
60158SOL    HW180500  11.426   1.007   8.386
60158SOL    HW280501  11.357   1.155   8.389
60159SOL     OW80502  11.792   1.786   8.887
60159SOL    HW180503  11.700   1.769   8.922
60159SOL    HW280504  11.820   1.878   8.913
60160SOL     OW80505  11.778   0.964   7.571
60160SOL    HW180506  11.785   1.048   7.517
60160SOL    HW280507  11.824   0.977   7.659
60161SOL     OW80508  12.766   0.114   8.928
60161SOL    HW180509  12.748   0.181   8.856
60161SOL    HW280510  12.763   0.160   9.017
60162SOL     OW80511  11.294   0.643   8.011
60162SOL    HW180512  11.249   0.555   8.028
60162SOL    HW280513  11.293   0.697   8.095
60163SOL     OW80514  11.199   1.596   7.565
60163SOL    HW180515  11.180   1.500   7.586
60163SOL    HW280516  11.166   1.654   7.640
60164SOL     OW80517  12.861   0.922   8.060
60164SOL    HW180518  12.956   0.893   8.068
60164SOL    HW280519  12.853   0.987   7.985
60165SOL     OW80520  11.285   0.737   9.045
60165SOL    HW180521  11.373   0.724   9.090
60165SOL    HW280522  11.272   0.834   9.023
60166SOL     OW80523  11.785   1.365   8.174
60166SOL    HW180524  11.736   1.278   8.183
60166SOL    HW280525  11.762   1.408   8.087
60167SOL     OW80526  12.465   1.228   8.871
60167SOL    HW180527  12.502   1.155   8.813
60167SOL    HW280528  12.517   1.233   8.956
60168SOL     OW80529  11.981   0.004   7.950
60168SOL    HW180530  12.021   0.095   7.941
60168SOL    HW280531  11.881   0.012   7.956
60169SOL     OW80532  11.369   0.976   8.712
60169SOL    HW180533  11.458   0.931   8.698
60169SOL    HW280534  11.296   0.911   8.693
60170SOL     OW80535  12.359   1.792   9.064
60170SOL    HW180536  12.383   1.852   8.988
60170SOL    HW280537  12.366   1.697   9.034
60171SOL     OW80538  11.489   0.251   9.249
60171SOL    HW180539  11.560   0.322   9.255
60171SOL    HW280540  11.401   0.290   9.277
60172SOL     OW80541  12.638   1.417   8.401
60172SOL    HW180542  12.579   1.423   8.481
60172SOL    HW280543  12.623   1.329   8.355
60173SOL     OW80544  11.770   0.729   7.718
60173SOL    HW180545  11.794   0.798   7.650
60173SOL    HW280546  11.692   0.762   7.772
60174SOL     OW80547  12.453   0.345   8.392
60174SOL    HW180548  12.367   0.295   8.379
60174SOL    HW280549  12.515   0.291   8.448
60175SOL     OW80550  11.979   0.605   8.913
60175SOL    HW180551  11.932   0.602   9.002
60175SOL    HW280552  11.928   0.550   8.847
60176SOL     OW80553  12.566   0.469   9.122
60176SOL    HW180554  12.546   0.512   9.210
60176SOL    HW280555  12.644   0.407   9.131
60177SOL     OW80556  12.145   0.890   9.020
60177SOL    HW180557  12.191   0.806   8.991
60177SOL    HW280558  12.089   0.924   8.945
60178SOL     OW80559  12.163   0.410   8.690
60178SOL    HW180560  12.086   0.444   8.744
60178SOL    HW280561  12.129   0.359   8.611
60179SOL     OW80562  12.213   0.701   7.877
60179SOL    HW180563  12.239   0.697   7.973
60179SOL    HW280564  12.128   0.650   7.863
60180SOL     OW80565  11.248   0.811   8.237
60180SOL    HW180566  11.347   0.799   8.246
60180SOL    HW280567  11.224   0.906   8.258
60181SOL     OW80568  11.302   1.821   9.019
60181SOL    HW180569  11.292   1.806   9.118
60181SOL    HW280570  11.216   1.857   8.983
60182SOL     OW80571  12.037   0.348   7.643
60182SOL    HW180572  12.096   0.411   7.594
60182SOL    HW280573  12.056   0.254   7.614
60183SOL     OW80574  12.534   1.144   7.993
60183SOL    HW180575  12.617   1.115   7.945
60183SOL    HW280576  12.485   1.211   7.937
60184SOL     OW80577  11.722   0.196   8.333
60184SOL    HW180578  11.717   0.191   8.433
60184SOL    HW280579  11.724   0.292   8.304
60185SOL     OW80580  12.180   1.456   7.925
60185SOL    HW180581  12.134   1.528   7.873
60185SOL    HW280582  12.176   1.476   8.023
60186SOL     OW80583  11.523   1.801   8.301
60186SOL    HW180584  11.573   1.715   8.307
60186SOL    HW280585  11.588   1.878   8.298
60187SOL     OW80586  12.399   1.550   8.954
60187SOL    HW180587  12.405   1.473   9.018
60187SOL    HW280588  12.347   1.524   8.874
60188SOL     OW80589  11.493   0.943   7.690
60188SOL    HW180590  11.575   0.982   7.648
60188SOL    HW280591  11.466   0.861   7.641
60189SOL     OW80592  11.633   1.266   9.175
60189SOL    HW180593  11.583   1.267   9.089
60189SOL    HW280594  11.570   1.248   9.251
60190SOL     OW80595  12.283   1.776   7.685
60190SOL    HW180596  12.223   1.714   7.735
60190SOL    HW280597  12.314   1.732   7.600
60191SOL     OW80598  11.374   0.285   8.946
60191SOL    HW180599  11.294   0.345   8.933
60191SOL    HW280600  11.364   0.236   9.032
60192SOL     OW80601  11.636   1.743   7.771
60192SOL    HW180602  11.669   1.782   7.857
60192SOL    HW280603  11.712   1.736   7.706
60193SOL     OW80604  12.572   0.107   7.874
60193SOL    HW180605  12.548   0.070   7.784
60193SOL    HW280606  12.671   0.123   7.878
60194SOL     OW80607  11.421   1.785   8.689
60194SOL    HW180608  11.478   1.720   8.739
60194SOL    HW280609  11.405   1.752   8.596
60195SOL     OW80610  12.112   1.698   8.352
60195SOL    HW180611  12.192   1.641   8.373
60195SOL    HW280612  12.063   1.658   8.275
60196SOL     OW80613  11.554   0.700   7.928
60196SOL    HW180614  11.599   0.610   7.925
60196SOL    HW280615  11.460   0.689   7.961
60197SOL     OW80616  11.786   0.122   7.565
60197SOL    HW180617  11.884   0.100   7.572
60197SOL    HW280618  11.755   0.105   7.472
60198SOL     OW80619  11.953   0.264   9.197
60198SOL    HW180620  12.020   0.203   9.240
60198SOL    HW280621  11.880   0.283   9.262
60199SOL     OW80622  12.060   1.514   8.643
60199SOL    HW180623  12.037   1.489   8.549
60199SOL    HW280624  12.121   1.445   8.682
60200SOL     OW80625  12.523   0.590   8.881
60200SOL    HW180626  12.551   0.547   8.966
60200SOL    HW280627  12.548   0.686   8.882
60201SOL     OW80628  11.975   1.402   8.372
60201SOL    HW180629  12.065   1.416   8.330
60201SOL    HW280630  11.904   1.404   8.301
60202SOL     OW80631  12.094   0.503   8.347
60202SOL    HW180632  12.069   0.494   8.251
60202SOL    HW280633  12.142   0.421   8.378
60203SOL     OW80634  11.711   0.064   7.960
60203SOL    HW180635  11.630   0.065   8.018
60203SOL    HW280636  11.714   0.147   7.905
60204SOL     OW80637  12.606   1.188   7.489
60204SOL    HW180638  12.638   1.112   7.546
60204SOL    HW280639  12.514   1.215   7.519
60205SOL     OW80640  11.469   0.035   7.619
60205SOL    HW180641  11.518   0.119   7.598
60205SOL    HW280642  11.531  -0.030   7.664
60206SOL     OW80643  12.107   0.236   7.928
60206SOL    HW180644  12.059   0.277   7.850
60206SOL    HW280645  12.206   0.234   7.909
60207SOL     OW80646  12.248   0.683   8.912
60207SOL    HW180647  12.168   0.622   8.915
60207SOL    HW280648  12.329   0.630   8.888
60208SOL     OW80649  12.399   1.570   8.241
60208SOL    HW180650  12.420   1.644   8.176
60208SOL    HW280651  12.467   1.570   8.314
60209SOL     OW80652  11.631   1.152   8.189
60209SOL    HW180653  11.560   1.125   8.254
60209SOL    HW280654  11.605   1.124   8.096
60210SOL     OW80655  12.443   1.797   8.039
60210SOL    HW180656  12.487   1.861   7.975
60210SOL    HW280657  12.393   1.849   8.109
60211SOL     OW80658  12.204   0.549   7.464
60211SOL    HW180659  12.163   0.631   7.425
60211SOL    HW280660  12.268   0.575   7.537
60212SOL     OW80661  11.250   0.556   8.834
60212SOL    HW180662  11.342   0.555   8.793
60212SOL    HW280663  11.244   0.630   8.901
60213SOL     OW80664  11.733   0.222   8.595
60213SOL    HW180665  11.771   0.138   8.632
60213SOL    HW280666  11.645   0.241   8.639
60214SOL     OW80667  12.038   0.454   8.090
60214SOL    HW180668  12.006   0.526   8.028
60214SOL    HW280669  12.062   0.373   8.037
60215SOL     OW80670  12.189   0.039   8.201
60215SOL    HW180671  12.117   0.044   8.132
60215SOL    HW280672  12.165  -0.030   8.270
60216SOL     OW80673  12.601   1.173   8.315
60216SOL    HW180674  12.546   1.089   8.308
60216SOL    HW280675  12.627   1.202   8.223
60217SOL     OW80676  11.660   1.385   7.622
60217SOL    HW180677  11.573   1.370   7.669
60217SOL    HW280678  11.643   1.411   7.527
60218SOL     OW80679  12.562   0.575   7.526
60218SOL    HW180680  12.508   0.554   7.607
60218SOL    HW280681  12.653   0.534   7.535
60219SOL     OW80682  11.699   0.256   7.776
60219SOL    HW180683  11.726   0.197   7.701
60219SOL    HW280684  11.699   0.351   7.745
60220SOL     OW80685  12.236   1.347   8.788
60220SOL    HW180686  12.156   1.324   8.843
60220SOL    HW280687  12.319   1.321   8.837
60221SOL     OW80688  12.764   1.629   9.073
60221SOL    HW180689  12.791   1.663   8.983
60221SOL    HW280690  12.843   1.591   9.119
60222SOL     OW80691  12.283   1.195   8.548
60222SOL    HW180692  12.243   1.239   8.629
60222SOL    HW280693  12.242   1.232   8.465
60223SOL     OW80694  12.087   0.089   8.850
60223SOL    HW180695  12.112   0.069   8.755
60223SOL    HW280696  12.159   0.145   8.892
60224SOL     OW80697  12.152   1.116   9.167
60224SOL    HW180698  12.053   1.122   9.177
60224SOL    HW280699  12.175   1.036   9.111
60225SOL     OW80700  11.877   1.050   7.816
60225SOL    HW180701  11.863   1.057   7.915
60225SOL    HW280702  11.961   0.999   7.798
60226SOL     OW80703  11.582   0.813   8.699
60226SOL    HW180704  11.668   0.825   8.749
60226SOL    HW280705  11.540   0.726   8.726
60227SOL     OW80706  12.446   0.386   8.710
60227SOL    HW180707  12.467   0.460   8.774
60227SOL    HW280708  12.357   0.403   8.667
60228SOL     OW80709  11.236   1.564   8.779
60228SOL    HW180710  11.190   1.646   8.745
60228SOL    HW280711  11.334   1.583   8.788
60229SOL     OW80712  11.539   1.100   7.949
60229SOL    HW180713  11.532   1.183   7.893
60229SOL    HW280714  11.543   1.020   7.889
60230SOL     OW80715  11.738   0.537   8.313
60230SOL    HW180716  11.750   0.603   8.239
60230SOL    HW280717  11.784   0.571   8.396
60231SOL     OW80718  12.424   1.348   7.836
60231SOL    HW180719  12.474   1.425   7.876
60231SOL    HW280720  12.329   1.350   7.868
60232SOL     OW80721  12.444   1.445   8.590
60232SOL    HW180722  12.491   1.458   8.677
60232SOL    HW280723  12.378   1.371   8.599
60233SOL     OW80724  11.526   1.510   8.777
60233SOL    HW180725  11.505   1.466   8.690
60233SOL    HW280726  11.623   1.536   8.780
60234SOL     OW80727  11.574   0.751   9.046
60234SOL    HW180728  11.642   0.806   8.999
60234SOL    HW280729  11.614   0.663   9.073
60235SOL     OW80730  12.185   0.105   9.218
60235SOL    HW180731  12.191   0.190   9.166
60235SOL    HW280732  12.217   0.029   9.161
60236SOL     OW80733  11.676   0.050   9.188
60236SOL    HW180734  11.634  -0.007   9.118
60236SOL    HW280735  11.610   0.119   9.220
60237SOL     OW80736  11.745   0.870   8.477
60237SOL    HW180737  11.789   0.959   8.468
60237SOL    HW280738  11.682   0.870   8.554
60238SOL     OW80739  12.532   0.862   8.493
60238SOL    HW180740  12.457   0.862   8.427
60238SOL    HW280741  12.569   0.770   8.502
60239SOL     OW80742  12.381   0.525   7.723
60239SOL    HW180743  12.394   0.441   7.777
60239SOL    HW280744  12.352   0.599   7.783
60240SOL     OW80745  11.479   0.213   8.679
60240SOL    HW180746  11.456   0.250   8.769
60240SOL    HW280747  11.449   0.118   8.673
60241SOL     OW80748  11.209   1.310   8.730
60241SOL    HW180749  11.262   1.261   8.798
60241SOL    HW280750  11.231   1.408   8.735
60242SOL     OW80751  11.904   0.634   8.512
60242SOL    HW180752  11.963   0.608   8.436
60242SOL    HW280753  11.876   0.730   8.501
60243SOL     OW80754  11.479   0.063   8.066
60243SOL    HW180755  11.468   0.157   8.099
60243SOL    HW280756  11.474   0.000   8.143
60244SOL     OW80757  12.794   0.367   7.822
60244SOL    HW180758  12.796   0.291   7.886
60244SOL    HW280759  12.746   0.444   7.862
60245SOL     OW80760  12.195   0.766   8.414
60245SOL    HW180761  12.210   0.787   8.510
60245SOL    HW280762  12.165   0.671   8.405
60246SOL     OW80763  12.152   1.573   9.148
60246SOL    HW180764  12.132   1.617   9.060
60246SOL    HW280765  12.191   1.482   9.132
60247SOL     OW80766  11.522   0.898   9.252
60247SOL    HW180767  11.598   0.942   9.300
60247SOL    HW280768  11.557   0.851   9.170
60248SOL     OW80769  12.475   0.838   7.490
60248SOL    HW180770  12.509   0.745   7.505
60248SOL    HW280771  12.493   0.865   7.395
60249SOL     OW80772  12.240   1.333   8.297
60249SOL    HW180773  12.247   1.249   8.242
60249SOL    HW280774  12.302   1.402   8.261
60250SOL     OW80775  11.491   0.810   8.397
60250SOL    HW180776  11.584   0.846   8.402
60250SOL    HW280777  11.485   0.725   8.449
60251SOL     OW80778  11.511   0.509   8.454
60251SOL    HW180779  11.459   0.426   8.437
60251SOL    HW280780  11.588   0.514   8.390
60252SOL     OW80781  12.310   0.380   9.126
60252SOL    HW180782  12.265   0.443   9.190
60252SOL    HW280783  12.403   0.411   9.109
60253SOL     OW80784  12.332   0.207   8.925
60253SOL    HW180785  12.332   0.271   9.002
60253SOL    HW280786  12.360   0.255   8.842
60254SOL     OW80787  11.180   1.326   7.648
60254SOL    HW180788  11.087   1.347   7.617
60254SOL    HW280789  11.190   1.227   7.661
60255SOL     OW80790  11.260   1.801   8.375
60255SOL    HW180791  11.218   1.715   8.348
60255SOL    HW280792  11.354   1.804   8.341
60256SOL     OW80793  11.676   1.568   8.358
60256SOL    HW180794  11.742   1.642   8.367
60256SOL    HW280795  11.720   1.489   8.316
60257SOL     OW80796  12.174   0.796   8.686
60257SOL    HW180797  12.215   0.764   8.772
60257SOL    HW280798  12.078   0.769   8.683
60258SOL     OW80799  11.212   0.544   8.562
60258SOL    HW180800  11.297   0.511   8.521
60258SOL    HW280801  11.225   0.559   8.660
60259SOL     OW80802  11.361   0.520   9.170
60259SOL    HW180803  11.420   0.480   9.100
60259SOL    HW280804  11.303   0.591   9.129
60260SOL     OW80805  12.541   0.950   9.108
60260SOL    HW180806  12.580   1.039   9.128
60260SOL    HW280807  12.551   0.930   9.011
60261SOL     OW80808  11.987   0.572   7.773
60261SOL    HW180809  11.994   0.483   7.727
60261SOL    HW280810  11.893   0.606   7.765
60262SOL     OW80811  11.424   1.564   9.192
60262SOL    HW180812  11.394   1.621   9.268
60262SOL    HW280813  11.417   1.467   9.218
60263SOL     OW80814  11.843   0.464   8.717
60263SOL    HW180815  11.809   0.375   8.687
60263SOL    HW280816  11.869   0.518   8.637
60264SOL     OW80817  12.102   1.678   8.913
60264SOL    HW180818  12.078   1.660   8.818
60264SOL    HW280819  12.132   1.772   8.923
60265SOL     OW80820  11.645   0.500   7.639
60265SOL    HW180821  11.706   0.580   7.643
60265SOL    HW280822  11.550   0.531   7.646
60266SOL     OW80823  11.331   1.137   8.914
60266SOL    HW180824  11.353   1.076   8.990
60266SOL    HW280825  11.341   1.088   8.828
60267SOL     OW80826  12.519   1.059   8.682
60267SOL    HW180827  12.543   0.996   8.608
60267SOL    HW280828  12.429   1.099   8.664
60268SOL     OW80829  12.474   0.855   7.757
60268SOL    HW180830  12.388   0.824   7.799
60268SOL    HW280831  12.470   0.841   7.658
60269SOL     OW80832  12.424   1.731   8.576
60269SOL    HW180833  12.508   1.736   8.522
60269SOL    HW280834  12.401   1.635   8.594
60270SOL     OW80835  11.255   1.258   8.470
60270SOL    HW180836  11.250   1.257   8.570
60270SOL    HW280837  11.172   1.217   8.432
60271SOL     OW80838  11.860   1.662   9.164
60271SOL    HW180839  11.804   1.743   9.173
60271SOL    HW280840  11.912   1.666   9.078
60272SOL     OW80841  12.560   1.573   7.925
60272SOL    HW180842  12.627   1.585   7.851
60272SOL    HW280843  12.520   1.662   7.948
60273SOL     OW80844  11.302   1.794   9.299
60273SOL    HW180845  11.261   1.720   9.352
60273SOL    HW280846  11.366   1.845   9.357
60274SOL     OW80847  12.452   0.927   8.120
60274SOL    HW180848  12.512   0.846   8.122
60274SOL    HW280849  12.492   0.996   8.060
60275SOL     OW80850  12.002   1.273   8.870
60275SOL    HW180851  11.997   1.306   8.965
60275SOL    HW280852  11.916   1.292   8.824
60276SOL     OW80853  11.844   1.616   7.602
60276SOL    HW180854  11.853   1.626   7.503
60276SOL    HW280855  11.804   1.527   7.623
60277SOL     OW80856  11.435   0.326   8.168
60277SOL    HW180857  11.356   0.377   8.134
60277SOL    HW280858  11.426   0.311   8.266
60278SOL     OW80859  12.366   1.612   7.479
60278SOL    HW180860  12.372   1.519   7.516
60278SOL    HW280861  12.307   1.612   7.399
60279SOL     OW80862  11.994   1.002   8.820
60279SOL    HW180863  12.034   1.001   8.728
60279SOL    HW280864  12.004   1.094   8.860
60280SOL     OW80865  12.088   0.910   7.739
60280SOL    HW180866  12.151   0.948   7.671
60280SOL    HW280867  12.128   0.827   7.778
60281SOL     OW80868  11.544   1.288   8.938
60281SOL    HW180869  11.531   1.381   8.904
60281SOL    HW280870  11.460   1.236   8.925
60282SOL     OW80871  12.211   1.098   8.144
60282SOL    HW180872  12.141   1.051   8.198
60282SOL    HW280873  12.270   1.030   8.101
60283SOL     OW80874  12.186   0.236   8.419
60283SOL    HW180875  12.178   0.200   8.326
60283SOL    HW280876  12.184   0.160   8.484
60284SOL     OW80877  11.762   1.487   7.939
60284SOL    HW180878  11.804   1.429   7.869
60284SOL    HW280879  11.718   1.566   7.895
60285SOL     OW80880  11.427   1.348   7.738
60285SOL    HW180881  11.331   1.349   7.711
60285SOL    HW280882  11.439   1.401   7.822
60286SOL     OW80883  11.277   1.013   9.174
60286SOL    HW180884  11.200   0.980   9.228
60286SOL    HW280885  11.362   0.983   9.216
60287SOL     OW80886  11.844   0.203   8.937
60287SOL    HW180887  11.934   0.187   8.897
60287SOL    HW280888  11.852   0.208   9.036
60288SOL     OW80889  11.247   0.345   7.481
60288SOL    HW180890  11.155   0.317   7.452
60288SOL    HW280891  11.278   0.422   7.425
60289SOL     OW80892  12.612   0.856   8.846
60289SOL    HW180893  12.555   0.908   8.783
60289SOL    HW280894  12.708   0.868   8.822
60290SOL     OW80895  11.244   0.166   7.766
60290SOL    HW180896  11.227   0.249   7.712
60290SOL    HW280897  11.334   0.129   7.744
60291SOL     OW80898  12.355   1.335   7.567
60291SOL    HW180899  12.256   1.324   7.569
60291SOL    HW280900  12.389   1.350   7.660
60292SOL     OW80901  11.785   0.842   8.879
60292SOL    HW180902  11.841   0.923   8.862
60292SOL    HW280903  11.844   0.762   8.882
60293SOL     OW80904  11.888   0.565   9.156
60293SOL    HW180905  11.907   0.630   9.230
60293SOL    HW280906  11.948   0.485   9.165
60294SOL     OW80907  12.622   1.220   9.081
60294SOL    HW180908  12.613   1.210   9.180
60294SOL    HW280909  12.718   1.213   9.055
60295SOL     OW80910  11.562   1.741   9.008
60295SOL    HW180911  11.471   1.782   9.006
60295SOL    HW280912  11.555   1.647   9.040
60296SOL     OW80913  12.397   0.325   7.897
60296SOL    HW180914  12.462   0.251   7.886
60296SOL    HW280915  12.417   0.375   7.981
60297SOL     OW80916  11.766   0.745   8.100
60297SOL    HW180917  11.816   0.830   8.081
60297SOL    HW280918  11.678   0.747   8.052
60298SOL     OW80919  12.031   1.374   7.464
60298SOL    HW180920  11.985   1.389   7.552
60298SOL    HW280921  12.075   1.459   7.434
60299SOL     OW80922  11.833   1.790   8.401
60299SOL    HW180923  11.787   1.878   8.388
60299SOL    HW280924  11.932   1.802   8.394
60300SOL     OW80925  12.031   0.956   8.309
60300SOL    HW180926  12.085   0.887   8.357
60300SOL    HW280927  11.999   1.025   8.375
60301SOL     OW80928  12.255   0.984   7.535
60301SOL    HW180929  12.232   1.037   7.453
60301SOL    HW280930  12.336   0.928   7.516
60302SOL     OW80931  11.393   1.314   9.292
60302SOL    HW180932  11.328   1.241   9.271
60302SOL    HW280933  11.397   1.328   9.390
60303SOL     OW80934  11.251   1.240   8.101
60303SOL    HW180935  11.250   1.193   8.189
60303SOL    HW280936  11.333   1.212   8.050
60304SOL     OW80937  11.844   1.391   9.072
60304SOL    HW180938  11.766   1.341   9.110
60304SOL    HW280939  11.841   1.486   9.103
60305SOL     OW80940  11.600   0.424   7.968
60305SOL    HW180941  11.630   0.352   7.906
60305SOL    HW280942  11.561   0.384   8.051
60306SOL     OW80943  12.877   1.487   8.552
60306SOL    HW180944  12.784   1.462   8.525
60306SOL    HW280945  12.903   1.437   8.634
60307SOL     OW80946  11.489   0.547   8.728
60307SOL    HW180947  11.527   0.488   8.800
60307SOL    HW280948  11.529   0.521   8.640
60308SOL     OW80949  11.984   1.586   8.135
60308SOL    HW180950  12.016   1.596   8.041
60308SOL    HW280951  11.905   1.524   8.137
60309SOL     OW80952  12.596   0.214   8.560
60309SOL    HW180953  12.648   0.149   8.615
60309SOL    HW280954  12.547   0.277   8.621
60310SOL     OW80955  12.173   0.034   8.602
60310SOL    HW180956  12.110  -0.038   8.571
60310SOL    HW280957  12.266  -0.002   8.602
60311SOL     OW80958  11.942   1.330   7.749
60311SOL    HW180959  11.896   1.243   7.766
60311SOL    HW280960  12.033   1.327   7.790
60312SOL     OW80961  11.790   1.567   8.732
60312SOL    HW180962  11.785   1.649   8.789
60312SOL    HW280963  11.879   1.564   8.687
60313SOL     OW80964  12.524   0.052   7.616
60313SOL    HW180965  12.559   0.011   7.532
60313SOL    HW280966  12.434   0.014   7.636
60314SOL     OW80967  12.472   0.453   8.139
60314SOL    HW180968  12.413   0.533   8.143
60314SOL    HW280969  12.487   0.418   8.232
60315SOL     OW80970  11.211   1.077   7.748
60315SOL    HW180971  11.310   1.066   7.739
60315SOL    HW280972  11.171   0.991   7.780
60316SOL     OW80973  12.047   1.646   7.785
60316SOL    HW180974  11.970   1.611   7.731
60316SOL    HW280975  12.015   1.717   7.847
60317SOL     OW80976  11.402   0.628   9.423
60317SOL    HW180977  11.309   0.626   9.460
60317SOL    HW280978  11.403   0.589   9.331
60318SOL     OW80979  11.397   0.275  10.306
60318SOL    HW180980  11.432   0.258  10.398
60318SOL    HW280981  11.309   0.230  10.294
60319SOL     OW80982  11.191   0.368   9.957
60319SOL    HW180983  11.109   0.411   9.996
60319SOL    HW280984  11.163   0.295   9.894
60320SOL     OW80985  11.741   1.275  10.475
60320SOL    HW180986  11.648   1.268  10.438
60320SOL    HW280987  11.752   1.364  10.519
60321SOL     OW80988  12.727   1.511  10.013
60321SOL    HW180989  12.670   1.495  10.094
60321SOL    HW280990  12.668   1.521   9.933
60322SOL     OW80991  12.307   0.703  10.027
60322SOL    HW180992  12.364   0.781  10.002
60322SOL    HW280993  12.247   0.729  10.103
60323SOL     OW80994  11.940   1.144  10.333
60323SOL    HW180995  11.862   1.161  10.393
60323SOL    HW280996  11.974   1.231  10.297
60324SOL     OW80997  12.022   0.798  11.133
60324SOL    HW180998  12.018   0.874  11.198
60324SOL    HW280999  12.044   0.834  11.042
60325SOL     OW81000  11.857   1.012   9.975
60325SOL    HW181001  11.926   0.996  10.045
60325SOL    HW281002  11.784   1.069  10.013
60326SOL     OW81003  11.858   1.161  11.113
60326SOL    HW181004  11.918   1.240  11.127
60326SOL    HW281005  11.772   1.192  11.072
60327SOL     OW81006  11.507   1.435  10.371
60327SOL    HW181007  11.429   1.404  10.318
60327SOL    HW281008  11.565   1.493  10.314
60328SOL     OW81009  11.610   0.392  10.809
60328SOL    HW181010  11.692   0.336  10.818
60328SOL    HW281011  11.529   0.334  10.813
60329SOL     OW81012  11.403   1.713   9.793
60329SOL    HW181013  11.437   1.790   9.847
60329SOL    HW281014  11.447   1.713   9.703
60330SOL     OW81015  12.299   1.341  11.000
60330SOL    HW181016  12.346   1.341  11.088
60330SOL    HW281017  12.251   1.254  10.989
60331SOL     OW81018  11.402   1.434   9.848
60331SOL    HW181019  11.376   1.530   9.848
60331SOL    HW281020  11.331   1.380   9.893
60332SOL     OW81021  11.412   1.091  10.196
60332SOL    HW181022  11.426   1.007  10.248
60332SOL    HW281023  11.357   1.155  10.251
60333SOL     OW81024  11.792   1.786  10.749
60333SOL    HW181025  11.700   1.769  10.784
60333SOL    HW281026  11.820   1.878  10.775
60334SOL     OW81027  11.778   0.964   9.433
60334SOL    HW181028  11.785   1.048   9.379
60334SOL    HW281029  11.824   0.977   9.521
60335SOL     OW81030  12.766   0.114  10.790
60335SOL    HW181031  12.748   0.181  10.718
60335SOL    HW281032  12.763   0.160  10.879
60336SOL     OW81033  11.294   0.643   9.873
60336SOL    HW181034  11.249   0.555   9.890
60336SOL    HW281035  11.293   0.697   9.957
60337SOL     OW81036  11.199   1.596   9.427
60337SOL    HW181037  11.180   1.500   9.448
60337SOL    HW281038  11.166   1.654   9.502
60338SOL     OW81039  12.861   0.922   9.922
60338SOL    HW181040  12.956   0.893   9.930
60338SOL    HW281041  12.853   0.987   9.847
60339SOL     OW81042  11.285   0.737  10.907
60339SOL    HW181043  11.373   0.724  10.952
60339SOL    HW281044  11.272   0.834  10.885
60340SOL     OW81045  11.785   1.365  10.036
60340SOL    HW181046  11.736   1.278  10.045
60340SOL    HW281047  11.762   1.408   9.949
60341SOL     OW81048  12.465   1.228  10.733
60341SOL    HW181049  12.502   1.155  10.675
60341SOL    HW281050  12.517   1.233  10.818
60342SOL     OW81051  11.981   0.004   9.812
60342SOL    HW181052  12.021   0.095   9.803
60342SOL    HW281053  11.881   0.012   9.818
60343SOL     OW81054  11.369   0.976  10.574
60343SOL    HW181055  11.458   0.931  10.560
60343SOL    HW281056  11.296   0.911  10.555
60344SOL     OW81057  12.359   1.792  10.926
60344SOL    HW181058  12.383   1.852  10.850
60344SOL    HW281059  12.366   1.697  10.896
60345SOL     OW81060  11.489   0.251  11.111
60345SOL    HW181061  11.560   0.322  11.117
60345SOL    HW281062  11.401   0.290  11.139
60346SOL     OW81063  12.638   1.417  10.263
60346SOL    HW181064  12.579   1.423  10.343
60346SOL    HW281065  12.623   1.329  10.217
60347SOL     OW81066  11.770   0.729   9.580
60347SOL    HW181067  11.794   0.798   9.512
60347SOL    HW281068  11.692   0.762   9.634
60348SOL     OW81069  12.453   0.345  10.254
60348SOL    HW181070  12.367   0.295  10.241
60348SOL    HW281071  12.515   0.291  10.310
60349SOL     OW81072  11.979   0.605  10.775
60349SOL    HW181073  11.932   0.602  10.864
60349SOL    HW281074  11.928   0.550  10.709
60350SOL     OW81075  12.566   0.469  10.984
60350SOL    HW181076  12.546   0.512  11.072
60350SOL    HW281077  12.644   0.407  10.993
60351SOL     OW81078  12.145   0.890  10.882
60351SOL    HW181079  12.191   0.806  10.853
60351SOL    HW281080  12.089   0.924  10.807
60352SOL     OW81081  12.163   0.410  10.552
60352SOL    HW181082  12.086   0.444  10.606
60352SOL    HW281083  12.129   0.359  10.473
60353SOL     OW81084  12.213   0.701   9.739
60353SOL    HW181085  12.239   0.697   9.835
60353SOL    HW281086  12.128   0.650   9.725
60354SOL     OW81087  11.248   0.811  10.099
60354SOL    HW181088  11.347   0.799  10.108
60354SOL    HW281089  11.224   0.906  10.120
60355SOL     OW81090  11.302   1.821  10.881
60355SOL    HW181091  11.292   1.806  10.980
60355SOL    HW281092  11.216   1.857  10.845
60356SOL     OW81093  12.037   0.348   9.505
60356SOL    HW181094  12.096   0.411   9.456
60356SOL    HW281095  12.056   0.254   9.476
60357SOL     OW81096  12.534   1.144   9.855
60357SOL    HW181097  12.617   1.115   9.807
60357SOL    HW281098  12.485   1.211   9.799
60358SOL     OW81099  11.722   0.196  10.195
60358SOL    HW181100  11.717   0.191  10.295
60358SOL    HW281101  11.724   0.292  10.166
60359SOL     OW81102  12.180   1.456   9.787
60359SOL    HW181103  12.134   1.528   9.735
60359SOL    HW281104  12.176   1.476   9.885
60360SOL     OW81105  11.523   1.801  10.163
60360SOL    HW181106  11.573   1.715  10.169
60360SOL    HW281107  11.588   1.878  10.160
60361SOL     OW81108  12.399   1.550  10.816
60361SOL    HW181109  12.405   1.473  10.880
60361SOL    HW281110  12.347   1.524  10.736
60362SOL     OW81111  11.493   0.943   9.552
60362SOL    HW181112  11.575   0.982   9.510
60362SOL    HW281113  11.466   0.861   9.503
60363SOL     OW81114  11.633   1.266  11.037
60363SOL    HW181115  11.583   1.267  10.951
60363SOL    HW281116  11.570   1.248  11.113
60364SOL     OW81117  12.283   1.776   9.547
60364SOL    HW181118  12.223   1.714   9.597
60364SOL    HW281119  12.314   1.732   9.462
60365SOL     OW81120  11.374   0.285  10.808
60365SOL    HW181121  11.294   0.345  10.795
60365SOL    HW281122  11.364   0.236  10.894
60366SOL     OW81123  11.636   1.743   9.633
60366SOL    HW181124  11.669   1.782   9.719
60366SOL    HW281125  11.712   1.736   9.568
60367SOL     OW81126  12.572   0.107   9.736
60367SOL    HW181127  12.548   0.070   9.646
60367SOL    HW281128  12.671   0.123   9.740
60368SOL     OW81129  11.421   1.785  10.551
60368SOL    HW181130  11.478   1.720  10.601
60368SOL    HW281131  11.405   1.752  10.458
60369SOL     OW81132  12.112   1.698  10.214
60369SOL    HW181133  12.192   1.641  10.235
60369SOL    HW281134  12.063   1.658  10.137
60370SOL     OW81135  11.554   0.700   9.790
60370SOL    HW181136  11.599   0.610   9.787
60370SOL    HW281137  11.460   0.689   9.823
60371SOL     OW81138  11.786   0.122   9.427
60371SOL    HW181139  11.884   0.100   9.434
60371SOL    HW281140  11.755   0.105   9.334
60372SOL     OW81141  11.953   0.264  11.059
60372SOL    HW181142  12.020   0.203  11.102
60372SOL    HW281143  11.880   0.283  11.124
60373SOL     OW81144  12.060   1.514  10.505
60373SOL    HW181145  12.037   1.489  10.411
60373SOL    HW281146  12.121   1.445  10.544
60374SOL     OW81147  12.523   0.590  10.743
60374SOL    HW181148  12.551   0.547  10.828
60374SOL    HW281149  12.548   0.686  10.744
60375SOL     OW81150  11.975   1.402  10.234
60375SOL    HW181151  12.065   1.416  10.192
60375SOL    HW281152  11.904   1.404  10.163
60376SOL     OW81153  12.094   0.503  10.209
60376SOL    HW181154  12.069   0.494  10.113
60376SOL    HW281155  12.142   0.421  10.240
60377SOL     OW81156  11.711   0.064   9.822
60377SOL    HW181157  11.630   0.065   9.880
60377SOL    HW281158  11.714   0.147   9.767
60378SOL     OW81159  12.606   1.188   9.351
60378SOL    HW181160  12.638   1.112   9.408
60378SOL    HW281161  12.514   1.215   9.381
60379SOL     OW81162  11.469   0.035   9.481
60379SOL    HW181163  11.518   0.119   9.460
60379SOL    HW281164  11.531  -0.030   9.526
60380SOL     OW81165  12.107   0.236   9.790
60380SOL    HW181166  12.059   0.277   9.712
60380SOL    HW281167  12.206   0.234   9.771
60381SOL     OW81168  12.248   0.683  10.774
60381SOL    HW181169  12.168   0.622  10.777
60381SOL    HW281170  12.329   0.630  10.750
60382SOL     OW81171  12.399   1.570  10.103
60382SOL    HW181172  12.420   1.644  10.038
60382SOL    HW281173  12.467   1.570  10.176
60383SOL     OW81174  11.631   1.152  10.051
60383SOL    HW181175  11.560   1.125  10.116
60383SOL    HW281176  11.605   1.124   9.958
60384SOL     OW81177  12.443   1.797   9.901
60384SOL    HW181178  12.487   1.861   9.837
60384SOL    HW281179  12.393   1.849   9.971
60385SOL     OW81180  12.204   0.549   9.326
60385SOL    HW181181  12.163   0.631   9.287
60385SOL    HW281182  12.268   0.575   9.399
60386SOL     OW81183  11.250   0.556  10.696
60386SOL    HW181184  11.342   0.555  10.655
60386SOL    HW281185  11.244   0.630  10.763
60387SOL     OW81186  11.733   0.222  10.457
60387SOL    HW181187  11.771   0.138  10.494
60387SOL    HW281188  11.645   0.241  10.501
60388SOL     OW81189  12.038   0.454   9.952
60388SOL    HW181190  12.006   0.526   9.890
60388SOL    HW281191  12.062   0.373   9.899
60389SOL     OW81192  12.189   0.039  10.063
60389SOL    HW181193  12.117   0.044   9.994
60389SOL    HW281194  12.165  -0.030  10.132
60390SOL     OW81195  12.601   1.173  10.177
60390SOL    HW181196  12.546   1.089  10.170
60390SOL    HW281197  12.627   1.202  10.085
60391SOL     OW81198  11.660   1.385   9.484
60391SOL    HW181199  11.573   1.370   9.531
60391SOL    HW281200  11.643   1.411   9.389
60392SOL     OW81201  12.562   0.575   9.388
60392SOL    HW181202  12.508   0.554   9.469
60392SOL    HW281203  12.653   0.534   9.397
60393SOL     OW81204  11.699   0.256   9.638
60393SOL    HW181205  11.726   0.197   9.563
60393SOL    HW281206  11.699   0.351   9.607
60394SOL     OW81207  12.236   1.347  10.650
60394SOL    HW181208  12.156   1.324  10.705
60394SOL    HW281209  12.319   1.321  10.699
60395SOL     OW81210  12.764   1.629  10.935
60395SOL    HW181211  12.791   1.663  10.845
60395SOL    HW281212  12.843   1.591  10.981
60396SOL     OW81213  12.283   1.195  10.410
60396SOL    HW181214  12.243   1.239  10.491
60396SOL    HW281215  12.242   1.232  10.327
60397SOL     OW81216  12.087   0.089  10.712
60397SOL    HW181217  12.112   0.069  10.617
60397SOL    HW281218  12.159   0.145  10.754
60398SOL     OW81219  12.152   1.116  11.029
60398SOL    HW181220  12.053   1.122  11.039
60398SOL    HW281221  12.175   1.036  10.973
60399SOL     OW81222  11.877   1.050   9.678
60399SOL    HW181223  11.863   1.057   9.777
60399SOL    HW281224  11.961   0.999   9.660
60400SOL     OW81225  11.582   0.813  10.561
60400SOL    HW181226  11.668   0.825  10.611
60400SOL    HW281227  11.540   0.726  10.588
60401SOL     OW81228  12.446   0.386  10.572
60401SOL    HW181229  12.467   0.460  10.636
60401SOL    HW281230  12.357   0.403  10.529
60402SOL     OW81231  11.236   1.564  10.641
60402SOL    HW181232  11.190   1.646  10.607
60402SOL    HW281233  11.334   1.583  10.650
60403SOL     OW81234  11.539   1.100   9.811
60403SOL    HW181235  11.532   1.183   9.755
60403SOL    HW281236  11.543   1.020   9.751
60404SOL     OW81237  11.738   0.537  10.175
60404SOL    HW181238  11.750   0.603  10.101
60404SOL    HW281239  11.784   0.571  10.258
60405SOL     OW81240  12.424   1.348   9.698
60405SOL    HW181241  12.474   1.425   9.738
60405SOL    HW281242  12.329   1.350   9.730
60406SOL     OW81243  12.444   1.445  10.452
60406SOL    HW181244  12.491   1.458  10.539
60406SOL    HW281245  12.378   1.371  10.461
60407SOL     OW81246  11.526   1.510  10.639
60407SOL    HW181247  11.505   1.466  10.552
60407SOL    HW281248  11.623   1.536  10.642
60408SOL     OW81249  11.574   0.751  10.908
60408SOL    HW181250  11.642   0.806  10.861
60408SOL    HW281251  11.614   0.663  10.935
60409SOL     OW81252  12.185   0.105  11.080
60409SOL    HW181253  12.191   0.190  11.028
60409SOL    HW281254  12.217   0.029  11.023
60410SOL     OW81255  11.676   0.050  11.050
60410SOL    HW181256  11.634  -0.007  10.980
60410SOL    HW281257  11.610   0.119  11.082
60411SOL     OW81258  11.745   0.870  10.339
60411SOL    HW181259  11.789   0.959  10.330
60411SOL    HW281260  11.682   0.870  10.416
60412SOL     OW81261  12.532   0.862  10.355
60412SOL    HW181262  12.457   0.862  10.289
60412SOL    HW281263  12.569   0.770  10.364
60413SOL     OW81264  12.381   0.525   9.585
60413SOL    HW181265  12.394   0.441   9.639
60413SOL    HW281266  12.352   0.599   9.645
60414SOL     OW81267  11.479   0.213  10.541
60414SOL    HW181268  11.456   0.250  10.631
60414SOL    HW281269  11.449   0.118  10.535
60415SOL     OW81270  11.209   1.310  10.592
60415SOL    HW181271  11.262   1.261  10.660
60415SOL    HW281272  11.231   1.408  10.597
60416SOL     OW81273  11.904   0.634  10.374
60416SOL    HW181274  11.963   0.608  10.298
60416SOL    HW281275  11.876   0.730  10.363
60417SOL     OW81276  11.479   0.063   9.928
60417SOL    HW181277  11.468   0.157   9.961
60417SOL    HW281278  11.474   0.000  10.005
60418SOL     OW81279  12.794   0.367   9.684
60418SOL    HW181280  12.796   0.291   9.748
60418SOL    HW281281  12.746   0.444   9.724
60419SOL     OW81282  12.195   0.766  10.276
60419SOL    HW181283  12.210   0.787  10.372
60419SOL    HW281284  12.165   0.671  10.267
60420SOL     OW81285  12.152   1.573  11.010
60420SOL    HW181286  12.132   1.617  10.922
60420SOL    HW281287  12.191   1.482  10.994
60421SOL     OW81288  11.522   0.898  11.114
60421SOL    HW181289  11.598   0.942  11.162
60421SOL    HW281290  11.557   0.851  11.032
60422SOL     OW81291  12.475   0.838   9.352
60422SOL    HW181292  12.509   0.745   9.367
60422SOL    HW281293  12.493   0.865   9.257
60423SOL     OW81294  12.240   1.333  10.159
60423SOL    HW181295  12.247   1.249  10.104
60423SOL    HW281296  12.302   1.402  10.123
60424SOL     OW81297  11.491   0.810  10.259
60424SOL    HW181298  11.584   0.846  10.264
60424SOL    HW281299  11.485   0.725  10.311
60425SOL     OW81300  11.511   0.509  10.316
60425SOL    HW181301  11.459   0.426  10.299
60425SOL    HW281302  11.588   0.514  10.252
60426SOL     OW81303  12.310   0.380  10.988
60426SOL    HW181304  12.265   0.443  11.052
60426SOL    HW281305  12.403   0.411  10.971
60427SOL     OW81306  12.332   0.207  10.787
60427SOL    HW181307  12.332   0.271  10.864
60427SOL    HW281308  12.360   0.255  10.704
60428SOL     OW81309  11.180   1.326   9.510
60428SOL    HW181310  11.087   1.347   9.479
60428SOL    HW281311  11.190   1.227   9.523
60429SOL     OW81312  11.260   1.801  10.237
60429SOL    HW181313  11.218   1.715  10.210
60429SOL    HW281314  11.354   1.804  10.203
60430SOL     OW81315  11.676   1.568  10.220
60430SOL    HW181316  11.742   1.642  10.229
60430SOL    HW281317  11.720   1.489  10.178
60431SOL     OW81318  12.174   0.796  10.548
60431SOL    HW181319  12.215   0.764  10.634
60431SOL    HW281320  12.078   0.769  10.545
60432SOL     OW81321  11.212   0.544  10.424
60432SOL    HW181322  11.297   0.511  10.383
60432SOL    HW281323  11.225   0.559  10.522
60433SOL     OW81324  11.361   0.520  11.032
60433SOL    HW181325  11.420   0.480  10.962
60433SOL    HW281326  11.303   0.591  10.991
60434SOL     OW81327  12.541   0.950  10.970
60434SOL    HW181328  12.580   1.039  10.990
60434SOL    HW281329  12.551   0.930  10.873
60435SOL     OW81330  11.987   0.572   9.635
60435SOL    HW181331  11.994   0.483   9.589
60435SOL    HW281332  11.893   0.606   9.627
60436SOL     OW81333  11.424   1.564  11.054
60436SOL    HW181334  11.394   1.621  11.130
60436SOL    HW281335  11.417   1.467  11.080
60437SOL     OW81336  11.843   0.464  10.579
60437SOL    HW181337  11.809   0.375  10.549
60437SOL    HW281338  11.869   0.518  10.499
60438SOL     OW81339  12.102   1.678  10.775
60438SOL    HW181340  12.078   1.660  10.680
60438SOL    HW281341  12.132   1.772  10.785
60439SOL     OW81342  11.645   0.500   9.501
60439SOL    HW181343  11.706   0.580   9.505
60439SOL    HW281344  11.550   0.531   9.508
60440SOL     OW81345  11.331   1.137  10.776
60440SOL    HW181346  11.353   1.076  10.852
60440SOL    HW281347  11.341   1.088  10.690
60441SOL     OW81348  12.519   1.059  10.544
60441SOL    HW181349  12.543   0.996  10.470
60441SOL    HW281350  12.429   1.099  10.526
60442SOL     OW81351  12.474   0.855   9.619
60442SOL    HW181352  12.388   0.824   9.661
60442SOL    HW281353  12.470   0.841   9.520
60443SOL     OW81354  12.424   1.731  10.438
60443SOL    HW181355  12.508   1.736  10.384
60443SOL    HW281356  12.401   1.635  10.456
60444SOL     OW81357  11.255   1.258  10.332
60444SOL    HW181358  11.250   1.257  10.432
60444SOL    HW281359  11.172   1.217  10.294
60445SOL     OW81360  11.860   1.662  11.026
60445SOL    HW181361  11.804   1.743  11.035
60445SOL    HW281362  11.912   1.666  10.940
60446SOL     OW81363  12.560   1.573   9.787
60446SOL    HW181364  12.627   1.585   9.713
60446SOL    HW281365  12.520   1.662   9.810
60447SOL     OW81366  11.302   1.794  11.161
60447SOL    HW181367  11.261   1.720  11.214
60447SOL    HW281368  11.366   1.845  11.219
60448SOL     OW81369  12.452   0.927   9.982
60448SOL    HW181370  12.512   0.846   9.984
60448SOL    HW281371  12.492   0.996   9.922
60449SOL     OW81372  12.002   1.273  10.732
60449SOL    HW181373  11.997   1.306  10.827
60449SOL    HW281374  11.916   1.292  10.686
60450SOL     OW81375  11.844   1.616   9.464
60450SOL    HW181376  11.853   1.626   9.365
60450SOL    HW281377  11.804   1.527   9.485
60451SOL     OW81378  11.435   0.326  10.030
60451SOL    HW181379  11.356   0.377   9.996
60451SOL    HW281380  11.426   0.311  10.128
60452SOL     OW81381  12.366   1.612   9.341
60452SOL    HW181382  12.372   1.519   9.378
60452SOL    HW281383  12.307   1.612   9.261
60453SOL     OW81384  11.994   1.002  10.682
60453SOL    HW181385  12.034   1.001  10.590
60453SOL    HW281386  12.004   1.094  10.722
60454SOL     OW81387  12.088   0.910   9.601
60454SOL    HW181388  12.151   0.948   9.533
60454SOL    HW281389  12.128   0.827   9.640
60455SOL     OW81390  11.544   1.288  10.800
60455SOL    HW181391  11.531   1.381  10.766
60455SOL    HW281392  11.460   1.236  10.787
60456SOL     OW81393  12.211   1.098  10.006
60456SOL    HW181394  12.141   1.051  10.060
60456SOL    HW281395  12.270   1.030   9.963
60457SOL     OW81396  12.186   0.236  10.281
60457SOL    HW181397  12.178   0.200  10.188
60457SOL    HW281398  12.184   0.160  10.346
60458SOL     OW81399  11.762   1.487   9.801
60458SOL    HW181400  11.804   1.429   9.731
60458SOL    HW281401  11.718   1.566   9.757
60459SOL     OW81402  11.427   1.348   9.600
60459SOL    HW181403  11.331   1.349   9.573
60459SOL    HW281404  11.439   1.401   9.684
60460SOL     OW81405  11.277   1.013  11.036
60460SOL    HW181406  11.200   0.980  11.090
60460SOL    HW281407  11.362   0.983  11.078
60461SOL     OW81408  11.844   0.203  10.799
60461SOL    HW181409  11.934   0.187  10.759
60461SOL    HW281410  11.852   0.208  10.898
60462SOL     OW81411  11.247   0.345   9.343
60462SOL    HW181412  11.155   0.317   9.314
60462SOL    HW281413  11.278   0.422   9.287
60463SOL     OW81414  12.612   0.856  10.708
60463SOL    HW181415  12.555   0.908  10.645
60463SOL    HW281416  12.708   0.868  10.684
60464SOL     OW81417  11.244   0.166   9.628
60464SOL    HW181418  11.227   0.249   9.574
60464SOL    HW281419  11.334   0.129   9.606
60465SOL     OW81420  12.355   1.335   9.429
60465SOL    HW181421  12.256   1.324   9.431
60465SOL    HW281422  12.389   1.350   9.522
60466SOL     OW81423  11.785   0.842  10.741
60466SOL    HW181424  11.841   0.923  10.724
60466SOL    HW281425  11.844   0.762  10.744
60467SOL     OW81426  11.888   0.565  11.018
60467SOL    HW181427  11.907   0.630  11.092
60467SOL    HW281428  11.948   0.485  11.027
60468SOL     OW81429  12.622   1.220  10.943
60468SOL    HW181430  12.613   1.210  11.042
60468SOL    HW281431  12.718   1.213  10.917
60469SOL     OW81432  11.562   1.741  10.870
60469SOL    HW181433  11.471   1.782  10.868
60469SOL    HW281434  11.555   1.647  10.902
60470SOL     OW81435  12.397   0.325   9.759
60470SOL    HW181436  12.462   0.251   9.748
60470SOL    HW281437  12.417   0.375   9.843
60471SOL     OW81438  11.766   0.745   9.962
60471SOL    HW181439  11.816   0.830   9.943
60471SOL    HW281440  11.678   0.747   9.914
60472SOL     OW81441  12.031   1.374   9.326
60472SOL    HW181442  11.985   1.389   9.414
60472SOL    HW281443  12.075   1.459   9.296
60473SOL     OW81444  11.833   1.790  10.263
60473SOL    HW181445  11.787   1.878  10.250
60473SOL    HW281446  11.932   1.802  10.256
60474SOL     OW81447  12.031   0.956  10.171
60474SOL    HW181448  12.085   0.887  10.219
60474SOL    HW281449  11.999   1.025  10.237
60475SOL     OW81450  12.255   0.984   9.397
60475SOL    HW181451  12.232   1.037   9.315
60475SOL    HW281452  12.336   0.928   9.378
60476SOL     OW81453  11.393   1.314  11.154
60476SOL    HW181454  11.328   1.241  11.133
60476SOL    HW281455  11.397   1.328  11.252
60477SOL     OW81456  11.251   1.240   9.963
60477SOL    HW181457  11.250   1.193  10.051
60477SOL    HW281458  11.333   1.212   9.912
60478SOL     OW81459  11.844   1.391  10.934
60478SOL    HW181460  11.766   1.341  10.972
60478SOL    HW281461  11.841   1.486  10.965
60479SOL     OW81462  11.600   0.424   9.830
60479SOL    HW181463  11.630   0.352   9.768
60479SOL    HW281464  11.561   0.384   9.913
60480SOL     OW81465  12.877   1.487  10.414
60480SOL    HW181466  12.784   1.462  10.387
60480SOL    HW281467  12.903   1.437  10.496
60481SOL     OW81468  11.489   0.547  10.590
60481SOL    HW181469  11.527   0.488  10.662
60481SOL    HW281470  11.529   0.521  10.502
60482SOL     OW81471  11.984   1.586   9.997
60482SOL    HW181472  12.016   1.596   9.903
60482SOL    HW281473  11.905   1.524   9.999
60483SOL     OW81474  12.596   0.214  10.422
60483SOL    HW181475  12.648   0.149  10.477
60483SOL    HW281476  12.547   0.277  10.483
60484SOL     OW81477  12.173   0.034  10.464
60484SOL    HW181478  12.110  -0.038  10.433
60484SOL    HW281479  12.266  -0.002  10.464
60485SOL     OW81480  11.942   1.330   9.611
60485SOL    HW181481  11.896   1.243   9.628
60485SOL    HW281482  12.033   1.327   9.652
60486SOL     OW81483  11.790   1.567  10.594
60486SOL    HW181484  11.785   1.649  10.651
60486SOL    HW281485  11.879   1.564  10.549
60487SOL     OW81486  12.524   0.052   9.478
60487SOL    HW181487  12.559   0.011   9.394
60487SOL    HW281488  12.434   0.014   9.498
60488SOL     OW81489  12.472   0.453  10.001
60488SOL    HW181490  12.413   0.533  10.005
60488SOL    HW281491  12.487   0.418  10.094
60489SOL     OW81492  11.211   1.077   9.610
60489SOL    HW181493  11.310   1.066   9.601
60489SOL    HW281494  11.171   0.991   9.642
60490SOL     OW81495  12.047   1.646   9.647
60490SOL    HW181496  11.970   1.611   9.593
60490SOL    HW281497  12.015   1.717   9.709
60491SOL     OW81498  11.402   0.628  11.285
60491SOL    HW181499  11.309   0.626  11.322
60491SOL    HW281500  11.403   0.589  11.193
60492SOL     OW81501  11.397   0.275  12.168
60492SOL    HW181502  11.432   0.258  12.260
60492SOL    HW281503  11.309   0.230  12.156
60493SOL     OW81504  11.191   0.368  11.819
60493SOL    HW181505  11.109   0.411  11.858
60493SOL    HW281506  11.163   0.295  11.756
60494SOL     OW81507  11.741   1.275  12.337
60494SOL    HW181508  11.648   1.268  12.300
60494SOL    HW281509  11.752   1.364  12.381
60495SOL     OW81510  12.727   1.511  11.875
60495SOL    HW181511  12.670   1.495  11.956
60495SOL    HW281512  12.668   1.521  11.795
60496SOL     OW81513  12.307   0.703  11.889
60496SOL    HW181514  12.364   0.781  11.864
60496SOL    HW281515  12.247   0.729  11.965
60497SOL     OW81516  11.940   1.144  12.195
60497SOL    HW181517  11.862   1.161  12.255
60497SOL    HW281518  11.974   1.231  12.159
60498SOL     OW81519  11.857   1.012  11.837
60498SOL    HW181520  11.926   0.996  11.907
60498SOL    HW281521  11.784   1.069  11.875
60499SOL     OW81522  11.507   1.435  12.233
60499SOL    HW181523  11.429   1.404  12.180
60499SOL    HW281524  11.565   1.493  12.176
60500SOL     OW81525  11.610   0.392  12.671
60500SOL    HW181526  11.692   0.336  12.680
60500SOL    HW281527  11.529   0.334  12.675
60501SOL     OW81528  11.403   1.713  11.655
60501SOL    HW181529  11.437   1.790  11.709
60501SOL    HW281530  11.447   1.713  11.565
60502SOL     OW81531  11.402   1.434  11.710
60502SOL    HW181532  11.376   1.530  11.710
60502SOL    HW281533  11.331   1.380  11.755
60503SOL     OW81534  11.412   1.091  12.058
60503SOL    HW181535  11.426   1.007  12.110
60503SOL    HW281536  11.357   1.155  12.113
60504SOL     OW81537  11.792   1.786  12.611
60504SOL    HW181538  11.700   1.769  12.646
60504SOL    HW281539  11.820   1.878  12.637
60505SOL     OW81540  11.778   0.964  11.295
60505SOL    HW181541  11.785   1.048  11.241
60505SOL    HW281542  11.824   0.977  11.383
60506SOL     OW81543  12.766   0.114  12.652
60506SOL    HW181544  12.748   0.181  12.580
60506SOL    HW281545  12.763   0.160  12.741
60507SOL     OW81546  11.294   0.643  11.735
60507SOL    HW181547  11.249   0.555  11.752
60507SOL    HW281548  11.293   0.697  11.819
60508SOL     OW81549  11.199   1.596  11.289
60508SOL    HW181550  11.180   1.500  11.310
60508SOL    HW281551  11.166   1.654  11.364
60509SOL     OW81552  12.861   0.922  11.784
60509SOL    HW181553  12.956   0.893  11.792
60509SOL    HW281554  12.853   0.987  11.709
60510SOL     OW81555  11.785   1.365  11.898
60510SOL    HW181556  11.736   1.278  11.907
60510SOL    HW281557  11.762   1.408  11.811
60511SOL     OW81558  11.981   0.004  11.674
60511SOL    HW181559  12.021   0.095  11.665
60511SOL    HW281560  11.881   0.012  11.680
60512SOL     OW81561  11.369   0.976  12.436
60512SOL    HW181562  11.458   0.931  12.422
60512SOL    HW281563  11.296   0.911  12.417
60513SOL     OW81564  11.489   0.251  12.973
60513SOL    HW181565  11.560   0.322  12.979
60513SOL    HW281566  11.401   0.290  13.001
60514SOL     OW81567  12.638   1.417  12.125
60514SOL    HW181568  12.579   1.423  12.205
60514SOL    HW281569  12.623   1.329  12.079
60515SOL     OW81570  11.770   0.729  11.442
60515SOL    HW181571  11.794   0.798  11.374
60515SOL    HW281572  11.692   0.762  11.496
60516SOL     OW81573  12.453   0.345  12.116
60516SOL    HW181574  12.367   0.295  12.103
60516SOL    HW281575  12.515   0.291  12.172
60517SOL     OW81576  11.979   0.605  12.637
60517SOL    HW181577  11.932   0.602  12.726
60517SOL    HW281578  11.928   0.550  12.571
60518SOL     OW81579  12.163   0.410  12.414
60518SOL    HW181580  12.086   0.444  12.468
60518SOL    HW281581  12.129   0.359  12.335
60519SOL     OW81582  12.213   0.701  11.601
60519SOL    HW181583  12.239   0.697  11.697
60519SOL    HW281584  12.128   0.650  11.587
60520SOL     OW81585  11.248   0.811  11.961
60520SOL    HW181586  11.347   0.799  11.970
60520SOL    HW281587  11.224   0.906  11.982
60521SOL     OW81588  11.302   1.821  12.743
60521SOL    HW181589  11.292   1.806  12.842
60521SOL    HW281590  11.216   1.857  12.707
60522SOL     OW81591  12.037   0.348  11.367
60522SOL    HW181592  12.096   0.411  11.318
60522SOL    HW281593  12.056   0.254  11.338
60523SOL     OW81594  12.534   1.144  11.717
60523SOL    HW181595  12.617   1.115  11.669
60523SOL    HW281596  12.485   1.211  11.661
60524SOL     OW81597  11.722   0.196  12.057
60524SOL    HW181598  11.717   0.191  12.157
60524SOL    HW281599  11.724   0.292  12.028
60525SOL     OW81600  12.180   1.456  11.649
60525SOL    HW181601  12.134   1.528  11.597
60525SOL    HW281602  12.176   1.476  11.747
60526SOL     OW81603  11.523   1.801  12.025
60526SOL    HW181604  11.573   1.715  12.031
60526SOL    HW281605  11.588   1.878  12.022
60527SOL     OW81606  11.493   0.943  11.414
60527SOL    HW181607  11.575   0.982  11.372
60527SOL    HW281608  11.466   0.861  11.365
60528SOL     OW81609  12.283   1.776  11.409
60528SOL    HW181610  12.223   1.714  11.459
60528SOL    HW281611  12.314   1.732  11.324
60529SOL     OW81612  11.374   0.285  12.670
60529SOL    HW181613  11.294   0.345  12.657
60529SOL    HW281614  11.364   0.236  12.756
60530SOL     OW81615  11.636   1.743  11.495
60530SOL    HW181616  11.669   1.782  11.581
60530SOL    HW281617  11.712   1.736  11.430
60531SOL     OW81618  12.572   0.107  11.598
60531SOL    HW181619  12.548   0.070  11.508
60531SOL    HW281620  12.671   0.123  11.602
60532SOL     OW81621  11.421   1.785  12.413
60532SOL    HW181622  11.478   1.720  12.463
60532SOL    HW281623  11.405   1.752  12.320
60533SOL     OW81624  12.112   1.698  12.076
60533SOL    HW181625  12.192   1.641  12.097
60533SOL    HW281626  12.063   1.658  11.999
60534SOL     OW81627  11.554   0.700  11.652
60534SOL    HW181628  11.599   0.610  11.649
60534SOL    HW281629  11.460   0.689  11.685
60535SOL     OW81630  11.786   0.122  11.289
60535SOL    HW181631  11.884   0.100  11.296
60535SOL    HW281632  11.755   0.105  11.196
60536SOL     OW81633  12.060   1.514  12.367
60536SOL    HW181634  12.037   1.489  12.273
60536SOL    HW281635  12.121   1.445  12.406
60537SOL     OW81636  11.975   1.402  12.096
60537SOL    HW181637  12.065   1.416  12.054
60537SOL    HW281638  11.904   1.404  12.025
60538SOL     OW81639  12.094   0.503  12.071
60538SOL    HW181640  12.069   0.494  11.975
60538SOL    HW281641  12.142   0.421  12.102
60539SOL     OW81642  11.711   0.064  11.684
60539SOL    HW181643  11.630   0.065  11.742
60539SOL    HW281644  11.714   0.147  11.629
60540SOL     OW81645  12.606   1.188  11.213
60540SOL    HW181646  12.638   1.112  11.270
60540SOL    HW281647  12.514   1.215  11.243
60541SOL     OW81648  11.469   0.035  11.343
60541SOL    HW181649  11.518   0.119  11.322
60541SOL    HW281650  11.531  -0.030  11.388
60542SOL     OW81651  12.107   0.236  11.652
60542SOL    HW181652  12.059   0.277  11.574
60542SOL    HW281653  12.206   0.234  11.633
60543SOL     OW81654  12.399   1.570  11.965
60543SOL    HW181655  12.420   1.644  11.900
60543SOL    HW281656  12.467   1.570  12.038
60544SOL     OW81657  11.631   1.152  11.913
60544SOL    HW181658  11.560   1.125  11.978
60544SOL    HW281659  11.605   1.124  11.820
60545SOL     OW81660  12.443   1.797  11.763
60545SOL    HW181661  12.487   1.861  11.699
60545SOL    HW281662  12.393   1.849  11.833
60546SOL     OW81663  12.204   0.549  11.188
60546SOL    HW181664  12.163   0.631  11.149
60546SOL    HW281665  12.268   0.575  11.261
60547SOL     OW81666  11.250   0.556  12.558
60547SOL    HW181667  11.342   0.555  12.517
60547SOL    HW281668  11.244   0.630  12.625
60548SOL     OW81669  11.733   0.222  12.319
60548SOL    HW181670  11.771   0.138  12.356
60548SOL    HW281671  11.645   0.241  12.363
60549SOL     OW81672  12.038   0.454  11.814
60549SOL    HW181673  12.006   0.526  11.752
60549SOL    HW281674  12.062   0.373  11.761
60550SOL     OW81675  12.189   0.039  11.925
60550SOL    HW181676  12.117   0.044  11.856
60550SOL    HW281677  12.165  -0.030  11.994
60551SOL     OW81678  12.601   1.173  12.039
60551SOL    HW181679  12.546   1.089  12.032
60551SOL    HW281680  12.627   1.202  11.947
60552SOL     OW81681  11.660   1.385  11.346
60552SOL    HW181682  11.573   1.370  11.393
60552SOL    HW281683  11.643   1.411  11.251
60553SOL     OW81684  12.562   0.575  11.250
60553SOL    HW181685  12.508   0.554  11.331
60553SOL    HW281686  12.653   0.534  11.259
60554SOL     OW81687  11.699   0.256  11.500
60554SOL    HW181688  11.726   0.197  11.425
60554SOL    HW281689  11.699   0.351  11.469
60555SOL     OW81690  12.236   1.347  12.512
60555SOL    HW181691  12.156   1.324  12.567
60555SOL    HW281692  12.319   1.321  12.561
60556SOL     OW81693  12.283   1.195  12.272
60556SOL    HW181694  12.243   1.239  12.353
60556SOL    HW281695  12.242   1.232  12.189
60557SOL     OW81696  12.087   0.089  12.574
60557SOL    HW181697  12.112   0.069  12.479
60557SOL    HW281698  12.159   0.145  12.616
60558SOL     OW81699  11.877   1.050  11.540
60558SOL    HW181700  11.863   1.057  11.639
60558SOL    HW281701  11.961   0.999  11.522
60559SOL     OW81702  11.582   0.813  12.423
60559SOL    HW181703  11.668   0.825  12.473
60559SOL    HW281704  11.540   0.726  12.450
60560SOL     OW81705  12.446   0.386  12.434
60560SOL    HW181706  12.467   0.460  12.498
60560SOL    HW281707  12.357   0.403  12.391
60561SOL     OW81708  11.236   1.564  12.503
60561SOL    HW181709  11.190   1.646  12.469
60561SOL    HW281710  11.334   1.583  12.512
60562SOL     OW81711  11.539   1.100  11.673
60562SOL    HW181712  11.532   1.183  11.617
60562SOL    HW281713  11.543   1.020  11.613
60563SOL     OW81714  11.738   0.537  12.037
60563SOL    HW181715  11.750   0.603  11.963
60563SOL    HW281716  11.784   0.571  12.120
60564SOL     OW81717  12.424   1.348  11.560
60564SOL    HW181718  12.474   1.425  11.600
60564SOL    HW281719  12.329   1.350  11.592
60565SOL     OW81720  12.444   1.445  12.314
60565SOL    HW181721  12.491   1.458  12.401
60565SOL    HW281722  12.378   1.371  12.323
60566SOL     OW81723  11.526   1.510  12.501
60566SOL    HW181724  11.505   1.466  12.414
60566SOL    HW281725  11.623   1.536  12.504
60567SOL     OW81726  11.574   0.751  12.770
60567SOL    HW181727  11.642   0.806  12.723
60567SOL    HW281728  11.614   0.663  12.797
60568SOL     OW81729  12.759   0.779  12.842
60568SOL    HW181730  12.667   0.817  12.837
60568SOL    HW281731  12.819   0.826  12.777
60569SOL     OW81732  11.745   0.870  12.201
60569SOL    HW181733  11.789   0.959  12.192
60569SOL    HW281734  11.682   0.870  12.278
60570SOL     OW81735  12.532   0.862  12.217
60570SOL    HW181736  12.457   0.862  12.151
60570SOL    HW281737  12.569   0.770  12.226
60571SOL     OW81738  12.381   0.525  11.447
60571SOL    HW181739  12.394   0.441  11.501
60571SOL    HW281740  12.352   0.599  11.507
60572SOL     OW81741  11.479   0.213  12.403
60572SOL    HW181742  11.456   0.250  12.493
60572SOL    HW281743  11.449   0.118  12.397
60573SOL     OW81744  11.209   1.310  12.454
60573SOL    HW181745  11.262   1.261  12.522
60573SOL    HW281746  11.231   1.408  12.459
60574SOL     OW81747  11.904   0.634  12.236
60574SOL    HW181748  11.963   0.608  12.160
60574SOL    HW281749  11.876   0.730  12.225
60575SOL     OW81750  11.479   0.063  11.790
60575SOL    HW181751  11.468   0.157  11.823
60575SOL    HW281752  11.474   0.000  11.867
60576SOL     OW81753  12.794   0.367  11.546
60576SOL    HW181754  12.796   0.291  11.610
60576SOL    HW281755  12.746   0.444  11.586
60577SOL     OW81756  12.195   0.766  12.138
60577SOL    HW181757  12.210   0.787  12.234
60577SOL    HW281758  12.165   0.671  12.129
60578SOL     OW81759  12.152   1.573  12.872
60578SOL    HW181760  12.132   1.617  12.784
60578SOL    HW281761  12.191   1.482  12.856
60579SOL     OW81762  12.475   0.838  11.214
60579SOL    HW181763  12.509   0.745  11.229
60579SOL    HW281764  12.493   0.865  11.119
60580SOL     OW81765  12.240   1.333  12.021
60580SOL    HW181766  12.247   1.249  11.966
60580SOL    HW281767  12.302   1.402  11.985
60581SOL     OW81768  11.491   0.810  12.121
60581SOL    HW181769  11.584   0.846  12.126
60581SOL    HW281770  11.485   0.725  12.173
60582SOL     OW81771  11.511   0.509  12.178
60582SOL    HW181772  11.459   0.426  12.161
60582SOL    HW281773  11.588   0.514  12.114
60583SOL     OW81774  12.310   0.380  12.850
60583SOL    HW181775  12.265   0.443  12.914
60583SOL    HW281776  12.403   0.411  12.833
60584SOL     OW81777  12.332   0.207  12.649
60584SOL    HW181778  12.332   0.271  12.726
60584SOL    HW281779  12.360   0.255  12.566
60585SOL     OW81780  11.180   1.326  11.372
60585SOL    HW181781  11.087   1.347  11.341
60585SOL    HW281782  11.190   1.227  11.385
60586SOL     OW81783  11.260   1.801  12.099
60586SOL    HW181784  11.218   1.715  12.072
60586SOL    HW281785  11.354   1.804  12.065
60587SOL     OW81786  11.676   1.568  12.082
60587SOL    HW181787  11.742   1.642  12.091
60587SOL    HW281788  11.720   1.489  12.040
60588SOL     OW81789  12.174   0.796  12.410
60588SOL    HW181790  12.215   0.764  12.496
60588SOL    HW281791  12.078   0.769  12.407
60589SOL     OW81792  11.212   0.544  12.286
60589SOL    HW181793  11.297   0.511  12.245
60589SOL    HW281794  11.225   0.559  12.384
60590SOL     OW81795  11.987   0.572  11.497
60590SOL    HW181796  11.994   0.483  11.451
60590SOL    HW281797  11.893   0.606  11.489
60591SOL     OW81798  11.843   0.464  12.441
60591SOL    HW181799  11.809   0.375  12.411
60591SOL    HW281800  11.869   0.518  12.361
60592SOL     OW81801  12.102   1.678  12.637
60592SOL    HW181802  12.078   1.660  12.542
60592SOL    HW281803  12.132   1.772  12.647
60593SOL     OW81804  11.645   0.500  11.363
60593SOL    HW181805  11.706   0.580  11.367
60593SOL    HW281806  11.550   0.531  11.370
60594SOL     OW81807  11.331   1.137  12.638
60594SOL    HW181808  11.353   1.076  12.714
60594SOL    HW281809  11.341   1.088  12.552
60595SOL     OW81810  12.519   1.059  12.406
60595SOL    HW181811  12.543   0.996  12.332
60595SOL    HW281812  12.429   1.099  12.388
60596SOL     OW81813  12.474   0.855  11.481
60596SOL    HW181814  12.388   0.824  11.523
60596SOL    HW281815  12.470   0.841  11.382
60597SOL     OW81816  12.424   1.731  12.300
60597SOL    HW181817  12.508   1.736  12.246
60597SOL    HW281818  12.401   1.635  12.318
60598SOL     OW81819  11.255   1.258  12.194
60598SOL    HW181820  11.250   1.257  12.294
60598SOL    HW281821  11.172   1.217  12.156
60599SOL     OW81822  12.560   1.573  11.649
60599SOL    HW181823  12.627   1.585  11.575
60599SOL    HW281824  12.520   1.662  11.672
60600SOL     OW81825  12.452   0.927  11.844
60600SOL    HW181826  12.512   0.846  11.846
60600SOL    HW281827  12.492   0.996  11.784
60601SOL     OW81828  11.844   1.616  11.326
60601SOL    HW181829  11.853   1.626  11.227
60601SOL    HW281830  11.804   1.527  11.347
60602SOL     OW81831  11.435   0.326  11.892
60602SOL    HW181832  11.356   0.377  11.858
60602SOL    HW281833  11.426   0.311  11.990
60603SOL     OW81834  12.366   1.612  11.203
60603SOL    HW181835  12.372   1.519  11.240
60603SOL    HW281836  12.307   1.612  11.123
60604SOL     OW81837  11.994   1.002  12.544
60604SOL    HW181838  12.034   1.001  12.452
60604SOL    HW281839  12.004   1.094  12.584
60605SOL     OW81840  12.088   0.910  11.463
60605SOL    HW181841  12.151   0.948  11.395
60605SOL    HW281842  12.128   0.827  11.502
60606SOL     OW81843  11.544   1.288  12.662
60606SOL    HW181844  11.531   1.381  12.628
60606SOL    HW281845  11.460   1.236  12.649
60607SOL     OW81846  12.211   1.098  11.868
60607SOL    HW181847  12.141   1.051  11.922
60607SOL    HW281848  12.270   1.030  11.825
60608SOL     OW81849  12.186   0.236  12.143
60608SOL    HW181850  12.178   0.200  12.050
60608SOL    HW281851  12.184   0.160  12.208
60609SOL     OW81852  11.762   1.487  11.663
60609SOL    HW181853  11.804   1.429  11.593
60609SOL    HW281854  11.718   1.566  11.619
60610SOL     OW81855  11.427   1.348  11.462
60610SOL    HW181856  11.331   1.349  11.435
60610SOL    HW281857  11.439   1.401  11.546
60611SOL     OW81858  11.247   0.345  11.205
60611SOL    HW181859  11.155   0.317  11.176
60611SOL    HW281860  11.278   0.422  11.149
60612SOL     OW81861  12.612   0.856  12.570
60612SOL    HW181862  12.555   0.908  12.507
60612SOL    HW281863  12.708   0.868  12.546
60613SOL     OW81864  11.244   0.166  11.490
60613SOL    HW181865  11.227   0.249  11.436
60613SOL    HW281866  11.334   0.129  11.468
60614SOL     OW81867  12.355   1.335  11.291
60614SOL    HW181868  12.256   1.324  11.293
60614SOL    HW281869  12.389   1.350  11.384
60615SOL     OW81870  11.785   0.842  12.603
60615SOL    HW181871  11.841   0.923  12.586
60615SOL    HW281872  11.844   0.762  12.606
60616SOL     OW81873  11.562   1.741  12.732
60616SOL    HW181874  11.471   1.782  12.730
60616SOL    HW281875  11.555   1.647  12.764
60617SOL     OW81876  12.397   0.325  11.621
60617SOL    HW181877  12.462   0.251  11.610
60617SOL    HW281878  12.417   0.375  11.705
60618SOL     OW81879  11.766   0.745  11.824
60618SOL    HW181880  11.816   0.830  11.805
60618SOL    HW281881  11.678   0.747  11.776
60619SOL     OW81882  12.031   1.374  11.188
60619SOL    HW181883  11.985   1.389  11.276
60619SOL    HW281884  12.075   1.459  11.158
60620SOL     OW81885  11.833   1.790  12.125
60620SOL    HW181886  11.787   1.878  12.112
60620SOL    HW281887  11.932   1.802  12.118
60621SOL     OW81888  12.031   0.956  12.033
60621SOL    HW181889  12.085   0.887  12.081
60621SOL    HW281890  11.999   1.025  12.099
60622SOL     OW81891  12.255   0.984  11.259
60622SOL    HW181892  12.232   1.037  11.177
60622SOL    HW281893  12.336   0.928  11.240
60623SOL     OW81894  11.251   1.240  11.825
60623SOL    HW181895  11.250   1.193  11.913
60623SOL    HW281896  11.333   1.212  11.774
60624SOL     OW81897  11.600   0.424  11.692
60624SOL    HW181898  11.630   0.352  11.630
60624SOL    HW281899  11.561   0.384  11.775
60625SOL     OW81900  12.877   1.487  12.276
60625SOL    HW181901  12.784   1.462  12.249
60625SOL    HW281902  12.903   1.437  12.358
60626SOL     OW81903  11.489   0.547  12.452
60626SOL    HW181904  11.527   0.488  12.524
60626SOL    HW281905  11.529   0.521  12.364
60627SOL     OW81906  11.984   1.586  11.859
60627SOL    HW181907  12.016   1.596  11.765
60627SOL    HW281908  11.905   1.524  11.861
60628SOL     OW81909  12.596   0.214  12.284
60628SOL    HW181910  12.648   0.149  12.339
60628SOL    HW281911  12.547   0.277  12.345
60629SOL     OW81912  12.173   0.034  12.326
60629SOL    HW181913  12.110  -0.038  12.295
60629SOL    HW281914  12.266  -0.002  12.326
60630SOL     OW81915  11.942   1.330  11.473
60630SOL    HW181916  11.896   1.243  11.490
60630SOL    HW281917  12.033   1.327  11.514
60631SOL     OW81918  11.790   1.567  12.456
60631SOL    HW181919  11.785   1.649  12.513
60631SOL    HW281920  11.879   1.564  12.411
60632SOL     OW81921  12.524   0.052  11.340
60632SOL    HW181922  12.559   0.011  11.256
60632SOL    HW281923  12.434   0.014  11.360
60633SOL     OW81924  12.472   0.453  11.863
60633SOL    HW181925  12.413   0.533  11.867
60633SOL    HW281926  12.487   0.418  11.956
60634SOL     OW81927  11.211   1.077  11.472
60634SOL    HW181928  11.310   1.066  11.463
60634SOL    HW281929  11.171   0.991  11.504
60635SOL     OW81930  12.047   1.646  11.509
60635SOL    HW181931  11.970   1.611  11.455
60635SOL    HW281932  12.015   1.717  11.571
60636SOL     OW81933  11.402   2.490   0.113
60636SOL    HW181934  11.309   2.488   0.150
60636SOL    HW281935  11.403   2.451   0.021
60637SOL     OW81936  11.397   2.137   0.996
60637SOL    HW181937  11.432   2.120   1.088
60637SOL    HW281938  11.309   2.092   0.984
60638SOL     OW81939  11.191   2.230   0.647
60638SOL    HW181940  11.109   2.273   0.686
60638SOL    HW281941  11.163   2.157   0.584
60639SOL     OW81942  11.741   3.137   1.165
60639SOL    HW181943  11.648   3.130   1.128
60639SOL    HW281944  11.752   3.226   1.209
60640SOL     OW81945  12.727   3.373   0.703
60640SOL    HW181946  12.670   3.357   0.784
60640SOL    HW281947  12.668   3.383   0.623
60641SOL     OW81948  12.307   2.565   0.717
60641SOL    HW181949  12.364   2.643   0.692
60641SOL    HW281950  12.247   2.591   0.793
60642SOL     OW81951  11.940   3.006   1.023
60642SOL    HW181952  11.862   3.023   1.083
60642SOL    HW281953  11.974   3.093   0.987
60643SOL     OW81954  12.022   2.660   1.823
60643SOL    HW181955  12.018   2.736   1.888
60643SOL    HW281956  12.044   2.696   1.732
60644SOL     OW81957  11.857   2.874   0.665
60644SOL    HW181958  11.926   2.858   0.735
60644SOL    HW281959  11.784   2.931   0.703
60645SOL     OW81960  11.858   3.023   1.803
60645SOL    HW181961  11.918   3.102   1.817
60645SOL    HW281962  11.772   3.054   1.762
60646SOL     OW81963  11.507   3.297   1.061
60646SOL    HW181964  11.429   3.266   1.008
60646SOL    HW281965  11.565   3.355   1.004
60647SOL     OW81966  11.610   2.254   1.499
60647SOL    HW181967  11.692   2.198   1.508
60647SOL    HW281968  11.529   2.196   1.503
60648SOL     OW81969  11.403   3.575   0.483
60648SOL    HW181970  11.437   3.652   0.537
60648SOL    HW281971  11.447   3.575   0.393
60649SOL     OW81972  12.299   3.203   1.690
60649SOL    HW181973  12.346   3.203   1.778
60649SOL    HW281974  12.251   3.116   1.679
60650SOL     OW81975  11.402   3.296   0.538
60650SOL    HW181976  11.376   3.392   0.538
60650SOL    HW281977  11.331   3.242   0.583
60651SOL     OW81978  11.412   2.953   0.886
60651SOL    HW181979  11.426   2.869   0.938
60651SOL    HW281980  11.357   3.017   0.941
60652SOL     OW81981  11.792   3.648   1.439
60652SOL    HW181982  11.700   3.631   1.474
60652SOL    HW281983  11.820   3.740   1.465
60653SOL     OW81984  11.778   2.826   0.123
60653SOL    HW181985  11.785   2.910   0.069
60653SOL    HW281986  11.824   2.839   0.211
60654SOL     OW81987  11.294   2.505   0.563
60654SOL    HW181988  11.249   2.417   0.580
60654SOL    HW281989  11.293   2.559   0.647
60655SOL     OW81990  11.199   3.458   0.117
60655SOL    HW181991  11.180   3.362   0.138
60655SOL    HW281992  11.166   3.516   0.192
60656SOL     OW81993  12.861   2.784   0.612
60656SOL    HW181994  12.956   2.755   0.620
60656SOL    HW281995  12.853   2.849   0.537
60657SOL     OW81996  11.285   2.599   1.597
60657SOL    HW181997  11.373   2.586   1.642
60657SOL    HW281998  11.272   2.696   1.575
60658SOL     OW81999  11.785   3.227   0.726
60658SOL    HW182000  11.736   3.140   0.735
60658SOL    HW282001  11.762   3.270   0.639
60659SOL     OW82002  12.465   3.090   1.423
60659SOL    HW182003  12.502   3.017   1.365
60659SOL    HW282004  12.517   3.095   1.508
60660SOL     OW82005  11.981   1.866   0.502
60660SOL    HW182006  12.021   1.957   0.493
60660SOL    HW282007  11.881   1.874   0.508
60661SOL     OW82008  11.369   2.838   1.264
60661SOL    HW182009  11.458   2.793   1.250
60661SOL    HW282010  11.296   2.773   1.245
60662SOL     OW82011  12.359   3.654   1.616
60662SOL    HW182012  12.383   3.714   1.540
60662SOL    HW282013  12.366   3.559   1.586
60663SOL     OW82014  11.489   2.113   1.801
60663SOL    HW182015  11.560   2.184   1.807
60663SOL    HW282016  11.401   2.152   1.829
60664SOL     OW82017  12.638   3.279   0.953
60664SOL    HW182018  12.579   3.285   1.033
60664SOL    HW282019  12.623   3.191   0.907
60665SOL     OW82020  11.770   2.591   0.270
60665SOL    HW182021  11.794   2.660   0.202
60665SOL    HW282022  11.692   2.624   0.324
60666SOL     OW82023  12.453   2.207   0.944
60666SOL    HW182024  12.367   2.157   0.931
60666SOL    HW282025  12.515   2.153   1.000
60667SOL     OW82026  11.979   2.467   1.465
60667SOL    HW182027  11.932   2.464   1.554
60667SOL    HW282028  11.928   2.412   1.399
60668SOL     OW82029  12.566   2.331   1.674
60668SOL    HW182030  12.546   2.374   1.762
60668SOL    HW282031  12.644   2.269   1.683
60669SOL     OW82032  12.145   2.752   1.572
60669SOL    HW182033  12.191   2.668   1.543
60669SOL    HW282034  12.089   2.786   1.497
60670SOL     OW82035  12.163   2.272   1.242
60670SOL    HW182036  12.086   2.306   1.296
60670SOL    HW282037  12.129   2.221   1.163
60671SOL     OW82038  12.213   2.563   0.429
60671SOL    HW182039  12.239   2.559   0.525
60671SOL    HW282040  12.128   2.512   0.415
60672SOL     OW82041  11.248   2.673   0.789
60672SOL    HW182042  11.347   2.661   0.798
60672SOL    HW282043  11.224   2.768   0.810
60673SOL     OW82044  11.302   3.683   1.571
60673SOL    HW182045  11.292   3.668   1.670
60673SOL    HW282046  11.216   3.719   1.535
60674SOL     OW82047  12.037   2.210   0.195
60674SOL    HW182048  12.096   2.273   0.146
60674SOL    HW282049  12.056   2.116   0.166
60675SOL     OW82050  12.534   3.006   0.545
60675SOL    HW182051  12.617   2.977   0.497
60675SOL    HW282052  12.485   3.073   0.489
60676SOL     OW82053  11.722   2.058   0.885
60676SOL    HW182054  11.717   2.053   0.985
60676SOL    HW282055  11.724   2.154   0.856
60677SOL     OW82056  12.180   3.318   0.477
60677SOL    HW182057  12.134   3.390   0.425
60677SOL    HW282058  12.176   3.338   0.575
60678SOL     OW82059  11.523   3.663   0.853
60678SOL    HW182060  11.573   3.577   0.859
60678SOL    HW282061  11.588   3.740   0.850
60679SOL     OW82062  12.399   3.412   1.506
60679SOL    HW182063  12.405   3.335   1.570
60679SOL    HW282064  12.347   3.386   1.426
60680SOL     OW82065  11.493   2.805   0.242
60680SOL    HW182066  11.575   2.844   0.200
60680SOL    HW282067  11.466   2.723   0.193
60681SOL     OW82068  11.633   3.128   1.727
60681SOL    HW182069  11.583   3.129   1.641
60681SOL    HW282070  11.570   3.110   1.803
60682SOL     OW82071  12.283   3.638   0.237
60682SOL    HW182072  12.223   3.576   0.287
60682SOL    HW282073  12.314   3.594   0.152
60683SOL     OW82074  11.374   2.147   1.498
60683SOL    HW182075  11.294   2.207   1.485
60683SOL    HW282076  11.364   2.098   1.584
60684SOL     OW82077  11.636   3.605   0.323
60684SOL    HW182078  11.669   3.644   0.409
60684SOL    HW282079  11.712   3.598   0.258
60685SOL     OW82080  12.572   1.969   0.426
60685SOL    HW182081  12.548   1.932   0.336
60685SOL    HW282082  12.671   1.985   0.430
60686SOL     OW82083  11.421   3.647   1.241
60686SOL    HW182084  11.478   3.582   1.291
60686SOL    HW282085  11.405   3.614   1.148
60687SOL     OW82086  12.112   3.560   0.904
60687SOL    HW182087  12.192   3.503   0.925
60687SOL    HW282088  12.063   3.520   0.827
60688SOL     OW82089  11.554   2.562   0.480
60688SOL    HW182090  11.599   2.472   0.477
60688SOL    HW282091  11.460   2.551   0.513
60689SOL     OW82092  11.786   1.984   0.117
60689SOL    HW182093  11.884   1.962   0.124
60689SOL    HW282094  11.755   1.967   0.024
60690SOL     OW82095  11.953   2.126   1.749
60690SOL    HW182096  12.020   2.065   1.792
60690SOL    HW282097  11.880   2.145   1.814
60691SOL     OW82098  12.060   3.376   1.195
60691SOL    HW182099  12.037   3.351   1.101
60691SOL    HW282100  12.121   3.307   1.234
60692SOL     OW82101  12.523   2.452   1.433
60692SOL    HW182102  12.551   2.409   1.518
60692SOL    HW282103  12.548   2.548   1.434
60693SOL     OW82104  11.975   3.264   0.924
60693SOL    HW182105  12.065   3.278   0.882
60693SOL    HW282106  11.904   3.266   0.853
60694SOL     OW82107  12.094   2.365   0.899
60694SOL    HW182108  12.069   2.356   0.803
60694SOL    HW282109  12.142   2.283   0.930
60695SOL     OW82110  11.711   1.926   0.512
60695SOL    HW182111  11.630   1.927   0.570
60695SOL    HW282112  11.714   2.009   0.457
60696SOL     OW82113  12.606   3.050   0.041
60696SOL    HW182114  12.638   2.974   0.098
60696SOL    HW282115  12.514   3.077   0.071
60697SOL     OW82116  11.469   1.897   0.171
60697SOL    HW182117  11.518   1.981   0.150
60697SOL    HW282118  11.531   1.832   0.216
60698SOL     OW82119  12.107   2.098   0.480
60698SOL    HW182120  12.059   2.139   0.402
60698SOL    HW282121  12.206   2.096   0.461
60699SOL     OW82122  12.248   2.545   1.464
60699SOL    HW182123  12.168   2.484   1.467
60699SOL    HW282124  12.329   2.492   1.440
60700SOL     OW82125  12.399   3.432   0.793
60700SOL    HW182126  12.420   3.506   0.728
60700SOL    HW282127  12.467   3.432   0.866
60701SOL     OW82128  11.631   3.014   0.741
60701SOL    HW182129  11.560   2.987   0.806
60701SOL    HW282130  11.605   2.986   0.648
60702SOL     OW82131  12.443   3.659   0.591
60702SOL    HW182132  12.487   3.723   0.527
60702SOL    HW282133  12.393   3.711   0.661
60703SOL     OW82134  12.204   2.411   0.016
60703SOL    HW182135  12.163   2.493  -0.023
60703SOL    HW282136  12.268   2.437   0.089
60704SOL     OW82137  11.250   2.418   1.386
60704SOL    HW182138  11.342   2.417   1.345
60704SOL    HW282139  11.244   2.492   1.453
60705SOL     OW82140  11.733   2.084   1.147
60705SOL    HW182141  11.771   2.000   1.184
60705SOL    HW282142  11.645   2.103   1.191
60706SOL     OW82143  12.038   2.316   0.642
60706SOL    HW182144  12.006   2.388   0.580
60706SOL    HW282145  12.062   2.235   0.589
60707SOL     OW82146  12.189   1.901   0.753
60707SOL    HW182147  12.117   1.906   0.684
60707SOL    HW282148  12.165   1.832   0.822
60708SOL     OW82149  12.601   3.035   0.867
60708SOL    HW182150  12.546   2.951   0.860
60708SOL    HW282151  12.627   3.064   0.775
60709SOL     OW82152  11.660   3.247   0.174
60709SOL    HW182153  11.573   3.232   0.221
60709SOL    HW282154  11.643   3.273   0.079
60710SOL     OW82155  12.562   2.437   0.078
60710SOL    HW182156  12.508   2.416   0.159
60710SOL    HW282157  12.653   2.396   0.087
60711SOL     OW82158  11.699   2.118   0.328
60711SOL    HW182159  11.726   2.059   0.253
60711SOL    HW282160  11.699   2.213   0.297
60712SOL     OW82161  12.236   3.209   1.340
60712SOL    HW182162  12.156   3.186   1.395
60712SOL    HW282163  12.319   3.183   1.389
60713SOL     OW82164  12.764   3.491   1.625
60713SOL    HW182165  12.791   3.525   1.535
60713SOL    HW282166  12.843   3.453   1.671
60714SOL     OW82167  12.283   3.057   1.100
60714SOL    HW182168  12.243   3.101   1.181
60714SOL    HW282169  12.242   3.094   1.017
60715SOL     OW82170  12.087   1.951   1.402
60715SOL    HW182171  12.112   1.931   1.307
60715SOL    HW282172  12.159   2.007   1.444
60716SOL     OW82173  12.152   2.978   1.719
60716SOL    HW182174  12.053   2.984   1.729
60716SOL    HW282175  12.175   2.898   1.663
60717SOL     OW82176  11.877   2.912   0.368
60717SOL    HW182177  11.863   2.919   0.467
60717SOL    HW282178  11.961   2.861   0.350
60718SOL     OW82179  11.582   2.675   1.251
60718SOL    HW182180  11.668   2.687   1.301
60718SOL    HW282181  11.540   2.588   1.278
60719SOL     OW82182  12.446   2.248   1.262
60719SOL    HW182183  12.467   2.322   1.326
60719SOL    HW282184  12.357   2.265   1.219
60720SOL     OW82185  11.236   3.426   1.331
60720SOL    HW182186  11.190   3.508   1.297
60720SOL    HW282187  11.334   3.445   1.340
60721SOL     OW82188  11.539   2.962   0.501
60721SOL    HW182189  11.532   3.045   0.445
60721SOL    HW282190  11.543   2.882   0.441
60722SOL     OW82191  11.738   2.399   0.865
60722SOL    HW182192  11.750   2.465   0.791
60722SOL    HW282193  11.784   2.433   0.948
60723SOL     OW82194  12.424   3.210   0.388
60723SOL    HW182195  12.474   3.287   0.428
60723SOL    HW282196  12.329   3.212   0.420
60724SOL     OW82197  12.444   3.307   1.142
60724SOL    HW182198  12.491   3.320   1.229
60724SOL    HW282199  12.378   3.233   1.151
60725SOL     OW82200  11.526   3.372   1.329
60725SOL    HW182201  11.505   3.328   1.242
60725SOL    HW282202  11.623   3.398   1.332
60726SOL     OW82203  11.574   2.613   1.598
60726SOL    HW182204  11.642   2.668   1.551
60726SOL    HW282205  11.614   2.525   1.625
60727SOL     OW82206  12.185   1.967   1.770
60727SOL    HW182207  12.191   2.052   1.718
60727SOL    HW282208  12.217   1.891   1.713
60728SOL     OW82209  11.676   1.912   1.740
60728SOL    HW182210  11.634   1.855   1.670
60728SOL    HW282211  11.610   1.981   1.772
60729SOL     OW82212  11.745   2.732   1.029
60729SOL    HW182213  11.789   2.821   1.020
60729SOL    HW282214  11.682   2.732   1.106
60730SOL     OW82215  12.532   2.724   1.045
60730SOL    HW182216  12.457   2.724   0.979
60730SOL    HW282217  12.569   2.632   1.054
60731SOL     OW82218  12.381   2.387   0.275
60731SOL    HW182219  12.394   2.303   0.329
60731SOL    HW282220  12.352   2.461   0.335
60732SOL     OW82221  11.479   2.075   1.231
60732SOL    HW182222  11.456   2.112   1.321
60732SOL    HW282223  11.449   1.980   1.225
60733SOL     OW82224  11.209   3.172   1.282
60733SOL    HW182225  11.262   3.123   1.350
60733SOL    HW282226  11.231   3.270   1.287
60734SOL     OW82227  11.904   2.496   1.064
60734SOL    HW182228  11.963   2.470   0.988
60734SOL    HW282229  11.876   2.592   1.053
60735SOL     OW82230  11.479   1.925   0.618
60735SOL    HW182231  11.468   2.019   0.651
60735SOL    HW282232  11.474   1.862   0.695
60736SOL     OW82233  12.794   2.229   0.374
60736SOL    HW182234  12.796   2.153   0.438
60736SOL    HW282235  12.746   2.306   0.414
60737SOL     OW82236  12.195   2.628   0.966
60737SOL    HW182237  12.210   2.649   1.062
60737SOL    HW282238  12.165   2.533   0.957
60738SOL     OW82239  12.152   3.435   1.700
60738SOL    HW182240  12.132   3.479   1.612
60738SOL    HW282241  12.191   3.344   1.684
60739SOL     OW82242  11.522   2.760   1.804
60739SOL    HW182243  11.598   2.804   1.852
60739SOL    HW282244  11.557   2.713   1.722
60740SOL     OW82245  12.475   2.700   0.042
60740SOL    HW182246  12.509   2.607   0.057
60740SOL    HW282247  12.493   2.727  -0.053
60741SOL     OW82248  12.240   3.195   0.849
60741SOL    HW182249  12.247   3.111   0.794
60741SOL    HW282250  12.302   3.264   0.813
60742SOL     OW82251  11.491   2.672   0.949
60742SOL    HW182252  11.584   2.708   0.954
60742SOL    HW282253  11.485   2.587   1.001
60743SOL     OW82254  11.511   2.371   1.006
60743SOL    HW182255  11.459   2.288   0.989
60743SOL    HW282256  11.588   2.376   0.942
60744SOL     OW82257  12.310   2.242   1.678
60744SOL    HW182258  12.265   2.305   1.742
60744SOL    HW282259  12.403   2.273   1.661
60745SOL     OW82260  12.332   2.069   1.477
60745SOL    HW182261  12.332   2.133   1.554
60745SOL    HW282262  12.360   2.117   1.394
60746SOL     OW82263  11.180   3.188   0.200
60746SOL    HW182264  11.087   3.209   0.169
60746SOL    HW282265  11.190   3.089   0.213
60747SOL     OW82266  11.260   3.663   0.927
60747SOL    HW182267  11.218   3.577   0.900
60747SOL    HW282268  11.354   3.666   0.893
60748SOL     OW82269  11.676   3.430   0.910
60748SOL    HW182270  11.742   3.504   0.919
60748SOL    HW282271  11.720   3.351   0.868
60749SOL     OW82272  12.174   2.658   1.238
60749SOL    HW182273  12.215   2.626   1.324
60749SOL    HW282274  12.078   2.631   1.235
60750SOL     OW82275  11.212   2.406   1.114
60750SOL    HW182276  11.297   2.373   1.073
60750SOL    HW282277  11.225   2.421   1.212
60751SOL     OW82278  11.361   2.382   1.722
60751SOL    HW182279  11.420   2.342   1.652
60751SOL    HW282280  11.303   2.453   1.681
60752SOL     OW82281  12.541   2.812   1.660
60752SOL    HW182282  12.580   2.901   1.680
60752SOL    HW282283  12.551   2.792   1.563
60753SOL     OW82284  11.987   2.434   0.325
60753SOL    HW182285  11.994   2.345   0.279
60753SOL    HW282286  11.893   2.468   0.317
60754SOL     OW82287  11.424   3.426   1.744
60754SOL    HW182288  11.394   3.483   1.820
60754SOL    HW282289  11.417   3.329   1.770
60755SOL     OW82290  11.843   2.326   1.269
60755SOL    HW182291  11.809   2.237   1.239
60755SOL    HW282292  11.869   2.380   1.189
60756SOL     OW82293  12.102   3.540   1.465
60756SOL    HW182294  12.078   3.522   1.370
60756SOL    HW282295  12.132   3.634   1.475
60757SOL     OW82296  11.645   2.362   0.191
60757SOL    HW182297  11.706   2.442   0.195
60757SOL    HW282298  11.550   2.393   0.198
60758SOL     OW82299  11.331   2.999   1.466
60758SOL    HW182300  11.353   2.938   1.542
60758SOL    HW282301  11.341   2.950   1.380
60759SOL     OW82302  12.519   2.921   1.234
60759SOL    HW182303  12.543   2.858   1.160
60759SOL    HW282304  12.429   2.961   1.216
60760SOL     OW82305  12.474   2.717   0.309
60760SOL    HW182306  12.388   2.686   0.351
60760SOL    HW282307  12.470   2.703   0.210
60761SOL     OW82308  12.424   3.593   1.128
60761SOL    HW182309  12.508   3.598   1.074
60761SOL    HW282310  12.401   3.497   1.146
60762SOL     OW82311  11.255   3.120   1.022
60762SOL    HW182312  11.250   3.119   1.122
60762SOL    HW282313  11.172   3.079   0.984
60763SOL     OW82314  11.860   3.524   1.716
60763SOL    HW182315  11.804   3.605   1.725
60763SOL    HW282316  11.912   3.528   1.630
60764SOL     OW82317  12.075   1.948   0.133
60764SOL    HW182318  12.126   1.949   0.047
60764SOL    HW282319  12.131   1.906   0.204
60765SOL     OW82320  12.898   1.997   0.523
60765SOL    HW182321  12.971   1.980   0.456
60765SOL    HW282322  12.867   1.910   0.561
60766SOL     OW82323  12.560   3.435   0.477
60766SOL    HW182324  12.627   3.447   0.403
60766SOL    HW282325  12.520   3.524   0.500
60767SOL     OW82326  11.302   3.656   1.851
60767SOL    HW182327  11.261   3.582   1.904
60767SOL    HW282328  11.366   3.707   1.909
60768SOL     OW82329  12.452   2.789   0.672
60768SOL    HW182330  12.512   2.708   0.674
60768SOL    HW282331  12.492   2.858   0.612
60769SOL     OW82332  12.002   3.135   1.422
60769SOL    HW182333  11.997   3.168   1.517
60769SOL    HW282334  11.916   3.154   1.376
60770SOL     OW82335  11.844   3.478   0.154
60770SOL    HW182336  11.853   3.488   0.055
60770SOL    HW282337  11.804   3.389   0.175
60771SOL     OW82338  11.435   2.188   0.720
60771SOL    HW182339  11.356   2.239   0.686
60771SOL    HW282340  11.426   2.173   0.818
60772SOL     OW82341  12.366   3.474   0.031
60772SOL    HW182342  12.372   3.381   0.068
60772SOL    HW282343  12.307   3.474  -0.049
60773SOL     OW82344  11.994   2.864   1.372
60773SOL    HW182345  12.034   2.863   1.280
60773SOL    HW282346  12.004   2.956   1.412
60774SOL     OW82347  12.088   2.772   0.291
60774SOL    HW182348  12.151   2.810   0.223
60774SOL    HW282349  12.128   2.689   0.330
60775SOL     OW82350  11.544   3.150   1.490
60775SOL    HW182351  11.531   3.243   1.456
60775SOL    HW282352  11.460   3.098   1.477
60776SOL     OW82353  12.211   2.960   0.696
60776SOL    HW182354  12.141   2.913   0.750
60776SOL    HW282355  12.270   2.892   0.653
60777SOL     OW82356  12.186   2.098   0.971
60777SOL    HW182357  12.178   2.062   0.878
60777SOL    HW282358  12.184   2.022   1.036
60778SOL     OW82359  11.762   3.349   0.491
60778SOL    HW182360  11.804   3.291   0.421
60778SOL    HW282361  11.718   3.428   0.447
60779SOL     OW82362  11.427   3.210   0.290
60779SOL    HW182363  11.331   3.211   0.263
60779SOL    HW282364  11.439   3.263   0.374
60780SOL     OW82365  11.277   2.875   1.726
60780SOL    HW182366  11.200   2.842   1.780
60780SOL    HW282367  11.362   2.845   1.768
60781SOL     OW82368  11.844   2.065   1.489
60781SOL    HW182369  11.934   2.049   1.449
60781SOL    HW282370  11.852   2.070   1.588
60782SOL     OW82371  12.612   2.718   1.398
60782SOL    HW182372  12.555   2.770   1.335
60782SOL    HW282373  12.708   2.730   1.374
60783SOL     OW82374  11.244   2.028   0.318
60783SOL    HW182375  11.227   2.111   0.264
60783SOL    HW282376  11.334   1.991   0.296
60784SOL     OW82377  12.355   3.197   0.119
60784SOL    HW182378  12.256   3.186   0.121
60784SOL    HW282379  12.389   3.212   0.212
60785SOL     OW82380  11.785   2.704   1.431
60785SOL    HW182381  11.841   2.785   1.414
60785SOL    HW282382  11.844   2.624   1.434
60786SOL     OW82383  11.888   2.427   1.708
60786SOL    HW182384  11.907   2.492   1.782
60786SOL    HW282385  11.948   2.347   1.717
60787SOL     OW82386  12.622   3.082   1.633
60787SOL    HW182387  12.613   3.072   1.732
60787SOL    HW282388  12.718   3.075   1.607
60788SOL     OW82389  11.562   3.603   1.560
60788SOL    HW182390  11.471   3.644   1.558
60788SOL    HW282391  11.555   3.509   1.592
60789SOL     OW82392  12.397   2.187   0.449
60789SOL    HW182393  12.462   2.113   0.438
60789SOL    HW282394  12.417   2.237   0.533
60790SOL     OW82395  11.766   2.607   0.652
60790SOL    HW182396  11.816   2.692   0.633
60790SOL    HW282397  11.678   2.609   0.604
60791SOL     OW82398  12.031   3.236   0.016
60791SOL    HW182399  11.985   3.251   0.104
60791SOL    HW282400  12.075   3.321  -0.014
60792SOL     OW82401  11.833   3.652   0.953
60792SOL    HW182402  11.787   3.740   0.940
60792SOL    HW282403  11.932   3.664   0.946
60793SOL     OW82404  12.031   2.818   0.861
60793SOL    HW182405  12.085   2.749   0.909
60793SOL    HW282406  11.999   2.887   0.927
60794SOL     OW82407  12.255   2.846   0.087
60794SOL    HW182408  12.232   2.899   0.005
60794SOL    HW282409  12.336   2.790   0.068
60795SOL     OW82410  11.393   3.176   1.844
60795SOL    HW182411  11.328   3.103   1.823
60795SOL    HW282412  11.397   3.190   1.942
60796SOL     OW82413  11.251   3.102   0.653
60796SOL    HW182414  11.250   3.055   0.741
60796SOL    HW282415  11.333   3.074   0.602
60797SOL     OW82416  11.844   3.253   1.624
60797SOL    HW182417  11.766   3.203   1.662
60797SOL    HW282418  11.841   3.348   1.655
60798SOL     OW82419  11.600   2.286   0.520
60798SOL    HW182420  11.630   2.214   0.458
60798SOL    HW282421  11.561   2.246   0.603
60799SOL     OW82422  12.877   3.349   1.104
60799SOL    HW182423  12.784   3.324   1.077
60799SOL    HW282424  12.903   3.299   1.186
60800SOL     OW82425  11.489   2.409   1.280
60800SOL    HW182426  11.527   2.350   1.352
60800SOL    HW282427  11.529   2.383   1.192
60801SOL     OW82428  11.984   3.448   0.687
60801SOL    HW182429  12.016   3.458   0.593
60801SOL    HW282430  11.905   3.386   0.689
60802SOL     OW82431  12.596   2.076   1.112
60802SOL    HW182432  12.648   2.011   1.167
60802SOL    HW282433  12.547   2.139   1.173
60803SOL     OW82434  12.173   1.896   1.154
60803SOL    HW182435  12.110   1.824   1.123
60803SOL    HW282436  12.266   1.860   1.154
60804SOL     OW82437  11.942   3.192   0.301
60804SOL    HW182438  11.896   3.105   0.318
60804SOL    HW282439  12.033   3.189   0.342
60805SOL     OW82440  11.790   3.429   1.284
60805SOL    HW182441  11.785   3.511   1.341
60805SOL    HW282442  11.879   3.426   1.239
60806SOL     OW82443  12.524   1.914   0.168
60806SOL    HW182444  12.559   1.873   0.084
60806SOL    HW282445  12.434   1.876   0.188
60807SOL     OW82446  12.472   2.315   0.691
60807SOL    HW182447  12.413   2.395   0.695
60807SOL    HW282448  12.487   2.280   0.784
60808SOL     OW82449  11.211   2.939   0.300
60808SOL    HW182450  11.310   2.928   0.291
60808SOL    HW282451  11.171   2.853   0.332
60809SOL     OW82452  12.047   3.508   0.337
60809SOL    HW182453  11.970   3.473   0.283
60809SOL    HW282454  12.015   3.579   0.399
60810SOL     OW82455  11.402   2.490   1.975
60810SOL    HW182456  11.309   2.488   2.012
60810SOL    HW282457  11.403   2.451   1.883
60811SOL     OW82458  11.397   2.137   2.858
60811SOL    HW182459  11.432   2.120   2.950
60811SOL    HW282460  11.309   2.092   2.846
60812SOL     OW82461  11.191   2.230   2.509
60812SOL    HW182462  11.109   2.273   2.548
60812SOL    HW282463  11.163   2.157   2.446
60813SOL     OW82464  11.741   3.137   3.027
60813SOL    HW182465  11.648   3.130   2.990
60813SOL    HW282466  11.752   3.226   3.071
60814SOL     OW82467  12.727   3.373   2.565
60814SOL    HW182468  12.670   3.357   2.646
60814SOL    HW282469  12.668   3.383   2.485
60815SOL     OW82470  12.307   2.565   2.579
60815SOL    HW182471  12.364   2.643   2.554
60815SOL    HW282472  12.247   2.591   2.655
60816SOL     OW82473  11.940   3.006   2.885
60816SOL    HW182474  11.862   3.023   2.945
60816SOL    HW282475  11.974   3.093   2.849
60817SOL     OW82476  12.022   2.660   3.685
60817SOL    HW182477  12.018   2.736   3.750
60817SOL    HW282478  12.044   2.696   3.594
60818SOL     OW82479  11.857   2.874   2.527
60818SOL    HW182480  11.926   2.858   2.597
60818SOL    HW282481  11.784   2.931   2.565
60819SOL     OW82482  11.858   3.023   3.665
60819SOL    HW182483  11.918   3.102   3.679
60819SOL    HW282484  11.772   3.054   3.624
60820SOL     OW82485  11.507   3.297   2.923
60820SOL    HW182486  11.429   3.266   2.870
60820SOL    HW282487  11.565   3.355   2.866
60821SOL     OW82488  11.610   2.254   3.361
60821SOL    HW182489  11.692   2.198   3.370
60821SOL    HW282490  11.529   2.196   3.365
60822SOL     OW82491  11.403   3.575   2.345
60822SOL    HW182492  11.437   3.652   2.399
60822SOL    HW282493  11.447   3.575   2.255
60823SOL     OW82494  12.299   3.203   3.552
60823SOL    HW182495  12.346   3.203   3.640
60823SOL    HW282496  12.251   3.116   3.541
60824SOL     OW82497  11.402   3.296   2.400
60824SOL    HW182498  11.376   3.392   2.400
60824SOL    HW282499  11.331   3.242   2.445
60825SOL     OW82500  11.412   2.953   2.748
60825SOL    HW182501  11.426   2.869   2.800
60825SOL    HW282502  11.357   3.017   2.803
60826SOL     OW82503  11.792   3.648   3.301
60826SOL    HW182504  11.700   3.631   3.336
60826SOL    HW282505  11.820   3.740   3.327
60827SOL     OW82506  11.778   2.826   1.985
60827SOL    HW182507  11.785   2.910   1.931
60827SOL    HW282508  11.824   2.839   2.073
60828SOL     OW82509  11.294   2.505   2.425
60828SOL    HW182510  11.249   2.417   2.442
60828SOL    HW282511  11.293   2.559   2.509
60829SOL     OW82512  11.199   3.458   1.979
60829SOL    HW182513  11.180   3.362   2.000
60829SOL    HW282514  11.166   3.516   2.054
60830SOL     OW82515  12.861   2.784   2.474
60830SOL    HW182516  12.956   2.755   2.482
60830SOL    HW282517  12.853   2.849   2.399
60831SOL     OW82518  11.285   2.599   3.459
60831SOL    HW182519  11.373   2.586   3.504
60831SOL    HW282520  11.272   2.696   3.437
60832SOL     OW82521  11.785   3.227   2.588
60832SOL    HW182522  11.736   3.140   2.597
60832SOL    HW282523  11.762   3.270   2.501
60833SOL     OW82524  12.465   3.090   3.285
60833SOL    HW182525  12.502   3.017   3.227
60833SOL    HW282526  12.517   3.095   3.370
60834SOL     OW82527  11.981   1.866   2.364
60834SOL    HW182528  12.021   1.957   2.355
60834SOL    HW282529  11.881   1.874   2.370
60835SOL     OW82530  11.369   2.838   3.126
60835SOL    HW182531  11.458   2.793   3.112
60835SOL    HW282532  11.296   2.773   3.107
60836SOL     OW82533  12.359   3.654   3.478
60836SOL    HW182534  12.383   3.714   3.402
60836SOL    HW282535  12.366   3.559   3.448
60837SOL     OW82536  11.489   2.113   3.663
60837SOL    HW182537  11.560   2.184   3.669
60837SOL    HW282538  11.401   2.152   3.691
60838SOL     OW82539  12.638   3.279   2.815
60838SOL    HW182540  12.579   3.285   2.895
60838SOL    HW282541  12.623   3.191   2.769
60839SOL     OW82542  11.770   2.591   2.132
60839SOL    HW182543  11.794   2.660   2.064
60839SOL    HW282544  11.692   2.624   2.186
60840SOL     OW82545  12.453   2.207   2.806
60840SOL    HW182546  12.367   2.157   2.793
60840SOL    HW282547  12.515   2.153   2.862
60841SOL     OW82548  11.979   2.467   3.327
60841SOL    HW182549  11.932   2.464   3.416
60841SOL    HW282550  11.928   2.412   3.261
60842SOL     OW82551  12.566   2.331   3.536
60842SOL    HW182552  12.546   2.374   3.624
60842SOL    HW282553  12.644   2.269   3.545
60843SOL     OW82554  12.145   2.752   3.434
60843SOL    HW182555  12.191   2.668   3.405
60843SOL    HW282556  12.089   2.786   3.359
60844SOL     OW82557  12.163   2.272   3.104
60844SOL    HW182558  12.086   2.306   3.158
60844SOL    HW282559  12.129   2.221   3.025
60845SOL     OW82560  12.213   2.563   2.291
60845SOL    HW182561  12.239   2.559   2.387
60845SOL    HW282562  12.128   2.512   2.277
60846SOL     OW82563  11.248   2.673   2.651
60846SOL    HW182564  11.347   2.661   2.660
60846SOL    HW282565  11.224   2.768   2.672
60847SOL     OW82566  11.302   3.683   3.433
60847SOL    HW182567  11.292   3.668   3.532
60847SOL    HW282568  11.216   3.719   3.397
60848SOL     OW82569  12.037   2.210   2.057
60848SOL    HW182570  12.096   2.273   2.008
60848SOL    HW282571  12.056   2.116   2.028
60849SOL     OW82572  12.534   3.006   2.407
60849SOL    HW182573  12.617   2.977   2.359
60849SOL    HW282574  12.485   3.073   2.351
60850SOL     OW82575  11.722   2.058   2.747
60850SOL    HW182576  11.717   2.053   2.847
60850SOL    HW282577  11.724   2.154   2.718
60851SOL     OW82578  12.180   3.318   2.339
60851SOL    HW182579  12.134   3.390   2.287
60851SOL    HW282580  12.176   3.338   2.437
60852SOL     OW82581  11.523   3.663   2.715
60852SOL    HW182582  11.573   3.577   2.721
60852SOL    HW282583  11.588   3.740   2.712
60853SOL     OW82584  12.399   3.412   3.368
60853SOL    HW182585  12.405   3.335   3.432
60853SOL    HW282586  12.347   3.386   3.288
60854SOL     OW82587  11.493   2.805   2.104
60854SOL    HW182588  11.575   2.844   2.062
60854SOL    HW282589  11.466   2.723   2.055
60855SOL     OW82590  11.633   3.128   3.589
60855SOL    HW182591  11.583   3.129   3.503
60855SOL    HW282592  11.570   3.110   3.665
60856SOL     OW82593  12.283   3.638   2.099
60856SOL    HW182594  12.223   3.576   2.149
60856SOL    HW282595  12.314   3.594   2.014
60857SOL     OW82596  11.374   2.147   3.360
60857SOL    HW182597  11.294   2.207   3.347
60857SOL    HW282598  11.364   2.098   3.446
60858SOL     OW82599  11.636   3.605   2.185
60858SOL    HW182600  11.669   3.644   2.271
60858SOL    HW282601  11.712   3.598   2.120
60859SOL     OW82602  12.572   1.969   2.288
60859SOL    HW182603  12.548   1.932   2.198
60859SOL    HW282604  12.671   1.985   2.292
60860SOL     OW82605  11.421   3.647   3.103
60860SOL    HW182606  11.478   3.582   3.153
60860SOL    HW282607  11.405   3.614   3.010
60861SOL     OW82608  12.112   3.560   2.766
60861SOL    HW182609  12.192   3.503   2.787
60861SOL    HW282610  12.063   3.520   2.689
60862SOL     OW82611  11.554   2.562   2.342
60862SOL    HW182612  11.599   2.472   2.339
60862SOL    HW282613  11.460   2.551   2.375
60863SOL     OW82614  11.786   1.984   1.979
60863SOL    HW182615  11.884   1.962   1.986
60863SOL    HW282616  11.755   1.967   1.886
60864SOL     OW82617  11.953   2.126   3.611
60864SOL    HW182618  12.020   2.065   3.654
60864SOL    HW282619  11.880   2.145   3.676
60865SOL     OW82620  12.060   3.376   3.057
60865SOL    HW182621  12.037   3.351   2.963
60865SOL    HW282622  12.121   3.307   3.096
60866SOL     OW82623  12.523   2.452   3.295
60866SOL    HW182624  12.551   2.409   3.380
60866SOL    HW282625  12.548   2.548   3.296
60867SOL     OW82626  11.975   3.264   2.786
60867SOL    HW182627  12.065   3.278   2.744
60867SOL    HW282628  11.904   3.266   2.715
60868SOL     OW82629  12.094   2.365   2.761
60868SOL    HW182630  12.069   2.356   2.665
60868SOL    HW282631  12.142   2.283   2.792
60869SOL     OW82632  11.711   1.926   2.374
60869SOL    HW182633  11.630   1.927   2.432
60869SOL    HW282634  11.714   2.009   2.319
60870SOL     OW82635  12.606   3.050   1.903
60870SOL    HW182636  12.638   2.974   1.960
60870SOL    HW282637  12.514   3.077   1.933
60871SOL     OW82638  11.469   1.897   2.033
60871SOL    HW182639  11.518   1.981   2.012
60871SOL    HW282640  11.531   1.832   2.078
60872SOL     OW82641  12.107   2.098   2.342
60872SOL    HW182642  12.059   2.139   2.264
60872SOL    HW282643  12.206   2.096   2.323
60873SOL     OW82644  12.248   2.545   3.326
60873SOL    HW182645  12.168   2.484   3.329
60873SOL    HW282646  12.329   2.492   3.302
60874SOL     OW82647  12.399   3.432   2.655
60874SOL    HW182648  12.420   3.506   2.590
60874SOL    HW282649  12.467   3.432   2.728
60875SOL     OW82650  11.631   3.014   2.603
60875SOL    HW182651  11.560   2.987   2.668
60875SOL    HW282652  11.605   2.986   2.510
60876SOL     OW82653  12.443   3.659   2.453
60876SOL    HW182654  12.487   3.723   2.389
60876SOL    HW282655  12.393   3.711   2.523
60877SOL     OW82656  12.204   2.411   1.878
60877SOL    HW182657  12.163   2.493   1.839
60877SOL    HW282658  12.268   2.437   1.951
60878SOL     OW82659  11.250   2.418   3.248
60878SOL    HW182660  11.342   2.417   3.207
60878SOL    HW282661  11.244   2.492   3.315
60879SOL     OW82662  11.733   2.084   3.009
60879SOL    HW182663  11.771   2.000   3.046
60879SOL    HW282664  11.645   2.103   3.053
60880SOL     OW82665  12.038   2.316   2.504
60880SOL    HW182666  12.006   2.388   2.442
60880SOL    HW282667  12.062   2.235   2.451
60881SOL     OW82668  12.189   1.901   2.615
60881SOL    HW182669  12.117   1.906   2.546
60881SOL    HW282670  12.165   1.832   2.684
60882SOL     OW82671  12.601   3.035   2.729
60882SOL    HW182672  12.546   2.951   2.722
60882SOL    HW282673  12.627   3.064   2.637
60883SOL     OW82674  11.660   3.247   2.036
60883SOL    HW182675  11.573   3.232   2.083
60883SOL    HW282676  11.643   3.273   1.941
60884SOL     OW82677  12.562   2.437   1.940
60884SOL    HW182678  12.508   2.416   2.021
60884SOL    HW282679  12.653   2.396   1.949
60885SOL     OW82680  11.699   2.118   2.190
60885SOL    HW182681  11.726   2.059   2.115
60885SOL    HW282682  11.699   2.213   2.159
60886SOL     OW82683  12.236   3.209   3.202
60886SOL    HW182684  12.156   3.186   3.257
60886SOL    HW282685  12.319   3.183   3.251
60887SOL     OW82686  12.764   3.491   3.487
60887SOL    HW182687  12.791   3.525   3.397
60887SOL    HW282688  12.843   3.453   3.533
60888SOL     OW82689  12.283   3.057   2.962
60888SOL    HW182690  12.243   3.101   3.043
60888SOL    HW282691  12.242   3.094   2.879
60889SOL     OW82692  12.087   1.951   3.264
60889SOL    HW182693  12.112   1.931   3.169
60889SOL    HW282694  12.159   2.007   3.306
60890SOL     OW82695  12.152   2.978   3.581
60890SOL    HW182696  12.053   2.984   3.591
60890SOL    HW282697  12.175   2.898   3.525
60891SOL     OW82698  11.877   2.912   2.230
60891SOL    HW182699  11.863   2.919   2.329
60891SOL    HW282700  11.961   2.861   2.212
60892SOL     OW82701  11.582   2.675   3.113
60892SOL    HW182702  11.668   2.687   3.163
60892SOL    HW282703  11.540   2.588   3.140
60893SOL     OW82704  12.446   2.248   3.124
60893SOL    HW182705  12.467   2.322   3.188
60893SOL    HW282706  12.357   2.265   3.081
60894SOL     OW82707  11.236   3.426   3.193
60894SOL    HW182708  11.190   3.508   3.159
60894SOL    HW282709  11.334   3.445   3.202
60895SOL     OW82710  11.539   2.962   2.363
60895SOL    HW182711  11.532   3.045   2.307
60895SOL    HW282712  11.543   2.882   2.303
60896SOL     OW82713  11.738   2.399   2.727
60896SOL    HW182714  11.750   2.465   2.653
60896SOL    HW282715  11.784   2.433   2.810
60897SOL     OW82716  12.424   3.210   2.250
60897SOL    HW182717  12.474   3.287   2.290
60897SOL    HW282718  12.329   3.212   2.282
60898SOL     OW82719  12.444   3.307   3.004
60898SOL    HW182720  12.491   3.320   3.091
60898SOL    HW282721  12.378   3.233   3.013
60899SOL     OW82722  11.526   3.372   3.191
60899SOL    HW182723  11.505   3.328   3.104
60899SOL    HW282724  11.623   3.398   3.194
60900SOL     OW82725  11.574   2.613   3.460
60900SOL    HW182726  11.642   2.668   3.413
60900SOL    HW282727  11.614   2.525   3.487
60901SOL     OW82728  12.185   1.967   3.632
60901SOL    HW182729  12.191   2.052   3.580
60901SOL    HW282730  12.217   1.891   3.575
60902SOL     OW82731  11.676   1.912   3.602
60902SOL    HW182732  11.634   1.855   3.532
60902SOL    HW282733  11.610   1.981   3.634
60903SOL     OW82734  11.745   2.732   2.891
60903SOL    HW182735  11.789   2.821   2.882
60903SOL    HW282736  11.682   2.732   2.968
60904SOL     OW82737  12.532   2.724   2.907
60904SOL    HW182738  12.457   2.724   2.841
60904SOL    HW282739  12.569   2.632   2.916
60905SOL     OW82740  12.381   2.387   2.137
60905SOL    HW182741  12.394   2.303   2.191
60905SOL    HW282742  12.352   2.461   2.197
60906SOL     OW82743  11.479   2.075   3.093
60906SOL    HW182744  11.456   2.112   3.183
60906SOL    HW282745  11.449   1.980   3.087
60907SOL     OW82746  11.209   3.172   3.144
60907SOL    HW182747  11.262   3.123   3.212
60907SOL    HW282748  11.231   3.270   3.149
60908SOL     OW82749  11.904   2.496   2.926
60908SOL    HW182750  11.963   2.470   2.850
60908SOL    HW282751  11.876   2.592   2.915
60909SOL     OW82752  11.479   1.925   2.480
60909SOL    HW182753  11.468   2.019   2.513
60909SOL    HW282754  11.474   1.862   2.557
60910SOL     OW82755  12.794   2.229   2.236
60910SOL    HW182756  12.796   2.153   2.300
60910SOL    HW282757  12.746   2.306   2.276
60911SOL     OW82758  12.195   2.628   2.828
60911SOL    HW182759  12.210   2.649   2.924
60911SOL    HW282760  12.165   2.533   2.819
60912SOL     OW82761  12.152   3.435   3.562
60912SOL    HW182762  12.132   3.479   3.474
60912SOL    HW282763  12.191   3.344   3.546
60913SOL     OW82764  11.522   2.760   3.666
60913SOL    HW182765  11.598   2.804   3.714
60913SOL    HW282766  11.557   2.713   3.584
60914SOL     OW82767  12.475   2.700   1.904
60914SOL    HW182768  12.509   2.607   1.919
60914SOL    HW282769  12.493   2.727   1.809
60915SOL     OW82770  12.240   3.195   2.711
60915SOL    HW182771  12.247   3.111   2.656
60915SOL    HW282772  12.302   3.264   2.675
60916SOL     OW82773  11.491   2.672   2.811
60916SOL    HW182774  11.584   2.708   2.816
60916SOL    HW282775  11.485   2.587   2.863
60917SOL     OW82776  11.511   2.371   2.868
60917SOL    HW182777  11.459   2.288   2.851
60917SOL    HW282778  11.588   2.376   2.804
60918SOL     OW82779  12.310   2.242   3.540
60918SOL    HW182780  12.265   2.305   3.604
60918SOL    HW282781  12.403   2.273   3.523
60919SOL     OW82782  12.332   2.069   3.339
60919SOL    HW182783  12.332   2.133   3.416
60919SOL    HW282784  12.360   2.117   3.256
60920SOL     OW82785  11.180   3.188   2.062
60920SOL    HW182786  11.087   3.209   2.031
60920SOL    HW282787  11.190   3.089   2.075
60921SOL     OW82788  11.260   3.663   2.789
60921SOL    HW182789  11.218   3.577   2.762
60921SOL    HW282790  11.354   3.666   2.755
60922SOL     OW82791  11.676   3.430   2.772
60922SOL    HW182792  11.742   3.504   2.781
60922SOL    HW282793  11.720   3.351   2.730
60923SOL     OW82794  12.174   2.658   3.100
60923SOL    HW182795  12.215   2.626   3.186
60923SOL    HW282796  12.078   2.631   3.097
60924SOL     OW82797  11.212   2.406   2.976
60924SOL    HW182798  11.297   2.373   2.935
60924SOL    HW282799  11.225   2.421   3.074
60925SOL     OW82800  11.361   2.382   3.584
60925SOL    HW182801  11.420   2.342   3.514
60925SOL    HW282802  11.303   2.453   3.543
60926SOL     OW82803  12.541   2.812   3.522
60926SOL    HW182804  12.580   2.901   3.542
60926SOL    HW282805  12.551   2.792   3.425
60927SOL     OW82806  11.987   2.434   2.187
60927SOL    HW182807  11.994   2.345   2.141
60927SOL    HW282808  11.893   2.468   2.179
60928SOL     OW82809  11.424   3.426   3.606
60928SOL    HW182810  11.394   3.483   3.682
60928SOL    HW282811  11.417   3.329   3.632
60929SOL     OW82812  11.843   2.326   3.131
60929SOL    HW182813  11.809   2.237   3.101
60929SOL    HW282814  11.869   2.380   3.051
60930SOL     OW82815  12.102   3.540   3.327
60930SOL    HW182816  12.078   3.522   3.232
60930SOL    HW282817  12.132   3.634   3.337
60931SOL     OW82818  11.645   2.362   2.053
60931SOL    HW182819  11.706   2.442   2.057
60931SOL    HW282820  11.550   2.393   2.060
60932SOL     OW82821  11.331   2.999   3.328
60932SOL    HW182822  11.353   2.938   3.404
60932SOL    HW282823  11.341   2.950   3.242
60933SOL     OW82824  12.519   2.921   3.096
60933SOL    HW182825  12.543   2.858   3.022
60933SOL    HW282826  12.429   2.961   3.078
60934SOL     OW82827  12.474   2.717   2.171
60934SOL    HW182828  12.388   2.686   2.213
60934SOL    HW282829  12.470   2.703   2.072
60935SOL     OW82830  12.424   3.593   2.990
60935SOL    HW182831  12.508   3.598   2.936
60935SOL    HW282832  12.401   3.497   3.008
60936SOL     OW82833  11.255   3.120   2.884
60936SOL    HW182834  11.250   3.119   2.984
60936SOL    HW282835  11.172   3.079   2.846
60937SOL     OW82836  11.860   3.524   3.578
60937SOL    HW182837  11.804   3.605   3.587
60937SOL    HW282838  11.912   3.528   3.492
60938SOL     OW82839  12.898   1.997   2.385
60938SOL    HW182840  12.971   1.980   2.318
60938SOL    HW282841  12.867   1.910   2.423
60939SOL     OW82842  12.560   3.435   2.339
60939SOL    HW182843  12.627   3.447   2.265
60939SOL    HW282844  12.520   3.524   2.362
60940SOL     OW82845  11.302   3.656   3.713
60940SOL    HW182846  11.261   3.582   3.766
60940SOL    HW282847  11.366   3.707   3.771
60941SOL     OW82848  12.452   2.789   2.534
60941SOL    HW182849  12.512   2.708   2.536
60941SOL    HW282850  12.492   2.858   2.474
60942SOL     OW82851  12.002   3.135   3.284
60942SOL    HW182852  11.997   3.168   3.379
60942SOL    HW282853  11.916   3.154   3.238
60943SOL     OW82854  11.844   3.478   2.016
60943SOL    HW182855  11.853   3.488   1.917
60943SOL    HW282856  11.804   3.389   2.037
60944SOL     OW82857  11.435   2.188   2.582
60944SOL    HW182858  11.356   2.239   2.548
60944SOL    HW282859  11.426   2.173   2.680
60945SOL     OW82860  12.366   3.474   1.893
60945SOL    HW182861  12.372   3.381   1.930
60945SOL    HW282862  12.307   3.474   1.813
60946SOL     OW82863  11.994   2.864   3.234
60946SOL    HW182864  12.034   2.863   3.142
60946SOL    HW282865  12.004   2.956   3.274
60947SOL     OW82866  12.088   2.772   2.153
60947SOL    HW182867  12.151   2.810   2.085
60947SOL    HW282868  12.128   2.689   2.192
60948SOL     OW82869  11.544   3.150   3.352
60948SOL    HW182870  11.531   3.243   3.318
60948SOL    HW282871  11.460   3.098   3.339
60949SOL     OW82872  12.211   2.960   2.558
60949SOL    HW182873  12.141   2.913   2.612
60949SOL    HW282874  12.270   2.892   2.515
60950SOL     OW82875  12.186   2.098   2.833
60950SOL    HW182876  12.178   2.062   2.740
60950SOL    HW282877  12.184   2.022   2.898
60951SOL     OW82878  11.762   3.349   2.353
60951SOL    HW182879  11.804   3.291   2.283
60951SOL    HW282880  11.718   3.428   2.309
60952SOL     OW82881  11.427   3.210   2.152
60952SOL    HW182882  11.331   3.211   2.125
60952SOL    HW282883  11.439   3.263   2.236
60953SOL     OW82884  11.277   2.875   3.588
60953SOL    HW182885  11.200   2.842   3.642
60953SOL    HW282886  11.362   2.845   3.630
60954SOL     OW82887  11.844   2.065   3.351
60954SOL    HW182888  11.934   2.049   3.311
60954SOL    HW282889  11.852   2.070   3.450
60955SOL     OW82890  11.247   2.207   1.895
60955SOL    HW182891  11.155   2.179   1.866
60955SOL    HW282892  11.278   2.284   1.839
60956SOL     OW82893  12.612   2.718   3.260
60956SOL    HW182894  12.555   2.770   3.197
60956SOL    HW282895  12.708   2.730   3.236
60957SOL     OW82896  11.244   2.028   2.180
60957SOL    HW182897  11.227   2.111   2.126
60957SOL    HW282898  11.334   1.991   2.158
60958SOL     OW82899  12.355   3.197   1.981
60958SOL    HW182900  12.256   3.186   1.983
60958SOL    HW282901  12.389   3.212   2.074
60959SOL     OW82902  11.785   2.704   3.293
60959SOL    HW182903  11.841   2.785   3.276
60959SOL    HW282904  11.844   2.624   3.296
60960SOL     OW82905  11.888   2.427   3.570
60960SOL    HW182906  11.907   2.492   3.644
60960SOL    HW282907  11.948   2.347   3.579
60961SOL     OW82908  12.622   3.082   3.495
60961SOL    HW182909  12.613   3.072   3.594
60961SOL    HW282910  12.718   3.075   3.469
60962SOL     OW82911  11.562   3.603   3.422
60962SOL    HW182912  11.471   3.644   3.420
60962SOL    HW282913  11.555   3.509   3.454
60963SOL     OW82914  12.397   2.187   2.311
60963SOL    HW182915  12.462   2.113   2.300
60963SOL    HW282916  12.417   2.237   2.395
60964SOL     OW82917  11.766   2.607   2.514
60964SOL    HW182918  11.816   2.692   2.495
60964SOL    HW282919  11.678   2.609   2.466
60965SOL     OW82920  12.031   3.236   1.878
60965SOL    HW182921  11.985   3.251   1.966
60965SOL    HW282922  12.075   3.321   1.848
60966SOL     OW82923  11.833   3.652   2.815
60966SOL    HW182924  11.787   3.740   2.802
60966SOL    HW282925  11.932   3.664   2.808
60967SOL     OW82926  12.031   2.818   2.723
60967SOL    HW182927  12.085   2.749   2.771
60967SOL    HW282928  11.999   2.887   2.789
60968SOL     OW82929  12.255   2.846   1.949
60968SOL    HW182930  12.232   2.899   1.867
60968SOL    HW282931  12.336   2.790   1.930
60969SOL     OW82932  11.393   3.176   3.706
60969SOL    HW182933  11.328   3.103   3.685
60969SOL    HW282934  11.397   3.190   3.804
60970SOL     OW82935  11.251   3.102   2.515
60970SOL    HW182936  11.250   3.055   2.603
60970SOL    HW282937  11.333   3.074   2.464
60971SOL     OW82938  11.844   3.253   3.486
60971SOL    HW182939  11.766   3.203   3.524
60971SOL    HW282940  11.841   3.348   3.517
60972SOL     OW82941  11.600   2.286   2.382
60972SOL    HW182942  11.630   2.214   2.320
60972SOL    HW282943  11.561   2.246   2.465
60973SOL     OW82944  12.877   3.349   2.966
60973SOL    HW182945  12.784   3.324   2.939
60973SOL    HW282946  12.903   3.299   3.048
60974SOL     OW82947  11.489   2.409   3.142
60974SOL    HW182948  11.527   2.350   3.214
60974SOL    HW282949  11.529   2.383   3.054
60975SOL     OW82950  11.984   3.448   2.549
60975SOL    HW182951  12.016   3.458   2.455
60975SOL    HW282952  11.905   3.386   2.551
60976SOL     OW82953  12.596   2.076   2.974
60976SOL    HW182954  12.648   2.011   3.029
60976SOL    HW282955  12.547   2.139   3.035
60977SOL     OW82956  12.173   1.896   3.016
60977SOL    HW182957  12.110   1.824   2.985
60977SOL    HW282958  12.266   1.860   3.016
60978SOL     OW82959  11.942   3.192   2.163
60978SOL    HW182960  11.896   3.105   2.180
60978SOL    HW282961  12.033   3.189   2.204
60979SOL     OW82962  11.790   3.429   3.146
60979SOL    HW182963  11.785   3.511   3.203
60979SOL    HW282964  11.879   3.426   3.101
60980SOL     OW82965  12.524   1.914   2.030
60980SOL    HW182966  12.559   1.873   1.946
60980SOL    HW282967  12.434   1.876   2.050
60981SOL     OW82968  12.472   2.315   2.553
60981SOL    HW182969  12.413   2.395   2.557
60981SOL    HW282970  12.487   2.280   2.646
60982SOL     OW82971  11.211   2.939   2.162
60982SOL    HW182972  11.310   2.928   2.153
60982SOL    HW282973  11.171   2.853   2.194
60983SOL     OW82974  12.047   3.508   2.199
60983SOL    HW182975  11.970   3.473   2.145
60983SOL    HW282976  12.015   3.579   2.261
60984SOL     OW82977  11.402   2.490   3.837
60984SOL    HW182978  11.309   2.488   3.874
60984SOL    HW282979  11.403   2.451   3.745
60985SOL     OW82980  11.397   2.137   4.720
60985SOL    HW182981  11.432   2.120   4.812
60985SOL    HW282982  11.309   2.092   4.708
60986SOL     OW82983  11.191   2.230   4.371
60986SOL    HW182984  11.109   2.273   4.410
60986SOL    HW282985  11.163   2.157   4.308
60987SOL     OW82986  11.741   3.137   4.889
60987SOL    HW182987  11.648   3.130   4.852
60987SOL    HW282988  11.752   3.226   4.933
60988SOL     OW82989  12.727   3.373   4.427
60988SOL    HW182990  12.670   3.357   4.508
60988SOL    HW282991  12.668   3.383   4.347
60989SOL     OW82992  12.307   2.565   4.441
60989SOL    HW182993  12.364   2.643   4.416
60989SOL    HW282994  12.247   2.591   4.517
60990SOL     OW82995  11.940   3.006   4.747
60990SOL    HW182996  11.862   3.023   4.807
60990SOL    HW282997  11.974   3.093   4.711
60991SOL     OW82998  12.022   2.660   5.547
60991SOL    HW182999  12.018   2.736   5.612
60991SOL    HW283000  12.044   2.696   5.456
60992SOL     OW83001  11.857   2.874   4.389
60992SOL    HW183002  11.926   2.858   4.459
60992SOL    HW283003  11.784   2.931   4.427
60993SOL     OW83004  11.858   3.023   5.527
60993SOL    HW183005  11.918   3.102   5.541
60993SOL    HW283006  11.772   3.054   5.486
60994SOL     OW83007  11.507   3.297   4.785
60994SOL    HW183008  11.429   3.266   4.732
60994SOL    HW283009  11.565   3.355   4.728
60995SOL     OW83010  11.610   2.254   5.223
60995SOL    HW183011  11.692   2.198   5.232
60995SOL    HW283012  11.529   2.196   5.227
60996SOL     OW83013  11.403   3.575   4.207
60996SOL    HW183014  11.437   3.652   4.261
60996SOL    HW283015  11.447   3.575   4.117
60997SOL     OW83016  12.299   3.203   5.414
60997SOL    HW183017  12.346   3.203   5.502
60997SOL    HW283018  12.251   3.116   5.403
60998SOL     OW83019  11.402   3.296   4.262
60998SOL    HW183020  11.376   3.392   4.262
60998SOL    HW283021  11.331   3.242   4.307
60999SOL     OW83022  11.412   2.953   4.610
60999SOL    HW183023  11.426   2.869   4.662
60999SOL    HW283024  11.357   3.017   4.665
61000SOL     OW83025  11.792   3.648   5.163
61000SOL    HW183026  11.700   3.631   5.198
61000SOL    HW283027  11.820   3.740   5.189
61001SOL     OW83028  11.778   2.826   3.847
61001SOL    HW183029  11.785   2.910   3.793
61001SOL    HW283030  11.824   2.839   3.935
61002SOL     OW83031  11.294   2.505   4.287
61002SOL    HW183032  11.249   2.417   4.304
61002SOL    HW283033  11.293   2.559   4.371
61003SOL     OW83034  11.199   3.458   3.841
61003SOL    HW183035  11.180   3.362   3.862
61003SOL    HW283036  11.166   3.516   3.916
61004SOL     OW83037  12.861   2.784   4.336
61004SOL    HW183038  12.956   2.755   4.344
61004SOL    HW283039  12.853   2.849   4.261
61005SOL     OW83040  11.285   2.599   5.321
61005SOL    HW183041  11.373   2.586   5.366
61005SOL    HW283042  11.272   2.696   5.299
61006SOL     OW83043  11.785   3.227   4.450
61006SOL    HW183044  11.736   3.140   4.459
61006SOL    HW283045  11.762   3.270   4.363
61007SOL     OW83046  12.465   3.090   5.147
61007SOL    HW183047  12.502   3.017   5.089
61007SOL    HW283048  12.517   3.095   5.232
61008SOL     OW83049  11.981   1.866   4.226
61008SOL    HW183050  12.021   1.957   4.217
61008SOL    HW283051  11.881   1.874   4.232
61009SOL     OW83052  11.369   2.838   4.988
61009SOL    HW183053  11.458   2.793   4.974
61009SOL    HW283054  11.296   2.773   4.969
61010SOL     OW83055  12.359   3.654   5.340
61010SOL    HW183056  12.383   3.714   5.264
61010SOL    HW283057  12.366   3.559   5.310
61011SOL     OW83058  11.489   2.113   5.525
61011SOL    HW183059  11.560   2.184   5.531
61011SOL    HW283060  11.401   2.152   5.553
61012SOL     OW83061  12.638   3.279   4.677
61012SOL    HW183062  12.579   3.285   4.757
61012SOL    HW283063  12.623   3.191   4.631
61013SOL     OW83064  11.770   2.591   3.994
61013SOL    HW183065  11.794   2.660   3.926
61013SOL    HW283066  11.692   2.624   4.048
61014SOL     OW83067  12.453   2.207   4.668
61014SOL    HW183068  12.367   2.157   4.655
61014SOL    HW283069  12.515   2.153   4.724
61015SOL     OW83070  11.979   2.467   5.189
61015SOL    HW183071  11.932   2.464   5.278
61015SOL    HW283072  11.928   2.412   5.123
61016SOL     OW83073  12.566   2.331   5.398
61016SOL    HW183074  12.546   2.374   5.486
61016SOL    HW283075  12.644   2.269   5.407
61017SOL     OW83076  12.145   2.752   5.296
61017SOL    HW183077  12.191   2.668   5.267
61017SOL    HW283078  12.089   2.786   5.221
61018SOL     OW83079  12.163   2.272   4.966
61018SOL    HW183080  12.086   2.306   5.020
61018SOL    HW283081  12.129   2.221   4.887
61019SOL     OW83082  12.213   2.563   4.153
61019SOL    HW183083  12.239   2.559   4.249
61019SOL    HW283084  12.128   2.512   4.139
61020SOL     OW83085  11.248   2.673   4.513
61020SOL    HW183086  11.347   2.661   4.522
61020SOL    HW283087  11.224   2.768   4.534
61021SOL     OW83088  11.302   3.683   5.295
61021SOL    HW183089  11.292   3.668   5.394
61021SOL    HW283090  11.216   3.719   5.259
61022SOL     OW83091  12.037   2.210   3.919
61022SOL    HW183092  12.096   2.273   3.870
61022SOL    HW283093  12.056   2.116   3.890
61023SOL     OW83094  12.534   3.006   4.269
61023SOL    HW183095  12.617   2.977   4.221
61023SOL    HW283096  12.485   3.073   4.213
61024SOL     OW83097  11.722   2.058   4.609
61024SOL    HW183098  11.717   2.053   4.709
61024SOL    HW283099  11.724   2.154   4.580
61025SOL     OW83100  12.180   3.318   4.201
61025SOL    HW183101  12.134   3.390   4.149
61025SOL    HW283102  12.176   3.338   4.299
61026SOL     OW83103  11.523   3.663   4.577
61026SOL    HW183104  11.573   3.577   4.583
61026SOL    HW283105  11.588   3.740   4.574
61027SOL     OW83106  12.399   3.412   5.230
61027SOL    HW183107  12.405   3.335   5.294
61027SOL    HW283108  12.347   3.386   5.150
61028SOL     OW83109  11.493   2.805   3.966
61028SOL    HW183110  11.575   2.844   3.924
61028SOL    HW283111  11.466   2.723   3.917
61029SOL     OW83112  11.633   3.128   5.451
61029SOL    HW183113  11.583   3.129   5.365
61029SOL    HW283114  11.570   3.110   5.527
61030SOL     OW83115  12.283   3.638   3.961
61030SOL    HW183116  12.223   3.576   4.011
61030SOL    HW283117  12.314   3.594   3.876
61031SOL     OW83118  11.374   2.147   5.222
61031SOL    HW183119  11.294   2.207   5.209
61031SOL    HW283120  11.364   2.098   5.308
61032SOL     OW83121  11.636   3.605   4.047
61032SOL    HW183122  11.669   3.644   4.133
61032SOL    HW283123  11.712   3.598   3.982
61033SOL     OW83124  12.572   1.969   4.150
61033SOL    HW183125  12.548   1.932   4.060
61033SOL    HW283126  12.671   1.985   4.154
61034SOL     OW83127  11.421   3.647   4.965
61034SOL    HW183128  11.478   3.582   5.015
61034SOL    HW283129  11.405   3.614   4.872
61035SOL     OW83130  12.112   3.560   4.628
61035SOL    HW183131  12.192   3.503   4.649
61035SOL    HW283132  12.063   3.520   4.551
61036SOL     OW83133  11.554   2.562   4.204
61036SOL    HW183134  11.599   2.472   4.201
61036SOL    HW283135  11.460   2.551   4.237
61037SOL     OW83136  11.786   1.984   3.841
61037SOL    HW183137  11.884   1.962   3.848
61037SOL    HW283138  11.755   1.967   3.748
61038SOL     OW83139  11.953   2.126   5.473
61038SOL    HW183140  12.020   2.065   5.516
61038SOL    HW283141  11.880   2.145   5.538
61039SOL     OW83142  12.060   3.376   4.919
61039SOL    HW183143  12.037   3.351   4.825
61039SOL    HW283144  12.121   3.307   4.958
61040SOL     OW83145  12.523   2.452   5.157
61040SOL    HW183146  12.551   2.409   5.242
61040SOL    HW283147  12.548   2.548   5.158
61041SOL     OW83148  11.975   3.264   4.648
61041SOL    HW183149  12.065   3.278   4.606
61041SOL    HW283150  11.904   3.266   4.577
61042SOL     OW83151  12.094   2.365   4.623
61042SOL    HW183152  12.069   2.356   4.527
61042SOL    HW283153  12.142   2.283   4.654
61043SOL     OW83154  11.711   1.926   4.236
61043SOL    HW183155  11.630   1.927   4.294
61043SOL    HW283156  11.714   2.009   4.181
61044SOL     OW83157  12.606   3.050   3.765
61044SOL    HW183158  12.638   2.974   3.822
61044SOL    HW283159  12.514   3.077   3.795
61045SOL     OW83160  11.469   1.897   3.895
61045SOL    HW183161  11.518   1.981   3.874
61045SOL    HW283162  11.531   1.832   3.940
61046SOL     OW83163  12.107   2.098   4.204
61046SOL    HW183164  12.059   2.139   4.126
61046SOL    HW283165  12.206   2.096   4.185
61047SOL     OW83166  12.248   2.545   5.188
61047SOL    HW183167  12.168   2.484   5.191
61047SOL    HW283168  12.329   2.492   5.164
61048SOL     OW83169  12.399   3.432   4.517
61048SOL    HW183170  12.420   3.506   4.452
61048SOL    HW283171  12.467   3.432   4.590
61049SOL     OW83172  11.631   3.014   4.465
61049SOL    HW183173  11.560   2.987   4.530
61049SOL    HW283174  11.605   2.986   4.372
61050SOL     OW83175  12.443   3.659   4.315
61050SOL    HW183176  12.487   3.723   4.251
61050SOL    HW283177  12.393   3.711   4.385
61051SOL     OW83178  12.204   2.411   3.740
61051SOL    HW183179  12.163   2.493   3.701
61051SOL    HW283180  12.268   2.437   3.813
61052SOL     OW83181  11.250   2.418   5.110
61052SOL    HW183182  11.342   2.417   5.069
61052SOL    HW283183  11.244   2.492   5.177
61053SOL     OW83184  11.733   2.084   4.871
61053SOL    HW183185  11.771   2.000   4.908
61053SOL    HW283186  11.645   2.103   4.915
61054SOL     OW83187  12.038   2.316   4.366
61054SOL    HW183188  12.006   2.388   4.304
61054SOL    HW283189  12.062   2.235   4.313
61055SOL     OW83190  12.189   1.901   4.477
61055SOL    HW183191  12.117   1.906   4.408
61055SOL    HW283192  12.165   1.832   4.546
61056SOL     OW83193  12.601   3.035   4.591
61056SOL    HW183194  12.546   2.951   4.584
61056SOL    HW283195  12.627   3.064   4.499
61057SOL     OW83196  11.660   3.247   3.898
61057SOL    HW183197  11.573   3.232   3.945
61057SOL    HW283198  11.643   3.273   3.803
61058SOL     OW83199  12.562   2.437   3.802
61058SOL    HW183200  12.508   2.416   3.883
61058SOL    HW283201  12.653   2.396   3.811
61059SOL     OW83202  11.699   2.118   4.052
61059SOL    HW183203  11.726   2.059   3.977
61059SOL    HW283204  11.699   2.213   4.021
61060SOL     OW83205  12.236   3.209   5.064
61060SOL    HW183206  12.156   3.186   5.119
61060SOL    HW283207  12.319   3.183   5.113
61061SOL     OW83208  12.764   3.491   5.349
61061SOL    HW183209  12.791   3.525   5.259
61061SOL    HW283210  12.843   3.453   5.395
61062SOL     OW83211  12.283   3.057   4.824
61062SOL    HW183212  12.243   3.101   4.905
61062SOL    HW283213  12.242   3.094   4.741
61063SOL     OW83214  12.087   1.951   5.126
61063SOL    HW183215  12.112   1.931   5.031
61063SOL    HW283216  12.159   2.007   5.168
61064SOL     OW83217  12.152   2.978   5.443
61064SOL    HW183218  12.053   2.984   5.453
61064SOL    HW283219  12.175   2.898   5.387
61065SOL     OW83220  11.877   2.912   4.092
61065SOL    HW183221  11.863   2.919   4.191
61065SOL    HW283222  11.961   2.861   4.074
61066SOL     OW83223  11.582   2.675   4.975
61066SOL    HW183224  11.668   2.687   5.025
61066SOL    HW283225  11.540   2.588   5.002
61067SOL     OW83226  12.446   2.248   4.986
61067SOL    HW183227  12.467   2.322   5.050
61067SOL    HW283228  12.357   2.265   4.943
61068SOL     OW83229  11.236   3.426   5.055
61068SOL    HW183230  11.190   3.508   5.021
61068SOL    HW283231  11.334   3.445   5.064
61069SOL     OW83232  11.539   2.962   4.225
61069SOL    HW183233  11.532   3.045   4.169
61069SOL    HW283234  11.543   2.882   4.165
61070SOL     OW83235  11.738   2.399   4.589
61070SOL    HW183236  11.750   2.465   4.515
61070SOL    HW283237  11.784   2.433   4.672
61071SOL     OW83238  12.424   3.210   4.112
61071SOL    HW183239  12.474   3.287   4.152
61071SOL    HW283240  12.329   3.212   4.144
61072SOL     OW83241  12.444   3.307   4.866
61072SOL    HW183242  12.491   3.320   4.953
61072SOL    HW283243  12.378   3.233   4.875
61073SOL     OW83244  11.526   3.372   5.053
61073SOL    HW183245  11.505   3.328   4.966
61073SOL    HW283246  11.623   3.398   5.056
61074SOL     OW83247  11.574   2.613   5.322
61074SOL    HW183248  11.642   2.668   5.275
61074SOL    HW283249  11.614   2.525   5.349
61075SOL     OW83250  12.185   1.967   5.494
61075SOL    HW183251  12.191   2.052   5.442
61075SOL    HW283252  12.217   1.891   5.437
61076SOL     OW83253  11.676   1.912   5.464
61076SOL    HW183254  11.634   1.855   5.394
61076SOL    HW283255  11.610   1.981   5.496
61077SOL     OW83256  11.745   2.732   4.753
61077SOL    HW183257  11.789   2.821   4.744
61077SOL    HW283258  11.682   2.732   4.830
61078SOL     OW83259  12.532   2.724   4.769
61078SOL    HW183260  12.457   2.724   4.703
61078SOL    HW283261  12.569   2.632   4.778
61079SOL     OW83262  12.381   2.387   3.999
61079SOL    HW183263  12.394   2.303   4.053
61079SOL    HW283264  12.352   2.461   4.059
61080SOL     OW83265  11.479   2.075   4.955
61080SOL    HW183266  11.456   2.112   5.045
61080SOL    HW283267  11.449   1.980   4.949
61081SOL     OW83268  11.209   3.172   5.006
61081SOL    HW183269  11.262   3.123   5.074
61081SOL    HW283270  11.231   3.270   5.011
61082SOL     OW83271  11.904   2.496   4.788
61082SOL    HW183272  11.963   2.470   4.712
61082SOL    HW283273  11.876   2.592   4.777
61083SOL     OW83274  11.479   1.925   4.342
61083SOL    HW183275  11.468   2.019   4.375
61083SOL    HW283276  11.474   1.862   4.419
61084SOL     OW83277  12.794   2.229   4.098
61084SOL    HW183278  12.796   2.153   4.162
61084SOL    HW283279  12.746   2.306   4.138
61085SOL     OW83280  12.195   2.628   4.690
61085SOL    HW183281  12.210   2.649   4.786
61085SOL    HW283282  12.165   2.533   4.681
61086SOL     OW83283  12.152   3.435   5.424
61086SOL    HW183284  12.132   3.479   5.336
61086SOL    HW283285  12.191   3.344   5.408
61087SOL     OW83286  11.522   2.760   5.528
61087SOL    HW183287  11.598   2.804   5.576
61087SOL    HW283288  11.557   2.713   5.446
61088SOL     OW83289  12.475   2.700   3.766
61088SOL    HW183290  12.509   2.607   3.781
61088SOL    HW283291  12.493   2.727   3.671
61089SOL     OW83292  12.240   3.195   4.573
61089SOL    HW183293  12.247   3.111   4.518
61089SOL    HW283294  12.302   3.264   4.537
61090SOL     OW83295  11.491   2.672   4.673
61090SOL    HW183296  11.584   2.708   4.678
61090SOL    HW283297  11.485   2.587   4.725
61091SOL     OW83298  11.511   2.371   4.730
61091SOL    HW183299  11.459   2.288   4.713
61091SOL    HW283300  11.588   2.376   4.666
61092SOL     OW83301  12.310   2.242   5.402
61092SOL    HW183302  12.265   2.305   5.466
61092SOL    HW283303  12.403   2.273   5.385
61093SOL     OW83304  12.332   2.069   5.201
61093SOL    HW183305  12.332   2.133   5.278
61093SOL    HW283306  12.360   2.117   5.118
61094SOL     OW83307  11.180   3.188   3.924
61094SOL    HW183308  11.087   3.209   3.893
61094SOL    HW283309  11.190   3.089   3.937
61095SOL     OW83310  11.260   3.663   4.651
61095SOL    HW183311  11.218   3.577   4.624
61095SOL    HW283312  11.354   3.666   4.617
61096SOL     OW83313  11.676   3.430   4.634
61096SOL    HW183314  11.742   3.504   4.643
61096SOL    HW283315  11.720   3.351   4.592
61097SOL     OW83316  12.174   2.658   4.962
61097SOL    HW183317  12.215   2.626   5.048
61097SOL    HW283318  12.078   2.631   4.959
61098SOL     OW83319  11.212   2.406   4.838
61098SOL    HW183320  11.297   2.373   4.797
61098SOL    HW283321  11.225   2.421   4.936
61099SOL     OW83322  11.361   2.382   5.446
61099SOL    HW183323  11.420   2.342   5.376
61099SOL    HW283324  11.303   2.453   5.405
61100SOL     OW83325  12.541   2.812   5.384
61100SOL    HW183326  12.580   2.901   5.404
61100SOL    HW283327  12.551   2.792   5.287
61101SOL     OW83328  11.987   2.434   4.049
61101SOL    HW183329  11.994   2.345   4.003
61101SOL    HW283330  11.893   2.468   4.041
61102SOL     OW83331  11.424   3.426   5.468
61102SOL    HW183332  11.394   3.483   5.544
61102SOL    HW283333  11.417   3.329   5.494
61103SOL     OW83334  11.843   2.326   4.993
61103SOL    HW183335  11.809   2.237   4.963
61103SOL    HW283336  11.869   2.380   4.913
61104SOL     OW83337  12.102   3.540   5.189
61104SOL    HW183338  12.078   3.522   5.094
61104SOL    HW283339  12.132   3.634   5.199
61105SOL     OW83340  11.645   2.362   3.915
61105SOL    HW183341  11.706   2.442   3.919
61105SOL    HW283342  11.550   2.393   3.922
61106SOL     OW83343  11.331   2.999   5.190
61106SOL    HW183344  11.353   2.938   5.266
61106SOL    HW283345  11.341   2.950   5.104
61107SOL     OW83346  12.519   2.921   4.958
61107SOL    HW183347  12.543   2.858   4.884
61107SOL    HW283348  12.429   2.961   4.940
61108SOL     OW83349  12.474   2.717   4.033
61108SOL    HW183350  12.388   2.686   4.075
61108SOL    HW283351  12.470   2.703   3.934
61109SOL     OW83352  12.424   3.593   4.852
61109SOL    HW183353  12.508   3.598   4.798
61109SOL    HW283354  12.401   3.497   4.870
61110SOL     OW83355  11.255   3.120   4.746
61110SOL    HW183356  11.250   3.119   4.846
61110SOL    HW283357  11.172   3.079   4.708
61111SOL     OW83358  11.860   3.524   5.440
61111SOL    HW183359  11.804   3.605   5.449
61111SOL    HW283360  11.912   3.528   5.354
61112SOL     OW83361  12.898   1.997   4.247
61112SOL    HW183362  12.971   1.980   4.180
61112SOL    HW283363  12.867   1.910   4.285
61113SOL     OW83364  12.560   3.435   4.201
61113SOL    HW183365  12.627   3.447   4.127
61113SOL    HW283366  12.520   3.524   4.224
61114SOL     OW83367  11.302   3.656   5.575
61114SOL    HW183368  11.261   3.582   5.628
61114SOL    HW283369  11.366   3.707   5.633
61115SOL     OW83370  12.452   2.789   4.396
61115SOL    HW183371  12.512   2.708   4.398
61115SOL    HW283372  12.492   2.858   4.336
61116SOL     OW83373  12.002   3.135   5.146
61116SOL    HW183374  11.997   3.168   5.241
61116SOL    HW283375  11.916   3.154   5.100
61117SOL     OW83376  11.844   3.478   3.878
61117SOL    HW183377  11.853   3.488   3.779
61117SOL    HW283378  11.804   3.389   3.899
61118SOL     OW83379  11.435   2.188   4.444
61118SOL    HW183380  11.356   2.239   4.410
61118SOL    HW283381  11.426   2.173   4.542
61119SOL     OW83382  12.366   3.474   3.755
61119SOL    HW183383  12.372   3.381   3.792
61119SOL    HW283384  12.307   3.474   3.675
61120SOL     OW83385  11.994   2.864   5.096
61120SOL    HW183386  12.034   2.863   5.004
61120SOL    HW283387  12.004   2.956   5.136
61121SOL     OW83388  12.088   2.772   4.015
61121SOL    HW183389  12.151   2.810   3.947
61121SOL    HW283390  12.128   2.689   4.054
61122SOL     OW83391  11.544   3.150   5.214
61122SOL    HW183392  11.531   3.243   5.180
61122SOL    HW283393  11.460   3.098   5.201
61123SOL     OW83394  12.211   2.960   4.420
61123SOL    HW183395  12.141   2.913   4.474
61123SOL    HW283396  12.270   2.892   4.377
61124SOL     OW83397  12.186   2.098   4.695
61124SOL    HW183398  12.178   2.062   4.602
61124SOL    HW283399  12.184   2.022   4.760
61125SOL     OW83400  11.762   3.349   4.215
61125SOL    HW183401  11.804   3.291   4.145
61125SOL    HW283402  11.718   3.428   4.171
61126SOL     OW83403  11.427   3.210   4.014
61126SOL    HW183404  11.331   3.211   3.987
61126SOL    HW283405  11.439   3.263   4.098
61127SOL     OW83406  11.277   2.875   5.450
61127SOL    HW183407  11.200   2.842   5.504
61127SOL    HW283408  11.362   2.845   5.492
61128SOL     OW83409  11.844   2.065   5.213
61128SOL    HW183410  11.934   2.049   5.173
61128SOL    HW283411  11.852   2.070   5.312
61129SOL     OW83412  11.247   2.207   3.757
61129SOL    HW183413  11.155   2.179   3.728
61129SOL    HW283414  11.278   2.284   3.701
61130SOL     OW83415  12.612   2.718   5.122
61130SOL    HW183416  12.555   2.770   5.059
61130SOL    HW283417  12.708   2.730   5.098
61131SOL     OW83418  11.244   2.028   4.042
61131SOL    HW183419  11.227   2.111   3.988
61131SOL    HW283420  11.334   1.991   4.020
61132SOL     OW83421  12.355   3.197   3.843
61132SOL    HW183422  12.256   3.186   3.845
61132SOL    HW283423  12.389   3.212   3.936
61133SOL     OW83424  11.785   2.704   5.155
61133SOL    HW183425  11.841   2.785   5.138
61133SOL    HW283426  11.844   2.624   5.158
61134SOL     OW83427  11.888   2.427   5.432
61134SOL    HW183428  11.907   2.492   5.506
61134SOL    HW283429  11.948   2.347   5.441
61135SOL     OW83430  12.622   3.082   5.357
61135SOL    HW183431  12.613   3.072   5.456
61135SOL    HW283432  12.718   3.075   5.331
61136SOL     OW83433  11.562   3.603   5.284
61136SOL    HW183434  11.471   3.644   5.282
61136SOL    HW283435  11.555   3.509   5.316
61137SOL     OW83436  12.397   2.187   4.173
61137SOL    HW183437  12.462   2.113   4.162
61137SOL    HW283438  12.417   2.237   4.257
61138SOL     OW83439  11.766   2.607   4.376
61138SOL    HW183440  11.816   2.692   4.357
61138SOL    HW283441  11.678   2.609   4.328
61139SOL     OW83442  12.031   3.236   3.740
61139SOL    HW183443  11.985   3.251   3.828
61139SOL    HW283444  12.075   3.321   3.710
61140SOL     OW83445  11.833   3.652   4.677
61140SOL    HW183446  11.787   3.740   4.664
61140SOL    HW283447  11.932   3.664   4.670
61141SOL     OW83448  12.031   2.818   4.585
61141SOL    HW183449  12.085   2.749   4.633
61141SOL    HW283450  11.999   2.887   4.651
61142SOL     OW83451  12.255   2.846   3.811
61142SOL    HW183452  12.232   2.899   3.729
61142SOL    HW283453  12.336   2.790   3.792
61143SOL     OW83454  11.393   3.176   5.568
61143SOL    HW183455  11.328   3.103   5.547
61143SOL    HW283456  11.397   3.190   5.666
61144SOL     OW83457  11.251   3.102   4.377
61144SOL    HW183458  11.250   3.055   4.465
61144SOL    HW283459  11.333   3.074   4.326
61145SOL     OW83460  11.844   3.253   5.348
61145SOL    HW183461  11.766   3.203   5.386
61145SOL    HW283462  11.841   3.348   5.379
61146SOL     OW83463  11.600   2.286   4.244
61146SOL    HW183464  11.630   2.214   4.182
61146SOL    HW283465  11.561   2.246   4.327
61147SOL     OW83466  12.877   3.349   4.828
61147SOL    HW183467  12.784   3.324   4.801
61147SOL    HW283468  12.903   3.299   4.910
61148SOL     OW83469  11.489   2.409   5.004
61148SOL    HW183470  11.527   2.350   5.076
61148SOL    HW283471  11.529   2.383   4.916
61149SOL     OW83472  11.984   3.448   4.411
61149SOL    HW183473  12.016   3.458   4.317
61149SOL    HW283474  11.905   3.386   4.413
61150SOL     OW83475  12.596   2.076   4.836
61150SOL    HW183476  12.648   2.011   4.891
61150SOL    HW283477  12.547   2.139   4.897
61151SOL     OW83478  12.173   1.896   4.878
61151SOL    HW183479  12.110   1.824   4.847
61151SOL    HW283480  12.266   1.860   4.878
61152SOL     OW83481  11.942   3.192   4.025
61152SOL    HW183482  11.896   3.105   4.042
61152SOL    HW283483  12.033   3.189   4.066
61153SOL     OW83484  11.790   3.429   5.008
61153SOL    HW183485  11.785   3.511   5.065
61153SOL    HW283486  11.879   3.426   4.963
61154SOL     OW83487  12.524   1.914   3.892
61154SOL    HW183488  12.559   1.873   3.808
61154SOL    HW283489  12.434   1.876   3.912
61155SOL     OW83490  12.472   2.315   4.415
61155SOL    HW183491  12.413   2.395   4.419
61155SOL    HW283492  12.487   2.280   4.508
61156SOL     OW83493  11.211   2.939   4.024
61156SOL    HW183494  11.310   2.928   4.015
61156SOL    HW283495  11.171   2.853   4.056
61157SOL     OW83496  12.047   3.508   4.061
61157SOL    HW183497  11.970   3.473   4.007
61157SOL    HW283498  12.015   3.579   4.123
61158SOL     OW83499  11.402   2.490   5.699
61158SOL    HW183500  11.309   2.488   5.736
61158SOL    HW283501  11.403   2.451   5.607
61159SOL     OW83502  11.397   2.137   6.582
61159SOL    HW183503  11.432   2.120   6.674
61159SOL    HW283504  11.309   2.092   6.570
61160SOL     OW83505  11.191   2.230   6.233
61160SOL    HW183506  11.109   2.273   6.272
61160SOL    HW283507  11.163   2.157   6.170
61161SOL     OW83508  11.741   3.137   6.751
61161SOL    HW183509  11.648   3.130   6.714
61161SOL    HW283510  11.752   3.226   6.795
61162SOL     OW83511  12.727   3.373   6.289
61162SOL    HW183512  12.670   3.357   6.370
61162SOL    HW283513  12.668   3.383   6.209
61163SOL     OW83514  12.307   2.565   6.303
61163SOL    HW183515  12.364   2.643   6.278
61163SOL    HW283516  12.247   2.591   6.379
61164SOL     OW83517  11.940   3.006   6.609
61164SOL    HW183518  11.862   3.023   6.669
61164SOL    HW283519  11.974   3.093   6.573
61165SOL     OW83520  12.022   2.660   7.409
61165SOL    HW183521  12.018   2.736   7.474
61165SOL    HW283522  12.044   2.696   7.318
61166SOL     OW83523  11.857   2.874   6.251
61166SOL    HW183524  11.926   2.858   6.321
61166SOL    HW283525  11.784   2.931   6.289
61167SOL     OW83526  11.858   3.023   7.389
61167SOL    HW183527  11.918   3.102   7.403
61167SOL    HW283528  11.772   3.054   7.348
61168SOL     OW83529  11.507   3.297   6.647
61168SOL    HW183530  11.429   3.266   6.594
61168SOL    HW283531  11.565   3.355   6.590
61169SOL     OW83532  11.610   2.254   7.085
61169SOL    HW183533  11.692   2.198   7.094
61169SOL    HW283534  11.529   2.196   7.089
61170SOL     OW83535  11.403   3.575   6.069
61170SOL    HW183536  11.437   3.652   6.123
61170SOL    HW283537  11.447   3.575   5.979
61171SOL     OW83538  12.299   3.203   7.276
61171SOL    HW183539  12.346   3.203   7.364
61171SOL    HW283540  12.251   3.116   7.265
61172SOL     OW83541  11.402   3.296   6.124
61172SOL    HW183542  11.376   3.392   6.124
61172SOL    HW283543  11.331   3.242   6.169
61173SOL     OW83544  11.412   2.953   6.472
61173SOL    HW183545  11.426   2.869   6.524
61173SOL    HW283546  11.357   3.017   6.527
61174SOL     OW83547  11.792   3.648   7.025
61174SOL    HW183548  11.700   3.631   7.060
61174SOL    HW283549  11.820   3.740   7.051
61175SOL     OW83550  11.778   2.826   5.709
61175SOL    HW183551  11.785   2.910   5.655
61175SOL    HW283552  11.824   2.839   5.797
61176SOL     OW83553  11.294   2.505   6.149
61176SOL    HW183554  11.249   2.417   6.166
61176SOL    HW283555  11.293   2.559   6.233
61177SOL     OW83556  11.199   3.458   5.703
61177SOL    HW183557  11.180   3.362   5.724
61177SOL    HW283558  11.166   3.516   5.778
61178SOL     OW83559  12.861   2.784   6.198
61178SOL    HW183560  12.956   2.755   6.206
61178SOL    HW283561  12.853   2.849   6.123
61179SOL     OW83562  11.285   2.599   7.183
61179SOL    HW183563  11.373   2.586   7.228
61179SOL    HW283564  11.272   2.696   7.161
61180SOL     OW83565  11.785   3.227   6.312
61180SOL    HW183566  11.736   3.140   6.321
61180SOL    HW283567  11.762   3.270   6.225
61181SOL     OW83568  12.465   3.090   7.009
61181SOL    HW183569  12.502   3.017   6.951
61181SOL    HW283570  12.517   3.095   7.094
61182SOL     OW83571  11.981   1.866   6.088
61182SOL    HW183572  12.021   1.957   6.079
61182SOL    HW283573  11.881   1.874   6.094
61183SOL     OW83574  11.369   2.838   6.850
61183SOL    HW183575  11.458   2.793   6.836
61183SOL    HW283576  11.296   2.773   6.831
61184SOL     OW83577  12.359   3.654   7.202
61184SOL    HW183578  12.383   3.714   7.126
61184SOL    HW283579  12.366   3.559   7.172
61185SOL     OW83580  11.489   2.113   7.387
61185SOL    HW183581  11.560   2.184   7.393
61185SOL    HW283582  11.401   2.152   7.415
61186SOL     OW83583  12.638   3.279   6.539
61186SOL    HW183584  12.579   3.285   6.619
61186SOL    HW283585  12.623   3.191   6.493
61187SOL     OW83586  11.770   2.591   5.856
61187SOL    HW183587  11.794   2.660   5.788
61187SOL    HW283588  11.692   2.624   5.910
61188SOL     OW83589  12.453   2.207   6.530
61188SOL    HW183590  12.367   2.157   6.517
61188SOL    HW283591  12.515   2.153   6.586
61189SOL     OW83592  11.979   2.467   7.051
61189SOL    HW183593  11.932   2.464   7.140
61189SOL    HW283594  11.928   2.412   6.985
61190SOL     OW83595  12.566   2.331   7.260
61190SOL    HW183596  12.546   2.374   7.348
61190SOL    HW283597  12.644   2.269   7.269
61191SOL     OW83598  12.145   2.752   7.158
61191SOL    HW183599  12.191   2.668   7.129
61191SOL    HW283600  12.089   2.786   7.083
61192SOL     OW83601  12.163   2.272   6.828
61192SOL    HW183602  12.086   2.306   6.882
61192SOL    HW283603  12.129   2.221   6.749
61193SOL     OW83604  12.213   2.563   6.015
61193SOL    HW183605  12.239   2.559   6.111
61193SOL    HW283606  12.128   2.512   6.001
61194SOL     OW83607  11.248   2.673   6.375
61194SOL    HW183608  11.347   2.661   6.384
61194SOL    HW283609  11.224   2.768   6.396
61195SOL     OW83610  11.302   3.683   7.157
61195SOL    HW183611  11.292   3.668   7.256
61195SOL    HW283612  11.216   3.719   7.121
61196SOL     OW83613  12.037   2.210   5.781
61196SOL    HW183614  12.096   2.273   5.732
61196SOL    HW283615  12.056   2.116   5.752
61197SOL     OW83616  12.534   3.006   6.131
61197SOL    HW183617  12.617   2.977   6.083
61197SOL    HW283618  12.485   3.073   6.075
61198SOL     OW83619  11.722   2.058   6.471
61198SOL    HW183620  11.717   2.053   6.571
61198SOL    HW283621  11.724   2.154   6.442
61199SOL     OW83622  12.180   3.318   6.063
61199SOL    HW183623  12.134   3.390   6.011
61199SOL    HW283624  12.176   3.338   6.161
61200SOL     OW83625  11.523   3.663   6.439
61200SOL    HW183626  11.573   3.577   6.445
61200SOL    HW283627  11.588   3.740   6.436
61201SOL     OW83628  12.399   3.412   7.092
61201SOL    HW183629  12.405   3.335   7.156
61201SOL    HW283630  12.347   3.386   7.012
61202SOL     OW83631  11.493   2.805   5.828
61202SOL    HW183632  11.575   2.844   5.786
61202SOL    HW283633  11.466   2.723   5.779
61203SOL     OW83634  11.633   3.128   7.313
61203SOL    HW183635  11.583   3.129   7.227
61203SOL    HW283636  11.570   3.110   7.389
61204SOL     OW83637  12.283   3.638   5.823
61204SOL    HW183638  12.223   3.576   5.873
61204SOL    HW283639  12.314   3.594   5.738
61205SOL     OW83640  11.374   2.147   7.084
61205SOL    HW183641  11.294   2.207   7.071
61205SOL    HW283642  11.364   2.098   7.170
61206SOL     OW83643  11.636   3.605   5.909
61206SOL    HW183644  11.669   3.644   5.995
61206SOL    HW283645  11.712   3.598   5.844
61207SOL     OW83646  12.572   1.969   6.012
61207SOL    HW183647  12.548   1.932   5.922
61207SOL    HW283648  12.671   1.985   6.016
61208SOL     OW83649  11.421   3.647   6.827
61208SOL    HW183650  11.478   3.582   6.877
61208SOL    HW283651  11.405   3.614   6.734
61209SOL     OW83652  12.112   3.560   6.490
61209SOL    HW183653  12.192   3.503   6.511
61209SOL    HW283654  12.063   3.520   6.413
61210SOL     OW83655  11.554   2.562   6.066
61210SOL    HW183656  11.599   2.472   6.063
61210SOL    HW283657  11.460   2.551   6.099
61211SOL     OW83658  11.786   1.984   5.703
61211SOL    HW183659  11.884   1.962   5.710
61211SOL    HW283660  11.755   1.967   5.610
61212SOL     OW83661  11.953   2.126   7.335
61212SOL    HW183662  12.020   2.065   7.378
61212SOL    HW283663  11.880   2.145   7.400
61213SOL     OW83664  12.060   3.376   6.781
61213SOL    HW183665  12.037   3.351   6.687
61213SOL    HW283666  12.121   3.307   6.820
61214SOL     OW83667  12.523   2.452   7.019
61214SOL    HW183668  12.551   2.409   7.104
61214SOL    HW283669  12.548   2.548   7.020
61215SOL     OW83670  11.975   3.264   6.510
61215SOL    HW183671  12.065   3.278   6.468
61215SOL    HW283672  11.904   3.266   6.439
61216SOL     OW83673  12.094   2.365   6.485
61216SOL    HW183674  12.069   2.356   6.389
61216SOL    HW283675  12.142   2.283   6.516
61217SOL     OW83676  11.711   1.926   6.098
61217SOL    HW183677  11.630   1.927   6.156
61217SOL    HW283678  11.714   2.009   6.043
61218SOL     OW83679  12.606   3.050   5.627
61218SOL    HW183680  12.638   2.974   5.684
61218SOL    HW283681  12.514   3.077   5.657
61219SOL     OW83682  11.469   1.897   5.757
61219SOL    HW183683  11.518   1.981   5.736
61219SOL    HW283684  11.531   1.832   5.802
61220SOL     OW83685  12.107   2.098   6.066
61220SOL    HW183686  12.059   2.139   5.988
61220SOL    HW283687  12.206   2.096   6.047
61221SOL     OW83688  12.248   2.545   7.050
61221SOL    HW183689  12.168   2.484   7.053
61221SOL    HW283690  12.329   2.492   7.026
61222SOL     OW83691  12.399   3.432   6.379
61222SOL    HW183692  12.420   3.506   6.314
61222SOL    HW283693  12.467   3.432   6.452
61223SOL     OW83694  11.631   3.014   6.327
61223SOL    HW183695  11.560   2.987   6.392
61223SOL    HW283696  11.605   2.986   6.234
61224SOL     OW83697  12.443   3.659   6.177
61224SOL    HW183698  12.487   3.723   6.113
61224SOL    HW283699  12.393   3.711   6.247
61225SOL     OW83700  12.204   2.411   5.602
61225SOL    HW183701  12.163   2.493   5.563
61225SOL    HW283702  12.268   2.437   5.675
61226SOL     OW83703  11.250   2.418   6.972
61226SOL    HW183704  11.342   2.417   6.931
61226SOL    HW283705  11.244   2.492   7.039
61227SOL     OW83706  11.733   2.084   6.733
61227SOL    HW183707  11.771   2.000   6.770
61227SOL    HW283708  11.645   2.103   6.777
61228SOL     OW83709  12.038   2.316   6.228
61228SOL    HW183710  12.006   2.388   6.166
61228SOL    HW283711  12.062   2.235   6.175
61229SOL     OW83712  12.189   1.901   6.339
61229SOL    HW183713  12.117   1.906   6.270
61229SOL    HW283714  12.165   1.832   6.408
61230SOL     OW83715  12.601   3.035   6.453
61230SOL    HW183716  12.546   2.951   6.446
61230SOL    HW283717  12.627   3.064   6.361
61231SOL     OW83718  11.660   3.247   5.760
61231SOL    HW183719  11.573   3.232   5.807
61231SOL    HW283720  11.643   3.273   5.665
61232SOL     OW83721  12.562   2.437   5.664
61232SOL    HW183722  12.508   2.416   5.745
61232SOL    HW283723  12.653   2.396   5.673
61233SOL     OW83724  11.699   2.118   5.914
61233SOL    HW183725  11.726   2.059   5.839
61233SOL    HW283726  11.699   2.213   5.883
61234SOL     OW83727  12.236   3.209   6.926
61234SOL    HW183728  12.156   3.186   6.981
61234SOL    HW283729  12.319   3.183   6.975
61235SOL     OW83730  12.764   3.491   7.211
61235SOL    HW183731  12.791   3.525   7.121
61235SOL    HW283732  12.843   3.453   7.257
61236SOL     OW83733  12.283   3.057   6.686
61236SOL    HW183734  12.243   3.101   6.767
61236SOL    HW283735  12.242   3.094   6.603
61237SOL     OW83736  12.087   1.951   6.988
61237SOL    HW183737  12.112   1.931   6.893
61237SOL    HW283738  12.159   2.007   7.030
61238SOL     OW83739  12.152   2.978   7.305
61238SOL    HW183740  12.053   2.984   7.315
61238SOL    HW283741  12.175   2.898   7.249
61239SOL     OW83742  11.877   2.912   5.954
61239SOL    HW183743  11.863   2.919   6.053
61239SOL    HW283744  11.961   2.861   5.936
61240SOL     OW83745  11.582   2.675   6.837
61240SOL    HW183746  11.668   2.687   6.887
61240SOL    HW283747  11.540   2.588   6.864
61241SOL     OW83748  12.446   2.248   6.848
61241SOL    HW183749  12.467   2.322   6.912
61241SOL    HW283750  12.357   2.265   6.805
61242SOL     OW83751  11.236   3.426   6.917
61242SOL    HW183752  11.190   3.508   6.883
61242SOL    HW283753  11.334   3.445   6.926
61243SOL     OW83754  11.539   2.962   6.087
61243SOL    HW183755  11.532   3.045   6.031
61243SOL    HW283756  11.543   2.882   6.027
61244SOL     OW83757  11.738   2.399   6.451
61244SOL    HW183758  11.750   2.465   6.377
61244SOL    HW283759  11.784   2.433   6.534
61245SOL     OW83760  12.424   3.210   5.974
61245SOL    HW183761  12.474   3.287   6.014
61245SOL    HW283762  12.329   3.212   6.006
61246SOL     OW83763  12.444   3.307   6.728
61246SOL    HW183764  12.491   3.320   6.815
61246SOL    HW283765  12.378   3.233   6.737
61247SOL     OW83766  11.526   3.372   6.915
61247SOL    HW183767  11.505   3.328   6.828
61247SOL    HW283768  11.623   3.398   6.918
61248SOL     OW83769  11.574   2.613   7.184
61248SOL    HW183770  11.642   2.668   7.137
61248SOL    HW283771  11.614   2.525   7.211
61249SOL     OW83772  12.185   1.967   7.356
61249SOL    HW183773  12.191   2.052   7.304
61249SOL    HW283774  12.217   1.891   7.299
61250SOL     OW83775  11.676   1.912   7.326
61250SOL    HW183776  11.634   1.855   7.256
61250SOL    HW283777  11.610   1.981   7.358
61251SOL     OW83778  11.745   2.732   6.615
61251SOL    HW183779  11.789   2.821   6.606
61251SOL    HW283780  11.682   2.732   6.692
61252SOL     OW83781  12.532   2.724   6.631
61252SOL    HW183782  12.457   2.724   6.565
61252SOL    HW283783  12.569   2.632   6.640
61253SOL     OW83784  12.381   2.387   5.861
61253SOL    HW183785  12.394   2.303   5.915
61253SOL    HW283786  12.352   2.461   5.921
61254SOL     OW83787  11.479   2.075   6.817
61254SOL    HW183788  11.456   2.112   6.907
61254SOL    HW283789  11.449   1.980   6.811
61255SOL     OW83790  11.209   3.172   6.868
61255SOL    HW183791  11.262   3.123   6.936
61255SOL    HW283792  11.231   3.270   6.873
61256SOL     OW83793  11.904   2.496   6.650
61256SOL    HW183794  11.963   2.470   6.574
61256SOL    HW283795  11.876   2.592   6.639
61257SOL     OW83796  11.479   1.925   6.204
61257SOL    HW183797  11.468   2.019   6.237
61257SOL    HW283798  11.474   1.862   6.281
61258SOL     OW83799  12.794   2.229   5.960
61258SOL    HW183800  12.796   2.153   6.024
61258SOL    HW283801  12.746   2.306   6.000
61259SOL     OW83802  12.195   2.628   6.552
61259SOL    HW183803  12.210   2.649   6.648
61259SOL    HW283804  12.165   2.533   6.543
61260SOL     OW83805  12.152   3.435   7.286
61260SOL    HW183806  12.132   3.479   7.198
61260SOL    HW283807  12.191   3.344   7.270
61261SOL     OW83808  11.522   2.760   7.390
61261SOL    HW183809  11.598   2.804   7.438
61261SOL    HW283810  11.557   2.713   7.308
61262SOL     OW83811  12.475   2.700   5.628
61262SOL    HW183812  12.509   2.607   5.643
61262SOL    HW283813  12.493   2.727   5.533
61263SOL     OW83814  12.240   3.195   6.435
61263SOL    HW183815  12.247   3.111   6.380
61263SOL    HW283816  12.302   3.264   6.399
61264SOL     OW83817  11.491   2.672   6.535
61264SOL    HW183818  11.584   2.708   6.540
61264SOL    HW283819  11.485   2.587   6.587
61265SOL     OW83820  11.511   2.371   6.592
61265SOL    HW183821  11.459   2.288   6.575
61265SOL    HW283822  11.588   2.376   6.528
61266SOL     OW83823  12.310   2.242   7.264
61266SOL    HW183824  12.265   2.305   7.328
61266SOL    HW283825  12.403   2.273   7.247
61267SOL     OW83826  12.332   2.069   7.063
61267SOL    HW183827  12.332   2.133   7.140
61267SOL    HW283828  12.360   2.117   6.980
61268SOL     OW83829  11.180   3.188   5.786
61268SOL    HW183830  11.087   3.209   5.755
61268SOL    HW283831  11.190   3.089   5.799
61269SOL     OW83832  11.260   3.663   6.513
61269SOL    HW183833  11.218   3.577   6.486
61269SOL    HW283834  11.354   3.666   6.479
61270SOL     OW83835  11.676   3.430   6.496
61270SOL    HW183836  11.742   3.504   6.505
61270SOL    HW283837  11.720   3.351   6.454
61271SOL     OW83838  12.174   2.658   6.824
61271SOL    HW183839  12.215   2.626   6.910
61271SOL    HW283840  12.078   2.631   6.821
61272SOL     OW83841  11.212   2.406   6.700
61272SOL    HW183842  11.297   2.373   6.659
61272SOL    HW283843  11.225   2.421   6.798
61273SOL     OW83844  11.361   2.382   7.308
61273SOL    HW183845  11.420   2.342   7.238
61273SOL    HW283846  11.303   2.453   7.267
61274SOL     OW83847  12.541   2.812   7.246
61274SOL    HW183848  12.580   2.901   7.266
61274SOL    HW283849  12.551   2.792   7.149
61275SOL     OW83850  11.987   2.434   5.911
61275SOL    HW183851  11.994   2.345   5.865
61275SOL    HW283852  11.893   2.468   5.903
61276SOL     OW83853  11.424   3.426   7.330
61276SOL    HW183854  11.394   3.483   7.406
61276SOL    HW283855  11.417   3.329   7.356
61277SOL     OW83856  11.843   2.326   6.855
61277SOL    HW183857  11.809   2.237   6.825
61277SOL    HW283858  11.869   2.380   6.775
61278SOL     OW83859  12.102   3.540   7.051
61278SOL    HW183860  12.078   3.522   6.956
61278SOL    HW283861  12.132   3.634   7.061
61279SOL     OW83862  11.645   2.362   5.777
61279SOL    HW183863  11.706   2.442   5.781
61279SOL    HW283864  11.550   2.393   5.784
61280SOL     OW83865  11.331   2.999   7.052
61280SOL    HW183866  11.353   2.938   7.128
61280SOL    HW283867  11.341   2.950   6.966
61281SOL     OW83868  12.519   2.921   6.820
61281SOL    HW183869  12.543   2.858   6.746
61281SOL    HW283870  12.429   2.961   6.802
61282SOL     OW83871  12.474   2.717   5.895
61282SOL    HW183872  12.388   2.686   5.937
61282SOL    HW283873  12.470   2.703   5.796
61283SOL     OW83874  12.424   3.593   6.714
61283SOL    HW183875  12.508   3.598   6.660
61283SOL    HW283876  12.401   3.497   6.732
61284SOL     OW83877  11.255   3.120   6.608
61284SOL    HW183878  11.250   3.119   6.708
61284SOL    HW283879  11.172   3.079   6.570
61285SOL     OW83880  11.860   3.524   7.302
61285SOL    HW183881  11.804   3.605   7.311
61285SOL    HW283882  11.912   3.528   7.216
61286SOL     OW83883  12.898   1.997   6.109
61286SOL    HW183884  12.971   1.980   6.042
61286SOL    HW283885  12.867   1.910   6.147
61287SOL     OW83886  12.560   3.435   6.063
61287SOL    HW183887  12.627   3.447   5.989
61287SOL    HW283888  12.520   3.524   6.086
61288SOL     OW83889  11.302   3.656   7.437
61288SOL    HW183890  11.261   3.582   7.490
61288SOL    HW283891  11.366   3.707   7.495
61289SOL     OW83892  12.452   2.789   6.258
61289SOL    HW183893  12.512   2.708   6.260
61289SOL    HW283894  12.492   2.858   6.198
61290SOL     OW83895  12.002   3.135   7.008
61290SOL    HW183896  11.997   3.168   7.103
61290SOL    HW283897  11.916   3.154   6.962
61291SOL     OW83898  11.844   3.478   5.740
61291SOL    HW183899  11.853   3.488   5.641
61291SOL    HW283900  11.804   3.389   5.761
61292SOL     OW83901  11.435   2.188   6.306
61292SOL    HW183902  11.356   2.239   6.272
61292SOL    HW283903  11.426   2.173   6.404
61293SOL     OW83904  12.366   3.474   5.617
61293SOL    HW183905  12.372   3.381   5.654
61293SOL    HW283906  12.307   3.474   5.537
61294SOL     OW83907  11.994   2.864   6.958
61294SOL    HW183908  12.034   2.863   6.866
61294SOL    HW283909  12.004   2.956   6.998
61295SOL     OW83910  12.088   2.772   5.877
61295SOL    HW183911  12.151   2.810   5.809
61295SOL    HW283912  12.128   2.689   5.916
61296SOL     OW83913  11.544   3.150   7.076
61296SOL    HW183914  11.531   3.243   7.042
61296SOL    HW283915  11.460   3.098   7.063
61297SOL     OW83916  12.211   2.960   6.282
61297SOL    HW183917  12.141   2.913   6.336
61297SOL    HW283918  12.270   2.892   6.239
61298SOL     OW83919  12.186   2.098   6.557
61298SOL    HW183920  12.178   2.062   6.464
61298SOL    HW283921  12.184   2.022   6.622
61299SOL     OW83922  11.762   3.349   6.077
61299SOL    HW183923  11.804   3.291   6.007
61299SOL    HW283924  11.718   3.428   6.033
61300SOL     OW83925  11.427   3.210   5.876
61300SOL    HW183926  11.331   3.211   5.849
61300SOL    HW283927  11.439   3.263   5.960
61301SOL     OW83928  11.277   2.875   7.312
61301SOL    HW183929  11.200   2.842   7.366
61301SOL    HW283930  11.362   2.845   7.354
61302SOL     OW83931  11.844   2.065   7.075
61302SOL    HW183932  11.934   2.049   7.035
61302SOL    HW283933  11.852   2.070   7.174
61303SOL     OW83934  11.247   2.207   5.619
61303SOL    HW183935  11.155   2.179   5.590
61303SOL    HW283936  11.278   2.284   5.563
61304SOL     OW83937  12.612   2.718   6.984
61304SOL    HW183938  12.555   2.770   6.921
61304SOL    HW283939  12.708   2.730   6.960
61305SOL     OW83940  11.244   2.028   5.904
61305SOL    HW183941  11.227   2.111   5.850
61305SOL    HW283942  11.334   1.991   5.882
61306SOL     OW83943  12.355   3.197   5.705
61306SOL    HW183944  12.256   3.186   5.707
61306SOL    HW283945  12.389   3.212   5.798
61307SOL     OW83946  11.785   2.704   7.017
61307SOL    HW183947  11.841   2.785   7.000
61307SOL    HW283948  11.844   2.624   7.020
61308SOL     OW83949  11.888   2.427   7.294
61308SOL    HW183950  11.907   2.492   7.368
61308SOL    HW283951  11.948   2.347   7.303
61309SOL     OW83952  12.622   3.082   7.219
61309SOL    HW183953  12.613   3.072   7.318
61309SOL    HW283954  12.718   3.075   7.193
61310SOL     OW83955  11.562   3.603   7.146
61310SOL    HW183956  11.471   3.644   7.144
61310SOL    HW283957  11.555   3.509   7.178
61311SOL     OW83958  12.397   2.187   6.035
61311SOL    HW183959  12.462   2.113   6.024
61311SOL    HW283960  12.417   2.237   6.119
61312SOL     OW83961  11.766   2.607   6.238
61312SOL    HW183962  11.816   2.692   6.219
61312SOL    HW283963  11.678   2.609   6.190
61313SOL     OW83964  12.031   3.236   5.602
61313SOL    HW183965  11.985   3.251   5.690
61313SOL    HW283966  12.075   3.321   5.572
61314SOL     OW83967  11.833   3.652   6.539
61314SOL    HW183968  11.787   3.740   6.526
61314SOL    HW283969  11.932   3.664   6.532
61315SOL     OW83970  12.031   2.818   6.447
61315SOL    HW183971  12.085   2.749   6.495
61315SOL    HW283972  11.999   2.887   6.513
61316SOL     OW83973  12.255   2.846   5.673
61316SOL    HW183974  12.232   2.899   5.591
61316SOL    HW283975  12.336   2.790   5.654
61317SOL     OW83976  11.393   3.176   7.430
61317SOL    HW183977  11.328   3.103   7.409
61317SOL    HW283978  11.397   3.190   7.528
61318SOL     OW83979  11.251   3.102   6.239
61318SOL    HW183980  11.250   3.055   6.327
61318SOL    HW283981  11.333   3.074   6.188
61319SOL     OW83982  11.844   3.253   7.210
61319SOL    HW183983  11.766   3.203   7.248
61319SOL    HW283984  11.841   3.348   7.241
61320SOL     OW83985  11.600   2.286   6.106
61320SOL    HW183986  11.630   2.214   6.044
61320SOL    HW283987  11.561   2.246   6.189
61321SOL     OW83988  12.877   3.349   6.690
61321SOL    HW183989  12.784   3.324   6.663
61321SOL    HW283990  12.903   3.299   6.772
61322SOL     OW83991  11.489   2.409   6.866
61322SOL    HW183992  11.527   2.350   6.938
61322SOL    HW283993  11.529   2.383   6.778
61323SOL     OW83994  11.984   3.448   6.273
61323SOL    HW183995  12.016   3.458   6.179
61323SOL    HW283996  11.905   3.386   6.275
61324SOL     OW83997  12.596   2.076   6.698
61324SOL    HW183998  12.648   2.011   6.753
61324SOL    HW283999  12.547   2.139   6.759
61325SOL     OW84000  12.173   1.896   6.740
61325SOL    HW184001  12.110   1.824   6.709
61325SOL    HW284002  12.266   1.860   6.740
61326SOL     OW84003  11.942   3.192   5.887
61326SOL    HW184004  11.896   3.105   5.904
61326SOL    HW284005  12.033   3.189   5.928
61327SOL     OW84006  11.790   3.429   6.870
61327SOL    HW184007  11.785   3.511   6.927
61327SOL    HW284008  11.879   3.426   6.825
61328SOL     OW84009  12.524   1.914   5.754
61328SOL    HW184010  12.559   1.873   5.670
61328SOL    HW284011  12.434   1.876   5.774
61329SOL     OW84012  12.472   2.315   6.277
61329SOL    HW184013  12.413   2.395   6.281
61329SOL    HW284014  12.487   2.280   6.370
61330SOL     OW84015  11.211   2.939   5.886
61330SOL    HW184016  11.310   2.928   5.877
61330SOL    HW284017  11.171   2.853   5.918
61331SOL     OW84018  12.047   3.508   5.923
61331SOL    HW184019  11.970   3.473   5.869
61331SOL    HW284020  12.015   3.579   5.985
61332SOL     OW84021  11.402   2.490   7.561
61332SOL    HW184022  11.309   2.488   7.598
61332SOL    HW284023  11.403   2.451   7.469
61333SOL     OW84024  11.397   2.137   8.444
61333SOL    HW184025  11.432   2.120   8.536
61333SOL    HW284026  11.309   2.092   8.432
61334SOL     OW84027  11.191   2.230   8.095
61334SOL    HW184028  11.109   2.273   8.134
61334SOL    HW284029  11.163   2.157   8.032
61335SOL     OW84030  11.741   3.137   8.613
61335SOL    HW184031  11.648   3.130   8.576
61335SOL    HW284032  11.752   3.226   8.657
61336SOL     OW84033  12.727   3.373   8.151
61336SOL    HW184034  12.670   3.357   8.232
61336SOL    HW284035  12.668   3.383   8.071
61337SOL     OW84036  12.307   2.565   8.165
61337SOL    HW184037  12.364   2.643   8.140
61337SOL    HW284038  12.247   2.591   8.241
61338SOL     OW84039  11.940   3.006   8.471
61338SOL    HW184040  11.862   3.023   8.531
61338SOL    HW284041  11.974   3.093   8.435
61339SOL     OW84042  12.022   2.660   9.271
61339SOL    HW184043  12.018   2.736   9.336
61339SOL    HW284044  12.044   2.696   9.180
61340SOL     OW84045  11.857   2.874   8.113
61340SOL    HW184046  11.926   2.858   8.183
61340SOL    HW284047  11.784   2.931   8.151
61341SOL     OW84048  11.858   3.023   9.251
61341SOL    HW184049  11.918   3.102   9.265
61341SOL    HW284050  11.772   3.054   9.210
61342SOL     OW84051  11.507   3.297   8.509
61342SOL    HW184052  11.429   3.266   8.456
61342SOL    HW284053  11.565   3.355   8.452
61343SOL     OW84054  11.610   2.254   8.947
61343SOL    HW184055  11.692   2.198   8.956
61343SOL    HW284056  11.529   2.196   8.951
61344SOL     OW84057  11.403   3.575   7.931
61344SOL    HW184058  11.437   3.652   7.985
61344SOL    HW284059  11.447   3.575   7.841
61345SOL     OW84060  12.299   3.203   9.138
61345SOL    HW184061  12.346   3.203   9.226
61345SOL    HW284062  12.251   3.116   9.127
61346SOL     OW84063  11.402   3.296   7.986
61346SOL    HW184064  11.376   3.392   7.986
61346SOL    HW284065  11.331   3.242   8.031
61347SOL     OW84066  11.412   2.953   8.334
61347SOL    HW184067  11.426   2.869   8.386
61347SOL    HW284068  11.357   3.017   8.389
61348SOL     OW84069  11.792   3.648   8.887
61348SOL    HW184070  11.700   3.631   8.922
61348SOL    HW284071  11.820   3.740   8.913
61349SOL     OW84072  11.778   2.826   7.571
61349SOL    HW184073  11.785   2.910   7.517
61349SOL    HW284074  11.824   2.839   7.659
61350SOL     OW84075  11.294   2.505   8.011
61350SOL    HW184076  11.249   2.417   8.028
61350SOL    HW284077  11.293   2.559   8.095
61351SOL     OW84078  11.199   3.458   7.565
61351SOL    HW184079  11.180   3.362   7.586
61351SOL    HW284080  11.166   3.516   7.640
61352SOL     OW84081  12.861   2.784   8.060
61352SOL    HW184082  12.956   2.755   8.068
61352SOL    HW284083  12.853   2.849   7.985
61353SOL     OW84084  11.285   2.599   9.045
61353SOL    HW184085  11.373   2.586   9.090
61353SOL    HW284086  11.272   2.696   9.023
61354SOL     OW84087  11.785   3.227   8.174
61354SOL    HW184088  11.736   3.140   8.183
61354SOL    HW284089  11.762   3.270   8.087
61355SOL     OW84090  12.465   3.090   8.871
61355SOL    HW184091  12.502   3.017   8.813
61355SOL    HW284092  12.517   3.095   8.956
61356SOL     OW84093  11.981   1.866   7.950
61356SOL    HW184094  12.021   1.957   7.941
61356SOL    HW284095  11.881   1.874   7.956
61357SOL     OW84096  11.369   2.838   8.712
61357SOL    HW184097  11.458   2.793   8.698
61357SOL    HW284098  11.296   2.773   8.693
61358SOL     OW84099  12.359   3.654   9.064
61358SOL    HW184100  12.383   3.714   8.988
61358SOL    HW284101  12.366   3.559   9.034
61359SOL     OW84102  11.489   2.113   9.249
61359SOL    HW184103  11.560   2.184   9.255
61359SOL    HW284104  11.401   2.152   9.277
61360SOL     OW84105  12.638   3.279   8.401
61360SOL    HW184106  12.579   3.285   8.481
61360SOL    HW284107  12.623   3.191   8.355
61361SOL     OW84108  11.770   2.591   7.718
61361SOL    HW184109  11.794   2.660   7.650
61361SOL    HW284110  11.692   2.624   7.772
61362SOL     OW84111  12.453   2.207   8.392
61362SOL    HW184112  12.367   2.157   8.379
61362SOL    HW284113  12.515   2.153   8.448
61363SOL     OW84114  11.979   2.467   8.913
61363SOL    HW184115  11.932   2.464   9.002
61363SOL    HW284116  11.928   2.412   8.847
61364SOL     OW84117  12.566   2.331   9.122
61364SOL    HW184118  12.546   2.374   9.210
61364SOL    HW284119  12.644   2.269   9.131
61365SOL     OW84120  12.145   2.752   9.020
61365SOL    HW184121  12.191   2.668   8.991
61365SOL    HW284122  12.089   2.786   8.945
61366SOL     OW84123  12.163   2.272   8.690
61366SOL    HW184124  12.086   2.306   8.744
61366SOL    HW284125  12.129   2.221   8.611
61367SOL     OW84126  12.213   2.563   7.877
61367SOL    HW184127  12.239   2.559   7.973
61367SOL    HW284128  12.128   2.512   7.863
61368SOL     OW84129  11.248   2.673   8.237
61368SOL    HW184130  11.347   2.661   8.246
61368SOL    HW284131  11.224   2.768   8.258
61369SOL     OW84132  11.302   3.683   9.019
61369SOL    HW184133  11.292   3.668   9.118
61369SOL    HW284134  11.216   3.719   8.983
61370SOL     OW84135  12.037   2.210   7.643
61370SOL    HW184136  12.096   2.273   7.594
61370SOL    HW284137  12.056   2.116   7.614
61371SOL     OW84138  12.534   3.006   7.993
61371SOL    HW184139  12.617   2.977   7.945
61371SOL    HW284140  12.485   3.073   7.937
61372SOL     OW84141  11.722   2.058   8.333
61372SOL    HW184142  11.717   2.053   8.433
61372SOL    HW284143  11.724   2.154   8.304
61373SOL     OW84144  12.180   3.318   7.925
61373SOL    HW184145  12.134   3.390   7.873
61373SOL    HW284146  12.176   3.338   8.023
61374SOL     OW84147  11.523   3.663   8.301
61374SOL    HW184148  11.573   3.577   8.307
61374SOL    HW284149  11.588   3.740   8.298
61375SOL     OW84150  12.399   3.412   8.954
61375SOL    HW184151  12.405   3.335   9.018
61375SOL    HW284152  12.347   3.386   8.874
61376SOL     OW84153  11.493   2.805   7.690
61376SOL    HW184154  11.575   2.844   7.648
61376SOL    HW284155  11.466   2.723   7.641
61377SOL     OW84156  11.633   3.128   9.175
61377SOL    HW184157  11.583   3.129   9.089
61377SOL    HW284158  11.570   3.110   9.251
61378SOL     OW84159  12.283   3.638   7.685
61378SOL    HW184160  12.223   3.576   7.735
61378SOL    HW284161  12.314   3.594   7.600
61379SOL     OW84162  11.374   2.147   8.946
61379SOL    HW184163  11.294   2.207   8.933
61379SOL    HW284164  11.364   2.098   9.032
61380SOL     OW84165  11.636   3.605   7.771
61380SOL    HW184166  11.669   3.644   7.857
61380SOL    HW284167  11.712   3.598   7.706
61381SOL     OW84168  12.572   1.969   7.874
61381SOL    HW184169  12.548   1.932   7.784
61381SOL    HW284170  12.671   1.985   7.878
61382SOL     OW84171  11.421   3.647   8.689
61382SOL    HW184172  11.478   3.582   8.739
61382SOL    HW284173  11.405   3.614   8.596
61383SOL     OW84174  12.112   3.560   8.352
61383SOL    HW184175  12.192   3.503   8.373
61383SOL    HW284176  12.063   3.520   8.275
61384SOL     OW84177  11.554   2.562   7.928
61384SOL    HW184178  11.599   2.472   7.925
61384SOL    HW284179  11.460   2.551   7.961
61385SOL     OW84180  11.786   1.984   7.565
61385SOL    HW184181  11.884   1.962   7.572
61385SOL    HW284182  11.755   1.967   7.472
61386SOL     OW84183  11.953   2.126   9.197
61386SOL    HW184184  12.020   2.065   9.240
61386SOL    HW284185  11.880   2.145   9.262
61387SOL     OW84186  12.060   3.376   8.643
61387SOL    HW184187  12.037   3.351   8.549
61387SOL    HW284188  12.121   3.307   8.682
61388SOL     OW84189  12.523   2.452   8.881
61388SOL    HW184190  12.551   2.409   8.966
61388SOL    HW284191  12.548   2.548   8.882
61389SOL     OW84192  11.975   3.264   8.372
61389SOL    HW184193  12.065   3.278   8.330
61389SOL    HW284194  11.904   3.266   8.301
61390SOL     OW84195  12.094   2.365   8.347
61390SOL    HW184196  12.069   2.356   8.251
61390SOL    HW284197  12.142   2.283   8.378
61391SOL     OW84198  11.711   1.926   7.960
61391SOL    HW184199  11.630   1.927   8.018
61391SOL    HW284200  11.714   2.009   7.905
61392SOL     OW84201  12.606   3.050   7.489
61392SOL    HW184202  12.638   2.974   7.546
61392SOL    HW284203  12.514   3.077   7.519
61393SOL     OW84204  11.469   1.897   7.619
61393SOL    HW184205  11.518   1.981   7.598
61393SOL    HW284206  11.531   1.832   7.664
61394SOL     OW84207  12.107   2.098   7.928
61394SOL    HW184208  12.059   2.139   7.850
61394SOL    HW284209  12.206   2.096   7.909
61395SOL     OW84210  12.248   2.545   8.912
61395SOL    HW184211  12.168   2.484   8.915
61395SOL    HW284212  12.329   2.492   8.888
61396SOL     OW84213  12.399   3.432   8.241
61396SOL    HW184214  12.420   3.506   8.176
61396SOL    HW284215  12.467   3.432   8.314
61397SOL     OW84216  11.631   3.014   8.189
61397SOL    HW184217  11.560   2.987   8.254
61397SOL    HW284218  11.605   2.986   8.096
61398SOL     OW84219  12.443   3.659   8.039
61398SOL    HW184220  12.487   3.723   7.975
61398SOL    HW284221  12.393   3.711   8.109
61399SOL     OW84222  12.204   2.411   7.464
61399SOL    HW184223  12.163   2.493   7.425
61399SOL    HW284224  12.268   2.437   7.537
61400SOL     OW84225  11.250   2.418   8.834
61400SOL    HW184226  11.342   2.417   8.793
61400SOL    HW284227  11.244   2.492   8.901
61401SOL     OW84228  11.733   2.084   8.595
61401SOL    HW184229  11.771   2.000   8.632
61401SOL    HW284230  11.645   2.103   8.639
61402SOL     OW84231  12.038   2.316   8.090
61402SOL    HW184232  12.006   2.388   8.028
61402SOL    HW284233  12.062   2.235   8.037
61403SOL     OW84234  12.189   1.901   8.201
61403SOL    HW184235  12.117   1.906   8.132
61403SOL    HW284236  12.165   1.832   8.270
61404SOL     OW84237  12.601   3.035   8.315
61404SOL    HW184238  12.546   2.951   8.308
61404SOL    HW284239  12.627   3.064   8.223
61405SOL     OW84240  11.660   3.247   7.622
61405SOL    HW184241  11.573   3.232   7.669
61405SOL    HW284242  11.643   3.273   7.527
61406SOL     OW84243  12.562   2.437   7.526
61406SOL    HW184244  12.508   2.416   7.607
61406SOL    HW284245  12.653   2.396   7.535
61407SOL     OW84246  11.699   2.118   7.776
61407SOL    HW184247  11.726   2.059   7.701
61407SOL    HW284248  11.699   2.213   7.745
61408SOL     OW84249  12.236   3.209   8.788
61408SOL    HW184250  12.156   3.186   8.843
61408SOL    HW284251  12.319   3.183   8.837
61409SOL     OW84252  12.764   3.491   9.073
61409SOL    HW184253  12.791   3.525   8.983
61409SOL    HW284254  12.843   3.453   9.119
61410SOL     OW84255  12.283   3.057   8.548
61410SOL    HW184256  12.243   3.101   8.629
61410SOL    HW284257  12.242   3.094   8.465
61411SOL     OW84258  12.087   1.951   8.850
61411SOL    HW184259  12.112   1.931   8.755
61411SOL    HW284260  12.159   2.007   8.892
61412SOL     OW84261  12.152   2.978   9.167
61412SOL    HW184262  12.053   2.984   9.177
61412SOL    HW284263  12.175   2.898   9.111
61413SOL     OW84264  11.877   2.912   7.816
61413SOL    HW184265  11.863   2.919   7.915
61413SOL    HW284266  11.961   2.861   7.798
61414SOL     OW84267  11.582   2.675   8.699
61414SOL    HW184268  11.668   2.687   8.749
61414SOL    HW284269  11.540   2.588   8.726
61415SOL     OW84270  12.446   2.248   8.710
61415SOL    HW184271  12.467   2.322   8.774
61415SOL    HW284272  12.357   2.265   8.667
61416SOL     OW84273  11.236   3.426   8.779
61416SOL    HW184274  11.190   3.508   8.745
61416SOL    HW284275  11.334   3.445   8.788
61417SOL     OW84276  11.539   2.962   7.949
61417SOL    HW184277  11.532   3.045   7.893
61417SOL    HW284278  11.543   2.882   7.889
61418SOL     OW84279  11.738   2.399   8.313
61418SOL    HW184280  11.750   2.465   8.239
61418SOL    HW284281  11.784   2.433   8.396
61419SOL     OW84282  12.424   3.210   7.836
61419SOL    HW184283  12.474   3.287   7.876
61419SOL    HW284284  12.329   3.212   7.868
61420SOL     OW84285  12.444   3.307   8.590
61420SOL    HW184286  12.491   3.320   8.677
61420SOL    HW284287  12.378   3.233   8.599
61421SOL     OW84288  11.526   3.372   8.777
61421SOL    HW184289  11.505   3.328   8.690
61421SOL    HW284290  11.623   3.398   8.780
61422SOL     OW84291  11.574   2.613   9.046
61422SOL    HW184292  11.642   2.668   8.999
61422SOL    HW284293  11.614   2.525   9.073
61423SOL     OW84294  12.185   1.967   9.218
61423SOL    HW184295  12.191   2.052   9.166
61423SOL    HW284296  12.217   1.891   9.161
61424SOL     OW84297  11.676   1.912   9.188
61424SOL    HW184298  11.634   1.855   9.118
61424SOL    HW284299  11.610   1.981   9.220
61425SOL     OW84300  11.745   2.732   8.477
61425SOL    HW184301  11.789   2.821   8.468
61425SOL    HW284302  11.682   2.732   8.554
61426SOL     OW84303  12.532   2.724   8.493
61426SOL    HW184304  12.457   2.724   8.427
61426SOL    HW284305  12.569   2.632   8.502
61427SOL     OW84306  12.381   2.387   7.723
61427SOL    HW184307  12.394   2.303   7.777
61427SOL    HW284308  12.352   2.461   7.783
61428SOL     OW84309  11.479   2.075   8.679
61428SOL    HW184310  11.456   2.112   8.769
61428SOL    HW284311  11.449   1.980   8.673
61429SOL     OW84312  11.209   3.172   8.730
61429SOL    HW184313  11.262   3.123   8.798
61429SOL    HW284314  11.231   3.270   8.735
61430SOL     OW84315  11.904   2.496   8.512
61430SOL    HW184316  11.963   2.470   8.436
61430SOL    HW284317  11.876   2.592   8.501
61431SOL     OW84318  11.479   1.925   8.066
61431SOL    HW184319  11.468   2.019   8.099
61431SOL    HW284320  11.474   1.862   8.143
61432SOL     OW84321  12.794   2.229   7.822
61432SOL    HW184322  12.796   2.153   7.886
61432SOL    HW284323  12.746   2.306   7.862
61433SOL     OW84324  12.195   2.628   8.414
61433SOL    HW184325  12.210   2.649   8.510
61433SOL    HW284326  12.165   2.533   8.405
61434SOL     OW84327  12.152   3.435   9.148
61434SOL    HW184328  12.132   3.479   9.060
61434SOL    HW284329  12.191   3.344   9.132
61435SOL     OW84330  11.522   2.760   9.252
61435SOL    HW184331  11.598   2.804   9.300
61435SOL    HW284332  11.557   2.713   9.170
61436SOL     OW84333  12.475   2.700   7.490
61436SOL    HW184334  12.509   2.607   7.505
61436SOL    HW284335  12.493   2.727   7.395
61437SOL     OW84336  12.240   3.195   8.297
61437SOL    HW184337  12.247   3.111   8.242
61437SOL    HW284338  12.302   3.264   8.261
61438SOL     OW84339  11.491   2.672   8.397
61438SOL    HW184340  11.584   2.708   8.402
61438SOL    HW284341  11.485   2.587   8.449
61439SOL     OW84342  11.511   2.371   8.454
61439SOL    HW184343  11.459   2.288   8.437
61439SOL    HW284344  11.588   2.376   8.390
61440SOL     OW84345  12.310   2.242   9.126
61440SOL    HW184346  12.265   2.305   9.190
61440SOL    HW284347  12.403   2.273   9.109
61441SOL     OW84348  12.332   2.069   8.925
61441SOL    HW184349  12.332   2.133   9.002
61441SOL    HW284350  12.360   2.117   8.842
61442SOL     OW84351  11.180   3.188   7.648
61442SOL    HW184352  11.087   3.209   7.617
61442SOL    HW284353  11.190   3.089   7.661
61443SOL     OW84354  11.260   3.663   8.375
61443SOL    HW184355  11.218   3.577   8.348
61443SOL    HW284356  11.354   3.666   8.341
61444SOL     OW84357  11.676   3.430   8.358
61444SOL    HW184358  11.742   3.504   8.367
61444SOL    HW284359  11.720   3.351   8.316
61445SOL     OW84360  12.174   2.658   8.686
61445SOL    HW184361  12.215   2.626   8.772
61445SOL    HW284362  12.078   2.631   8.683
61446SOL     OW84363  11.212   2.406   8.562
61446SOL    HW184364  11.297   2.373   8.521
61446SOL    HW284365  11.225   2.421   8.660
61447SOL     OW84366  11.361   2.382   9.170
61447SOL    HW184367  11.420   2.342   9.100
61447SOL    HW284368  11.303   2.453   9.129
61448SOL     OW84369  12.541   2.812   9.108
61448SOL    HW184370  12.580   2.901   9.128
61448SOL    HW284371  12.551   2.792   9.011
61449SOL     OW84372  11.987   2.434   7.773
61449SOL    HW184373  11.994   2.345   7.727
61449SOL    HW284374  11.893   2.468   7.765
61450SOL     OW84375  11.424   3.426   9.192
61450SOL    HW184376  11.394   3.483   9.268
61450SOL    HW284377  11.417   3.329   9.218
61451SOL     OW84378  11.843   2.326   8.717
61451SOL    HW184379  11.809   2.237   8.687
61451SOL    HW284380  11.869   2.380   8.637
61452SOL     OW84381  12.102   3.540   8.913
61452SOL    HW184382  12.078   3.522   8.818
61452SOL    HW284383  12.132   3.634   8.923
61453SOL     OW84384  11.645   2.362   7.639
61453SOL    HW184385  11.706   2.442   7.643
61453SOL    HW284386  11.550   2.393   7.646
61454SOL     OW84387  11.331   2.999   8.914
61454SOL    HW184388  11.353   2.938   8.990
61454SOL    HW284389  11.341   2.950   8.828
61455SOL     OW84390  12.519   2.921   8.682
61455SOL    HW184391  12.543   2.858   8.608
61455SOL    HW284392  12.429   2.961   8.664
61456SOL     OW84393  12.474   2.717   7.757
61456SOL    HW184394  12.388   2.686   7.799
61456SOL    HW284395  12.470   2.703   7.658
61457SOL     OW84396  12.424   3.593   8.576
61457SOL    HW184397  12.508   3.598   8.522
61457SOL    HW284398  12.401   3.497   8.594
61458SOL     OW84399  11.255   3.120   8.470
61458SOL    HW184400  11.250   3.119   8.570
61458SOL    HW284401  11.172   3.079   8.432
61459SOL     OW84402  11.860   3.524   9.164
61459SOL    HW184403  11.804   3.605   9.173
61459SOL    HW284404  11.912   3.528   9.078
61460SOL     OW84405  12.898   1.997   7.971
61460SOL    HW184406  12.971   1.980   7.904
61460SOL    HW284407  12.867   1.910   8.009
61461SOL     OW84408  12.560   3.435   7.925
61461SOL    HW184409  12.627   3.447   7.851
61461SOL    HW284410  12.520   3.524   7.948
61462SOL     OW84411  11.302   3.656   9.299
61462SOL    HW184412  11.261   3.582   9.352
61462SOL    HW284413  11.366   3.707   9.357
61463SOL     OW84414  12.452   2.789   8.120
61463SOL    HW184415  12.512   2.708   8.122
61463SOL    HW284416  12.492   2.858   8.060
61464SOL     OW84417  12.002   3.135   8.870
61464SOL    HW184418  11.997   3.168   8.965
61464SOL    HW284419  11.916   3.154   8.824
61465SOL     OW84420  11.844   3.478   7.602
61465SOL    HW184421  11.853   3.488   7.503
61465SOL    HW284422  11.804   3.389   7.623
61466SOL     OW84423  11.435   2.188   8.168
61466SOL    HW184424  11.356   2.239   8.134
61466SOL    HW284425  11.426   2.173   8.266
61467SOL     OW84426  12.366   3.474   7.479
61467SOL    HW184427  12.372   3.381   7.516
61467SOL    HW284428  12.307   3.474   7.399
61468SOL     OW84429  11.994   2.864   8.820
61468SOL    HW184430  12.034   2.863   8.728
61468SOL    HW284431  12.004   2.956   8.860
61469SOL     OW84432  12.088   2.772   7.739
61469SOL    HW184433  12.151   2.810   7.671
61469SOL    HW284434  12.128   2.689   7.778
61470SOL     OW84435  11.544   3.150   8.938
61470SOL    HW184436  11.531   3.243   8.904
61470SOL    HW284437  11.460   3.098   8.925
61471SOL     OW84438  12.211   2.960   8.144
61471SOL    HW184439  12.141   2.913   8.198
61471SOL    HW284440  12.270   2.892   8.101
61472SOL     OW84441  12.186   2.098   8.419
61472SOL    HW184442  12.178   2.062   8.326
61472SOL    HW284443  12.184   2.022   8.484
61473SOL     OW84444  11.762   3.349   7.939
61473SOL    HW184445  11.804   3.291   7.869
61473SOL    HW284446  11.718   3.428   7.895
61474SOL     OW84447  11.427   3.210   7.738
61474SOL    HW184448  11.331   3.211   7.711
61474SOL    HW284449  11.439   3.263   7.822
61475SOL     OW84450  11.277   2.875   9.174
61475SOL    HW184451  11.200   2.842   9.228
61475SOL    HW284452  11.362   2.845   9.216
61476SOL     OW84453  11.844   2.065   8.937
61476SOL    HW184454  11.934   2.049   8.897
61476SOL    HW284455  11.852   2.070   9.036
61477SOL     OW84456  11.247   2.207   7.481
61477SOL    HW184457  11.155   2.179   7.452
61477SOL    HW284458  11.278   2.284   7.425
61478SOL     OW84459  12.612   2.718   8.846
61478SOL    HW184460  12.555   2.770   8.783
61478SOL    HW284461  12.708   2.730   8.822
61479SOL     OW84462  11.244   2.028   7.766
61479SOL    HW184463  11.227   2.111   7.712
61479SOL    HW284464  11.334   1.991   7.744
61480SOL     OW84465  12.355   3.197   7.567
61480SOL    HW184466  12.256   3.186   7.569
61480SOL    HW284467  12.389   3.212   7.660
61481SOL     OW84468  11.785   2.704   8.879
61481SOL    HW184469  11.841   2.785   8.862
61481SOL    HW284470  11.844   2.624   8.882
61482SOL     OW84471  11.888   2.427   9.156
61482SOL    HW184472  11.907   2.492   9.230
61482SOL    HW284473  11.948   2.347   9.165
61483SOL     OW84474  12.622   3.082   9.081
61483SOL    HW184475  12.613   3.072   9.180
61483SOL    HW284476  12.718   3.075   9.055
61484SOL     OW84477  11.562   3.603   9.008
61484SOL    HW184478  11.471   3.644   9.006
61484SOL    HW284479  11.555   3.509   9.040
61485SOL     OW84480  12.397   2.187   7.897
61485SOL    HW184481  12.462   2.113   7.886
61485SOL    HW284482  12.417   2.237   7.981
61486SOL     OW84483  11.766   2.607   8.100
61486SOL    HW184484  11.816   2.692   8.081
61486SOL    HW284485  11.678   2.609   8.052
61487SOL     OW84486  12.031   3.236   7.464
61487SOL    HW184487  11.985   3.251   7.552
61487SOL    HW284488  12.075   3.321   7.434
61488SOL     OW84489  11.833   3.652   8.401
61488SOL    HW184490  11.787   3.740   8.388
61488SOL    HW284491  11.932   3.664   8.394
61489SOL     OW84492  12.031   2.818   8.309
61489SOL    HW184493  12.085   2.749   8.357
61489SOL    HW284494  11.999   2.887   8.375
61490SOL     OW84495  12.255   2.846   7.535
61490SOL    HW184496  12.232   2.899   7.453
61490SOL    HW284497  12.336   2.790   7.516
61491SOL     OW84498  11.393   3.176   9.292
61491SOL    HW184499  11.328   3.103   9.271
61491SOL    HW284500  11.397   3.190   9.390
61492SOL     OW84501  11.251   3.102   8.101
61492SOL    HW184502  11.250   3.055   8.189
61492SOL    HW284503  11.333   3.074   8.050
61493SOL     OW84504  11.844   3.253   9.072
61493SOL    HW184505  11.766   3.203   9.110
61493SOL    HW284506  11.841   3.348   9.103
61494SOL     OW84507  11.600   2.286   7.968
61494SOL    HW184508  11.630   2.214   7.906
61494SOL    HW284509  11.561   2.246   8.051
61495SOL     OW84510  12.877   3.349   8.552
61495SOL    HW184511  12.784   3.324   8.525
61495SOL    HW284512  12.903   3.299   8.634
61496SOL     OW84513  11.489   2.409   8.728
61496SOL    HW184514  11.527   2.350   8.800
61496SOL    HW284515  11.529   2.383   8.640
61497SOL     OW84516  11.984   3.448   8.135
61497SOL    HW184517  12.016   3.458   8.041
61497SOL    HW284518  11.905   3.386   8.137
61498SOL     OW84519  12.596   2.076   8.560
61498SOL    HW184520  12.648   2.011   8.615
61498SOL    HW284521  12.547   2.139   8.621
61499SOL     OW84522  12.173   1.896   8.602
61499SOL    HW184523  12.110   1.824   8.571
61499SOL    HW284524  12.266   1.860   8.602
61500SOL     OW84525  11.942   3.192   7.749
61500SOL    HW184526  11.896   3.105   7.766
61500SOL    HW284527  12.033   3.189   7.790
61501SOL     OW84528  11.790   3.429   8.732
61501SOL    HW184529  11.785   3.511   8.789
61501SOL    HW284530  11.879   3.426   8.687
61502SOL     OW84531  12.524   1.914   7.616
61502SOL    HW184532  12.559   1.873   7.532
61502SOL    HW284533  12.434   1.876   7.636
61503SOL     OW84534  12.472   2.315   8.139
61503SOL    HW184535  12.413   2.395   8.143
61503SOL    HW284536  12.487   2.280   8.232
61504SOL     OW84537  11.211   2.939   7.748
61504SOL    HW184538  11.310   2.928   7.739
61504SOL    HW284539  11.171   2.853   7.780
61505SOL     OW84540  12.047   3.508   7.785
61505SOL    HW184541  11.970   3.473   7.731
61505SOL    HW284542  12.015   3.579   7.847
61506SOL     OW84543  11.402   2.490   9.423
61506SOL    HW184544  11.309   2.488   9.460
61506SOL    HW284545  11.403   2.451   9.331
61507SOL     OW84546  11.397   2.137  10.306
61507SOL    HW184547  11.432   2.120  10.398
61507SOL    HW284548  11.309   2.092  10.294
61508SOL     OW84549  11.191   2.230   9.957
61508SOL    HW184550  11.109   2.273   9.996
61508SOL    HW284551  11.163   2.157   9.894
61509SOL     OW84552  11.741   3.137  10.475
61509SOL    HW184553  11.648   3.130  10.438
61509SOL    HW284554  11.752   3.226  10.519
61510SOL     OW84555  12.727   3.373  10.013
61510SOL    HW184556  12.670   3.357  10.094
61510SOL    HW284557  12.668   3.383   9.933
61511SOL     OW84558  12.307   2.565  10.027
61511SOL    HW184559  12.364   2.643  10.002
61511SOL    HW284560  12.247   2.591  10.103
61512SOL     OW84561  11.940   3.006  10.333
61512SOL    HW184562  11.862   3.023  10.393
61512SOL    HW284563  11.974   3.093  10.297
61513SOL     OW84564  12.022   2.660  11.133
61513SOL    HW184565  12.018   2.736  11.198
61513SOL    HW284566  12.044   2.696  11.042
61514SOL     OW84567  11.857   2.874   9.975
61514SOL    HW184568  11.926   2.858  10.045
61514SOL    HW284569  11.784   2.931  10.013
61515SOL     OW84570  11.858   3.023  11.113
61515SOL    HW184571  11.918   3.102  11.127
61515SOL    HW284572  11.772   3.054  11.072
61516SOL     OW84573  11.507   3.297  10.371
61516SOL    HW184574  11.429   3.266  10.318
61516SOL    HW284575  11.565   3.355  10.314
61517SOL     OW84576  11.610   2.254  10.809
61517SOL    HW184577  11.692   2.198  10.818
61517SOL    HW284578  11.529   2.196  10.813
61518SOL     OW84579  11.403   3.575   9.793
61518SOL    HW184580  11.437   3.652   9.847
61518SOL    HW284581  11.447   3.575   9.703
61519SOL     OW84582  12.299   3.203  11.000
61519SOL    HW184583  12.346   3.203  11.088
61519SOL    HW284584  12.251   3.116  10.989
61520SOL     OW84585  11.402   3.296   9.848
61520SOL    HW184586  11.376   3.392   9.848
61520SOL    HW284587  11.331   3.242   9.893
61521SOL     OW84588  11.412   2.953  10.196
61521SOL    HW184589  11.426   2.869  10.248
61521SOL    HW284590  11.357   3.017  10.251
61522SOL     OW84591  11.792   3.648  10.749
61522SOL    HW184592  11.700   3.631  10.784
61522SOL    HW284593  11.820   3.740  10.775
61523SOL     OW84594  11.778   2.826   9.433
61523SOL    HW184595  11.785   2.910   9.379
61523SOL    HW284596  11.824   2.839   9.521
61524SOL     OW84597  11.294   2.505   9.873
61524SOL    HW184598  11.249   2.417   9.890
61524SOL    HW284599  11.293   2.559   9.957
61525SOL     OW84600  11.199   3.458   9.427
61525SOL    HW184601  11.180   3.362   9.448
61525SOL    HW284602  11.166   3.516   9.502
61526SOL     OW84603  12.861   2.784   9.922
61526SOL    HW184604  12.956   2.755   9.930
61526SOL    HW284605  12.853   2.849   9.847
61527SOL     OW84606  11.285   2.599  10.907
61527SOL    HW184607  11.373   2.586  10.952
61527SOL    HW284608  11.272   2.696  10.885
61528SOL     OW84609  11.785   3.227  10.036
61528SOL    HW184610  11.736   3.140  10.045
61528SOL    HW284611  11.762   3.270   9.949
61529SOL     OW84612  12.465   3.090  10.733
61529SOL    HW184613  12.502   3.017  10.675
61529SOL    HW284614  12.517   3.095  10.818
61530SOL     OW84615  11.981   1.866   9.812
61530SOL    HW184616  12.021   1.957   9.803
61530SOL    HW284617  11.881   1.874   9.818
61531SOL     OW84618  11.369   2.838  10.574
61531SOL    HW184619  11.458   2.793  10.560
61531SOL    HW284620  11.296   2.773  10.555
61532SOL     OW84621  12.359   3.654  10.926
61532SOL    HW184622  12.383   3.714  10.850
61532SOL    HW284623  12.366   3.559  10.896
61533SOL     OW84624  11.489   2.113  11.111
61533SOL    HW184625  11.560   2.184  11.117
61533SOL    HW284626  11.401   2.152  11.139
61534SOL     OW84627  12.638   3.279  10.263
61534SOL    HW184628  12.579   3.285  10.343
61534SOL    HW284629  12.623   3.191  10.217
61535SOL     OW84630  11.770   2.591   9.580
61535SOL    HW184631  11.794   2.660   9.512
61535SOL    HW284632  11.692   2.624   9.634
61536SOL     OW84633  12.453   2.207  10.254
61536SOL    HW184634  12.367   2.157  10.241
61536SOL    HW284635  12.515   2.153  10.310
61537SOL     OW84636  11.979   2.467  10.775
61537SOL    HW184637  11.932   2.464  10.864
61537SOL    HW284638  11.928   2.412  10.709
61538SOL     OW84639  12.566   2.331  10.984
61538SOL    HW184640  12.546   2.374  11.072
61538SOL    HW284641  12.644   2.269  10.993
61539SOL     OW84642  12.145   2.752  10.882
61539SOL    HW184643  12.191   2.668  10.853
61539SOL    HW284644  12.089   2.786  10.807
61540SOL     OW84645  12.163   2.272  10.552
61540SOL    HW184646  12.086   2.306  10.606
61540SOL    HW284647  12.129   2.221  10.473
61541SOL     OW84648  12.213   2.563   9.739
61541SOL    HW184649  12.239   2.559   9.835
61541SOL    HW284650  12.128   2.512   9.725
61542SOL     OW84651  11.248   2.673  10.099
61542SOL    HW184652  11.347   2.661  10.108
61542SOL    HW284653  11.224   2.768  10.120
61543SOL     OW84654  11.302   3.683  10.881
61543SOL    HW184655  11.292   3.668  10.980
61543SOL    HW284656  11.216   3.719  10.845
61544SOL     OW84657  12.037   2.210   9.505
61544SOL    HW184658  12.096   2.273   9.456
61544SOL    HW284659  12.056   2.116   9.476
61545SOL     OW84660  12.534   3.006   9.855
61545SOL    HW184661  12.617   2.977   9.807
61545SOL    HW284662  12.485   3.073   9.799
61546SOL     OW84663  11.722   2.058  10.195
61546SOL    HW184664  11.717   2.053  10.295
61546SOL    HW284665  11.724   2.154  10.166
61547SOL     OW84666  12.180   3.318   9.787
61547SOL    HW184667  12.134   3.390   9.735
61547SOL    HW284668  12.176   3.338   9.885
61548SOL     OW84669  11.523   3.663  10.163
61548SOL    HW184670  11.573   3.577  10.169
61548SOL    HW284671  11.588   3.740  10.160
61549SOL     OW84672  12.399   3.412  10.816
61549SOL    HW184673  12.405   3.335  10.880
61549SOL    HW284674  12.347   3.386  10.736
61550SOL     OW84675  11.493   2.805   9.552
61550SOL    HW184676  11.575   2.844   9.510
61550SOL    HW284677  11.466   2.723   9.503
61551SOL     OW84678  11.633   3.128  11.037
61551SOL    HW184679  11.583   3.129  10.951
61551SOL    HW284680  11.570   3.110  11.113
61552SOL     OW84681  12.283   3.638   9.547
61552SOL    HW184682  12.223   3.576   9.597
61552SOL    HW284683  12.314   3.594   9.462
61553SOL     OW84684  11.374   2.147  10.808
61553SOL    HW184685  11.294   2.207  10.795
61553SOL    HW284686  11.364   2.098  10.894
61554SOL     OW84687  11.636   3.605   9.633
61554SOL    HW184688  11.669   3.644   9.719
61554SOL    HW284689  11.712   3.598   9.568
61555SOL     OW84690  12.572   1.969   9.736
61555SOL    HW184691  12.548   1.932   9.646
61555SOL    HW284692  12.671   1.985   9.740
61556SOL     OW84693  11.421   3.647  10.551
61556SOL    HW184694  11.478   3.582  10.601
61556SOL    HW284695  11.405   3.614  10.458
61557SOL     OW84696  12.112   3.560  10.214
61557SOL    HW184697  12.192   3.503  10.235
61557SOL    HW284698  12.063   3.520  10.137
61558SOL     OW84699  11.554   2.562   9.790
61558SOL    HW184700  11.599   2.472   9.787
61558SOL    HW284701  11.460   2.551   9.823
61559SOL     OW84702  11.786   1.984   9.427
61559SOL    HW184703  11.884   1.962   9.434
61559SOL    HW284704  11.755   1.967   9.334
61560SOL     OW84705  11.953   2.126  11.059
61560SOL    HW184706  12.020   2.065  11.102
61560SOL    HW284707  11.880   2.145  11.124
61561SOL     OW84708  12.060   3.376  10.505
61561SOL    HW184709  12.037   3.351  10.411
61561SOL    HW284710  12.121   3.307  10.544
61562SOL     OW84711  12.523   2.452  10.743
61562SOL    HW184712  12.551   2.409  10.828
61562SOL    HW284713  12.548   2.548  10.744
61563SOL     OW84714  11.975   3.264  10.234
61563SOL    HW184715  12.065   3.278  10.192
61563SOL    HW284716  11.904   3.266  10.163
61564SOL     OW84717  12.094   2.365  10.209
61564SOL    HW184718  12.069   2.356  10.113
61564SOL    HW284719  12.142   2.283  10.240
61565SOL     OW84720  11.711   1.926   9.822
61565SOL    HW184721  11.630   1.927   9.880
61565SOL    HW284722  11.714   2.009   9.767
61566SOL     OW84723  12.606   3.050   9.351
61566SOL    HW184724  12.638   2.974   9.408
61566SOL    HW284725  12.514   3.077   9.381
61567SOL     OW84726  11.469   1.897   9.481
61567SOL    HW184727  11.518   1.981   9.460
61567SOL    HW284728  11.531   1.832   9.526
61568SOL     OW84729  12.107   2.098   9.790
61568SOL    HW184730  12.059   2.139   9.712
61568SOL    HW284731  12.206   2.096   9.771
61569SOL     OW84732  12.248   2.545  10.774
61569SOL    HW184733  12.168   2.484  10.777
61569SOL    HW284734  12.329   2.492  10.750
61570SOL     OW84735  12.399   3.432  10.103
61570SOL    HW184736  12.420   3.506  10.038
61570SOL    HW284737  12.467   3.432  10.176
61571SOL     OW84738  11.631   3.014  10.051
61571SOL    HW184739  11.560   2.987  10.116
61571SOL    HW284740  11.605   2.986   9.958
61572SOL     OW84741  12.443   3.659   9.901
61572SOL    HW184742  12.487   3.723   9.837
61572SOL    HW284743  12.393   3.711   9.971
61573SOL     OW84744  12.204   2.411   9.326
61573SOL    HW184745  12.163   2.493   9.287
61573SOL    HW284746  12.268   2.437   9.399
61574SOL     OW84747  11.250   2.418  10.696
61574SOL    HW184748  11.342   2.417  10.655
61574SOL    HW284749  11.244   2.492  10.763
61575SOL     OW84750  11.733   2.084  10.457
61575SOL    HW184751  11.771   2.000  10.494
61575SOL    HW284752  11.645   2.103  10.501
61576SOL     OW84753  12.038   2.316   9.952
61576SOL    HW184754  12.006   2.388   9.890
61576SOL    HW284755  12.062   2.235   9.899
61577SOL     OW84756  12.189   1.901  10.063
61577SOL    HW184757  12.117   1.906   9.994
61577SOL    HW284758  12.165   1.832  10.132
61578SOL     OW84759  12.601   3.035  10.177
61578SOL    HW184760  12.546   2.951  10.170
61578SOL    HW284761  12.627   3.064  10.085
61579SOL     OW84762  11.660   3.247   9.484
61579SOL    HW184763  11.573   3.232   9.531
61579SOL    HW284764  11.643   3.273   9.389
61580SOL     OW84765  12.562   2.437   9.388
61580SOL    HW184766  12.508   2.416   9.469
61580SOL    HW284767  12.653   2.396   9.397
61581SOL     OW84768  11.699   2.118   9.638
61581SOL    HW184769  11.726   2.059   9.563
61581SOL    HW284770  11.699   2.213   9.607
61582SOL     OW84771  12.236   3.209  10.650
61582SOL    HW184772  12.156   3.186  10.705
61582SOL    HW284773  12.319   3.183  10.699
61583SOL     OW84774  12.764   3.491  10.935
61583SOL    HW184775  12.791   3.525  10.845
61583SOL    HW284776  12.843   3.453  10.981
61584SOL     OW84777  12.283   3.057  10.410
61584SOL    HW184778  12.243   3.101  10.491
61584SOL    HW284779  12.242   3.094  10.327
61585SOL     OW84780  12.087   1.951  10.712
61585SOL    HW184781  12.112   1.931  10.617
61585SOL    HW284782  12.159   2.007  10.754
61586SOL     OW84783  12.152   2.978  11.029
61586SOL    HW184784  12.053   2.984  11.039
61586SOL    HW284785  12.175   2.898  10.973
61587SOL     OW84786  11.877   2.912   9.678
61587SOL    HW184787  11.863   2.919   9.777
61587SOL    HW284788  11.961   2.861   9.660
61588SOL     OW84789  11.582   2.675  10.561
61588SOL    HW184790  11.668   2.687  10.611
61588SOL    HW284791  11.540   2.588  10.588
61589SOL     OW84792  12.446   2.248  10.572
61589SOL    HW184793  12.467   2.322  10.636
61589SOL    HW284794  12.357   2.265  10.529
61590SOL     OW84795  11.236   3.426  10.641
61590SOL    HW184796  11.190   3.508  10.607
61590SOL    HW284797  11.334   3.445  10.650
61591SOL     OW84798  11.539   2.962   9.811
61591SOL    HW184799  11.532   3.045   9.755
61591SOL    HW284800  11.543   2.882   9.751
61592SOL     OW84801  11.738   2.399  10.175
61592SOL    HW184802  11.750   2.465  10.101
61592SOL    HW284803  11.784   2.433  10.258
61593SOL     OW84804  12.424   3.210   9.698
61593SOL    HW184805  12.474   3.287   9.738
61593SOL    HW284806  12.329   3.212   9.730
61594SOL     OW84807  12.444   3.307  10.452
61594SOL    HW184808  12.491   3.320  10.539
61594SOL    HW284809  12.378   3.233  10.461
61595SOL     OW84810  11.526   3.372  10.639
61595SOL    HW184811  11.505   3.328  10.552
61595SOL    HW284812  11.623   3.398  10.642
61596SOL     OW84813  11.574   2.613  10.908
61596SOL    HW184814  11.642   2.668  10.861
61596SOL    HW284815  11.614   2.525  10.935
61597SOL     OW84816  12.185   1.967  11.080
61597SOL    HW184817  12.191   2.052  11.028
61597SOL    HW284818  12.217   1.891  11.023
61598SOL     OW84819  11.676   1.912  11.050
61598SOL    HW184820  11.634   1.855  10.980
61598SOL    HW284821  11.610   1.981  11.082
61599SOL     OW84822  11.745   2.732  10.339
61599SOL    HW184823  11.789   2.821  10.330
61599SOL    HW284824  11.682   2.732  10.416
61600SOL     OW84825  12.532   2.724  10.355
61600SOL    HW184826  12.457   2.724  10.289
61600SOL    HW284827  12.569   2.632  10.364
61601SOL     OW84828  12.381   2.387   9.585
61601SOL    HW184829  12.394   2.303   9.639
61601SOL    HW284830  12.352   2.461   9.645
61602SOL     OW84831  11.479   2.075  10.541
61602SOL    HW184832  11.456   2.112  10.631
61602SOL    HW284833  11.449   1.980  10.535
61603SOL     OW84834  11.209   3.172  10.592
61603SOL    HW184835  11.262   3.123  10.660
61603SOL    HW284836  11.231   3.270  10.597
61604SOL     OW84837  11.904   2.496  10.374
61604SOL    HW184838  11.963   2.470  10.298
61604SOL    HW284839  11.876   2.592  10.363
61605SOL     OW84840  11.479   1.925   9.928
61605SOL    HW184841  11.468   2.019   9.961
61605SOL    HW284842  11.474   1.862  10.005
61606SOL     OW84843  12.794   2.229   9.684
61606SOL    HW184844  12.796   2.153   9.748
61606SOL    HW284845  12.746   2.306   9.724
61607SOL     OW84846  12.195   2.628  10.276
61607SOL    HW184847  12.210   2.649  10.372
61607SOL    HW284848  12.165   2.533  10.267
61608SOL     OW84849  12.152   3.435  11.010
61608SOL    HW184850  12.132   3.479  10.922
61608SOL    HW284851  12.191   3.344  10.994
61609SOL     OW84852  11.522   2.760  11.114
61609SOL    HW184853  11.598   2.804  11.162
61609SOL    HW284854  11.557   2.713  11.032
61610SOL     OW84855  12.475   2.700   9.352
61610SOL    HW184856  12.509   2.607   9.367
61610SOL    HW284857  12.493   2.727   9.257
61611SOL     OW84858  12.240   3.195  10.159
61611SOL    HW184859  12.247   3.111  10.104
61611SOL    HW284860  12.302   3.264  10.123
61612SOL     OW84861  11.491   2.672  10.259
61612SOL    HW184862  11.584   2.708  10.264
61612SOL    HW284863  11.485   2.587  10.311
61613SOL     OW84864  11.511   2.371  10.316
61613SOL    HW184865  11.459   2.288  10.299
61613SOL    HW284866  11.588   2.376  10.252
61614SOL     OW84867  12.310   2.242  10.988
61614SOL    HW184868  12.265   2.305  11.052
61614SOL    HW284869  12.403   2.273  10.971
61615SOL     OW84870  12.332   2.069  10.787
61615SOL    HW184871  12.332   2.133  10.864
61615SOL    HW284872  12.360   2.117  10.704
61616SOL     OW84873  11.180   3.188   9.510
61616SOL    HW184874  11.087   3.209   9.479
61616SOL    HW284875  11.190   3.089   9.523
61617SOL     OW84876  11.260   3.663  10.237
61617SOL    HW184877  11.218   3.577  10.210
61617SOL    HW284878  11.354   3.666  10.203
61618SOL     OW84879  11.676   3.430  10.220
61618SOL    HW184880  11.742   3.504  10.229
61618SOL    HW284881  11.720   3.351  10.178
61619SOL     OW84882  12.174   2.658  10.548
61619SOL    HW184883  12.215   2.626  10.634
61619SOL    HW284884  12.078   2.631  10.545
61620SOL     OW84885  11.212   2.406  10.424
61620SOL    HW184886  11.297   2.373  10.383
61620SOL    HW284887  11.225   2.421  10.522
61621SOL     OW84888  11.361   2.382  11.032
61621SOL    HW184889  11.420   2.342  10.962
61621SOL    HW284890  11.303   2.453  10.991
61622SOL     OW84891  12.541   2.812  10.970
61622SOL    HW184892  12.580   2.901  10.990
61622SOL    HW284893  12.551   2.792  10.873
61623SOL     OW84894  11.987   2.434   9.635
61623SOL    HW184895  11.994   2.345   9.589
61623SOL    HW284896  11.893   2.468   9.627
61624SOL     OW84897  11.424   3.426  11.054
61624SOL    HW184898  11.394   3.483  11.130
61624SOL    HW284899  11.417   3.329  11.080
61625SOL     OW84900  11.843   2.326  10.579
61625SOL    HW184901  11.809   2.237  10.549
61625SOL    HW284902  11.869   2.380  10.499
61626SOL     OW84903  12.102   3.540  10.775
61626SOL    HW184904  12.078   3.522  10.680
61626SOL    HW284905  12.132   3.634  10.785
61627SOL     OW84906  11.645   2.362   9.501
61627SOL    HW184907  11.706   2.442   9.505
61627SOL    HW284908  11.550   2.393   9.508
61628SOL     OW84909  11.331   2.999  10.776
61628SOL    HW184910  11.353   2.938  10.852
61628SOL    HW284911  11.341   2.950  10.690
61629SOL     OW84912  12.519   2.921  10.544
61629SOL    HW184913  12.543   2.858  10.470
61629SOL    HW284914  12.429   2.961  10.526
61630SOL     OW84915  12.474   2.717   9.619
61630SOL    HW184916  12.388   2.686   9.661
61630SOL    HW284917  12.470   2.703   9.520
61631SOL     OW84918  12.424   3.593  10.438
61631SOL    HW184919  12.508   3.598  10.384
61631SOL    HW284920  12.401   3.497  10.456
61632SOL     OW84921  11.255   3.120  10.332
61632SOL    HW184922  11.250   3.119  10.432
61632SOL    HW284923  11.172   3.079  10.294
61633SOL     OW84924  11.860   3.524  11.026
61633SOL    HW184925  11.804   3.605  11.035
61633SOL    HW284926  11.912   3.528  10.940
61634SOL     OW84927  12.898   1.997   9.833
61634SOL    HW184928  12.971   1.980   9.766
61634SOL    HW284929  12.867   1.910   9.871
61635SOL     OW84930  12.560   3.435   9.787
61635SOL    HW184931  12.627   3.447   9.713
61635SOL    HW284932  12.520   3.524   9.810
61636SOL     OW84933  11.302   3.656  11.161
61636SOL    HW184934  11.261   3.582  11.214
61636SOL    HW284935  11.366   3.707  11.219
61637SOL     OW84936  12.452   2.789   9.982
61637SOL    HW184937  12.512   2.708   9.984
61637SOL    HW284938  12.492   2.858   9.922
61638SOL     OW84939  12.002   3.135  10.732
61638SOL    HW184940  11.997   3.168  10.827
61638SOL    HW284941  11.916   3.154  10.686
61639SOL     OW84942  11.844   3.478   9.464
61639SOL    HW184943  11.853   3.488   9.365
61639SOL    HW284944  11.804   3.389   9.485
61640SOL     OW84945  11.435   2.188  10.030
61640SOL    HW184946  11.356   2.239   9.996
61640SOL    HW284947  11.426   2.173  10.128
61641SOL     OW84948  12.366   3.474   9.341
61641SOL    HW184949  12.372   3.381   9.378
61641SOL    HW284950  12.307   3.474   9.261
61642SOL     OW84951  11.994   2.864  10.682
61642SOL    HW184952  12.034   2.863  10.590
61642SOL    HW284953  12.004   2.956  10.722
61643SOL     OW84954  12.088   2.772   9.601
61643SOL    HW184955  12.151   2.810   9.533
61643SOL    HW284956  12.128   2.689   9.640
61644SOL     OW84957  11.544   3.150  10.800
61644SOL    HW184958  11.531   3.243  10.766
61644SOL    HW284959  11.460   3.098  10.787
61645SOL     OW84960  12.211   2.960  10.006
61645SOL    HW184961  12.141   2.913  10.060
61645SOL    HW284962  12.270   2.892   9.963
61646SOL     OW84963  12.186   2.098  10.281
61646SOL    HW184964  12.178   2.062  10.188
61646SOL    HW284965  12.184   2.022  10.346
61647SOL     OW84966  11.762   3.349   9.801
61647SOL    HW184967  11.804   3.291   9.731
61647SOL    HW284968  11.718   3.428   9.757
61648SOL     OW84969  11.427   3.210   9.600
61648SOL    HW184970  11.331   3.211   9.573
61648SOL    HW284971  11.439   3.263   9.684
61649SOL     OW84972  11.277   2.875  11.036
61649SOL    HW184973  11.200   2.842  11.090
61649SOL    HW284974  11.362   2.845  11.078
61650SOL     OW84975  11.844   2.065  10.799
61650SOL    HW184976  11.934   2.049  10.759
61650SOL    HW284977  11.852   2.070  10.898
61651SOL     OW84978  11.247   2.207   9.343
61651SOL    HW184979  11.155   2.179   9.314
61651SOL    HW284980  11.278   2.284   9.287
61652SOL     OW84981  12.612   2.718  10.708
61652SOL    HW184982  12.555   2.770  10.645
61652SOL    HW284983  12.708   2.730  10.684
61653SOL     OW84984  11.244   2.028   9.628
61653SOL    HW184985  11.227   2.111   9.574
61653SOL    HW284986  11.334   1.991   9.606
61654SOL     OW84987  12.355   3.197   9.429
61654SOL    HW184988  12.256   3.186   9.431
61654SOL    HW284989  12.389   3.212   9.522
61655SOL     OW84990  11.785   2.704  10.741
61655SOL    HW184991  11.841   2.785  10.724
61655SOL    HW284992  11.844   2.624  10.744
61656SOL     OW84993  11.888   2.427  11.018
61656SOL    HW184994  11.907   2.492  11.092
61656SOL    HW284995  11.948   2.347  11.027
61657SOL     OW84996  12.622   3.082  10.943
61657SOL    HW184997  12.613   3.072  11.042
61657SOL    HW284998  12.718   3.075  10.917
61658SOL     OW84999  11.562   3.603  10.870
61658SOL    HW185000  11.471   3.644  10.868
61658SOL    HW285001  11.555   3.509  10.902
61659SOL     OW85002  12.397   2.187   9.759
61659SOL    HW185003  12.462   2.113   9.748
61659SOL    HW285004  12.417   2.237   9.843
61660SOL     OW85005  11.766   2.607   9.962
61660SOL    HW185006  11.816   2.692   9.943
61660SOL    HW285007  11.678   2.609   9.914
61661SOL     OW85008  12.031   3.236   9.326
61661SOL    HW185009  11.985   3.251   9.414
61661SOL    HW285010  12.075   3.321   9.296
61662SOL     OW85011  11.833   3.652  10.263
61662SOL    HW185012  11.787   3.740  10.250
61662SOL    HW285013  11.932   3.664  10.256
61663SOL     OW85014  12.031   2.818  10.171
61663SOL    HW185015  12.085   2.749  10.219
61663SOL    HW285016  11.999   2.887  10.237
61664SOL     OW85017  12.255   2.846   9.397
61664SOL    HW185018  12.232   2.899   9.315
61664SOL    HW285019  12.336   2.790   9.378
61665SOL     OW85020  11.393   3.176  11.154
61665SOL    HW185021  11.328   3.103  11.133
61665SOL    HW285022  11.397   3.190  11.252
61666SOL     OW85023  11.251   3.102   9.963
61666SOL    HW185024  11.250   3.055  10.051
61666SOL    HW285025  11.333   3.074   9.912
61667SOL     OW85026  11.844   3.253  10.934
61667SOL    HW185027  11.766   3.203  10.972
61667SOL    HW285028  11.841   3.348  10.965
61668SOL     OW85029  11.600   2.286   9.830
61668SOL    HW185030  11.630   2.214   9.768
61668SOL    HW285031  11.561   2.246   9.913
61669SOL     OW85032  12.877   3.349  10.414
61669SOL    HW185033  12.784   3.324  10.387
61669SOL    HW285034  12.903   3.299  10.496
61670SOL     OW85035  11.489   2.409  10.590
61670SOL    HW185036  11.527   2.350  10.662
61670SOL    HW285037  11.529   2.383  10.502
61671SOL     OW85038  11.984   3.448   9.997
61671SOL    HW185039  12.016   3.458   9.903
61671SOL    HW285040  11.905   3.386   9.999
61672SOL     OW85041  12.596   2.076  10.422
61672SOL    HW185042  12.648   2.011  10.477
61672SOL    HW285043  12.547   2.139  10.483
61673SOL     OW85044  12.173   1.896  10.464
61673SOL    HW185045  12.110   1.824  10.433
61673SOL    HW285046  12.266   1.860  10.464
61674SOL     OW85047  11.942   3.192   9.611
61674SOL    HW185048  11.896   3.105   9.628
61674SOL    HW285049  12.033   3.189   9.652
61675SOL     OW85050  11.790   3.429  10.594
61675SOL    HW185051  11.785   3.511  10.651
61675SOL    HW285052  11.879   3.426  10.549
61676SOL     OW85053  12.524   1.914   9.478
61676SOL    HW185054  12.559   1.873   9.394
61676SOL    HW285055  12.434   1.876   9.498
61677SOL     OW85056  12.472   2.315  10.001
61677SOL    HW185057  12.413   2.395  10.005
61677SOL    HW285058  12.487   2.280  10.094
61678SOL     OW85059  11.211   2.939   9.610
61678SOL    HW185060  11.310   2.928   9.601
61678SOL    HW285061  11.171   2.853   9.642
61679SOL     OW85062  12.047   3.508   9.647
61679SOL    HW185063  11.970   3.473   9.593
61679SOL    HW285064  12.015   3.579   9.709
61680SOL     OW85065  11.402   2.490  11.285
61680SOL    HW185066  11.309   2.488  11.322
61680SOL    HW285067  11.403   2.451  11.193
61681SOL     OW85068  11.397   2.137  12.168
61681SOL    HW185069  11.432   2.120  12.260
61681SOL    HW285070  11.309   2.092  12.156
61682SOL     OW85071  11.191   2.230  11.819
61682SOL    HW185072  11.109   2.273  11.858
61682SOL    HW285073  11.163   2.157  11.756
61683SOL     OW85074  11.741   3.137  12.337
61683SOL    HW185075  11.648   3.130  12.300
61683SOL    HW285076  11.752   3.226  12.381
61684SOL     OW85077  12.727   3.373  11.875
61684SOL    HW185078  12.670   3.357  11.956
61684SOL    HW285079  12.668   3.383  11.795
61685SOL     OW85080  12.307   2.565  11.889
61685SOL    HW185081  12.364   2.643  11.864
61685SOL    HW285082  12.247   2.591  11.965
61686SOL     OW85083  11.940   3.006  12.195
61686SOL    HW185084  11.862   3.023  12.255
61686SOL    HW285085  11.974   3.093  12.159
61687SOL     OW85086  11.857   2.874  11.837
61687SOL    HW185087  11.926   2.858  11.907
61687SOL    HW285088  11.784   2.931  11.875
61688SOL     OW85089  11.507   3.297  12.233
61688SOL    HW185090  11.429   3.266  12.180
61688SOL    HW285091  11.565   3.355  12.176
61689SOL     OW85092  11.610   2.254  12.671
61689SOL    HW185093  11.692   2.198  12.680
61689SOL    HW285094  11.529   2.196  12.675
61690SOL     OW85095  11.403   3.575  11.655
61690SOL    HW185096  11.437   3.652  11.709
61690SOL    HW285097  11.447   3.575  11.565
61691SOL     OW85098  11.402   3.296  11.710
61691SOL    HW185099  11.376   3.392  11.710
61691SOL    HW285100  11.331   3.242  11.755
61692SOL     OW85101  11.412   2.953  12.058
61692SOL    HW185102  11.426   2.869  12.110
61692SOL    HW285103  11.357   3.017  12.113
61693SOL     OW85104  11.792   3.648  12.611
61693SOL    HW185105  11.700   3.631  12.646
61693SOL    HW285106  11.820   3.740  12.637
61694SOL     OW85107  11.778   2.826  11.295
61694SOL    HW185108  11.785   2.910  11.241
61694SOL    HW285109  11.824   2.839  11.383
61695SOL     OW85110  11.294   2.505  11.735
61695SOL    HW185111  11.249   2.417  11.752
61695SOL    HW285112  11.293   2.559  11.819
61696SOL     OW85113  11.199   3.458  11.289
61696SOL    HW185114  11.180   3.362  11.310
61696SOL    HW285115  11.166   3.516  11.364
61697SOL     OW85116  12.861   2.784  11.784
61697SOL    HW185117  12.956   2.755  11.792
61697SOL    HW285118  12.853   2.849  11.709
61698SOL     OW85119  11.785   3.227  11.898
61698SOL    HW185120  11.736   3.140  11.907
61698SOL    HW285121  11.762   3.270  11.811
61699SOL     OW85122  11.981   1.866  11.674
61699SOL    HW185123  12.021   1.957  11.665
61699SOL    HW285124  11.881   1.874  11.680
61700SOL     OW85125  11.369   2.838  12.436
61700SOL    HW185126  11.458   2.793  12.422
61700SOL    HW285127  11.296   2.773  12.417
61701SOL     OW85128  11.489   2.113  12.973
61701SOL    HW185129  11.560   2.184  12.979
61701SOL    HW285130  11.401   2.152  13.001
61702SOL     OW85131  12.638   3.279  12.125
61702SOL    HW185132  12.579   3.285  12.205
61702SOL    HW285133  12.623   3.191  12.079
61703SOL     OW85134  11.770   2.591  11.442
61703SOL    HW185135  11.794   2.660  11.374
61703SOL    HW285136  11.692   2.624  11.496
61704SOL     OW85137  12.453   2.207  12.116
61704SOL    HW185138  12.367   2.157  12.103
61704SOL    HW285139  12.515   2.153  12.172
61705SOL     OW85140  11.979   2.467  12.637
61705SOL    HW185141  11.932   2.464  12.726
61705SOL    HW285142  11.928   2.412  12.571
61706SOL     OW85143  12.163   2.272  12.414
61706SOL    HW185144  12.086   2.306  12.468
61706SOL    HW285145  12.129   2.221  12.335
61707SOL     OW85146  12.213   2.563  11.601
61707SOL    HW185147  12.239   2.559  11.697
61707SOL    HW285148  12.128   2.512  11.587
61708SOL     OW85149  11.248   2.673  11.961
61708SOL    HW185150  11.347   2.661  11.970
61708SOL    HW285151  11.224   2.768  11.982
61709SOL     OW85152  11.302   3.683  12.743
61709SOL    HW185153  11.292   3.668  12.842
61709SOL    HW285154  11.216   3.719  12.707
61710SOL     OW85155  12.037   2.210  11.367
61710SOL    HW185156  12.096   2.273  11.318
61710SOL    HW285157  12.056   2.116  11.338
61711SOL     OW85158  12.534   3.006  11.717
61711SOL    HW185159  12.617   2.977  11.669
61711SOL    HW285160  12.485   3.073  11.661
61712SOL     OW85161  11.722   2.058  12.057
61712SOL    HW185162  11.717   2.053  12.157
61712SOL    HW285163  11.724   2.154  12.028
61713SOL     OW85164  12.180   3.318  11.649
61713SOL    HW185165  12.134   3.390  11.597
61713SOL    HW285166  12.176   3.338  11.747
61714SOL     OW85167  11.523   3.663  12.025
61714SOL    HW185168  11.573   3.577  12.031
61714SOL    HW285169  11.588   3.740  12.022
61715SOL     OW85170  11.493   2.805  11.414
61715SOL    HW185171  11.575   2.844  11.372
61715SOL    HW285172  11.466   2.723  11.365
61716SOL     OW85173  12.283   3.638  11.409
61716SOL    HW185174  12.223   3.576  11.459
61716SOL    HW285175  12.314   3.594  11.324
61717SOL     OW85176  11.374   2.147  12.670
61717SOL    HW185177  11.294   2.207  12.657
61717SOL    HW285178  11.364   2.098  12.756
61718SOL     OW85179  11.636   3.605  11.495
61718SOL    HW185180  11.669   3.644  11.581
61718SOL    HW285181  11.712   3.598  11.430
61719SOL     OW85182  12.572   1.969  11.598
61719SOL    HW185183  12.548   1.932  11.508
61719SOL    HW285184  12.671   1.985  11.602
61720SOL     OW85185  11.421   3.647  12.413
61720SOL    HW185186  11.478   3.582  12.463
61720SOL    HW285187  11.405   3.614  12.320
61721SOL     OW85188  12.112   3.560  12.076
61721SOL    HW185189  12.192   3.503  12.097
61721SOL    HW285190  12.063   3.520  11.999
61722SOL     OW85191  11.554   2.562  11.652
61722SOL    HW185192  11.599   2.472  11.649
61722SOL    HW285193  11.460   2.551  11.685
61723SOL     OW85194  11.786   1.984  11.289
61723SOL    HW185195  11.884   1.962  11.296
61723SOL    HW285196  11.755   1.967  11.196
61724SOL     OW85197  12.060   3.376  12.367
61724SOL    HW185198  12.037   3.351  12.273
61724SOL    HW285199  12.121   3.307  12.406
61725SOL     OW85200  11.975   3.264  12.096
61725SOL    HW185201  12.065   3.278  12.054
61725SOL    HW285202  11.904   3.266  12.025
61726SOL     OW85203  12.094   2.365  12.071
61726SOL    HW185204  12.069   2.356  11.975
61726SOL    HW285205  12.142   2.283  12.102
61727SOL     OW85206  11.711   1.926  11.684
61727SOL    HW185207  11.630   1.927  11.742
61727SOL    HW285208  11.714   2.009  11.629
61728SOL     OW85209  12.606   3.050  11.213
61728SOL    HW185210  12.638   2.974  11.270
61728SOL    HW285211  12.514   3.077  11.243
61729SOL     OW85212  11.469   1.897  11.343
61729SOL    HW185213  11.518   1.981  11.322
61729SOL    HW285214  11.531   1.832  11.388
61730SOL     OW85215  12.107   2.098  11.652
61730SOL    HW185216  12.059   2.139  11.574
61730SOL    HW285217  12.206   2.096  11.633
61731SOL     OW85218  12.399   3.432  11.965
61731SOL    HW185219  12.420   3.506  11.900
61731SOL    HW285220  12.467   3.432  12.038
61732SOL     OW85221  11.631   3.014  11.913
61732SOL    HW185222  11.560   2.987  11.978
61732SOL    HW285223  11.605   2.986  11.820
61733SOL     OW85224  12.443   3.659  11.763
61733SOL    HW185225  12.487   3.723  11.699
61733SOL    HW285226  12.393   3.711  11.833
61734SOL     OW85227  12.204   2.411  11.188
61734SOL    HW185228  12.163   2.493  11.149
61734SOL    HW285229  12.268   2.437  11.261
61735SOL     OW85230  11.250   2.418  12.558
61735SOL    HW185231  11.342   2.417  12.517
61735SOL    HW285232  11.244   2.492  12.625
61736SOL     OW85233  11.733   2.084  12.319
61736SOL    HW185234  11.771   2.000  12.356
61736SOL    HW285235  11.645   2.103  12.363
61737SOL     OW85236  12.038   2.316  11.814
61737SOL    HW185237  12.006   2.388  11.752
61737SOL    HW285238  12.062   2.235  11.761
61738SOL     OW85239  12.189   1.901  11.925
61738SOL    HW185240  12.117   1.906  11.856
61738SOL    HW285241  12.165   1.832  11.994
61739SOL     OW85242  12.601   3.035  12.039
61739SOL    HW185243  12.546   2.951  12.032
61739SOL    HW285244  12.627   3.064  11.947
61740SOL     OW85245  11.660   3.247  11.346
61740SOL    HW185246  11.573   3.232  11.393
61740SOL    HW285247  11.643   3.273  11.251
61741SOL     OW85248  12.562   2.437  11.250
61741SOL    HW185249  12.508   2.416  11.331
61741SOL    HW285250  12.653   2.396  11.259
61742SOL     OW85251  11.699   2.118  11.500
61742SOL    HW185252  11.726   2.059  11.425
61742SOL    HW285253  11.699   2.213  11.469
61743SOL     OW85254  12.236   3.209  12.512
61743SOL    HW185255  12.156   3.186  12.567
61743SOL    HW285256  12.319   3.183  12.561
61744SOL     OW85257  12.283   3.057  12.272
61744SOL    HW185258  12.243   3.101  12.353
61744SOL    HW285259  12.242   3.094  12.189
61745SOL     OW85260  12.087   1.951  12.574
61745SOL    HW185261  12.112   1.931  12.479
61745SOL    HW285262  12.159   2.007  12.616
61746SOL     OW85263  11.877   2.912  11.540
61746SOL    HW185264  11.863   2.919  11.639
61746SOL    HW285265  11.961   2.861  11.522
61747SOL     OW85266  11.582   2.675  12.423
61747SOL    HW185267  11.668   2.687  12.473
61747SOL    HW285268  11.540   2.588  12.450
61748SOL     OW85269  12.446   2.248  12.434
61748SOL    HW185270  12.467   2.322  12.498
61748SOL    HW285271  12.357   2.265  12.391
61749SOL     OW85272  11.236   3.426  12.503
61749SOL    HW185273  11.190   3.508  12.469
61749SOL    HW285274  11.334   3.445  12.512
61750SOL     OW85275  11.539   2.962  11.673
61750SOL    HW185276  11.532   3.045  11.617
61750SOL    HW285277  11.543   2.882  11.613
61751SOL     OW85278  11.738   2.399  12.037
61751SOL    HW185279  11.750   2.465  11.963
61751SOL    HW285280  11.784   2.433  12.120
61752SOL     OW85281  12.424   3.210  11.560
61752SOL    HW185282  12.474   3.287  11.600
61752SOL    HW285283  12.329   3.212  11.592
61753SOL     OW85284  12.444   3.307  12.314
61753SOL    HW185285  12.491   3.320  12.401
61753SOL    HW285286  12.378   3.233  12.323
61754SOL     OW85287  11.526   3.372  12.501
61754SOL    HW185288  11.505   3.328  12.414
61754SOL    HW285289  11.623   3.398  12.504
61755SOL     OW85290  11.574   2.613  12.770
61755SOL    HW185291  11.642   2.668  12.723
61755SOL    HW285292  11.614   2.525  12.797
61756SOL     OW85293  12.759   2.641  12.842
61756SOL    HW185294  12.667   2.679  12.837
61756SOL    HW285295  12.819   2.688  12.777
61757SOL     OW85296  11.745   2.732  12.201
61757SOL    HW185297  11.789   2.821  12.192
61757SOL    HW285298  11.682   2.732  12.278
61758SOL     OW85299  12.532   2.724  12.217
61758SOL    HW185300  12.457   2.724  12.151
61758SOL    HW285301  12.569   2.632  12.226
61759SOL     OW85302  12.381   2.387  11.447
61759SOL    HW185303  12.394   2.303  11.501
61759SOL    HW285304  12.352   2.461  11.507
61760SOL     OW85305  11.479   2.075  12.403
61760SOL    HW185306  11.456   2.112  12.493
61760SOL    HW285307  11.449   1.980  12.397
61761SOL     OW85308  11.209   3.172  12.454
61761SOL    HW185309  11.262   3.123  12.522
61761SOL    HW285310  11.231   3.270  12.459
61762SOL     OW85311  11.904   2.496  12.236
61762SOL    HW185312  11.963   2.470  12.160
61762SOL    HW285313  11.876   2.592  12.225
61763SOL     OW85314  11.479   1.925  11.790
61763SOL    HW185315  11.468   2.019  11.823
61763SOL    HW285316  11.474   1.862  11.867
61764SOL     OW85317  12.794   2.229  11.546
61764SOL    HW185318  12.796   2.153  11.610
61764SOL    HW285319  12.746   2.306  11.586
61765SOL     OW85320  12.195   2.628  12.138
61765SOL    HW185321  12.210   2.649  12.234
61765SOL    HW285322  12.165   2.533  12.129
61766SOL     OW85323  12.152   3.435  12.872
61766SOL    HW185324  12.132   3.479  12.784
61766SOL    HW285325  12.191   3.344  12.856
61767SOL     OW85326  12.475   2.700  11.214
61767SOL    HW185327  12.509   2.607  11.229
61767SOL    HW285328  12.493   2.727  11.119
61768SOL     OW85329  12.240   3.195  12.021
61768SOL    HW185330  12.247   3.111  11.966
61768SOL    HW285331  12.302   3.264  11.985
61769SOL     OW85332  11.491   2.672  12.121
61769SOL    HW185333  11.584   2.708  12.126
61769SOL    HW285334  11.485   2.587  12.173
61770SOL     OW85335  11.511   2.371  12.178
61770SOL    HW185336  11.459   2.288  12.161
61770SOL    HW285337  11.588   2.376  12.114
61771SOL     OW85338  12.310   2.242  12.850
61771SOL    HW185339  12.265   2.305  12.914
61771SOL    HW285340  12.403   2.273  12.833
61772SOL     OW85341  12.332   2.069  12.649
61772SOL    HW185342  12.332   2.133  12.726
61772SOL    HW285343  12.360   2.117  12.566
61773SOL     OW85344  11.180   3.188  11.372
61773SOL    HW185345  11.087   3.209  11.341
61773SOL    HW285346  11.190   3.089  11.385
61774SOL     OW85347  11.260   3.663  12.099
61774SOL    HW185348  11.218   3.577  12.072
61774SOL    HW285349  11.354   3.666  12.065
61775SOL     OW85350  11.676   3.430  12.082
61775SOL    HW185351  11.742   3.504  12.091
61775SOL    HW285352  11.720   3.351  12.040
61776SOL     OW85353  12.174   2.658  12.410
61776SOL    HW185354  12.215   2.626  12.496
61776SOL    HW285355  12.078   2.631  12.407
61777SOL     OW85356  11.212   2.406  12.286
61777SOL    HW185357  11.297   2.373  12.245
61777SOL    HW285358  11.225   2.421  12.384
61778SOL     OW85359  11.987   2.434  11.497
61778SOL    HW185360  11.994   2.345  11.451
61778SOL    HW285361  11.893   2.468  11.489
61779SOL     OW85362  11.843   2.326  12.441
61779SOL    HW185363  11.809   2.237  12.411
61779SOL    HW285364  11.869   2.380  12.361
61780SOL     OW85365  12.102   3.540  12.637
61780SOL    HW185366  12.078   3.522  12.542
61780SOL    HW285367  12.132   3.634  12.647
61781SOL     OW85368  11.645   2.362  11.363
61781SOL    HW185369  11.706   2.442  11.367
61781SOL    HW285370  11.550   2.393  11.370
61782SOL     OW85371  11.331   2.999  12.638
61782SOL    HW185372  11.353   2.938  12.714
61782SOL    HW285373  11.341   2.950  12.552
61783SOL     OW85374  12.519   2.921  12.406
61783SOL    HW185375  12.543   2.858  12.332
61783SOL    HW285376  12.429   2.961  12.388
61784SOL     OW85377  12.474   2.717  11.481
61784SOL    HW185378  12.388   2.686  11.523
61784SOL    HW285379  12.470   2.703  11.382
61785SOL     OW85380  12.424   3.593  12.300
61785SOL    HW185381  12.508   3.598  12.246
61785SOL    HW285382  12.401   3.497  12.318
61786SOL     OW85383  11.255   3.120  12.194
61786SOL    HW185384  11.250   3.119  12.294
61786SOL    HW285385  11.172   3.079  12.156
61787SOL     OW85386  12.898   1.997  11.695
61787SOL    HW185387  12.971   1.980  11.628
61787SOL    HW285388  12.867   1.910  11.733
61788SOL     OW85389  12.560   3.435  11.649
61788SOL    HW185390  12.627   3.447  11.575
61788SOL    HW285391  12.520   3.524  11.672
61789SOL     OW85392  12.452   2.789  11.844
61789SOL    HW185393  12.512   2.708  11.846
61789SOL    HW285394  12.492   2.858  11.784
61790SOL     OW85395  11.844   3.478  11.326
61790SOL    HW185396  11.853   3.488  11.227
61790SOL    HW285397  11.804   3.389  11.347
61791SOL     OW85398  11.435   2.188  11.892
61791SOL    HW185399  11.356   2.239  11.858
61791SOL    HW285400  11.426   2.173  11.990
61792SOL     OW85401  12.366   3.474  11.203
61792SOL    HW185402  12.372   3.381  11.240
61792SOL    HW285403  12.307   3.474  11.123
61793SOL     OW85404  11.994   2.864  12.544
61793SOL    HW185405  12.034   2.863  12.452
61793SOL    HW285406  12.004   2.956  12.584
61794SOL     OW85407  12.088   2.772  11.463
61794SOL    HW185408  12.151   2.810  11.395
61794SOL    HW285409  12.128   2.689  11.502
61795SOL     OW85410  11.544   3.150  12.662
61795SOL    HW185411  11.531   3.243  12.628
61795SOL    HW285412  11.460   3.098  12.649
61796SOL     OW85413  12.211   2.960  11.868
61796SOL    HW185414  12.141   2.913  11.922
61796SOL    HW285415  12.270   2.892  11.825
61797SOL     OW85416  12.186   2.098  12.143
61797SOL    HW185417  12.178   2.062  12.050
61797SOL    HW285418  12.184   2.022  12.208
61798SOL     OW85419  11.762   3.349  11.663
61798SOL    HW185420  11.804   3.291  11.593
61798SOL    HW285421  11.718   3.428  11.619
61799SOL     OW85422  11.427   3.210  11.462
61799SOL    HW185423  11.331   3.211  11.435
61799SOL    HW285424  11.439   3.263  11.546
61800SOL     OW85425  11.247   2.207  11.205
61800SOL    HW185426  11.155   2.179  11.176
61800SOL    HW285427  11.278   2.284  11.149
61801SOL     OW85428  12.612   2.718  12.570
61801SOL    HW185429  12.555   2.770  12.507
61801SOL    HW285430  12.708   2.730  12.546
61802SOL     OW85431  11.244   2.028  11.490
61802SOL    HW185432  11.227   2.111  11.436
61802SOL    HW285433  11.334   1.991  11.468
61803SOL     OW85434  12.355   3.197  11.291
61803SOL    HW185435  12.256   3.186  11.293
61803SOL    HW285436  12.389   3.212  11.384
61804SOL     OW85437  11.785   2.704  12.603
61804SOL    HW185438  11.841   2.785  12.586
61804SOL    HW285439  11.844   2.624  12.606
61805SOL     OW85440  11.562   3.603  12.732
61805SOL    HW185441  11.471   3.644  12.730
61805SOL    HW285442  11.555   3.509  12.764
61806SOL     OW85443  12.397   2.187  11.621
61806SOL    HW185444  12.462   2.113  11.610
61806SOL    HW285445  12.417   2.237  11.705
61807SOL     OW85446  11.766   2.607  11.824
61807SOL    HW185447  11.816   2.692  11.805
61807SOL    HW285448  11.678   2.609  11.776
61808SOL     OW85449  12.031   3.236  11.188
61808SOL    HW185450  11.985   3.251  11.276
61808SOL    HW285451  12.075   3.321  11.158
61809SOL     OW85452  11.833   3.652  12.125
61809SOL    HW185453  11.787   3.740  12.112
61809SOL    HW285454  11.932   3.664  12.118
61810SOL     OW85455  12.031   2.818  12.033
61810SOL    HW185456  12.085   2.749  12.081
61810SOL    HW285457  11.999   2.887  12.099
61811SOL     OW85458  12.255   2.846  11.259
61811SOL    HW185459  12.232   2.899  11.177
61811SOL    HW285460  12.336   2.790  11.240
61812SOL     OW85461  11.251   3.102  11.825
61812SOL    HW185462  11.250   3.055  11.913
61812SOL    HW285463  11.333   3.074  11.774
61813SOL     OW85464  11.600   2.286  11.692
61813SOL    HW185465  11.630   2.214  11.630
61813SOL    HW285466  11.561   2.246  11.775
61814SOL     OW85467  12.877   3.349  12.276
61814SOL    HW185468  12.784   3.324  12.249
61814SOL    HW285469  12.903   3.299  12.358
61815SOL     OW85470  11.489   2.409  12.452
61815SOL    HW185471  11.527   2.350  12.524
61815SOL    HW285472  11.529   2.383  12.364
61816SOL     OW85473  11.984   3.448  11.859
61816SOL    HW185474  12.016   3.458  11.765
61816SOL    HW285475  11.905   3.386  11.861
61817SOL     OW85476  12.596   2.076  12.284
61817SOL    HW185477  12.648   2.011  12.339
61817SOL    HW285478  12.547   2.139  12.345
61818SOL     OW85479  12.173   1.896  12.326
61818SOL    HW185480  12.110   1.824  12.295
61818SOL    HW285481  12.266   1.860  12.326
61819SOL     OW85482  11.942   3.192  11.473
61819SOL    HW185483  11.896   3.105  11.490
61819SOL    HW285484  12.033   3.189  11.514
61820SOL     OW85485  11.790   3.429  12.456
61820SOL    HW185486  11.785   3.511  12.513
61820SOL    HW285487  11.879   3.426  12.411
61821SOL     OW85488  12.524   1.914  11.340
61821SOL    HW185489  12.559   1.873  11.256
61821SOL    HW285490  12.434   1.876  11.360
61822SOL     OW85491  12.472   2.315  11.863
61822SOL    HW185492  12.413   2.395  11.867
61822SOL    HW285493  12.487   2.280  11.956
61823SOL     OW85494  11.211   2.939  11.472
61823SOL    HW185495  11.310   2.928  11.463
61823SOL    HW285496  11.171   2.853  11.504
61824SOL     OW85497  12.047   3.508  11.509
61824SOL    HW185498  11.970   3.473  11.455
61824SOL    HW285499  12.015   3.579  11.571
61825SOL     OW85500  11.402   4.352   0.113
61825SOL    HW185501  11.309   4.350   0.150
61825SOL    HW285502  11.403   4.313   0.021
61826SOL     OW85503  11.397   3.999   0.996
61826SOL    HW185504  11.432   3.982   1.088
61826SOL    HW285505  11.309   3.954   0.984
61827SOL     OW85506  11.191   4.092   0.647
61827SOL    HW185507  11.109   4.135   0.686
61827SOL    HW285508  11.163   4.019   0.584
61828SOL     OW85509  11.741   4.999   1.165
61828SOL    HW185510  11.648   4.992   1.128
61828SOL    HW285511  11.752   5.088   1.209
61829SOL     OW85512  12.727   5.235   0.703
61829SOL    HW185513  12.670   5.219   0.784
61829SOL    HW285514  12.668   5.245   0.623
61830SOL     OW85515  12.307   4.427   0.717
61830SOL    HW185516  12.364   4.505   0.692
61830SOL    HW285517  12.247   4.453   0.793
61831SOL     OW85518  11.940   4.868   1.023
61831SOL    HW185519  11.862   4.885   1.083
61831SOL    HW285520  11.974   4.955   0.987
61832SOL     OW85521  12.022   4.522   1.823
61832SOL    HW185522  12.018   4.598   1.888
61832SOL    HW285523  12.044   4.558   1.732
61833SOL     OW85524  11.857   4.736   0.665
61833SOL    HW185525  11.926   4.720   0.735
61833SOL    HW285526  11.784   4.793   0.703
61834SOL     OW85527  11.858   4.885   1.803
61834SOL    HW185528  11.918   4.964   1.817
61834SOL    HW285529  11.772   4.916   1.762
61835SOL     OW85530  11.507   5.159   1.061
61835SOL    HW185531  11.429   5.128   1.008
61835SOL    HW285532  11.565   5.217   1.004
61836SOL     OW85533  11.610   4.116   1.499
61836SOL    HW185534  11.692   4.060   1.508
61836SOL    HW285535  11.529   4.058   1.503
61837SOL     OW85536  11.403   5.437   0.483
61837SOL    HW185537  11.437   5.514   0.537
61837SOL    HW285538  11.447   5.437   0.393
61838SOL     OW85539  12.299   5.065   1.690
61838SOL    HW185540  12.346   5.065   1.778
61838SOL    HW285541  12.251   4.978   1.679
61839SOL     OW85542  11.402   5.158   0.538
61839SOL    HW185543  11.376   5.254   0.538
61839SOL    HW285544  11.331   5.104   0.583
61840SOL     OW85545  11.412   4.815   0.886
61840SOL    HW185546  11.426   4.731   0.938
61840SOL    HW285547  11.357   4.879   0.941
61841SOL     OW85548  11.792   5.510   1.439
61841SOL    HW185549  11.700   5.493   1.474
61841SOL    HW285550  11.820   5.602   1.465
61842SOL     OW85551  11.778   4.688   0.123
61842SOL    HW185552  11.785   4.772   0.069
61842SOL    HW285553  11.824   4.701   0.211
61843SOL     OW85554  11.294   4.367   0.563
61843SOL    HW185555  11.249   4.279   0.580
61843SOL    HW285556  11.293   4.421   0.647
61844SOL     OW85557  11.199   5.320   0.117
61844SOL    HW185558  11.180   5.224   0.138
61844SOL    HW285559  11.166   5.378   0.192
61845SOL     OW85560  12.861   4.646   0.612
61845SOL    HW185561  12.956   4.617   0.620
61845SOL    HW285562  12.853   4.711   0.537
61846SOL     OW85563  11.285   4.461   1.597
61846SOL    HW185564  11.373   4.448   1.642
61846SOL    HW285565  11.272   4.558   1.575
61847SOL     OW85566  11.785   5.089   0.726
61847SOL    HW185567  11.736   5.002   0.735
61847SOL    HW285568  11.762   5.132   0.639
61848SOL     OW85569  12.465   4.952   1.423
61848SOL    HW185570  12.502   4.879   1.365
61848SOL    HW285571  12.517   4.957   1.508
61849SOL     OW85572  11.981   3.728   0.502
61849SOL    HW185573  12.021   3.819   0.493
61849SOL    HW285574  11.881   3.736   0.508
61850SOL     OW85575  11.369   4.700   1.264
61850SOL    HW185576  11.458   4.655   1.250
61850SOL    HW285577  11.296   4.635   1.245
61851SOL     OW85578  12.359   5.516   1.616
61851SOL    HW185579  12.383   5.576   1.540
61851SOL    HW285580  12.366   5.421   1.586
61852SOL     OW85581  11.489   3.975   1.801
61852SOL    HW185582  11.560   4.046   1.807
61852SOL    HW285583  11.401   4.014   1.829
61853SOL     OW85584  12.638   5.141   0.953
61853SOL    HW185585  12.579   5.147   1.033
61853SOL    HW285586  12.623   5.053   0.907
61854SOL     OW85587  11.770   4.453   0.270
61854SOL    HW185588  11.794   4.522   0.202
61854SOL    HW285589  11.692   4.486   0.324
61855SOL     OW85590  12.453   4.069   0.944
61855SOL    HW185591  12.367   4.019   0.931
61855SOL    HW285592  12.515   4.015   1.000
61856SOL     OW85593  11.979   4.329   1.465
61856SOL    HW185594  11.932   4.326   1.554
61856SOL    HW285595  11.928   4.274   1.399
61857SOL     OW85596  12.566   4.193   1.674
61857SOL    HW185597  12.546   4.236   1.762
61857SOL    HW285598  12.644   4.131   1.683
61858SOL     OW85599  12.145   4.614   1.572
61858SOL    HW185600  12.191   4.530   1.543
61858SOL    HW285601  12.089   4.648   1.497
61859SOL     OW85602  12.163   4.134   1.242
61859SOL    HW185603  12.086   4.168   1.296
61859SOL    HW285604  12.129   4.083   1.163
61860SOL     OW85605  12.213   4.425   0.429
61860SOL    HW185606  12.239   4.421   0.525
61860SOL    HW285607  12.128   4.374   0.415
61861SOL     OW85608  11.248   4.535   0.789
61861SOL    HW185609  11.347   4.523   0.798
61861SOL    HW285610  11.224   4.630   0.810
61862SOL     OW85611  11.302   5.545   1.571
61862SOL    HW185612  11.292   5.530   1.670
61862SOL    HW285613  11.216   5.581   1.535
61863SOL     OW85614  12.037   4.072   0.195
61863SOL    HW185615  12.096   4.135   0.146
61863SOL    HW285616  12.056   3.978   0.166
61864SOL     OW85617  12.534   4.868   0.545
61864SOL    HW185618  12.617   4.839   0.497
61864SOL    HW285619  12.485   4.935   0.489
61865SOL     OW85620  11.722   3.920   0.885
61865SOL    HW185621  11.717   3.915   0.985
61865SOL    HW285622  11.724   4.016   0.856
61866SOL     OW85623  12.180   5.180   0.477
61866SOL    HW185624  12.134   5.252   0.425
61866SOL    HW285625  12.176   5.200   0.575
61867SOL     OW85626  11.523   5.525   0.853
61867SOL    HW185627  11.573   5.439   0.859
61867SOL    HW285628  11.588   5.602   0.850
61868SOL     OW85629  12.399   5.274   1.506
61868SOL    HW185630  12.405   5.197   1.570
61868SOL    HW285631  12.347   5.248   1.426
61869SOL     OW85632  11.493   4.667   0.242
61869SOL    HW185633  11.575   4.706   0.200
61869SOL    HW285634  11.466   4.585   0.193
61870SOL     OW85635  11.633   4.990   1.727
61870SOL    HW185636  11.583   4.991   1.641
61870SOL    HW285637  11.570   4.972   1.803
61871SOL     OW85638  12.283   5.500   0.237
61871SOL    HW185639  12.223   5.438   0.287
61871SOL    HW285640  12.314   5.456   0.152
61872SOL     OW85641  11.374   4.009   1.498
61872SOL    HW185642  11.294   4.069   1.485
61872SOL    HW285643  11.364   3.960   1.584
61873SOL     OW85644  11.636   5.467   0.323
61873SOL    HW185645  11.669   5.506   0.409
61873SOL    HW285646  11.712   5.460   0.258
61874SOL     OW85647  12.572   3.831   0.426
61874SOL    HW185648  12.548   3.794   0.336
61874SOL    HW285649  12.671   3.847   0.430
61875SOL     OW85650  11.421   5.509   1.241
61875SOL    HW185651  11.478   5.444   1.291
61875SOL    HW285652  11.405   5.476   1.148
61876SOL     OW85653  12.112   5.422   0.904
61876SOL    HW185654  12.192   5.365   0.925
61876SOL    HW285655  12.063   5.382   0.827
61877SOL     OW85656  11.554   4.424   0.480
61877SOL    HW185657  11.599   4.334   0.477
61877SOL    HW285658  11.460   4.413   0.513
61878SOL     OW85659  11.786   3.846   0.117
61878SOL    HW185660  11.884   3.824   0.124
61878SOL    HW285661  11.755   3.829   0.024
61879SOL     OW85662  11.953   3.988   1.749
61879SOL    HW185663  12.020   3.927   1.792
61879SOL    HW285664  11.880   4.007   1.814
61880SOL     OW85665  12.060   5.238   1.195
61880SOL    HW185666  12.037   5.213   1.101
61880SOL    HW285667  12.121   5.169   1.234
61881SOL     OW85668  12.523   4.314   1.433
61881SOL    HW185669  12.551   4.271   1.518
61881SOL    HW285670  12.548   4.410   1.434
61882SOL     OW85671  11.975   5.126   0.924
61882SOL    HW185672  12.065   5.140   0.882
61882SOL    HW285673  11.904   5.128   0.853
61883SOL     OW85674  12.094   4.227   0.899
61883SOL    HW185675  12.069   4.218   0.803
61883SOL    HW285676  12.142   4.145   0.930
61884SOL     OW85677  11.711   3.788   0.512
61884SOL    HW185678  11.630   3.789   0.570
61884SOL    HW285679  11.714   3.871   0.457
61885SOL     OW85680  12.606   4.912   0.041
61885SOL    HW185681  12.638   4.836   0.098
61885SOL    HW285682  12.514   4.939   0.071
61886SOL     OW85683  11.469   3.759   0.171
61886SOL    HW185684  11.518   3.843   0.150
61886SOL    HW285685  11.531   3.694   0.216
61887SOL     OW85686  12.107   3.960   0.480
61887SOL    HW185687  12.059   4.001   0.402
61887SOL    HW285688  12.206   3.958   0.461
61888SOL     OW85689  12.248   4.407   1.464
61888SOL    HW185690  12.168   4.346   1.467
61888SOL    HW285691  12.329   4.354   1.440
61889SOL     OW85692  12.399   5.294   0.793
61889SOL    HW185693  12.420   5.368   0.728
61889SOL    HW285694  12.467   5.294   0.866
61890SOL     OW85695  11.631   4.876   0.741
61890SOL    HW185696  11.560   4.849   0.806
61890SOL    HW285697  11.605   4.848   0.648
61891SOL     OW85698  12.443   5.521   0.591
61891SOL    HW185699  12.487   5.585   0.527
61891SOL    HW285700  12.393   5.573   0.661
61892SOL     OW85701  12.204   4.273   0.016
61892SOL    HW185702  12.163   4.355  -0.023
61892SOL    HW285703  12.268   4.299   0.089
61893SOL     OW85704  11.250   4.280   1.386
61893SOL    HW185705  11.342   4.279   1.345
61893SOL    HW285706  11.244   4.354   1.453
61894SOL     OW85707  11.733   3.946   1.147
61894SOL    HW185708  11.771   3.862   1.184
61894SOL    HW285709  11.645   3.965   1.191
61895SOL     OW85710  12.038   4.178   0.642
61895SOL    HW185711  12.006   4.250   0.580
61895SOL    HW285712  12.062   4.097   0.589
61896SOL     OW85713  12.189   3.763   0.753
61896SOL    HW185714  12.117   3.768   0.684
61896SOL    HW285715  12.165   3.694   0.822
61897SOL     OW85716  12.601   4.897   0.867
61897SOL    HW185717  12.546   4.813   0.860
61897SOL    HW285718  12.627   4.926   0.775
61898SOL     OW85719  11.660   5.109   0.174
61898SOL    HW185720  11.573   5.094   0.221
61898SOL    HW285721  11.643   5.135   0.079
61899SOL     OW85722  12.562   4.299   0.078
61899SOL    HW185723  12.508   4.278   0.159
61899SOL    HW285724  12.653   4.258   0.087
61900SOL     OW85725  11.699   3.980   0.328
61900SOL    HW185726  11.726   3.921   0.253
61900SOL    HW285727  11.699   4.075   0.297
61901SOL     OW85728  12.236   5.071   1.340
61901SOL    HW185729  12.156   5.048   1.395
61901SOL    HW285730  12.319   5.045   1.389
61902SOL     OW85731  12.764   5.353   1.625
61902SOL    HW185732  12.791   5.387   1.535
61902SOL    HW285733  12.843   5.315   1.671
61903SOL     OW85734  12.283   4.919   1.100
61903SOL    HW185735  12.243   4.963   1.181
61903SOL    HW285736  12.242   4.956   1.017
61904SOL     OW85737  12.087   3.813   1.402
61904SOL    HW185738  12.112   3.793   1.307
61904SOL    HW285739  12.159   3.869   1.444
61905SOL     OW85740  12.152   4.840   1.719
61905SOL    HW185741  12.053   4.846   1.729
61905SOL    HW285742  12.175   4.760   1.663
61906SOL     OW85743  11.877   4.774   0.368
61906SOL    HW185744  11.863   4.781   0.467
61906SOL    HW285745  11.961   4.723   0.350
61907SOL     OW85746  11.582   4.537   1.251
61907SOL    HW185747  11.668   4.549   1.301
61907SOL    HW285748  11.540   4.450   1.278
61908SOL     OW85749  12.446   4.110   1.262
61908SOL    HW185750  12.467   4.184   1.326
61908SOL    HW285751  12.357   4.127   1.219
61909SOL     OW85752  11.236   5.288   1.331
61909SOL    HW185753  11.190   5.370   1.297
61909SOL    HW285754  11.334   5.307   1.340
61910SOL     OW85755  11.539   4.824   0.501
61910SOL    HW185756  11.532   4.907   0.445
61910SOL    HW285757  11.543   4.744   0.441
61911SOL     OW85758  11.738   4.261   0.865
61911SOL    HW185759  11.750   4.327   0.791
61911SOL    HW285760  11.784   4.295   0.948
61912SOL     OW85761  12.424   5.072   0.388
61912SOL    HW185762  12.474   5.149   0.428
61912SOL    HW285763  12.329   5.074   0.420
61913SOL     OW85764  12.444   5.169   1.142
61913SOL    HW185765  12.491   5.182   1.229
61913SOL    HW285766  12.378   5.095   1.151
61914SOL     OW85767  11.526   5.234   1.329
61914SOL    HW185768  11.505   5.190   1.242
61914SOL    HW285769  11.623   5.260   1.332
61915SOL     OW85770  11.574   4.475   1.598
61915SOL    HW185771  11.642   4.530   1.551
61915SOL    HW285772  11.614   4.387   1.625
61916SOL     OW85773  12.185   3.829   1.770
61916SOL    HW185774  12.191   3.914   1.718
61916SOL    HW285775  12.217   3.753   1.713
61917SOL     OW85776  11.676   3.774   1.740
61917SOL    HW185777  11.634   3.717   1.670
61917SOL    HW285778  11.610   3.843   1.772
61918SOL     OW85779  11.745   4.594   1.029
61918SOL    HW185780  11.789   4.683   1.020
61918SOL    HW285781  11.682   4.594   1.106
61919SOL     OW85782  12.532   4.586   1.045
61919SOL    HW185783  12.457   4.586   0.979
61919SOL    HW285784  12.569   4.494   1.054
61920SOL     OW85785  12.381   4.249   0.275
61920SOL    HW185786  12.394   4.165   0.329
61920SOL    HW285787  12.352   4.323   0.335
61921SOL     OW85788  11.479   3.937   1.231
61921SOL    HW185789  11.456   3.974   1.321
61921SOL    HW285790  11.449   3.842   1.225
61922SOL     OW85791  11.209   5.034   1.282
61922SOL    HW185792  11.262   4.985   1.350
61922SOL    HW285793  11.231   5.132   1.287
61923SOL     OW85794  11.904   4.358   1.064
61923SOL    HW185795  11.963   4.332   0.988
61923SOL    HW285796  11.876   4.454   1.053
61924SOL     OW85797  11.479   3.787   0.618
61924SOL    HW185798  11.468   3.881   0.651
61924SOL    HW285799  11.474   3.724   0.695
61925SOL     OW85800  12.794   4.091   0.374
61925SOL    HW185801  12.796   4.015   0.438
61925SOL    HW285802  12.746   4.168   0.414
61926SOL     OW85803  12.195   4.490   0.966
61926SOL    HW185804  12.210   4.511   1.062
61926SOL    HW285805  12.165   4.395   0.957
61927SOL     OW85806  12.152   5.297   1.700
61927SOL    HW185807  12.132   5.341   1.612
61927SOL    HW285808  12.191   5.206   1.684
61928SOL     OW85809  11.522   4.622   1.804
61928SOL    HW185810  11.598   4.666   1.852
61928SOL    HW285811  11.557   4.575   1.722
61929SOL     OW85812  12.475   4.562   0.042
61929SOL    HW185813  12.509   4.469   0.057
61929SOL    HW285814  12.493   4.589  -0.053
61930SOL     OW85815  12.240   5.057   0.849
61930SOL    HW185816  12.247   4.973   0.794
61930SOL    HW285817  12.302   5.126   0.813
61931SOL     OW85818  11.491   4.534   0.949
61931SOL    HW185819  11.584   4.570   0.954
61931SOL    HW285820  11.485   4.449   1.001
61932SOL     OW85821  11.511   4.233   1.006
61932SOL    HW185822  11.459   4.150   0.989
61932SOL    HW285823  11.588   4.238   0.942
61933SOL     OW85824  12.310   4.104   1.678
61933SOL    HW185825  12.265   4.167   1.742
61933SOL    HW285826  12.403   4.135   1.661
61934SOL     OW85827  12.332   3.931   1.477
61934SOL    HW185828  12.332   3.995   1.554
61934SOL    HW285829  12.360   3.979   1.394
61935SOL     OW85830  11.180   5.050   0.200
61935SOL    HW185831  11.087   5.071   0.169
61935SOL    HW285832  11.190   4.951   0.213
61936SOL     OW85833  11.260   5.525   0.927
61936SOL    HW185834  11.218   5.439   0.900
61936SOL    HW285835  11.354   5.528   0.893
61937SOL     OW85836  11.676   5.292   0.910
61937SOL    HW185837  11.742   5.366   0.919
61937SOL    HW285838  11.720   5.213   0.868
61938SOL     OW85839  12.174   4.520   1.238
61938SOL    HW185840  12.215   4.488   1.324
61938SOL    HW285841  12.078   4.493   1.235
61939SOL     OW85842  11.212   4.268   1.114
61939SOL    HW185843  11.297   4.235   1.073
61939SOL    HW285844  11.225   4.283   1.212
61940SOL     OW85845  11.361   4.244   1.722
61940SOL    HW185846  11.420   4.204   1.652
61940SOL    HW285847  11.303   4.315   1.681
61941SOL     OW85848  12.541   4.674   1.660
61941SOL    HW185849  12.580   4.763   1.680
61941SOL    HW285850  12.551   4.654   1.563
61942SOL     OW85851  11.987   4.296   0.325
61942SOL    HW185852  11.994   4.207   0.279
61942SOL    HW285853  11.893   4.330   0.317
61943SOL     OW85854  11.424   5.288   1.744
61943SOL    HW185855  11.394   5.345   1.820
61943SOL    HW285856  11.417   5.191   1.770
61944SOL     OW85857  11.843   4.188   1.269
61944SOL    HW185858  11.809   4.099   1.239
61944SOL    HW285859  11.869   4.242   1.189
61945SOL     OW85860  12.102   5.402   1.465
61945SOL    HW185861  12.078   5.384   1.370
61945SOL    HW285862  12.132   5.496   1.475
61946SOL     OW85863  11.645   4.224   0.191
61946SOL    HW185864  11.706   4.304   0.195
61946SOL    HW285865  11.550   4.255   0.198
61947SOL     OW85866  11.331   4.861   1.466
61947SOL    HW185867  11.353   4.800   1.542
61947SOL    HW285868  11.341   4.812   1.380
61948SOL     OW85869  12.519   4.783   1.234
61948SOL    HW185870  12.543   4.720   1.160
61948SOL    HW285871  12.429   4.823   1.216
61949SOL     OW85872  12.474   4.579   0.309
61949SOL    HW185873  12.388   4.548   0.351
61949SOL    HW285874  12.470   4.565   0.210
61950SOL     OW85875  12.424   5.455   1.128
61950SOL    HW185876  12.508   5.460   1.074
61950SOL    HW285877  12.401   5.359   1.146
61951SOL     OW85878  11.255   4.982   1.022
61951SOL    HW185879  11.250   4.981   1.122
61951SOL    HW285880  11.172   4.941   0.984
61952SOL     OW85881  11.860   5.386   1.716
61952SOL    HW185882  11.804   5.467   1.725
61952SOL    HW285883  11.912   5.390   1.630
61953SOL     OW85884  12.075   3.810   0.133
61953SOL    HW185885  12.126   3.811   0.047
61953SOL    HW285886  12.131   3.768   0.204
61954SOL     OW85887  12.898   3.859   0.523
61954SOL    HW185888  12.971   3.842   0.456
61954SOL    HW285889  12.867   3.772   0.561
61955SOL     OW85890  12.560   5.297   0.477
61955SOL    HW185891  12.627   5.309   0.403
61955SOL    HW285892  12.520   5.386   0.500
61956SOL     OW85893  11.302   5.518   1.851
61956SOL    HW185894  11.261   5.444   1.904
61956SOL    HW285895  11.366   5.569   1.909
61957SOL     OW85896  12.452   4.651   0.672
61957SOL    HW185897  12.512   4.570   0.674
61957SOL    HW285898  12.492   4.720   0.612
61958SOL     OW85899  12.002   4.997   1.422
61958SOL    HW185900  11.997   5.030   1.517
61958SOL    HW285901  11.916   5.016   1.376
61959SOL     OW85902  11.844   5.340   0.154
61959SOL    HW185903  11.853   5.350   0.055
61959SOL    HW285904  11.804   5.251   0.175
61960SOL     OW85905  11.435   4.050   0.720
61960SOL    HW185906  11.356   4.101   0.686
61960SOL    HW285907  11.426   4.035   0.818
61961SOL     OW85908  12.366   5.336   0.031
61961SOL    HW185909  12.372   5.243   0.068
61961SOL    HW285910  12.307   5.336  -0.049
61962SOL     OW85911  11.994   4.726   1.372
61962SOL    HW185912  12.034   4.725   1.280
61962SOL    HW285913  12.004   4.818   1.412
61963SOL     OW85914  12.088   4.634   0.291
61963SOL    HW185915  12.151   4.672   0.223
61963SOL    HW285916  12.128   4.551   0.330
61964SOL     OW85917  11.544   5.012   1.490
61964SOL    HW185918  11.531   5.105   1.456
61964SOL    HW285919  11.460   4.960   1.477
61965SOL     OW85920  12.211   4.822   0.696
61965SOL    HW185921  12.141   4.775   0.750
61965SOL    HW285922  12.270   4.754   0.653
61966SOL     OW85923  12.186   3.960   0.971
61966SOL    HW185924  12.178   3.924   0.878
61966SOL    HW285925  12.184   3.884   1.036
61967SOL     OW85926  11.762   5.211   0.491
61967SOL    HW185927  11.804   5.153   0.421
61967SOL    HW285928  11.718   5.290   0.447
61968SOL     OW85929  11.427   5.072   0.290
61968SOL    HW185930  11.331   5.073   0.263
61968SOL    HW285931  11.439   5.125   0.374
61969SOL     OW85932  11.277   4.737   1.726
61969SOL    HW185933  11.200   4.704   1.780
61969SOL    HW285934  11.362   4.707   1.768
61970SOL     OW85935  11.844   3.927   1.489
61970SOL    HW185936  11.934   3.911   1.449
61970SOL    HW285937  11.852   3.932   1.588
61971SOL     OW85938  12.612   4.580   1.398
61971SOL    HW185939  12.555   4.632   1.335
61971SOL    HW285940  12.708   4.592   1.374
61972SOL     OW85941  11.244   3.890   0.318
61972SOL    HW185942  11.227   3.973   0.264
61972SOL    HW285943  11.334   3.853   0.296
61973SOL     OW85944  12.355   5.059   0.119
61973SOL    HW185945  12.256   5.048   0.121
61973SOL    HW285946  12.389   5.074   0.212
61974SOL     OW85947  11.785   4.566   1.431
61974SOL    HW185948  11.841   4.647   1.414
61974SOL    HW285949  11.844   4.486   1.434
61975SOL     OW85950  11.888   4.289   1.708
61975SOL    HW185951  11.907   4.354   1.782
61975SOL    HW285952  11.948   4.209   1.717
61976SOL     OW85953  12.622   4.944   1.633
61976SOL    HW185954  12.613   4.934   1.732
61976SOL    HW285955  12.718   4.937   1.607
61977SOL     OW85956  11.562   5.465   1.560
61977SOL    HW185957  11.471   5.506   1.558
61977SOL    HW285958  11.555   5.371   1.592
61978SOL     OW85959  12.397   4.049   0.449
61978SOL    HW185960  12.462   3.975   0.438
61978SOL    HW285961  12.417   4.099   0.533
61979SOL     OW85962  11.766   4.469   0.652
61979SOL    HW185963  11.816   4.554   0.633
61979SOL    HW285964  11.678   4.471   0.604
61980SOL     OW85965  12.031   5.098   0.016
61980SOL    HW185966  11.985   5.113   0.104
61980SOL    HW285967  12.075   5.183  -0.014
61981SOL     OW85968  11.833   5.514   0.953
61981SOL    HW185969  11.787   5.602   0.940
61981SOL    HW285970  11.932   5.526   0.946
61982SOL     OW85971  12.031   4.680   0.861
61982SOL    HW185972  12.085   4.611   0.909
61982SOL    HW285973  11.999   4.749   0.927
61983SOL     OW85974  12.255   4.708   0.087
61983SOL    HW185975  12.232   4.761   0.005
61983SOL    HW285976  12.336   4.652   0.068
61984SOL     OW85977  11.393   5.038   1.844
61984SOL    HW185978  11.328   4.965   1.823
61984SOL    HW285979  11.397   5.052   1.942
61985SOL     OW85980  11.251   4.964   0.653
61985SOL    HW185981  11.250   4.917   0.741
61985SOL    HW285982  11.333   4.936   0.602
61986SOL     OW85983  11.844   5.115   1.624
61986SOL    HW185984  11.766   5.065   1.662
61986SOL    HW285985  11.841   5.210   1.655
61987SOL     OW85986  11.600   4.148   0.520
61987SOL    HW185987  11.630   4.076   0.458
61987SOL    HW285988  11.561   4.108   0.603
61988SOL     OW85989  12.877   5.211   1.104
61988SOL    HW185990  12.784   5.186   1.077
61988SOL    HW285991  12.903   5.161   1.186
61989SOL     OW85992  11.489   4.271   1.280
61989SOL    HW185993  11.527   4.212   1.352
61989SOL    HW285994  11.529   4.245   1.192
61990SOL     OW85995  11.984   5.310   0.687
61990SOL    HW185996  12.016   5.320   0.593
61990SOL    HW285997  11.905   5.248   0.689
61991SOL     OW85998  12.596   3.938   1.112
61991SOL    HW185999  12.648   3.873   1.167
61991SOL    HW286000  12.547   4.001   1.173
61992SOL     OW86001  12.173   3.758   1.154
61992SOL    HW186002  12.110   3.686   1.123
61992SOL    HW286003  12.266   3.722   1.154
61993SOL     OW86004  11.942   5.054   0.301
61993SOL    HW186005  11.896   4.967   0.318
61993SOL    HW286006  12.033   5.051   0.342
61994SOL     OW86007  11.790   5.291   1.284
61994SOL    HW186008  11.785   5.373   1.341
61994SOL    HW286009  11.879   5.288   1.239
61995SOL     OW86010  12.524   3.776   0.168
61995SOL    HW186011  12.559   3.735   0.084
61995SOL    HW286012  12.434   3.738   0.188
61996SOL     OW86013  12.472   4.177   0.691
61996SOL    HW186014  12.413   4.257   0.695
61996SOL    HW286015  12.487   4.142   0.784
61997SOL     OW86016  11.211   4.801   0.300
61997SOL    HW186017  11.310   4.790   0.291
61997SOL    HW286018  11.171   4.715   0.332
61998SOL     OW86019  12.047   5.370   0.337
61998SOL    HW186020  11.970   5.335   0.283
61998SOL    HW286021  12.015   5.441   0.399
61999SOL     OW86022  11.402   4.352   1.975
61999SOL    HW186023  11.309   4.350   2.012
61999SOL    HW286024  11.403   4.313   1.883
62000SOL     OW86025  11.397   3.999   2.858
62000SOL    HW186026  11.432   3.982   2.950
62000SOL    HW286027  11.309   3.954   2.846
62001SOL     OW86028  11.191   4.092   2.509
62001SOL    HW186029  11.109   4.135   2.548
62001SOL    HW286030  11.163   4.019   2.446
62002SOL     OW86031  11.741   4.999   3.027
62002SOL    HW186032  11.648   4.992   2.990
62002SOL    HW286033  11.752   5.088   3.071
62003SOL     OW86034  12.727   5.235   2.565
62003SOL    HW186035  12.670   5.219   2.646
62003SOL    HW286036  12.668   5.245   2.485
62004SOL     OW86037  12.307   4.427   2.579
62004SOL    HW186038  12.364   4.505   2.554
62004SOL    HW286039  12.247   4.453   2.655
62005SOL     OW86040  11.940   4.868   2.885
62005SOL    HW186041  11.862   4.885   2.945
62005SOL    HW286042  11.974   4.955   2.849
62006SOL     OW86043  12.022   4.522   3.685
62006SOL    HW186044  12.018   4.598   3.750
62006SOL    HW286045  12.044   4.558   3.594
62007SOL     OW86046  11.857   4.736   2.527
62007SOL    HW186047  11.926   4.720   2.597
62007SOL    HW286048  11.784   4.793   2.565
62008SOL     OW86049  11.858   4.885   3.665
62008SOL    HW186050  11.918   4.964   3.679
62008SOL    HW286051  11.772   4.916   3.624
62009SOL     OW86052  11.507   5.159   2.923
62009SOL    HW186053  11.429   5.128   2.870
62009SOL    HW286054  11.565   5.217   2.866
62010SOL     OW86055  11.610   4.116   3.361
62010SOL    HW186056  11.692   4.060   3.370
62010SOL    HW286057  11.529   4.058   3.365
62011SOL     OW86058  11.403   5.437   2.345
62011SOL    HW186059  11.437   5.514   2.399
62011SOL    HW286060  11.447   5.437   2.255
62012SOL     OW86061  12.299   5.065   3.552
62012SOL    HW186062  12.346   5.065   3.640
62012SOL    HW286063  12.251   4.978   3.541
62013SOL     OW86064  11.402   5.158   2.400
62013SOL    HW186065  11.376   5.254   2.400
62013SOL    HW286066  11.331   5.104   2.445
62014SOL     OW86067  11.412   4.815   2.748
62014SOL    HW186068  11.426   4.731   2.800
62014SOL    HW286069  11.357   4.879   2.803
62015SOL     OW86070  11.792   5.510   3.301
62015SOL    HW186071  11.700   5.493   3.336
62015SOL    HW286072  11.820   5.602   3.327
62016SOL     OW86073  11.778   4.688   1.985
62016SOL    HW186074  11.785   4.772   1.931
62016SOL    HW286075  11.824   4.701   2.073
62017SOL     OW86076  11.294   4.367   2.425
62017SOL    HW186077  11.249   4.279   2.442
62017SOL    HW286078  11.293   4.421   2.509
62018SOL     OW86079  11.199   5.320   1.979
62018SOL    HW186080  11.180   5.224   2.000
62018SOL    HW286081  11.166   5.378   2.054
62019SOL     OW86082  12.861   4.646   2.474
62019SOL    HW186083  12.956   4.617   2.482
62019SOL    HW286084  12.853   4.711   2.399
62020SOL     OW86085  11.285   4.461   3.459
62020SOL    HW186086  11.373   4.448   3.504
62020SOL    HW286087  11.272   4.558   3.437
62021SOL     OW86088  11.785   5.089   2.588
62021SOL    HW186089  11.736   5.002   2.597
62021SOL    HW286090  11.762   5.132   2.501
62022SOL     OW86091  12.465   4.952   3.285
62022SOL    HW186092  12.502   4.879   3.227
62022SOL    HW286093  12.517   4.957   3.370
62023SOL     OW86094  11.981   3.728   2.364
62023SOL    HW186095  12.021   3.819   2.355
62023SOL    HW286096  11.881   3.736   2.370
62024SOL     OW86097  11.369   4.700   3.126
62024SOL    HW186098  11.458   4.655   3.112
62024SOL    HW286099  11.296   4.635   3.107
62025SOL     OW86100  12.359   5.516   3.478
62025SOL    HW186101  12.383   5.576   3.402
62025SOL    HW286102  12.366   5.421   3.448
62026SOL     OW86103  11.489   3.975   3.663
62026SOL    HW186104  11.560   4.046   3.669
62026SOL    HW286105  11.401   4.014   3.691
62027SOL     OW86106  12.638   5.141   2.815
62027SOL    HW186107  12.579   5.147   2.895
62027SOL    HW286108  12.623   5.053   2.769
62028SOL     OW86109  11.770   4.453   2.132
62028SOL    HW186110  11.794   4.522   2.064
62028SOL    HW286111  11.692   4.486   2.186
62029SOL     OW86112  12.453   4.069   2.806
62029SOL    HW186113  12.367   4.019   2.793
62029SOL    HW286114  12.515   4.015   2.862
62030SOL     OW86115  11.979   4.329   3.327
62030SOL    HW186116  11.932   4.326   3.416
62030SOL    HW286117  11.928   4.274   3.261
62031SOL     OW86118  12.566   4.193   3.536
62031SOL    HW186119  12.546   4.236   3.624
62031SOL    HW286120  12.644   4.131   3.545
62032SOL     OW86121  12.145   4.614   3.434
62032SOL    HW186122  12.191   4.530   3.405
62032SOL    HW286123  12.089   4.648   3.359
62033SOL     OW86124  12.163   4.134   3.104
62033SOL    HW186125  12.086   4.168   3.158
62033SOL    HW286126  12.129   4.083   3.025
62034SOL     OW86127  12.213   4.425   2.291
62034SOL    HW186128  12.239   4.421   2.387
62034SOL    HW286129  12.128   4.374   2.277
62035SOL     OW86130  11.248   4.535   2.651
62035SOL    HW186131  11.347   4.523   2.660
62035SOL    HW286132  11.224   4.630   2.672
62036SOL     OW86133  11.302   5.545   3.433
62036SOL    HW186134  11.292   5.530   3.532
62036SOL    HW286135  11.216   5.581   3.397
62037SOL     OW86136  12.037   4.072   2.057
62037SOL    HW186137  12.096   4.135   2.008
62037SOL    HW286138  12.056   3.978   2.028
62038SOL     OW86139  12.534   4.868   2.407
62038SOL    HW186140  12.617   4.839   2.359
62038SOL    HW286141  12.485   4.935   2.351
62039SOL     OW86142  11.722   3.920   2.747
62039SOL    HW186143  11.717   3.915   2.847
62039SOL    HW286144  11.724   4.016   2.718
62040SOL     OW86145  12.180   5.180   2.339
62040SOL    HW186146  12.134   5.252   2.287
62040SOL    HW286147  12.176   5.200   2.437
62041SOL     OW86148  11.523   5.525   2.715
62041SOL    HW186149  11.573   5.439   2.721
62041SOL    HW286150  11.588   5.602   2.712
62042SOL     OW86151  12.399   5.274   3.368
62042SOL    HW186152  12.405   5.197   3.432
62042SOL    HW286153  12.347   5.248   3.288
62043SOL     OW86154  11.493   4.667   2.104
62043SOL    HW186155  11.575   4.706   2.062
62043SOL    HW286156  11.466   4.585   2.055
62044SOL     OW86157  11.633   4.990   3.589
62044SOL    HW186158  11.583   4.991   3.503
62044SOL    HW286159  11.570   4.972   3.665
62045SOL     OW86160  12.283   5.500   2.099
62045SOL    HW186161  12.223   5.438   2.149
62045SOL    HW286162  12.314   5.456   2.014
62046SOL     OW86163  11.374   4.009   3.360
62046SOL    HW186164  11.294   4.069   3.347
62046SOL    HW286165  11.364   3.960   3.446
62047SOL     OW86166  11.636   5.467   2.185
62047SOL    HW186167  11.669   5.506   2.271
62047SOL    HW286168  11.712   5.460   2.120
62048SOL     OW86169  12.572   3.831   2.288
62048SOL    HW186170  12.548   3.794   2.198
62048SOL    HW286171  12.671   3.847   2.292
62049SOL     OW86172  11.421   5.509   3.103
62049SOL    HW186173  11.478   5.444   3.153
62049SOL    HW286174  11.405   5.476   3.010
62050SOL     OW86175  12.112   5.422   2.766
62050SOL    HW186176  12.192   5.365   2.787
62050SOL    HW286177  12.063   5.382   2.689
62051SOL     OW86178  11.554   4.424   2.342
62051SOL    HW186179  11.599   4.334   2.339
62051SOL    HW286180  11.460   4.413   2.375
62052SOL     OW86181  11.786   3.846   1.979
62052SOL    HW186182  11.884   3.824   1.986
62052SOL    HW286183  11.755   3.829   1.886
62053SOL     OW86184  11.953   3.988   3.611
62053SOL    HW186185  12.020   3.927   3.654
62053SOL    HW286186  11.880   4.007   3.676
62054SOL     OW86187  12.060   5.238   3.057
62054SOL    HW186188  12.037   5.213   2.963
62054SOL    HW286189  12.121   5.169   3.096
62055SOL     OW86190  12.523   4.314   3.295
62055SOL    HW186191  12.551   4.271   3.380
62055SOL    HW286192  12.548   4.410   3.296
62056SOL     OW86193  11.975   5.126   2.786
62056SOL    HW186194  12.065   5.140   2.744
62056SOL    HW286195  11.904   5.128   2.715
62057SOL     OW86196  12.094   4.227   2.761
62057SOL    HW186197  12.069   4.218   2.665
62057SOL    HW286198  12.142   4.145   2.792
62058SOL     OW86199  11.711   3.788   2.374
62058SOL    HW186200  11.630   3.789   2.432
62058SOL    HW286201  11.714   3.871   2.319
62059SOL     OW86202  12.606   4.912   1.903
62059SOL    HW186203  12.638   4.836   1.960
62059SOL    HW286204  12.514   4.939   1.933
62060SOL     OW86205  11.469   3.759   2.033
62060SOL    HW186206  11.518   3.843   2.012
62060SOL    HW286207  11.531   3.694   2.078
62061SOL     OW86208  12.107   3.960   2.342
62061SOL    HW186209  12.059   4.001   2.264
62061SOL    HW286210  12.206   3.958   2.323
62062SOL     OW86211  12.248   4.407   3.326
62062SOL    HW186212  12.168   4.346   3.329
62062SOL    HW286213  12.329   4.354   3.302
62063SOL     OW86214  12.399   5.294   2.655
62063SOL    HW186215  12.420   5.368   2.590
62063SOL    HW286216  12.467   5.294   2.728
62064SOL     OW86217  11.631   4.876   2.603
62064SOL    HW186218  11.560   4.849   2.668
62064SOL    HW286219  11.605   4.848   2.510
62065SOL     OW86220  12.443   5.521   2.453
62065SOL    HW186221  12.487   5.585   2.389
62065SOL    HW286222  12.393   5.573   2.523
62066SOL     OW86223  12.204   4.273   1.878
62066SOL    HW186224  12.163   4.355   1.839
62066SOL    HW286225  12.268   4.299   1.951
62067SOL     OW86226  11.250   4.280   3.248
62067SOL    HW186227  11.342   4.279   3.207
62067SOL    HW286228  11.244   4.354   3.315
62068SOL     OW86229  11.733   3.946   3.009
62068SOL    HW186230  11.771   3.862   3.046
62068SOL    HW286231  11.645   3.965   3.053
62069SOL     OW86232  12.038   4.178   2.504
62069SOL    HW186233  12.006   4.250   2.442
62069SOL    HW286234  12.062   4.097   2.451
62070SOL     OW86235  12.189   3.763   2.615
62070SOL    HW186236  12.117   3.768   2.546
62070SOL    HW286237  12.165   3.694   2.684
62071SOL     OW86238  12.601   4.897   2.729
62071SOL    HW186239  12.546   4.813   2.722
62071SOL    HW286240  12.627   4.926   2.637
62072SOL     OW86241  11.660   5.109   2.036
62072SOL    HW186242  11.573   5.094   2.083
62072SOL    HW286243  11.643   5.135   1.941
62073SOL     OW86244  12.562   4.299   1.940
62073SOL    HW186245  12.508   4.278   2.021
62073SOL    HW286246  12.653   4.258   1.949
62074SOL     OW86247  11.699   3.980   2.190
62074SOL    HW186248  11.726   3.921   2.115
62074SOL    HW286249  11.699   4.075   2.159
62075SOL     OW86250  12.236   5.071   3.202
62075SOL    HW186251  12.156   5.048   3.257
62075SOL    HW286252  12.319   5.045   3.251
62076SOL     OW86253  12.764   5.353   3.487
62076SOL    HW186254  12.791   5.387   3.397
62076SOL    HW286255  12.843   5.315   3.533
62077SOL     OW86256  12.283   4.919   2.962
62077SOL    HW186257  12.243   4.963   3.043
62077SOL    HW286258  12.242   4.956   2.879
62078SOL     OW86259  12.087   3.813   3.264
62078SOL    HW186260  12.112   3.793   3.169
62078SOL    HW286261  12.159   3.869   3.306
62079SOL     OW86262  12.152   4.840   3.581
62079SOL    HW186263  12.053   4.846   3.591
62079SOL    HW286264  12.175   4.760   3.525
62080SOL     OW86265  11.877   4.774   2.230
62080SOL    HW186266  11.863   4.781   2.329
62080SOL    HW286267  11.961   4.723   2.212
62081SOL     OW86268  11.582   4.537   3.113
62081SOL    HW186269  11.668   4.549   3.163
62081SOL    HW286270  11.540   4.450   3.140
62082SOL     OW86271  12.446   4.110   3.124
62082SOL    HW186272  12.467   4.184   3.188
62082SOL    HW286273  12.357   4.127   3.081
62083SOL     OW86274  11.236   5.288   3.193
62083SOL    HW186275  11.190   5.370   3.159
62083SOL    HW286276  11.334   5.307   3.202
62084SOL     OW86277  11.539   4.824   2.363
62084SOL    HW186278  11.532   4.907   2.307
62084SOL    HW286279  11.543   4.744   2.303
62085SOL     OW86280  11.738   4.261   2.727
62085SOL    HW186281  11.750   4.327   2.653
62085SOL    HW286282  11.784   4.295   2.810
62086SOL     OW86283  12.424   5.072   2.250
62086SOL    HW186284  12.474   5.149   2.290
62086SOL    HW286285  12.329   5.074   2.282
62087SOL     OW86286  12.444   5.169   3.004
62087SOL    HW186287  12.491   5.182   3.091
62087SOL    HW286288  12.378   5.095   3.013
62088SOL     OW86289  11.526   5.234   3.191
62088SOL    HW186290  11.505   5.190   3.104
62088SOL    HW286291  11.623   5.260   3.194
62089SOL     OW86292  11.574   4.475   3.460
62089SOL    HW186293  11.642   4.530   3.413
62089SOL    HW286294  11.614   4.387   3.487
62090SOL     OW86295  12.185   3.829   3.632
62090SOL    HW186296  12.191   3.914   3.580
62090SOL    HW286297  12.217   3.753   3.575
62091SOL     OW86298  11.676   3.774   3.602
62091SOL    HW186299  11.634   3.717   3.532
62091SOL    HW286300  11.610   3.843   3.634
62092SOL     OW86301  11.745   4.594   2.891
62092SOL    HW186302  11.789   4.683   2.882
62092SOL    HW286303  11.682   4.594   2.968
62093SOL     OW86304  12.532   4.586   2.907
62093SOL    HW186305  12.457   4.586   2.841
62093SOL    HW286306  12.569   4.494   2.916
62094SOL     OW86307  12.381   4.249   2.137
62094SOL    HW186308  12.394   4.165   2.191
62094SOL    HW286309  12.352   4.323   2.197
62095SOL     OW86310  11.479   3.937   3.093
62095SOL    HW186311  11.456   3.974   3.183
62095SOL    HW286312  11.449   3.842   3.087
62096SOL     OW86313  11.209   5.034   3.144
62096SOL    HW186314  11.262   4.985   3.212
62096SOL    HW286315  11.231   5.132   3.149
62097SOL     OW86316  11.904   4.358   2.926
62097SOL    HW186317  11.963   4.332   2.850
62097SOL    HW286318  11.876   4.454   2.915
62098SOL     OW86319  11.479   3.787   2.480
62098SOL    HW186320  11.468   3.881   2.513
62098SOL    HW286321  11.474   3.724   2.557
62099SOL     OW86322  12.794   4.091   2.236
62099SOL    HW186323  12.796   4.015   2.300
62099SOL    HW286324  12.746   4.168   2.276
62100SOL     OW86325  12.195   4.490   2.828
62100SOL    HW186326  12.210   4.511   2.924
62100SOL    HW286327  12.165   4.395   2.819
62101SOL     OW86328  12.152   5.297   3.562
62101SOL    HW186329  12.132   5.341   3.474
62101SOL    HW286330  12.191   5.206   3.546
62102SOL     OW86331  11.522   4.622   3.666
62102SOL    HW186332  11.598   4.666   3.714
62102SOL    HW286333  11.557   4.575   3.584
62103SOL     OW86334  12.475   4.562   1.904
62103SOL    HW186335  12.509   4.469   1.919
62103SOL    HW286336  12.493   4.589   1.809
62104SOL     OW86337  12.240   5.057   2.711
62104SOL    HW186338  12.247   4.973   2.656
62104SOL    HW286339  12.302   5.126   2.675
62105SOL     OW86340  11.491   4.534   2.811
62105SOL    HW186341  11.584   4.570   2.816
62105SOL    HW286342  11.485   4.449   2.863
62106SOL     OW86343  11.511   4.233   2.868
62106SOL    HW186344  11.459   4.150   2.851
62106SOL    HW286345  11.588   4.238   2.804
62107SOL     OW86346  12.310   4.104   3.540
62107SOL    HW186347  12.265   4.167   3.604
62107SOL    HW286348  12.403   4.135   3.523
62108SOL     OW86349  12.332   3.931   3.339
62108SOL    HW186350  12.332   3.995   3.416
62108SOL    HW286351  12.360   3.979   3.256
62109SOL     OW86352  11.180   5.050   2.062
62109SOL    HW186353  11.087   5.071   2.031
62109SOL    HW286354  11.190   4.951   2.075
62110SOL     OW86355  11.260   5.525   2.789
62110SOL    HW186356  11.218   5.439   2.762
62110SOL    HW286357  11.354   5.528   2.755
62111SOL     OW86358  11.676   5.292   2.772
62111SOL    HW186359  11.742   5.366   2.781
62111SOL    HW286360  11.720   5.213   2.730
62112SOL     OW86361  12.174   4.520   3.100
62112SOL    HW186362  12.215   4.488   3.186
62112SOL    HW286363  12.078   4.493   3.097
62113SOL     OW86364  11.212   4.268   2.976
62113SOL    HW186365  11.297   4.235   2.935
62113SOL    HW286366  11.225   4.283   3.074
62114SOL     OW86367  11.361   4.244   3.584
62114SOL    HW186368  11.420   4.204   3.514
62114SOL    HW286369  11.303   4.315   3.543
62115SOL     OW86370  12.541   4.674   3.522
62115SOL    HW186371  12.580   4.763   3.542
62115SOL    HW286372  12.551   4.654   3.425
62116SOL     OW86373  11.987   4.296   2.187
62116SOL    HW186374  11.994   4.207   2.141
62116SOL    HW286375  11.893   4.330   2.179
62117SOL     OW86376  11.424   5.288   3.606
62117SOL    HW186377  11.394   5.345   3.682
62117SOL    HW286378  11.417   5.191   3.632
62118SOL     OW86379  11.843   4.188   3.131
62118SOL    HW186380  11.809   4.099   3.101
62118SOL    HW286381  11.869   4.242   3.051
62119SOL     OW86382  12.102   5.402   3.327
62119SOL    HW186383  12.078   5.384   3.232
62119SOL    HW286384  12.132   5.496   3.337
62120SOL     OW86385  11.645   4.224   2.053
62120SOL    HW186386  11.706   4.304   2.057
62120SOL    HW286387  11.550   4.255   2.060
62121SOL     OW86388  11.331   4.861   3.328
62121SOL    HW186389  11.353   4.800   3.404
62121SOL    HW286390  11.341   4.812   3.242
62122SOL     OW86391  12.519   4.783   3.096
62122SOL    HW186392  12.543   4.720   3.022
62122SOL    HW286393  12.429   4.823   3.078
62123SOL     OW86394  12.474   4.579   2.171
62123SOL    HW186395  12.388   4.548   2.213
62123SOL    HW286396  12.470   4.565   2.072
62124SOL     OW86397  12.424   5.455   2.990
62124SOL    HW186398  12.508   5.460   2.936
62124SOL    HW286399  12.401   5.359   3.008
62125SOL     OW86400  11.255   4.982   2.884
62125SOL    HW186401  11.250   4.981   2.984
62125SOL    HW286402  11.172   4.941   2.846
62126SOL     OW86403  11.860   5.386   3.578
62126SOL    HW186404  11.804   5.467   3.587
62126SOL    HW286405  11.912   5.390   3.492
62127SOL     OW86406  12.898   3.859   2.385
62127SOL    HW186407  12.971   3.842   2.318
62127SOL    HW286408  12.867   3.772   2.423
62128SOL     OW86409  12.560   5.297   2.339
62128SOL    HW186410  12.627   5.309   2.265
62128SOL    HW286411  12.520   5.386   2.362
62129SOL     OW86412  11.302   5.518   3.713
62129SOL    HW186413  11.261   5.444   3.766
62129SOL    HW286414  11.366   5.569   3.771
62130SOL     OW86415  12.452   4.651   2.534
62130SOL    HW186416  12.512   4.570   2.536
62130SOL    HW286417  12.492   4.720   2.474
62131SOL     OW86418  12.002   4.997   3.284
62131SOL    HW186419  11.997   5.030   3.379
62131SOL    HW286420  11.916   5.016   3.238
62132SOL     OW86421  11.844   5.340   2.016
62132SOL    HW186422  11.853   5.350   1.917
62132SOL    HW286423  11.804   5.251   2.037
62133SOL     OW86424  11.435   4.050   2.582
62133SOL    HW186425  11.356   4.101   2.548
62133SOL    HW286426  11.426   4.035   2.680
62134SOL     OW86427  12.366   5.336   1.893
62134SOL    HW186428  12.372   5.243   1.930
62134SOL    HW286429  12.307   5.336   1.813
62135SOL     OW86430  11.994   4.726   3.234
62135SOL    HW186431  12.034   4.725   3.142
62135SOL    HW286432  12.004   4.818   3.274
62136SOL     OW86433  12.088   4.634   2.153
62136SOL    HW186434  12.151   4.672   2.085
62136SOL    HW286435  12.128   4.551   2.192
62137SOL     OW86436  11.544   5.012   3.352
62137SOL    HW186437  11.531   5.105   3.318
62137SOL    HW286438  11.460   4.960   3.339
62138SOL     OW86439  12.211   4.822   2.558
62138SOL    HW186440  12.141   4.775   2.612
62138SOL    HW286441  12.270   4.754   2.515
62139SOL     OW86442  12.186   3.960   2.833
62139SOL    HW186443  12.178   3.924   2.740
62139SOL    HW286444  12.184   3.884   2.898
62140SOL     OW86445  11.762   5.211   2.353
62140SOL    HW186446  11.804   5.153   2.283
62140SOL    HW286447  11.718   5.290   2.309
62141SOL     OW86448  11.427   5.072   2.152
62141SOL    HW186449  11.331   5.073   2.125
62141SOL    HW286450  11.439   5.125   2.236
62142SOL     OW86451  11.277   4.737   3.588
62142SOL    HW186452  11.200   4.704   3.642
62142SOL    HW286453  11.362   4.707   3.630
62143SOL     OW86454  11.844   3.927   3.351
62143SOL    HW186455  11.934   3.911   3.311
62143SOL    HW286456  11.852   3.932   3.450
62144SOL     OW86457  11.247   4.069   1.895
62144SOL    HW186458  11.155   4.041   1.866
62144SOL    HW286459  11.278   4.146   1.839
62145SOL     OW86460  12.612   4.580   3.260
62145SOL    HW186461  12.555   4.632   3.197
62145SOL    HW286462  12.708   4.592   3.236
62146SOL     OW86463  11.244   3.890   2.180
62146SOL    HW186464  11.227   3.973   2.126
62146SOL    HW286465  11.334   3.853   2.158
62147SOL     OW86466  12.355   5.059   1.981
62147SOL    HW186467  12.256   5.048   1.983
62147SOL    HW286468  12.389   5.074   2.074
62148SOL     OW86469  11.785   4.566   3.293
62148SOL    HW186470  11.841   4.647   3.276
62148SOL    HW286471  11.844   4.486   3.296
62149SOL     OW86472  11.888   4.289   3.570
62149SOL    HW186473  11.907   4.354   3.644
62149SOL    HW286474  11.948   4.209   3.579
62150SOL     OW86475  12.622   4.944   3.495
62150SOL    HW186476  12.613   4.934   3.594
62150SOL    HW286477  12.718   4.937   3.469
62151SOL     OW86478  11.562   5.465   3.422
62151SOL    HW186479  11.471   5.506   3.420
62151SOL    HW286480  11.555   5.371   3.454
62152SOL     OW86481  12.397   4.049   2.311
62152SOL    HW186482  12.462   3.975   2.300
62152SOL    HW286483  12.417   4.099   2.395
62153SOL     OW86484  11.766   4.469   2.514
62153SOL    HW186485  11.816   4.554   2.495
62153SOL    HW286486  11.678   4.471   2.466
62154SOL     OW86487  12.031   5.098   1.878
62154SOL    HW186488  11.985   5.113   1.966
62154SOL    HW286489  12.075   5.183   1.848
62155SOL     OW86490  11.833   5.514   2.815
62155SOL    HW186491  11.787   5.602   2.802
62155SOL    HW286492  11.932   5.526   2.808
62156SOL     OW86493  12.031   4.680   2.723
62156SOL    HW186494  12.085   4.611   2.771
62156SOL    HW286495  11.999   4.749   2.789
62157SOL     OW86496  12.255   4.708   1.949
62157SOL    HW186497  12.232   4.761   1.867
62157SOL    HW286498  12.336   4.652   1.930
62158SOL     OW86499  11.393   5.038   3.706
62158SOL    HW186500  11.328   4.965   3.685
62158SOL    HW286501  11.397   5.052   3.804
62159SOL     OW86502  11.251   4.964   2.515
62159SOL    HW186503  11.250   4.917   2.603
62159SOL    HW286504  11.333   4.936   2.464
62160SOL     OW86505  11.844   5.115   3.486
62160SOL    HW186506  11.766   5.065   3.524
62160SOL    HW286507  11.841   5.210   3.517
62161SOL     OW86508  11.600   4.148   2.382
62161SOL    HW186509  11.630   4.076   2.320
62161SOL    HW286510  11.561   4.108   2.465
62162SOL     OW86511  12.877   5.211   2.966
62162SOL    HW186512  12.784   5.186   2.939
62162SOL    HW286513  12.903   5.161   3.048
62163SOL     OW86514  11.489   4.271   3.142
62163SOL    HW186515  11.527   4.212   3.214
62163SOL    HW286516  11.529   4.245   3.054
62164SOL     OW86517  11.984   5.310   2.549
62164SOL    HW186518  12.016   5.320   2.455
62164SOL    HW286519  11.905   5.248   2.551
62165SOL     OW86520  12.596   3.938   2.974
62165SOL    HW186521  12.648   3.873   3.029
62165SOL    HW286522  12.547   4.001   3.035
62166SOL     OW86523  12.173   3.758   3.016
62166SOL    HW186524  12.110   3.686   2.985
62166SOL    HW286525  12.266   3.722   3.016
62167SOL     OW86526  11.942   5.054   2.163
62167SOL    HW186527  11.896   4.967   2.180
62167SOL    HW286528  12.033   5.051   2.204
62168SOL     OW86529  11.790   5.291   3.146
62168SOL    HW186530  11.785   5.373   3.203
62168SOL    HW286531  11.879   5.288   3.101
62169SOL     OW86532  12.524   3.776   2.030
62169SOL    HW186533  12.559   3.735   1.946
62169SOL    HW286534  12.434   3.738   2.050
62170SOL     OW86535  12.472   4.177   2.553
62170SOL    HW186536  12.413   4.257   2.557
62170SOL    HW286537  12.487   4.142   2.646
62171SOL     OW86538  11.211   4.801   2.162
62171SOL    HW186539  11.310   4.790   2.153
62171SOL    HW286540  11.171   4.715   2.194
62172SOL     OW86541  12.047   5.370   2.199
62172SOL    HW186542  11.970   5.335   2.145
62172SOL    HW286543  12.015   5.441   2.261
62173SOL     OW86544  11.402   4.352   3.837
62173SOL    HW186545  11.309   4.350   3.874
62173SOL    HW286546  11.403   4.313   3.745
62174SOL     OW86547  11.397   3.999   4.720
62174SOL    HW186548  11.432   3.982   4.812
62174SOL    HW286549  11.309   3.954   4.708
62175SOL     OW86550  11.191   4.092   4.371
62175SOL    HW186551  11.109   4.135   4.410
62175SOL    HW286552  11.163   4.019   4.308
62176SOL     OW86553  11.741   4.999   4.889
62176SOL    HW186554  11.648   4.992   4.852
62176SOL    HW286555  11.752   5.088   4.933
62177SOL     OW86556  12.727   5.235   4.427
62177SOL    HW186557  12.670   5.219   4.508
62177SOL    HW286558  12.668   5.245   4.347
62178SOL     OW86559  12.307   4.427   4.441
62178SOL    HW186560  12.364   4.505   4.416
62178SOL    HW286561  12.247   4.453   4.517
62179SOL     OW86562  11.940   4.868   4.747
62179SOL    HW186563  11.862   4.885   4.807
62179SOL    HW286564  11.974   4.955   4.711
62180SOL     OW86565  12.022   4.522   5.547
62180SOL    HW186566  12.018   4.598   5.612
62180SOL    HW286567  12.044   4.558   5.456
62181SOL     OW86568  11.857   4.736   4.389
62181SOL    HW186569  11.926   4.720   4.459
62181SOL    HW286570  11.784   4.793   4.427
62182SOL     OW86571  11.858   4.885   5.527
62182SOL    HW186572  11.918   4.964   5.541
62182SOL    HW286573  11.772   4.916   5.486
62183SOL     OW86574  11.507   5.159   4.785
62183SOL    HW186575  11.429   5.128   4.732
62183SOL    HW286576  11.565   5.217   4.728
62184SOL     OW86577  11.610   4.116   5.223
62184SOL    HW186578  11.692   4.060   5.232
62184SOL    HW286579  11.529   4.058   5.227
62185SOL     OW86580  11.403   5.437   4.207
62185SOL    HW186581  11.437   5.514   4.261
62185SOL    HW286582  11.447   5.437   4.117
62186SOL     OW86583  12.299   5.065   5.414
62186SOL    HW186584  12.346   5.065   5.502
62186SOL    HW286585  12.251   4.978   5.403
62187SOL     OW86586  11.402   5.158   4.262
62187SOL    HW186587  11.376   5.254   4.262
62187SOL    HW286588  11.331   5.104   4.307
62188SOL     OW86589  11.412   4.815   4.610
62188SOL    HW186590  11.426   4.731   4.662
62188SOL    HW286591  11.357   4.879   4.665
62189SOL     OW86592  11.792   5.510   5.163
62189SOL    HW186593  11.700   5.493   5.198
62189SOL    HW286594  11.820   5.602   5.189
62190SOL     OW86595  11.778   4.688   3.847
62190SOL    HW186596  11.785   4.772   3.793
62190SOL    HW286597  11.824   4.701   3.935
62191SOL     OW86598  11.294   4.367   4.287
62191SOL    HW186599  11.249   4.279   4.304
62191SOL    HW286600  11.293   4.421   4.371
62192SOL     OW86601  11.199   5.320   3.841
62192SOL    HW186602  11.180   5.224   3.862
62192SOL    HW286603  11.166   5.378   3.916
62193SOL     OW86604  12.861   4.646   4.336
62193SOL    HW186605  12.956   4.617   4.344
62193SOL    HW286606  12.853   4.711   4.261
62194SOL     OW86607  11.285   4.461   5.321
62194SOL    HW186608  11.373   4.448   5.366
62194SOL    HW286609  11.272   4.558   5.299
62195SOL     OW86610  11.785   5.089   4.450
62195SOL    HW186611  11.736   5.002   4.459
62195SOL    HW286612  11.762   5.132   4.363
62196SOL     OW86613  12.465   4.952   5.147
62196SOL    HW186614  12.502   4.879   5.089
62196SOL    HW286615  12.517   4.957   5.232
62197SOL     OW86616  11.981   3.728   4.226
62197SOL    HW186617  12.021   3.819   4.217
62197SOL    HW286618  11.881   3.736   4.232
62198SOL     OW86619  11.369   4.700   4.988
62198SOL    HW186620  11.458   4.655   4.974
62198SOL    HW286621  11.296   4.635   4.969
62199SOL     OW86622  12.359   5.516   5.340
62199SOL    HW186623  12.383   5.576   5.264
62199SOL    HW286624  12.366   5.421   5.310
62200SOL     OW86625  11.489   3.975   5.525
62200SOL    HW186626  11.560   4.046   5.531
62200SOL    HW286627  11.401   4.014   5.553
62201SOL     OW86628  12.638   5.141   4.677
62201SOL    HW186629  12.579   5.147   4.757
62201SOL    HW286630  12.623   5.053   4.631
62202SOL     OW86631  11.770   4.453   3.994
62202SOL    HW186632  11.794   4.522   3.926
62202SOL    HW286633  11.692   4.486   4.048
62203SOL     OW86634  12.453   4.069   4.668
62203SOL    HW186635  12.367   4.019   4.655
62203SOL    HW286636  12.515   4.015   4.724
62204SOL     OW86637  11.979   4.329   5.189
62204SOL    HW186638  11.932   4.326   5.278
62204SOL    HW286639  11.928   4.274   5.123
62205SOL     OW86640  12.566   4.193   5.398
62205SOL    HW186641  12.546   4.236   5.486
62205SOL    HW286642  12.644   4.131   5.407
62206SOL     OW86643  12.145   4.614   5.296
62206SOL    HW186644  12.191   4.530   5.267
62206SOL    HW286645  12.089   4.648   5.221
62207SOL     OW86646  12.163   4.134   4.966
62207SOL    HW186647  12.086   4.168   5.020
62207SOL    HW286648  12.129   4.083   4.887
62208SOL     OW86649  12.213   4.425   4.153
62208SOL    HW186650  12.239   4.421   4.249
62208SOL    HW286651  12.128   4.374   4.139
62209SOL     OW86652  11.248   4.535   4.513
62209SOL    HW186653  11.347   4.523   4.522
62209SOL    HW286654  11.224   4.630   4.534
62210SOL     OW86655  11.302   5.545   5.295
62210SOL    HW186656  11.292   5.530   5.394
62210SOL    HW286657  11.216   5.581   5.259
62211SOL     OW86658  12.037   4.072   3.919
62211SOL    HW186659  12.096   4.135   3.870
62211SOL    HW286660  12.056   3.978   3.890
62212SOL     OW86661  12.534   4.868   4.269
62212SOL    HW186662  12.617   4.839   4.221
62212SOL    HW286663  12.485   4.935   4.213
62213SOL     OW86664  11.722   3.920   4.609
62213SOL    HW186665  11.717   3.915   4.709
62213SOL    HW286666  11.724   4.016   4.580
62214SOL     OW86667  12.180   5.180   4.201
62214SOL    HW186668  12.134   5.252   4.149
62214SOL    HW286669  12.176   5.200   4.299
62215SOL     OW86670  11.523   5.525   4.577
62215SOL    HW186671  11.573   5.439   4.583
62215SOL    HW286672  11.588   5.602   4.574
62216SOL     OW86673  12.399   5.274   5.230
62216SOL    HW186674  12.405   5.197   5.294
62216SOL    HW286675  12.347   5.248   5.150
62217SOL     OW86676  11.493   4.667   3.966
62217SOL    HW186677  11.575   4.706   3.924
62217SOL    HW286678  11.466   4.585   3.917
62218SOL     OW86679  11.633   4.990   5.451
62218SOL    HW186680  11.583   4.991   5.365
62218SOL    HW286681  11.570   4.972   5.527
62219SOL     OW86682  12.283   5.500   3.961
62219SOL    HW186683  12.223   5.438   4.011
62219SOL    HW286684  12.314   5.456   3.876
62220SOL     OW86685  11.374   4.009   5.222
62220SOL    HW186686  11.294   4.069   5.209
62220SOL    HW286687  11.364   3.960   5.308
62221SOL     OW86688  11.636   5.467   4.047
62221SOL    HW186689  11.669   5.506   4.133
62221SOL    HW286690  11.712   5.460   3.982
62222SOL     OW86691  12.572   3.831   4.150
62222SOL    HW186692  12.548   3.794   4.060
62222SOL    HW286693  12.671   3.847   4.154
62223SOL     OW86694  11.421   5.509   4.965
62223SOL    HW186695  11.478   5.444   5.015
62223SOL    HW286696  11.405   5.476   4.872
62224SOL     OW86697  12.112   5.422   4.628
62224SOL    HW186698  12.192   5.365   4.649
62224SOL    HW286699  12.063   5.382   4.551
62225SOL     OW86700  11.554   4.424   4.204
62225SOL    HW186701  11.599   4.334   4.201
62225SOL    HW286702  11.460   4.413   4.237
62226SOL     OW86703  11.786   3.846   3.841
62226SOL    HW186704  11.884   3.824   3.848
62226SOL    HW286705  11.755   3.829   3.748
62227SOL     OW86706  11.953   3.988   5.473
62227SOL    HW186707  12.020   3.927   5.516
62227SOL    HW286708  11.880   4.007   5.538
62228SOL     OW86709  12.060   5.238   4.919
62228SOL    HW186710  12.037   5.213   4.825
62228SOL    HW286711  12.121   5.169   4.958
62229SOL     OW86712  12.523   4.314   5.157
62229SOL    HW186713  12.551   4.271   5.242
62229SOL    HW286714  12.548   4.410   5.158
62230SOL     OW86715  11.975   5.126   4.648
62230SOL    HW186716  12.065   5.140   4.606
62230SOL    HW286717  11.904   5.128   4.577
62231SOL     OW86718  12.094   4.227   4.623
62231SOL    HW186719  12.069   4.218   4.527
62231SOL    HW286720  12.142   4.145   4.654
62232SOL     OW86721  11.711   3.788   4.236
62232SOL    HW186722  11.630   3.789   4.294
62232SOL    HW286723  11.714   3.871   4.181
62233SOL     OW86724  12.606   4.912   3.765
62233SOL    HW186725  12.638   4.836   3.822
62233SOL    HW286726  12.514   4.939   3.795
62234SOL     OW86727  11.469   3.759   3.895
62234SOL    HW186728  11.518   3.843   3.874
62234SOL    HW286729  11.531   3.694   3.940
62235SOL     OW86730  12.107   3.960   4.204
62235SOL    HW186731  12.059   4.001   4.126
62235SOL    HW286732  12.206   3.958   4.185
62236SOL     OW86733  12.248   4.407   5.188
62236SOL    HW186734  12.168   4.346   5.191
62236SOL    HW286735  12.329   4.354   5.164
62237SOL     OW86736  12.399   5.294   4.517
62237SOL    HW186737  12.420   5.368   4.452
62237SOL    HW286738  12.467   5.294   4.590
62238SOL     OW86739  11.631   4.876   4.465
62238SOL    HW186740  11.560   4.849   4.530
62238SOL    HW286741  11.605   4.848   4.372
62239SOL     OW86742  12.443   5.521   4.315
62239SOL    HW186743  12.487   5.585   4.251
62239SOL    HW286744  12.393   5.573   4.385
62240SOL     OW86745  12.204   4.273   3.740
62240SOL    HW186746  12.163   4.355   3.701
62240SOL    HW286747  12.268   4.299   3.813
62241SOL     OW86748  11.250   4.280   5.110
62241SOL    HW186749  11.342   4.279   5.069
62241SOL    HW286750  11.244   4.354   5.177
62242SOL     OW86751  11.733   3.946   4.871
62242SOL    HW186752  11.771   3.862   4.908
62242SOL    HW286753  11.645   3.965   4.915
62243SOL     OW86754  12.038   4.178   4.366
62243SOL    HW186755  12.006   4.250   4.304
62243SOL    HW286756  12.062   4.097   4.313
62244SOL     OW86757  12.189   3.763   4.477
62244SOL    HW186758  12.117   3.768   4.408
62244SOL    HW286759  12.165   3.694   4.546
62245SOL     OW86760  12.601   4.897   4.591
62245SOL    HW186761  12.546   4.813   4.584
62245SOL    HW286762  12.627   4.926   4.499
62246SOL     OW86763  11.660   5.109   3.898
62246SOL    HW186764  11.573   5.094   3.945
62246SOL    HW286765  11.643   5.135   3.803
62247SOL     OW86766  12.562   4.299   3.802
62247SOL    HW186767  12.508   4.278   3.883
62247SOL    HW286768  12.653   4.258   3.811
62248SOL     OW86769  11.699   3.980   4.052
62248SOL    HW186770  11.726   3.921   3.977
62248SOL    HW286771  11.699   4.075   4.021
62249SOL     OW86772  12.236   5.071   5.064
62249SOL    HW186773  12.156   5.048   5.119
62249SOL    HW286774  12.319   5.045   5.113
62250SOL     OW86775  12.764   5.353   5.349
62250SOL    HW186776  12.791   5.387   5.259
62250SOL    HW286777  12.843   5.315   5.395
62251SOL     OW86778  12.283   4.919   4.824
62251SOL    HW186779  12.243   4.963   4.905
62251SOL    HW286780  12.242   4.956   4.741
62252SOL     OW86781  12.087   3.813   5.126
62252SOL    HW186782  12.112   3.793   5.031
62252SOL    HW286783  12.159   3.869   5.168
62253SOL     OW86784  12.152   4.840   5.443
62253SOL    HW186785  12.053   4.846   5.453
62253SOL    HW286786  12.175   4.760   5.387
62254SOL     OW86787  11.877   4.774   4.092
62254SOL    HW186788  11.863   4.781   4.191
62254SOL    HW286789  11.961   4.723   4.074
62255SOL     OW86790  11.582   4.537   4.975
62255SOL    HW186791  11.668   4.549   5.025
62255SOL    HW286792  11.540   4.450   5.002
62256SOL     OW86793  12.446   4.110   4.986
62256SOL    HW186794  12.467   4.184   5.050
62256SOL    HW286795  12.357   4.127   4.943
62257SOL     OW86796  11.236   5.288   5.055
62257SOL    HW186797  11.190   5.370   5.021
62257SOL    HW286798  11.334   5.307   5.064
62258SOL     OW86799  11.539   4.824   4.225
62258SOL    HW186800  11.532   4.907   4.169
62258SOL    HW286801  11.543   4.744   4.165
62259SOL     OW86802  11.738   4.261   4.589
62259SOL    HW186803  11.750   4.327   4.515
62259SOL    HW286804  11.784   4.295   4.672
62260SOL     OW86805  12.424   5.072   4.112
62260SOL    HW186806  12.474   5.149   4.152
62260SOL    HW286807  12.329   5.074   4.144
62261SOL     OW86808  12.444   5.169   4.866
62261SOL    HW186809  12.491   5.182   4.953
62261SOL    HW286810  12.378   5.095   4.875
62262SOL     OW86811  11.526   5.234   5.053
62262SOL    HW186812  11.505   5.190   4.966
62262SOL    HW286813  11.623   5.260   5.056
62263SOL     OW86814  11.574   4.475   5.322
62263SOL    HW186815  11.642   4.530   5.275
62263SOL    HW286816  11.614   4.387   5.349
62264SOL     OW86817  12.185   3.829   5.494
62264SOL    HW186818  12.191   3.914   5.442
62264SOL    HW286819  12.217   3.753   5.437
62265SOL     OW86820  11.676   3.774   5.464
62265SOL    HW186821  11.634   3.717   5.394
62265SOL    HW286822  11.610   3.843   5.496
62266SOL     OW86823  11.745   4.594   4.753
62266SOL    HW186824  11.789   4.683   4.744
62266SOL    HW286825  11.682   4.594   4.830
62267SOL     OW86826  12.532   4.586   4.769
62267SOL    HW186827  12.457   4.586   4.703
62267SOL    HW286828  12.569   4.494   4.778
62268SOL     OW86829  12.381   4.249   3.999
62268SOL    HW186830  12.394   4.165   4.053
62268SOL    HW286831  12.352   4.323   4.059
62269SOL     OW86832  11.479   3.937   4.955
62269SOL    HW186833  11.456   3.974   5.045
62269SOL    HW286834  11.449   3.842   4.949
62270SOL     OW86835  11.209   5.034   5.006
62270SOL    HW186836  11.262   4.985   5.074
62270SOL    HW286837  11.231   5.132   5.011
62271SOL     OW86838  11.904   4.358   4.788
62271SOL    HW186839  11.963   4.332   4.712
62271SOL    HW286840  11.876   4.454   4.777
62272SOL     OW86841  11.479   3.787   4.342
62272SOL    HW186842  11.468   3.881   4.375
62272SOL    HW286843  11.474   3.724   4.419
62273SOL     OW86844  12.794   4.091   4.098
62273SOL    HW186845  12.796   4.015   4.162
62273SOL    HW286846  12.746   4.168   4.138
62274SOL     OW86847  12.195   4.490   4.690
62274SOL    HW186848  12.210   4.511   4.786
62274SOL    HW286849  12.165   4.395   4.681
62275SOL     OW86850  12.152   5.297   5.424
62275SOL    HW186851  12.132   5.341   5.336
62275SOL    HW286852  12.191   5.206   5.408
62276SOL     OW86853  11.522   4.622   5.528
62276SOL    HW186854  11.598   4.666   5.576
62276SOL    HW286855  11.557   4.575   5.446
62277SOL     OW86856  12.475   4.562   3.766
62277SOL    HW186857  12.509   4.469   3.781
62277SOL    HW286858  12.493   4.589   3.671
62278SOL     OW86859  12.240   5.057   4.573
62278SOL    HW186860  12.247   4.973   4.518
62278SOL    HW286861  12.302   5.126   4.537
62279SOL     OW86862  11.491   4.534   4.673
62279SOL    HW186863  11.584   4.570   4.678
62279SOL    HW286864  11.485   4.449   4.725
62280SOL     OW86865  11.511   4.233   4.730
62280SOL    HW186866  11.459   4.150   4.713
62280SOL    HW286867  11.588   4.238   4.666
62281SOL     OW86868  12.310   4.104   5.402
62281SOL    HW186869  12.265   4.167   5.466
62281SOL    HW286870  12.403   4.135   5.385
62282SOL     OW86871  12.332   3.931   5.201
62282SOL    HW186872  12.332   3.995   5.278
62282SOL    HW286873  12.360   3.979   5.118
62283SOL     OW86874  11.180   5.050   3.924
62283SOL    HW186875  11.087   5.071   3.893
62283SOL    HW286876  11.190   4.951   3.937
62284SOL     OW86877  11.260   5.525   4.651
62284SOL    HW186878  11.218   5.439   4.624
62284SOL    HW286879  11.354   5.528   4.617
62285SOL     OW86880  11.676   5.292   4.634
62285SOL    HW186881  11.742   5.366   4.643
62285SOL    HW286882  11.720   5.213   4.592
62286SOL     OW86883  12.174   4.520   4.962
62286SOL    HW186884  12.215   4.488   5.048
62286SOL    HW286885  12.078   4.493   4.959
62287SOL     OW86886  11.212   4.268   4.838
62287SOL    HW186887  11.297   4.235   4.797
62287SOL    HW286888  11.225   4.283   4.936
62288SOL     OW86889  11.361   4.244   5.446
62288SOL    HW186890  11.420   4.204   5.376
62288SOL    HW286891  11.303   4.315   5.405
62289SOL     OW86892  12.541   4.674   5.384
62289SOL    HW186893  12.580   4.763   5.404
62289SOL    HW286894  12.551   4.654   5.287
62290SOL     OW86895  11.987   4.296   4.049
62290SOL    HW186896  11.994   4.207   4.003
62290SOL    HW286897  11.893   4.330   4.041
62291SOL     OW86898  11.424   5.288   5.468
62291SOL    HW186899  11.394   5.345   5.544
62291SOL    HW286900  11.417   5.191   5.494
62292SOL     OW86901  11.843   4.188   4.993
62292SOL    HW186902  11.809   4.099   4.963
62292SOL    HW286903  11.869   4.242   4.913
62293SOL     OW86904  12.102   5.402   5.189
62293SOL    HW186905  12.078   5.384   5.094
62293SOL    HW286906  12.132   5.496   5.199
62294SOL     OW86907  11.645   4.224   3.915
62294SOL    HW186908  11.706   4.304   3.919
62294SOL    HW286909  11.550   4.255   3.922
62295SOL     OW86910  11.331   4.861   5.190
62295SOL    HW186911  11.353   4.800   5.266
62295SOL    HW286912  11.341   4.812   5.104
62296SOL     OW86913  12.519   4.783   4.958
62296SOL    HW186914  12.543   4.720   4.884
62296SOL    HW286915  12.429   4.823   4.940
62297SOL     OW86916  12.474   4.579   4.033
62297SOL    HW186917  12.388   4.548   4.075
62297SOL    HW286918  12.470   4.565   3.934
62298SOL     OW86919  12.424   5.455   4.852
62298SOL    HW186920  12.508   5.460   4.798
62298SOL    HW286921  12.401   5.359   4.870
62299SOL     OW86922  11.255   4.982   4.746
62299SOL    HW186923  11.250   4.981   4.846
62299SOL    HW286924  11.172   4.941   4.708
62300SOL     OW86925  11.860   5.386   5.440
62300SOL    HW186926  11.804   5.467   5.449
62300SOL    HW286927  11.912   5.390   5.354
62301SOL     OW86928  12.898   3.859   4.247
62301SOL    HW186929  12.971   3.842   4.180
62301SOL    HW286930  12.867   3.772   4.285
62302SOL     OW86931  12.560   5.297   4.201
62302SOL    HW186932  12.627   5.309   4.127
62302SOL    HW286933  12.520   5.386   4.224
62303SOL     OW86934  11.302   5.518   5.575
62303SOL    HW186935  11.261   5.444   5.628
62303SOL    HW286936  11.366   5.569   5.633
62304SOL     OW86937  12.452   4.651   4.396
62304SOL    HW186938  12.512   4.570   4.398
62304SOL    HW286939  12.492   4.720   4.336
62305SOL     OW86940  12.002   4.997   5.146
62305SOL    HW186941  11.997   5.030   5.241
62305SOL    HW286942  11.916   5.016   5.100
62306SOL     OW86943  11.844   5.340   3.878
62306SOL    HW186944  11.853   5.350   3.779
62306SOL    HW286945  11.804   5.251   3.899
62307SOL     OW86946  11.435   4.050   4.444
62307SOL    HW186947  11.356   4.101   4.410
62307SOL    HW286948  11.426   4.035   4.542
62308SOL     OW86949  12.366   5.336   3.755
62308SOL    HW186950  12.372   5.243   3.792
62308SOL    HW286951  12.307   5.336   3.675
62309SOL     OW86952  11.994   4.726   5.096
62309SOL    HW186953  12.034   4.725   5.004
62309SOL    HW286954  12.004   4.818   5.136
62310SOL     OW86955  12.088   4.634   4.015
62310SOL    HW186956  12.151   4.672   3.947
62310SOL    HW286957  12.128   4.551   4.054
62311SOL     OW86958  11.544   5.012   5.214
62311SOL    HW186959  11.531   5.105   5.180
62311SOL    HW286960  11.460   4.960   5.201
62312SOL     OW86961  12.211   4.822   4.420
62312SOL    HW186962  12.141   4.775   4.474
62312SOL    HW286963  12.270   4.754   4.377
62313SOL     OW86964  12.186   3.960   4.695
62313SOL    HW186965  12.178   3.924   4.602
62313SOL    HW286966  12.184   3.884   4.760
62314SOL     OW86967  11.762   5.211   4.215
62314SOL    HW186968  11.804   5.153   4.145
62314SOL    HW286969  11.718   5.290   4.171
62315SOL     OW86970  11.427   5.072   4.014
62315SOL    HW186971  11.331   5.073   3.987
62315SOL    HW286972  11.439   5.125   4.098
62316SOL     OW86973  11.277   4.737   5.450
62316SOL    HW186974  11.200   4.704   5.504
62316SOL    HW286975  11.362   4.707   5.492
62317SOL     OW86976  11.844   3.927   5.213
62317SOL    HW186977  11.934   3.911   5.173
62317SOL    HW286978  11.852   3.932   5.312
62318SOL     OW86979  11.247   4.069   3.757
62318SOL    HW186980  11.155   4.041   3.728
62318SOL    HW286981  11.278   4.146   3.701
62319SOL     OW86982  12.612   4.580   5.122
62319SOL    HW186983  12.555   4.632   5.059
62319SOL    HW286984  12.708   4.592   5.098
62320SOL     OW86985  11.244   3.890   4.042
62320SOL    HW186986  11.227   3.973   3.988
62320SOL    HW286987  11.334   3.853   4.020
62321SOL     OW86988  12.355   5.059   3.843
62321SOL    HW186989  12.256   5.048   3.845
62321SOL    HW286990  12.389   5.074   3.936
62322SOL     OW86991  11.785   4.566   5.155
62322SOL    HW186992  11.841   4.647   5.138
62322SOL    HW286993  11.844   4.486   5.158
62323SOL     OW86994  11.888   4.289   5.432
62323SOL    HW186995  11.907   4.354   5.506
62323SOL    HW286996  11.948   4.209   5.441
62324SOL     OW86997  12.622   4.944   5.357
62324SOL    HW186998  12.613   4.934   5.456
62324SOL    HW286999  12.718   4.937   5.331
62325SOL     OW87000  11.562   5.465   5.284
62325SOL    HW187001  11.471   5.506   5.282
62325SOL    HW287002  11.555   5.371   5.316
62326SOL     OW87003  12.397   4.049   4.173
62326SOL    HW187004  12.462   3.975   4.162
62326SOL    HW287005  12.417   4.099   4.257
62327SOL     OW87006  11.766   4.469   4.376
62327SOL    HW187007  11.816   4.554   4.357
62327SOL    HW287008  11.678   4.471   4.328
62328SOL     OW87009  12.031   5.098   3.740
62328SOL    HW187010  11.985   5.113   3.828
62328SOL    HW287011  12.075   5.183   3.710
62329SOL     OW87012  11.833   5.514   4.677
62329SOL    HW187013  11.787   5.602   4.664
62329SOL    HW287014  11.932   5.526   4.670
62330SOL     OW87015  12.031   4.680   4.585
62330SOL    HW187016  12.085   4.611   4.633
62330SOL    HW287017  11.999   4.749   4.651
62331SOL     OW87018  12.255   4.708   3.811
62331SOL    HW187019  12.232   4.761   3.729
62331SOL    HW287020  12.336   4.652   3.792
62332SOL     OW87021  11.393   5.038   5.568
62332SOL    HW187022  11.328   4.965   5.547
62332SOL    HW287023  11.397   5.052   5.666
62333SOL     OW87024  11.251   4.964   4.377
62333SOL    HW187025  11.250   4.917   4.465
62333SOL    HW287026  11.333   4.936   4.326
62334SOL     OW87027  11.844   5.115   5.348
62334SOL    HW187028  11.766   5.065   5.386
62334SOL    HW287029  11.841   5.210   5.379
62335SOL     OW87030  11.600   4.148   4.244
62335SOL    HW187031  11.630   4.076   4.182
62335SOL    HW287032  11.561   4.108   4.327
62336SOL     OW87033  12.877   5.211   4.828
62336SOL    HW187034  12.784   5.186   4.801
62336SOL    HW287035  12.903   5.161   4.910
62337SOL     OW87036  11.489   4.271   5.004
62337SOL    HW187037  11.527   4.212   5.076
62337SOL    HW287038  11.529   4.245   4.916
62338SOL     OW87039  11.984   5.310   4.411
62338SOL    HW187040  12.016   5.320   4.317
62338SOL    HW287041  11.905   5.248   4.413
62339SOL     OW87042  12.596   3.938   4.836
62339SOL    HW187043  12.648   3.873   4.891
62339SOL    HW287044  12.547   4.001   4.897
62340SOL     OW87045  12.173   3.758   4.878
62340SOL    HW187046  12.110   3.686   4.847
62340SOL    HW287047  12.266   3.722   4.878
62341SOL     OW87048  11.942   5.054   4.025
62341SOL    HW187049  11.896   4.967   4.042
62341SOL    HW287050  12.033   5.051   4.066
62342SOL     OW87051  11.790   5.291   5.008
62342SOL    HW187052  11.785   5.373   5.065
62342SOL    HW287053  11.879   5.288   4.963
62343SOL     OW87054  12.524   3.776   3.892
62343SOL    HW187055  12.559   3.735   3.808
62343SOL    HW287056  12.434   3.738   3.912
62344SOL     OW87057  12.472   4.177   4.415
62344SOL    HW187058  12.413   4.257   4.419
62344SOL    HW287059  12.487   4.142   4.508
62345SOL     OW87060  11.211   4.801   4.024
62345SOL    HW187061  11.310   4.790   4.015
62345SOL    HW287062  11.171   4.715   4.056
62346SOL     OW87063  12.047   5.370   4.061
62346SOL    HW187064  11.970   5.335   4.007
62346SOL    HW287065  12.015   5.441   4.123
62347SOL     OW87066  11.402   4.352   5.699
62347SOL    HW187067  11.309   4.350   5.736
62347SOL    HW287068  11.403   4.313   5.607
62348SOL     OW87069  11.397   3.999   6.582
62348SOL    HW187070  11.432   3.982   6.674
62348SOL    HW287071  11.309   3.954   6.570
62349SOL     OW87072  11.191   4.092   6.233
62349SOL    HW187073  11.109   4.135   6.272
62349SOL    HW287074  11.163   4.019   6.170
62350SOL     OW87075  11.741   4.999   6.751
62350SOL    HW187076  11.648   4.992   6.714
62350SOL    HW287077  11.752   5.088   6.795
62351SOL     OW87078  12.727   5.235   6.289
62351SOL    HW187079  12.670   5.219   6.370
62351SOL    HW287080  12.668   5.245   6.209
62352SOL     OW87081  12.307   4.427   6.303
62352SOL    HW187082  12.364   4.505   6.278
62352SOL    HW287083  12.247   4.453   6.379
62353SOL     OW87084  11.940   4.868   6.609
62353SOL    HW187085  11.862   4.885   6.669
62353SOL    HW287086  11.974   4.955   6.573
62354SOL     OW87087  12.022   4.522   7.409
62354SOL    HW187088  12.018   4.598   7.474
62354SOL    HW287089  12.044   4.558   7.318
62355SOL     OW87090  11.857   4.736   6.251
62355SOL    HW187091  11.926   4.720   6.321
62355SOL    HW287092  11.784   4.793   6.289
62356SOL     OW87093  11.858   4.885   7.389
62356SOL    HW187094  11.918   4.964   7.403
62356SOL    HW287095  11.772   4.916   7.348
62357SOL     OW87096  11.507   5.159   6.647
62357SOL    HW187097  11.429   5.128   6.594
62357SOL    HW287098  11.565   5.217   6.590
62358SOL     OW87099  11.610   4.116   7.085
62358SOL    HW187100  11.692   4.060   7.094
62358SOL    HW287101  11.529   4.058   7.089
62359SOL     OW87102  11.403   5.437   6.069
62359SOL    HW187103  11.437   5.514   6.123
62359SOL    HW287104  11.447   5.437   5.979
62360SOL     OW87105  12.299   5.065   7.276
62360SOL    HW187106  12.346   5.065   7.364
62360SOL    HW287107  12.251   4.978   7.265
62361SOL     OW87108  11.402   5.158   6.124
62361SOL    HW187109  11.376   5.254   6.124
62361SOL    HW287110  11.331   5.104   6.169
62362SOL     OW87111  11.412   4.815   6.472
62362SOL    HW187112  11.426   4.731   6.524
62362SOL    HW287113  11.357   4.879   6.527
62363SOL     OW87114  11.792   5.510   7.025
62363SOL    HW187115  11.700   5.493   7.060
62363SOL    HW287116  11.820   5.602   7.051
62364SOL     OW87117  11.778   4.688   5.709
62364SOL    HW187118  11.785   4.772   5.655
62364SOL    HW287119  11.824   4.701   5.797
62365SOL     OW87120  11.294   4.367   6.149
62365SOL    HW187121  11.249   4.279   6.166
62365SOL    HW287122  11.293   4.421   6.233
62366SOL     OW87123  11.199   5.320   5.703
62366SOL    HW187124  11.180   5.224   5.724
62366SOL    HW287125  11.166   5.378   5.778
62367SOL     OW87126  12.861   4.646   6.198
62367SOL    HW187127  12.956   4.617   6.206
62367SOL    HW287128  12.853   4.711   6.123
62368SOL     OW87129  11.285   4.461   7.183
62368SOL    HW187130  11.373   4.448   7.228
62368SOL    HW287131  11.272   4.558   7.161
62369SOL     OW87132  11.785   5.089   6.312
62369SOL    HW187133  11.736   5.002   6.321
62369SOL    HW287134  11.762   5.132   6.225
62370SOL     OW87135  12.465   4.952   7.009
62370SOL    HW187136  12.502   4.879   6.951
62370SOL    HW287137  12.517   4.957   7.094
62371SOL     OW87138  11.981   3.728   6.088
62371SOL    HW187139  12.021   3.819   6.079
62371SOL    HW287140  11.881   3.736   6.094
62372SOL     OW87141  11.369   4.700   6.850
62372SOL    HW187142  11.458   4.655   6.836
62372SOL    HW287143  11.296   4.635   6.831
62373SOL     OW87144  12.359   5.516   7.202
62373SOL    HW187145  12.383   5.576   7.126
62373SOL    HW287146  12.366   5.421   7.172
62374SOL     OW87147  11.489   3.975   7.387
62374SOL    HW187148  11.560   4.046   7.393
62374SOL    HW287149  11.401   4.014   7.415
62375SOL     OW87150  12.638   5.141   6.539
62375SOL    HW187151  12.579   5.147   6.619
62375SOL    HW287152  12.623   5.053   6.493
62376SOL     OW87153  11.770   4.453   5.856
62376SOL    HW187154  11.794   4.522   5.788
62376SOL    HW287155  11.692   4.486   5.910
62377SOL     OW87156  12.453   4.069   6.530
62377SOL    HW187157  12.367   4.019   6.517
62377SOL    HW287158  12.515   4.015   6.586
62378SOL     OW87159  11.979   4.329   7.051
62378SOL    HW187160  11.932   4.326   7.140
62378SOL    HW287161  11.928   4.274   6.985
62379SOL     OW87162  12.566   4.193   7.260
62379SOL    HW187163  12.546   4.236   7.348
62379SOL    HW287164  12.644   4.131   7.269
62380SOL     OW87165  12.145   4.614   7.158
62380SOL    HW187166  12.191   4.530   7.129
62380SOL    HW287167  12.089   4.648   7.083
62381SOL     OW87168  12.163   4.134   6.828
62381SOL    HW187169  12.086   4.168   6.882
62381SOL    HW287170  12.129   4.083   6.749
62382SOL     OW87171  12.213   4.425   6.015
62382SOL    HW187172  12.239   4.421   6.111
62382SOL    HW287173  12.128   4.374   6.001
62383SOL     OW87174  11.248   4.535   6.375
62383SOL    HW187175  11.347   4.523   6.384
62383SOL    HW287176  11.224   4.630   6.396
62384SOL     OW87177  11.302   5.545   7.157
62384SOL    HW187178  11.292   5.530   7.256
62384SOL    HW287179  11.216   5.581   7.121
62385SOL     OW87180  12.037   4.072   5.781
62385SOL    HW187181  12.096   4.135   5.732
62385SOL    HW287182  12.056   3.978   5.752
62386SOL     OW87183  12.534   4.868   6.131
62386SOL    HW187184  12.617   4.839   6.083
62386SOL    HW287185  12.485   4.935   6.075
62387SOL     OW87186  11.722   3.920   6.471
62387SOL    HW187187  11.717   3.915   6.571
62387SOL    HW287188  11.724   4.016   6.442
62388SOL     OW87189  12.180   5.180   6.063
62388SOL    HW187190  12.134   5.252   6.011
62388SOL    HW287191  12.176   5.200   6.161
62389SOL     OW87192  11.523   5.525   6.439
62389SOL    HW187193  11.573   5.439   6.445
62389SOL    HW287194  11.588   5.602   6.436
62390SOL     OW87195  12.399   5.274   7.092
62390SOL    HW187196  12.405   5.197   7.156
62390SOL    HW287197  12.347   5.248   7.012
62391SOL     OW87198  11.493   4.667   5.828
62391SOL    HW187199  11.575   4.706   5.786
62391SOL    HW287200  11.466   4.585   5.779
62392SOL     OW87201  11.633   4.990   7.313
62392SOL    HW187202  11.583   4.991   7.227
62392SOL    HW287203  11.570   4.972   7.389
62393SOL     OW87204  12.283   5.500   5.823
62393SOL    HW187205  12.223   5.438   5.873
62393SOL    HW287206  12.314   5.456   5.738
62394SOL     OW87207  11.374   4.009   7.084
62394SOL    HW187208  11.294   4.069   7.071
62394SOL    HW287209  11.364   3.960   7.170
62395SOL     OW87210  11.636   5.467   5.909
62395SOL    HW187211  11.669   5.506   5.995
62395SOL    HW287212  11.712   5.460   5.844
62396SOL     OW87213  12.572   3.831   6.012
62396SOL    HW187214  12.548   3.794   5.922
62396SOL    HW287215  12.671   3.847   6.016
62397SOL     OW87216  11.421   5.509   6.827
62397SOL    HW187217  11.478   5.444   6.877
62397SOL    HW287218  11.405   5.476   6.734
62398SOL     OW87219  12.112   5.422   6.490
62398SOL    HW187220  12.192   5.365   6.511
62398SOL    HW287221  12.063   5.382   6.413
62399SOL     OW87222  11.554   4.424   6.066
62399SOL    HW187223  11.599   4.334   6.063
62399SOL    HW287224  11.460   4.413   6.099
62400SOL     OW87225  11.786   3.846   5.703
62400SOL    HW187226  11.884   3.824   5.710
62400SOL    HW287227  11.755   3.829   5.610
62401SOL     OW87228  11.953   3.988   7.335
62401SOL    HW187229  12.020   3.927   7.378
62401SOL    HW287230  11.880   4.007   7.400
62402SOL     OW87231  12.060   5.238   6.781
62402SOL    HW187232  12.037   5.213   6.687
62402SOL    HW287233  12.121   5.169   6.820
62403SOL     OW87234  12.523   4.314   7.019
62403SOL    HW187235  12.551   4.271   7.104
62403SOL    HW287236  12.548   4.410   7.020
62404SOL     OW87237  11.975   5.126   6.510
62404SOL    HW187238  12.065   5.140   6.468
62404SOL    HW287239  11.904   5.128   6.439
62405SOL     OW87240  12.094   4.227   6.485
62405SOL    HW187241  12.069   4.218   6.389
62405SOL    HW287242  12.142   4.145   6.516
62406SOL     OW87243  11.711   3.788   6.098
62406SOL    HW187244  11.630   3.789   6.156
62406SOL    HW287245  11.714   3.871   6.043
62407SOL     OW87246  12.606   4.912   5.627
62407SOL    HW187247  12.638   4.836   5.684
62407SOL    HW287248  12.514   4.939   5.657
62408SOL     OW87249  11.469   3.759   5.757
62408SOL    HW187250  11.518   3.843   5.736
62408SOL    HW287251  11.531   3.694   5.802
62409SOL     OW87252  12.107   3.960   6.066
62409SOL    HW187253  12.059   4.001   5.988
62409SOL    HW287254  12.206   3.958   6.047
62410SOL     OW87255  12.248   4.407   7.050
62410SOL    HW187256  12.168   4.346   7.053
62410SOL    HW287257  12.329   4.354   7.026
62411SOL     OW87258  12.399   5.294   6.379
62411SOL    HW187259  12.420   5.368   6.314
62411SOL    HW287260  12.467   5.294   6.452
62412SOL     OW87261  11.631   4.876   6.327
62412SOL    HW187262  11.560   4.849   6.392
62412SOL    HW287263  11.605   4.848   6.234
62413SOL     OW87264  12.443   5.521   6.177
62413SOL    HW187265  12.487   5.585   6.113
62413SOL    HW287266  12.393   5.573   6.247
62414SOL     OW87267  12.204   4.273   5.602
62414SOL    HW187268  12.163   4.355   5.563
62414SOL    HW287269  12.268   4.299   5.675
62415SOL     OW87270  11.250   4.280   6.972
62415SOL    HW187271  11.342   4.279   6.931
62415SOL    HW287272  11.244   4.354   7.039
62416SOL     OW87273  11.733   3.946   6.733
62416SOL    HW187274  11.771   3.862   6.770
62416SOL    HW287275  11.645   3.965   6.777
62417SOL     OW87276  12.038   4.178   6.228
62417SOL    HW187277  12.006   4.250   6.166
62417SOL    HW287278  12.062   4.097   6.175
62418SOL     OW87279  12.189   3.763   6.339
62418SOL    HW187280  12.117   3.768   6.270
62418SOL    HW287281  12.165   3.694   6.408
62419SOL     OW87282  12.601   4.897   6.453
62419SOL    HW187283  12.546   4.813   6.446
62419SOL    HW287284  12.627   4.926   6.361
62420SOL     OW87285  11.660   5.109   5.760
62420SOL    HW187286  11.573   5.094   5.807
62420SOL    HW287287  11.643   5.135   5.665
62421SOL     OW87288  12.562   4.299   5.664
62421SOL    HW187289  12.508   4.278   5.745
62421SOL    HW287290  12.653   4.258   5.673
62422SOL     OW87291  11.699   3.980   5.914
62422SOL    HW187292  11.726   3.921   5.839
62422SOL    HW287293  11.699   4.075   5.883
62423SOL     OW87294  12.236   5.071   6.926
62423SOL    HW187295  12.156   5.048   6.981
62423SOL    HW287296  12.319   5.045   6.975
62424SOL     OW87297  12.764   5.353   7.211
62424SOL    HW187298  12.791   5.387   7.121
62424SOL    HW287299  12.843   5.315   7.257
62425SOL     OW87300  12.283   4.919   6.686
62425SOL    HW187301  12.243   4.963   6.767
62425SOL    HW287302  12.242   4.956   6.603
62426SOL     OW87303  12.087   3.813   6.988
62426SOL    HW187304  12.112   3.793   6.893
62426SOL    HW287305  12.159   3.869   7.030
62427SOL     OW87306  12.152   4.840   7.305
62427SOL    HW187307  12.053   4.846   7.315
62427SOL    HW287308  12.175   4.760   7.249
62428SOL     OW87309  11.877   4.774   5.954
62428SOL    HW187310  11.863   4.781   6.053
62428SOL    HW287311  11.961   4.723   5.936
62429SOL     OW87312  11.582   4.537   6.837
62429SOL    HW187313  11.668   4.549   6.887
62429SOL    HW287314  11.540   4.450   6.864
62430SOL     OW87315  12.446   4.110   6.848
62430SOL    HW187316  12.467   4.184   6.912
62430SOL    HW287317  12.357   4.127   6.805
62431SOL     OW87318  11.236   5.288   6.917
62431SOL    HW187319  11.190   5.370   6.883
62431SOL    HW287320  11.334   5.307   6.926
62432SOL     OW87321  11.539   4.824   6.087
62432SOL    HW187322  11.532   4.907   6.031
62432SOL    HW287323  11.543   4.744   6.027
62433SOL     OW87324  11.738   4.261   6.451
62433SOL    HW187325  11.750   4.327   6.377
62433SOL    HW287326  11.784   4.295   6.534
62434SOL     OW87327  12.424   5.072   5.974
62434SOL    HW187328  12.474   5.149   6.014
62434SOL    HW287329  12.329   5.074   6.006
62435SOL     OW87330  12.444   5.169   6.728
62435SOL    HW187331  12.491   5.182   6.815
62435SOL    HW287332  12.378   5.095   6.737
62436SOL     OW87333  11.526   5.234   6.915
62436SOL    HW187334  11.505   5.190   6.828
62436SOL    HW287335  11.623   5.260   6.918
62437SOL     OW87336  11.574   4.475   7.184
62437SOL    HW187337  11.642   4.530   7.137
62437SOL    HW287338  11.614   4.387   7.211
62438SOL     OW87339  12.185   3.829   7.356
62438SOL    HW187340  12.191   3.914   7.304
62438SOL    HW287341  12.217   3.753   7.299
62439SOL     OW87342  11.676   3.774   7.326
62439SOL    HW187343  11.634   3.717   7.256
62439SOL    HW287344  11.610   3.843   7.358
62440SOL     OW87345  11.745   4.594   6.615
62440SOL    HW187346  11.789   4.683   6.606
62440SOL    HW287347  11.682   4.594   6.692
62441SOL     OW87348  12.532   4.586   6.631
62441SOL    HW187349  12.457   4.586   6.565
62441SOL    HW287350  12.569   4.494   6.640
62442SOL     OW87351  12.381   4.249   5.861
62442SOL    HW187352  12.394   4.165   5.915
62442SOL    HW287353  12.352   4.323   5.921
62443SOL     OW87354  11.479   3.937   6.817
62443SOL    HW187355  11.456   3.974   6.907
62443SOL    HW287356  11.449   3.842   6.811
62444SOL     OW87357  11.209   5.034   6.868
62444SOL    HW187358  11.262   4.985   6.936
62444SOL    HW287359  11.231   5.132   6.873
62445SOL     OW87360  11.904   4.358   6.650
62445SOL    HW187361  11.963   4.332   6.574
62445SOL    HW287362  11.876   4.454   6.639
62446SOL     OW87363  11.479   3.787   6.204
62446SOL    HW187364  11.468   3.881   6.237
62446SOL    HW287365  11.474   3.724   6.281
62447SOL     OW87366  12.794   4.091   5.960
62447SOL    HW187367  12.796   4.015   6.024
62447SOL    HW287368  12.746   4.168   6.000
62448SOL     OW87369  12.195   4.490   6.552
62448SOL    HW187370  12.210   4.511   6.648
62448SOL    HW287371  12.165   4.395   6.543
62449SOL     OW87372  12.152   5.297   7.286
62449SOL    HW187373  12.132   5.341   7.198
62449SOL    HW287374  12.191   5.206   7.270
62450SOL     OW87375  11.522   4.622   7.390
62450SOL    HW187376  11.598   4.666   7.438
62450SOL    HW287377  11.557   4.575   7.308
62451SOL     OW87378  12.475   4.562   5.628
62451SOL    HW187379  12.509   4.469   5.643
62451SOL    HW287380  12.493   4.589   5.533
62452SOL     OW87381  12.240   5.057   6.435
62452SOL    HW187382  12.247   4.973   6.380
62452SOL    HW287383  12.302   5.126   6.399
62453SOL     OW87384  11.491   4.534   6.535
62453SOL    HW187385  11.584   4.570   6.540
62453SOL    HW287386  11.485   4.449   6.587
62454SOL     OW87387  11.511   4.233   6.592
62454SOL    HW187388  11.459   4.150   6.575
62454SOL    HW287389  11.588   4.238   6.528
62455SOL     OW87390  12.310   4.104   7.264
62455SOL    HW187391  12.265   4.167   7.328
62455SOL    HW287392  12.403   4.135   7.247
62456SOL     OW87393  12.332   3.931   7.063
62456SOL    HW187394  12.332   3.995   7.140
62456SOL    HW287395  12.360   3.979   6.980
62457SOL     OW87396  11.180   5.050   5.786
62457SOL    HW187397  11.087   5.071   5.755
62457SOL    HW287398  11.190   4.951   5.799
62458SOL     OW87399  11.260   5.525   6.513
62458SOL    HW187400  11.218   5.439   6.486
62458SOL    HW287401  11.354   5.528   6.479
62459SOL     OW87402  11.676   5.292   6.496
62459SOL    HW187403  11.742   5.366   6.505
62459SOL    HW287404  11.720   5.213   6.454
62460SOL     OW87405  12.174   4.520   6.824
62460SOL    HW187406  12.215   4.488   6.910
62460SOL    HW287407  12.078   4.493   6.821
62461SOL     OW87408  11.212   4.268   6.700
62461SOL    HW187409  11.297   4.235   6.659
62461SOL    HW287410  11.225   4.283   6.798
62462SOL     OW87411  11.361   4.244   7.308
62462SOL    HW187412  11.420   4.204   7.238
62462SOL    HW287413  11.303   4.315   7.267
62463SOL     OW87414  12.541   4.674   7.246
62463SOL    HW187415  12.580   4.763   7.266
62463SOL    HW287416  12.551   4.654   7.149
62464SOL     OW87417  11.987   4.296   5.911
62464SOL    HW187418  11.994   4.207   5.865
62464SOL    HW287419  11.893   4.330   5.903
62465SOL     OW87420  11.424   5.288   7.330
62465SOL    HW187421  11.394   5.345   7.406
62465SOL    HW287422  11.417   5.191   7.356
62466SOL     OW87423  11.843   4.188   6.855
62466SOL    HW187424  11.809   4.099   6.825
62466SOL    HW287425  11.869   4.242   6.775
62467SOL     OW87426  12.102   5.402   7.051
62467SOL    HW187427  12.078   5.384   6.956
62467SOL    HW287428  12.132   5.496   7.061
62468SOL     OW87429  11.645   4.224   5.777
62468SOL    HW187430  11.706   4.304   5.781
62468SOL    HW287431  11.550   4.255   5.784
62469SOL     OW87432  11.331   4.861   7.052
62469SOL    HW187433  11.353   4.800   7.128
62469SOL    HW287434  11.341   4.812   6.966
62470SOL     OW87435  12.519   4.783   6.820
62470SOL    HW187436  12.543   4.720   6.746
62470SOL    HW287437  12.429   4.823   6.802
62471SOL     OW87438  12.474   4.579   5.895
62471SOL    HW187439  12.388   4.548   5.937
62471SOL    HW287440  12.470   4.565   5.796
62472SOL     OW87441  12.424   5.455   6.714
62472SOL    HW187442  12.508   5.460   6.660
62472SOL    HW287443  12.401   5.359   6.732
62473SOL     OW87444  11.255   4.982   6.608
62473SOL    HW187445  11.250   4.981   6.708
62473SOL    HW287446  11.172   4.941   6.570
62474SOL     OW87447  11.860   5.386   7.302
62474SOL    HW187448  11.804   5.467   7.311
62474SOL    HW287449  11.912   5.390   7.216
62475SOL     OW87450  12.898   3.859   6.109
62475SOL    HW187451  12.971   3.842   6.042
62475SOL    HW287452  12.867   3.772   6.147
62476SOL     OW87453  12.560   5.297   6.063
62476SOL    HW187454  12.627   5.309   5.989
62476SOL    HW287455  12.520   5.386   6.086
62477SOL     OW87456  11.302   5.518   7.437
62477SOL    HW187457  11.261   5.444   7.490
62477SOL    HW287458  11.366   5.569   7.495
62478SOL     OW87459  12.452   4.651   6.258
62478SOL    HW187460  12.512   4.570   6.260
62478SOL    HW287461  12.492   4.720   6.198
62479SOL     OW87462  12.002   4.997   7.008
62479SOL    HW187463  11.997   5.030   7.103
62479SOL    HW287464  11.916   5.016   6.962
62480SOL     OW87465  11.844   5.340   5.740
62480SOL    HW187466  11.853   5.350   5.641
62480SOL    HW287467  11.804   5.251   5.761
62481SOL     OW87468  11.435   4.050   6.306
62481SOL    HW187469  11.356   4.101   6.272
62481SOL    HW287470  11.426   4.035   6.404
62482SOL     OW87471  12.366   5.336   5.617
62482SOL    HW187472  12.372   5.243   5.654
62482SOL    HW287473  12.307   5.336   5.537
62483SOL     OW87474  11.994   4.726   6.958
62483SOL    HW187475  12.034   4.725   6.866
62483SOL    HW287476  12.004   4.818   6.998
62484SOL     OW87477  12.088   4.634   5.877
62484SOL    HW187478  12.151   4.672   5.809
62484SOL    HW287479  12.128   4.551   5.916
62485SOL     OW87480  11.544   5.012   7.076
62485SOL    HW187481  11.531   5.105   7.042
62485SOL    HW287482  11.460   4.960   7.063
62486SOL     OW87483  12.211   4.822   6.282
62486SOL    HW187484  12.141   4.775   6.336
62486SOL    HW287485  12.270   4.754   6.239
62487SOL     OW87486  12.186   3.960   6.557
62487SOL    HW187487  12.178   3.924   6.464
62487SOL    HW287488  12.184   3.884   6.622
62488SOL     OW87489  11.762   5.211   6.077
62488SOL    HW187490  11.804   5.153   6.007
62488SOL    HW287491  11.718   5.290   6.033
62489SOL     OW87492  11.427   5.072   5.876
62489SOL    HW187493  11.331   5.073   5.849
62489SOL    HW287494  11.439   5.125   5.960
62490SOL     OW87495  11.277   4.737   7.312
62490SOL    HW187496  11.200   4.704   7.366
62490SOL    HW287497  11.362   4.707   7.354
62491SOL     OW87498  11.844   3.927   7.075
62491SOL    HW187499  11.934   3.911   7.035
62491SOL    HW287500  11.852   3.932   7.174
62492SOL     OW87501  11.247   4.069   5.619
62492SOL    HW187502  11.155   4.041   5.590
62492SOL    HW287503  11.278   4.146   5.563
62493SOL     OW87504  12.612   4.580   6.984
62493SOL    HW187505  12.555   4.632   6.921
62493SOL    HW287506  12.708   4.592   6.960
62494SOL     OW87507  11.244   3.890   5.904
62494SOL    HW187508  11.227   3.973   5.850
62494SOL    HW287509  11.334   3.853   5.882
62495SOL     OW87510  12.355   5.059   5.705
62495SOL    HW187511  12.256   5.048   5.707
62495SOL    HW287512  12.389   5.074   5.798
62496SOL     OW87513  11.785   4.566   7.017
62496SOL    HW187514  11.841   4.647   7.000
62496SOL    HW287515  11.844   4.486   7.020
62497SOL     OW87516  11.888   4.289   7.294
62497SOL    HW187517  11.907   4.354   7.368
62497SOL    HW287518  11.948   4.209   7.303
62498SOL     OW87519  12.622   4.944   7.219
62498SOL    HW187520  12.613   4.934   7.318
62498SOL    HW287521  12.718   4.937   7.193
62499SOL     OW87522  11.562   5.465   7.146
62499SOL    HW187523  11.471   5.506   7.144
62499SOL    HW287524  11.555   5.371   7.178
62500SOL     OW87525  12.397   4.049   6.035
62500SOL    HW187526  12.462   3.975   6.024
62500SOL    HW287527  12.417   4.099   6.119
62501SOL     OW87528  11.766   4.469   6.238
62501SOL    HW187529  11.816   4.554   6.219
62501SOL    HW287530  11.678   4.471   6.190
62502SOL     OW87531  12.031   5.098   5.602
62502SOL    HW187532  11.985   5.113   5.690
62502SOL    HW287533  12.075   5.183   5.572
62503SOL     OW87534  11.833   5.514   6.539
62503SOL    HW187535  11.787   5.602   6.526
62503SOL    HW287536  11.932   5.526   6.532
62504SOL     OW87537  12.031   4.680   6.447
62504SOL    HW187538  12.085   4.611   6.495
62504SOL    HW287539  11.999   4.749   6.513
62505SOL     OW87540  12.255   4.708   5.673
62505SOL    HW187541  12.232   4.761   5.591
62505SOL    HW287542  12.336   4.652   5.654
62506SOL     OW87543  11.393   5.038   7.430
62506SOL    HW187544  11.328   4.965   7.409
62506SOL    HW287545  11.397   5.052   7.528
62507SOL     OW87546  11.251   4.964   6.239
62507SOL    HW187547  11.250   4.917   6.327
62507SOL    HW287548  11.333   4.936   6.188
62508SOL     OW87549  11.844   5.115   7.210
62508SOL    HW187550  11.766   5.065   7.248
62508SOL    HW287551  11.841   5.210   7.241
62509SOL     OW87552  11.600   4.148   6.106
62509SOL    HW187553  11.630   4.076   6.044
62509SOL    HW287554  11.561   4.108   6.189
62510SOL     OW87555  12.877   5.211   6.690
62510SOL    HW187556  12.784   5.186   6.663
62510SOL    HW287557  12.903   5.161   6.772
62511SOL     OW87558  11.489   4.271   6.866
62511SOL    HW187559  11.527   4.212   6.938
62511SOL    HW287560  11.529   4.245   6.778
62512SOL     OW87561  11.984   5.310   6.273
62512SOL    HW187562  12.016   5.320   6.179
62512SOL    HW287563  11.905   5.248   6.275
62513SOL     OW87564  12.596   3.938   6.698
62513SOL    HW187565  12.648   3.873   6.753
62513SOL    HW287566  12.547   4.001   6.759
62514SOL     OW87567  12.173   3.758   6.740
62514SOL    HW187568  12.110   3.686   6.709
62514SOL    HW287569  12.266   3.722   6.740
62515SOL     OW87570  11.942   5.054   5.887
62515SOL    HW187571  11.896   4.967   5.904
62515SOL    HW287572  12.033   5.051   5.928
62516SOL     OW87573  11.790   5.291   6.870
62516SOL    HW187574  11.785   5.373   6.927
62516SOL    HW287575  11.879   5.288   6.825
62517SOL     OW87576  12.524   3.776   5.754
62517SOL    HW187577  12.559   3.735   5.670
62517SOL    HW287578  12.434   3.738   5.774
62518SOL     OW87579  12.472   4.177   6.277
62518SOL    HW187580  12.413   4.257   6.281
62518SOL    HW287581  12.487   4.142   6.370
62519SOL     OW87582  11.211   4.801   5.886
62519SOL    HW187583  11.310   4.790   5.877
62519SOL    HW287584  11.171   4.715   5.918
62520SOL     OW87585  12.047   5.370   5.923
62520SOL    HW187586  11.970   5.335   5.869
62520SOL    HW287587  12.015   5.441   5.985
62521SOL     OW87588  11.402   4.352   7.561
62521SOL    HW187589  11.309   4.350   7.598
62521SOL    HW287590  11.403   4.313   7.469
62522SOL     OW87591  11.397   3.999   8.444
62522SOL    HW187592  11.432   3.982   8.536
62522SOL    HW287593  11.309   3.954   8.432
62523SOL     OW87594  11.191   4.092   8.095
62523SOL    HW187595  11.109   4.135   8.134
62523SOL    HW287596  11.163   4.019   8.032
62524SOL     OW87597  11.741   4.999   8.613
62524SOL    HW187598  11.648   4.992   8.576
62524SOL    HW287599  11.752   5.088   8.657
62525SOL     OW87600  12.727   5.235   8.151
62525SOL    HW187601  12.670   5.219   8.232
62525SOL    HW287602  12.668   5.245   8.071
62526SOL     OW87603  12.307   4.427   8.165
62526SOL    HW187604  12.364   4.505   8.140
62526SOL    HW287605  12.247   4.453   8.241
62527SOL     OW87606  11.940   4.868   8.471
62527SOL    HW187607  11.862   4.885   8.531
62527SOL    HW287608  11.974   4.955   8.435
62528SOL     OW87609  12.022   4.522   9.271
62528SOL    HW187610  12.018   4.598   9.336
62528SOL    HW287611  12.044   4.558   9.180
62529SOL     OW87612  11.857   4.736   8.113
62529SOL    HW187613  11.926   4.720   8.183
62529SOL    HW287614  11.784   4.793   8.151
62530SOL     OW87615  11.858   4.885   9.251
62530SOL    HW187616  11.918   4.964   9.265
62530SOL    HW287617  11.772   4.916   9.210
62531SOL     OW87618  11.507   5.159   8.509
62531SOL    HW187619  11.429   5.128   8.456
62531SOL    HW287620  11.565   5.217   8.452
62532SOL     OW87621  11.610   4.116   8.947
62532SOL    HW187622  11.692   4.060   8.956
62532SOL    HW287623  11.529   4.058   8.951
62533SOL     OW87624  11.403   5.437   7.931
62533SOL    HW187625  11.437   5.514   7.985
62533SOL    HW287626  11.447   5.437   7.841
62534SOL     OW87627  12.299   5.065   9.138
62534SOL    HW187628  12.346   5.065   9.226
62534SOL    HW287629  12.251   4.978   9.127
62535SOL     OW87630  11.402   5.158   7.986
62535SOL    HW187631  11.376   5.254   7.986
62535SOL    HW287632  11.331   5.104   8.031
62536SOL     OW87633  11.412   4.815   8.334
62536SOL    HW187634  11.426   4.731   8.386
62536SOL    HW287635  11.357   4.879   8.389
62537SOL     OW87636  11.792   5.510   8.887
62537SOL    HW187637  11.700   5.493   8.922
62537SOL    HW287638  11.820   5.602   8.913
62538SOL     OW87639  11.778   4.688   7.571
62538SOL    HW187640  11.785   4.772   7.517
62538SOL    HW287641  11.824   4.701   7.659
62539SOL     OW87642  11.294   4.367   8.011
62539SOL    HW187643  11.249   4.279   8.028
62539SOL    HW287644  11.293   4.421   8.095
62540SOL     OW87645  11.199   5.320   7.565
62540SOL    HW187646  11.180   5.224   7.586
62540SOL    HW287647  11.166   5.378   7.640
62541SOL     OW87648  12.861   4.646   8.060
62541SOL    HW187649  12.956   4.617   8.068
62541SOL    HW287650  12.853   4.711   7.985
62542SOL     OW87651  11.285   4.461   9.045
62542SOL    HW187652  11.373   4.448   9.090
62542SOL    HW287653  11.272   4.558   9.023
62543SOL     OW87654  11.785   5.089   8.174
62543SOL    HW187655  11.736   5.002   8.183
62543SOL    HW287656  11.762   5.132   8.087
62544SOL     OW87657  12.465   4.952   8.871
62544SOL    HW187658  12.502   4.879   8.813
62544SOL    HW287659  12.517   4.957   8.956
62545SOL     OW87660  11.981   3.728   7.950
62545SOL    HW187661  12.021   3.819   7.941
62545SOL    HW287662  11.881   3.736   7.956
62546SOL     OW87663  11.369   4.700   8.712
62546SOL    HW187664  11.458   4.655   8.698
62546SOL    HW287665  11.296   4.635   8.693
62547SOL     OW87666  12.359   5.516   9.064
62547SOL    HW187667  12.383   5.576   8.988
62547SOL    HW287668  12.366   5.421   9.034
62548SOL     OW87669  11.489   3.975   9.249
62548SOL    HW187670  11.560   4.046   9.255
62548SOL    HW287671  11.401   4.014   9.277
62549SOL     OW87672  12.638   5.141   8.401
62549SOL    HW187673  12.579   5.147   8.481
62549SOL    HW287674  12.623   5.053   8.355
62550SOL     OW87675  11.770   4.453   7.718
62550SOL    HW187676  11.794   4.522   7.650
62550SOL    HW287677  11.692   4.486   7.772
62551SOL     OW87678  12.453   4.069   8.392
62551SOL    HW187679  12.367   4.019   8.379
62551SOL    HW287680  12.515   4.015   8.448
62552SOL     OW87681  11.979   4.329   8.913
62552SOL    HW187682  11.932   4.326   9.002
62552SOL    HW287683  11.928   4.274   8.847
62553SOL     OW87684  12.566   4.193   9.122
62553SOL    HW187685  12.546   4.236   9.210
62553SOL    HW287686  12.644   4.131   9.131
62554SOL     OW87687  12.145   4.614   9.020
62554SOL    HW187688  12.191   4.530   8.991
62554SOL    HW287689  12.089   4.648   8.945
62555SOL     OW87690  12.163   4.134   8.690
62555SOL    HW187691  12.086   4.168   8.744
62555SOL    HW287692  12.129   4.083   8.611
62556SOL     OW87693  12.213   4.425   7.877
62556SOL    HW187694  12.239   4.421   7.973
62556SOL    HW287695  12.128   4.374   7.863
62557SOL     OW87696  11.248   4.535   8.237
62557SOL    HW187697  11.347   4.523   8.246
62557SOL    HW287698  11.224   4.630   8.258
62558SOL     OW87699  11.302   5.545   9.019
62558SOL    HW187700  11.292   5.530   9.118
62558SOL    HW287701  11.216   5.581   8.983
62559SOL     OW87702  12.037   4.072   7.643
62559SOL    HW187703  12.096   4.135   7.594
62559SOL    HW287704  12.056   3.978   7.614
62560SOL     OW87705  12.534   4.868   7.993
62560SOL    HW187706  12.617   4.839   7.945
62560SOL    HW287707  12.485   4.935   7.937
62561SOL     OW87708  11.722   3.920   8.333
62561SOL    HW187709  11.717   3.915   8.433
62561SOL    HW287710  11.724   4.016   8.304
62562SOL     OW87711  12.180   5.180   7.925
62562SOL    HW187712  12.134   5.252   7.873
62562SOL    HW287713  12.176   5.200   8.023
62563SOL     OW87714  11.523   5.525   8.301
62563SOL    HW187715  11.573   5.439   8.307
62563SOL    HW287716  11.588   5.602   8.298
62564SOL     OW87717  12.399   5.274   8.954
62564SOL    HW187718  12.405   5.197   9.018
62564SOL    HW287719  12.347   5.248   8.874
62565SOL     OW87720  11.493   4.667   7.690
62565SOL    HW187721  11.575   4.706   7.648
62565SOL    HW287722  11.466   4.585   7.641
62566SOL     OW87723  11.633   4.990   9.175
62566SOL    HW187724  11.583   4.991   9.089
62566SOL    HW287725  11.570   4.972   9.251
62567SOL     OW87726  12.283   5.500   7.685
62567SOL    HW187727  12.223   5.438   7.735
62567SOL    HW287728  12.314   5.456   7.600
62568SOL     OW87729  11.374   4.009   8.946
62568SOL    HW187730  11.294   4.069   8.933
62568SOL    HW287731  11.364   3.960   9.032
62569SOL     OW87732  11.636   5.467   7.771
62569SOL    HW187733  11.669   5.506   7.857
62569SOL    HW287734  11.712   5.460   7.706
62570SOL     OW87735  12.572   3.831   7.874
62570SOL    HW187736  12.548   3.794   7.784
62570SOL    HW287737  12.671   3.847   7.878
62571SOL     OW87738  11.421   5.509   8.689
62571SOL    HW187739  11.478   5.444   8.739
62571SOL    HW287740  11.405   5.476   8.596
62572SOL     OW87741  12.112   5.422   8.352
62572SOL    HW187742  12.192   5.365   8.373
62572SOL    HW287743  12.063   5.382   8.275
62573SOL     OW87744  11.554   4.424   7.928
62573SOL    HW187745  11.599   4.334   7.925
62573SOL    HW287746  11.460   4.413   7.961
62574SOL     OW87747  11.786   3.846   7.565
62574SOL    HW187748  11.884   3.824   7.572
62574SOL    HW287749  11.755   3.829   7.472
62575SOL     OW87750  11.953   3.988   9.197
62575SOL    HW187751  12.020   3.927   9.240
62575SOL    HW287752  11.880   4.007   9.262
62576SOL     OW87753  12.060   5.238   8.643
62576SOL    HW187754  12.037   5.213   8.549
62576SOL    HW287755  12.121   5.169   8.682
62577SOL     OW87756  12.523   4.314   8.881
62577SOL    HW187757  12.551   4.271   8.966
62577SOL    HW287758  12.548   4.410   8.882
62578SOL     OW87759  11.975   5.126   8.372
62578SOL    HW187760  12.065   5.140   8.330
62578SOL    HW287761  11.904   5.128   8.301
62579SOL     OW87762  12.094   4.227   8.347
62579SOL    HW187763  12.069   4.218   8.251
62579SOL    HW287764  12.142   4.145   8.378
62580SOL     OW87765  11.711   3.788   7.960
62580SOL    HW187766  11.630   3.789   8.018
62580SOL    HW287767  11.714   3.871   7.905
62581SOL     OW87768  12.606   4.912   7.489
62581SOL    HW187769  12.638   4.836   7.546
62581SOL    HW287770  12.514   4.939   7.519
62582SOL     OW87771  11.469   3.759   7.619
62582SOL    HW187772  11.518   3.843   7.598
62582SOL    HW287773  11.531   3.694   7.664
62583SOL     OW87774  12.107   3.960   7.928
62583SOL    HW187775  12.059   4.001   7.850
62583SOL    HW287776  12.206   3.958   7.909
62584SOL     OW87777  12.248   4.407   8.912
62584SOL    HW187778  12.168   4.346   8.915
62584SOL    HW287779  12.329   4.354   8.888
62585SOL     OW87780  12.399   5.294   8.241
62585SOL    HW187781  12.420   5.368   8.176
62585SOL    HW287782  12.467   5.294   8.314
62586SOL     OW87783  11.631   4.876   8.189
62586SOL    HW187784  11.560   4.849   8.254
62586SOL    HW287785  11.605   4.848   8.096
62587SOL     OW87786  12.443   5.521   8.039
62587SOL    HW187787  12.487   5.585   7.975
62587SOL    HW287788  12.393   5.573   8.109
62588SOL     OW87789  12.204   4.273   7.464
62588SOL    HW187790  12.163   4.355   7.425
62588SOL    HW287791  12.268   4.299   7.537
62589SOL     OW87792  11.250   4.280   8.834
62589SOL    HW187793  11.342   4.279   8.793
62589SOL    HW287794  11.244   4.354   8.901
62590SOL     OW87795  11.733   3.946   8.595
62590SOL    HW187796  11.771   3.862   8.632
62590SOL    HW287797  11.645   3.965   8.639
62591SOL     OW87798  12.038   4.178   8.090
62591SOL    HW187799  12.006   4.250   8.028
62591SOL    HW287800  12.062   4.097   8.037
62592SOL     OW87801  12.189   3.763   8.201
62592SOL    HW187802  12.117   3.768   8.132
62592SOL    HW287803  12.165   3.694   8.270
62593SOL     OW87804  12.601   4.897   8.315
62593SOL    HW187805  12.546   4.813   8.308
62593SOL    HW287806  12.627   4.926   8.223
62594SOL     OW87807  11.660   5.109   7.622
62594SOL    HW187808  11.573   5.094   7.669
62594SOL    HW287809  11.643   5.135   7.527
62595SOL     OW87810  12.562   4.299   7.526
62595SOL    HW187811  12.508   4.278   7.607
62595SOL    HW287812  12.653   4.258   7.535
62596SOL     OW87813  11.699   3.980   7.776
62596SOL    HW187814  11.726   3.921   7.701
62596SOL    HW287815  11.699   4.075   7.745
62597SOL     OW87816  12.236   5.071   8.788
62597SOL    HW187817  12.156   5.048   8.843
62597SOL    HW287818  12.319   5.045   8.837
62598SOL     OW87819  12.764   5.353   9.073
62598SOL    HW187820  12.791   5.387   8.983
62598SOL    HW287821  12.843   5.315   9.119
62599SOL     OW87822  12.283   4.919   8.548
62599SOL    HW187823  12.243   4.963   8.629
62599SOL    HW287824  12.242   4.956   8.465
62600SOL     OW87825  12.087   3.813   8.850
62600SOL    HW187826  12.112   3.793   8.755
62600SOL    HW287827  12.159   3.869   8.892
62601SOL     OW87828  12.152   4.840   9.167
62601SOL    HW187829  12.053   4.846   9.177
62601SOL    HW287830  12.175   4.760   9.111
62602SOL     OW87831  11.877   4.774   7.816
62602SOL    HW187832  11.863   4.781   7.915
62602SOL    HW287833  11.961   4.723   7.798
62603SOL     OW87834  11.582   4.537   8.699
62603SOL    HW187835  11.668   4.549   8.749
62603SOL    HW287836  11.540   4.450   8.726
62604SOL     OW87837  12.446   4.110   8.710
62604SOL    HW187838  12.467   4.184   8.774
62604SOL    HW287839  12.357   4.127   8.667
62605SOL     OW87840  11.236   5.288   8.779
62605SOL    HW187841  11.190   5.370   8.745
62605SOL    HW287842  11.334   5.307   8.788
62606SOL     OW87843  11.539   4.824   7.949
62606SOL    HW187844  11.532   4.907   7.893
62606SOL    HW287845  11.543   4.744   7.889
62607SOL     OW87846  11.738   4.261   8.313
62607SOL    HW187847  11.750   4.327   8.239
62607SOL    HW287848  11.784   4.295   8.396
62608SOL     OW87849  12.424   5.072   7.836
62608SOL    HW187850  12.474   5.149   7.876
62608SOL    HW287851  12.329   5.074   7.868
62609SOL     OW87852  12.444   5.169   8.590
62609SOL    HW187853  12.491   5.182   8.677
62609SOL    HW287854  12.378   5.095   8.599
62610SOL     OW87855  11.526   5.234   8.777
62610SOL    HW187856  11.505   5.190   8.690
62610SOL    HW287857  11.623   5.260   8.780
62611SOL     OW87858  11.574   4.475   9.046
62611SOL    HW187859  11.642   4.530   8.999
62611SOL    HW287860  11.614   4.387   9.073
62612SOL     OW87861  12.185   3.829   9.218
62612SOL    HW187862  12.191   3.914   9.166
62612SOL    HW287863  12.217   3.753   9.161
62613SOL     OW87864  11.676   3.774   9.188
62613SOL    HW187865  11.634   3.717   9.118
62613SOL    HW287866  11.610   3.843   9.220
62614SOL     OW87867  11.745   4.594   8.477
62614SOL    HW187868  11.789   4.683   8.468
62614SOL    HW287869  11.682   4.594   8.554
62615SOL     OW87870  12.532   4.586   8.493
62615SOL    HW187871  12.457   4.586   8.427
62615SOL    HW287872  12.569   4.494   8.502
62616SOL     OW87873  12.381   4.249   7.723
62616SOL    HW187874  12.394   4.165   7.777
62616SOL    HW287875  12.352   4.323   7.783
62617SOL     OW87876  11.479   3.937   8.679
62617SOL    HW187877  11.456   3.974   8.769
62617SOL    HW287878  11.449   3.842   8.673
62618SOL     OW87879  11.209   5.034   8.730
62618SOL    HW187880  11.262   4.985   8.798
62618SOL    HW287881  11.231   5.132   8.735
62619SOL     OW87882  11.904   4.358   8.512
62619SOL    HW187883  11.963   4.332   8.436
62619SOL    HW287884  11.876   4.454   8.501
62620SOL     OW87885  11.479   3.787   8.066
62620SOL    HW187886  11.468   3.881   8.099
62620SOL    HW287887  11.474   3.724   8.143
62621SOL     OW87888  12.794   4.091   7.822
62621SOL    HW187889  12.796   4.015   7.886
62621SOL    HW287890  12.746   4.168   7.862
62622SOL     OW87891  12.195   4.490   8.414
62622SOL    HW187892  12.210   4.511   8.510
62622SOL    HW287893  12.165   4.395   8.405
62623SOL     OW87894  12.152   5.297   9.148
62623SOL    HW187895  12.132   5.341   9.060
62623SOL    HW287896  12.191   5.206   9.132
62624SOL     OW87897  11.522   4.622   9.252
62624SOL    HW187898  11.598   4.666   9.300
62624SOL    HW287899  11.557   4.575   9.170
62625SOL     OW87900  12.475   4.562   7.490
62625SOL    HW187901  12.509   4.469   7.505
62625SOL    HW287902  12.493   4.589   7.395
62626SOL     OW87903  12.240   5.057   8.297
62626SOL    HW187904  12.247   4.973   8.242
62626SOL    HW287905  12.302   5.126   8.261
62627SOL     OW87906  11.491   4.534   8.397
62627SOL    HW187907  11.584   4.570   8.402
62627SOL    HW287908  11.485   4.449   8.449
62628SOL     OW87909  11.511   4.233   8.454
62628SOL    HW187910  11.459   4.150   8.437
62628SOL    HW287911  11.588   4.238   8.390
62629SOL     OW87912  12.310   4.104   9.126
62629SOL    HW187913  12.265   4.167   9.190
62629SOL    HW287914  12.403   4.135   9.109
62630SOL     OW87915  12.332   3.931   8.925
62630SOL    HW187916  12.332   3.995   9.002
62630SOL    HW287917  12.360   3.979   8.842
62631SOL     OW87918  11.180   5.050   7.648
62631SOL    HW187919  11.087   5.071   7.617
62631SOL    HW287920  11.190   4.951   7.661
62632SOL     OW87921  11.260   5.525   8.375
62632SOL    HW187922  11.218   5.439   8.348
62632SOL    HW287923  11.354   5.528   8.341
62633SOL     OW87924  11.676   5.292   8.358
62633SOL    HW187925  11.742   5.366   8.367
62633SOL    HW287926  11.720   5.213   8.316
62634SOL     OW87927  12.174   4.520   8.686
62634SOL    HW187928  12.215   4.488   8.772
62634SOL    HW287929  12.078   4.493   8.683
62635SOL     OW87930  11.212   4.268   8.562
62635SOL    HW187931  11.297   4.235   8.521
62635SOL    HW287932  11.225   4.283   8.660
62636SOL     OW87933  11.361   4.244   9.170
62636SOL    HW187934  11.420   4.204   9.100
62636SOL    HW287935  11.303   4.315   9.129
62637SOL     OW87936  12.541   4.674   9.108
62637SOL    HW187937  12.580   4.763   9.128
62637SOL    HW287938  12.551   4.654   9.011
62638SOL     OW87939  11.987   4.296   7.773
62638SOL    HW187940  11.994   4.207   7.727
62638SOL    HW287941  11.893   4.330   7.765
62639SOL     OW87942  11.424   5.288   9.192
62639SOL    HW187943  11.394   5.345   9.268
62639SOL    HW287944  11.417   5.191   9.218
62640SOL     OW87945  11.843   4.188   8.717
62640SOL    HW187946  11.809   4.099   8.687
62640SOL    HW287947  11.869   4.242   8.637
62641SOL     OW87948  12.102   5.402   8.913
62641SOL    HW187949  12.078   5.384   8.818
62641SOL    HW287950  12.132   5.496   8.923
62642SOL     OW87951  11.645   4.224   7.639
62642SOL    HW187952  11.706   4.304   7.643
62642SOL    HW287953  11.550   4.255   7.646
62643SOL     OW87954  11.331   4.861   8.914
62643SOL    HW187955  11.353   4.800   8.990
62643SOL    HW287956  11.341   4.812   8.828
62644SOL     OW87957  12.519   4.783   8.682
62644SOL    HW187958  12.543   4.720   8.608
62644SOL    HW287959  12.429   4.823   8.664
62645SOL     OW87960  12.474   4.579   7.757
62645SOL    HW187961  12.388   4.548   7.799
62645SOL    HW287962  12.470   4.565   7.658
62646SOL     OW87963  12.424   5.455   8.576
62646SOL    HW187964  12.508   5.460   8.522
62646SOL    HW287965  12.401   5.359   8.594
62647SOL     OW87966  11.255   4.982   8.470
62647SOL    HW187967  11.250   4.981   8.570
62647SOL    HW287968  11.172   4.941   8.432
62648SOL     OW87969  11.860   5.386   9.164
62648SOL    HW187970  11.804   5.467   9.173
62648SOL    HW287971  11.912   5.390   9.078
62649SOL     OW87972  12.898   3.859   7.971
62649SOL    HW187973  12.971   3.842   7.904
62649SOL    HW287974  12.867   3.772   8.009
62650SOL     OW87975  12.560   5.297   7.925
62650SOL    HW187976  12.627   5.309   7.851
62650SOL    HW287977  12.520   5.386   7.948
62651SOL     OW87978  11.302   5.518   9.299
62651SOL    HW187979  11.261   5.444   9.352
62651SOL    HW287980  11.366   5.569   9.357
62652SOL     OW87981  12.452   4.651   8.120
62652SOL    HW187982  12.512   4.570   8.122
62652SOL    HW287983  12.492   4.720   8.060
62653SOL     OW87984  12.002   4.997   8.870
62653SOL    HW187985  11.997   5.030   8.965
62653SOL    HW287986  11.916   5.016   8.824
62654SOL     OW87987  11.844   5.340   7.602
62654SOL    HW187988  11.853   5.350   7.503
62654SOL    HW287989  11.804   5.251   7.623
62655SOL     OW87990  11.435   4.050   8.168
62655SOL    HW187991  11.356   4.101   8.134
62655SOL    HW287992  11.426   4.035   8.266
62656SOL     OW87993  12.366   5.336   7.479
62656SOL    HW187994  12.372   5.243   7.516
62656SOL    HW287995  12.307   5.336   7.399
62657SOL     OW87996  11.994   4.726   8.820
62657SOL    HW187997  12.034   4.725   8.728
62657SOL    HW287998  12.004   4.818   8.860
62658SOL     OW87999  12.088   4.634   7.739
62658SOL    HW188000  12.151   4.672   7.671
62658SOL    HW288001  12.128   4.551   7.778
62659SOL     OW88002  11.544   5.012   8.938
62659SOL    HW188003  11.531   5.105   8.904
62659SOL    HW288004  11.460   4.960   8.925
62660SOL     OW88005  12.211   4.822   8.144
62660SOL    HW188006  12.141   4.775   8.198
62660SOL    HW288007  12.270   4.754   8.101
62661SOL     OW88008  12.186   3.960   8.419
62661SOL    HW188009  12.178   3.924   8.326
62661SOL    HW288010  12.184   3.884   8.484
62662SOL     OW88011  11.762   5.211   7.939
62662SOL    HW188012  11.804   5.153   7.869
62662SOL    HW288013  11.718   5.290   7.895
62663SOL     OW88014  11.427   5.072   7.738
62663SOL    HW188015  11.331   5.073   7.711
62663SOL    HW288016  11.439   5.125   7.822
62664SOL     OW88017  11.277   4.737   9.174
62664SOL    HW188018  11.200   4.704   9.228
62664SOL    HW288019  11.362   4.707   9.216
62665SOL     OW88020  11.844   3.927   8.937
62665SOL    HW188021  11.934   3.911   8.897
62665SOL    HW288022  11.852   3.932   9.036
62666SOL     OW88023  11.247   4.069   7.481
62666SOL    HW188024  11.155   4.041   7.452
62666SOL    HW288025  11.278   4.146   7.425
62667SOL     OW88026  12.612   4.580   8.846
62667SOL    HW188027  12.555   4.632   8.783
62667SOL    HW288028  12.708   4.592   8.822
62668SOL     OW88029  11.244   3.890   7.766
62668SOL    HW188030  11.227   3.973   7.712
62668SOL    HW288031  11.334   3.853   7.744
62669SOL     OW88032  12.355   5.059   7.567
62669SOL    HW188033  12.256   5.048   7.569
62669SOL    HW288034  12.389   5.074   7.660
62670SOL     OW88035  11.785   4.566   8.879
62670SOL    HW188036  11.841   4.647   8.862
62670SOL    HW288037  11.844   4.486   8.882
62671SOL     OW88038  11.888   4.289   9.156
62671SOL    HW188039  11.907   4.354   9.230
62671SOL    HW288040  11.948   4.209   9.165
62672SOL     OW88041  12.622   4.944   9.081
62672SOL    HW188042  12.613   4.934   9.180
62672SOL    HW288043  12.718   4.937   9.055
62673SOL     OW88044  11.562   5.465   9.008
62673SOL    HW188045  11.471   5.506   9.006
62673SOL    HW288046  11.555   5.371   9.040
62674SOL     OW88047  12.397   4.049   7.897
62674SOL    HW188048  12.462   3.975   7.886
62674SOL    HW288049  12.417   4.099   7.981
62675SOL     OW88050  11.766   4.469   8.100
62675SOL    HW188051  11.816   4.554   8.081
62675SOL    HW288052  11.678   4.471   8.052
62676SOL     OW88053  12.031   5.098   7.464
62676SOL    HW188054  11.985   5.113   7.552
62676SOL    HW288055  12.075   5.183   7.434
62677SOL     OW88056  11.833   5.514   8.401
62677SOL    HW188057  11.787   5.602   8.388
62677SOL    HW288058  11.932   5.526   8.394
62678SOL     OW88059  12.031   4.680   8.309
62678SOL    HW188060  12.085   4.611   8.357
62678SOL    HW288061  11.999   4.749   8.375
62679SOL     OW88062  12.255   4.708   7.535
62679SOL    HW188063  12.232   4.761   7.453
62679SOL    HW288064  12.336   4.652   7.516
62680SOL     OW88065  11.393   5.038   9.292
62680SOL    HW188066  11.328   4.965   9.271
62680SOL    HW288067  11.397   5.052   9.390
62681SOL     OW88068  11.251   4.964   8.101
62681SOL    HW188069  11.250   4.917   8.189
62681SOL    HW288070  11.333   4.936   8.050
62682SOL     OW88071  11.844   5.115   9.072
62682SOL    HW188072  11.766   5.065   9.110
62682SOL    HW288073  11.841   5.210   9.103
62683SOL     OW88074  11.600   4.148   7.968
62683SOL    HW188075  11.630   4.076   7.906
62683SOL    HW288076  11.561   4.108   8.051
62684SOL     OW88077  12.877   5.211   8.552
62684SOL    HW188078  12.784   5.186   8.525
62684SOL    HW288079  12.903   5.161   8.634
62685SOL     OW88080  11.489   4.271   8.728
62685SOL    HW188081  11.527   4.212   8.800
62685SOL    HW288082  11.529   4.245   8.640
62686SOL     OW88083  11.984   5.310   8.135
62686SOL    HW188084  12.016   5.320   8.041
62686SOL    HW288085  11.905   5.248   8.137
62687SOL     OW88086  12.596   3.938   8.560
62687SOL    HW188087  12.648   3.873   8.615
62687SOL    HW288088  12.547   4.001   8.621
62688SOL     OW88089  12.173   3.758   8.602
62688SOL    HW188090  12.110   3.686   8.571
62688SOL    HW288091  12.266   3.722   8.602
62689SOL     OW88092  11.942   5.054   7.749
62689SOL    HW188093  11.896   4.967   7.766
62689SOL    HW288094  12.033   5.051   7.790
62690SOL     OW88095  11.790   5.291   8.732
62690SOL    HW188096  11.785   5.373   8.789
62690SOL    HW288097  11.879   5.288   8.687
62691SOL     OW88098  12.524   3.776   7.616
62691SOL    HW188099  12.559   3.735   7.532
62691SOL    HW288100  12.434   3.738   7.636
62692SOL     OW88101  12.472   4.177   8.139
62692SOL    HW188102  12.413   4.257   8.143
62692SOL    HW288103  12.487   4.142   8.232
62693SOL     OW88104  11.211   4.801   7.748
62693SOL    HW188105  11.310   4.790   7.739
62693SOL    HW288106  11.171   4.715   7.780
62694SOL     OW88107  12.047   5.370   7.785
62694SOL    HW188108  11.970   5.335   7.731
62694SOL    HW288109  12.015   5.441   7.847
62695SOL     OW88110  11.402   4.352   9.423
62695SOL    HW188111  11.309   4.350   9.460
62695SOL    HW288112  11.403   4.313   9.331
62696SOL     OW88113  11.397   3.999  10.306
62696SOL    HW188114  11.432   3.982  10.398
62696SOL    HW288115  11.309   3.954  10.294
62697SOL     OW88116  11.191   4.092   9.957
62697SOL    HW188117  11.109   4.135   9.996
62697SOL    HW288118  11.163   4.019   9.894
62698SOL     OW88119  11.741   4.999  10.475
62698SOL    HW188120  11.648   4.992  10.438
62698SOL    HW288121  11.752   5.088  10.519
62699SOL     OW88122  12.727   5.235  10.013
62699SOL    HW188123  12.670   5.219  10.094
62699SOL    HW288124  12.668   5.245   9.933
62700SOL     OW88125  12.307   4.427  10.027
62700SOL    HW188126  12.364   4.505  10.002
62700SOL    HW288127  12.247   4.453  10.103
62701SOL     OW88128  11.940   4.868  10.333
62701SOL    HW188129  11.862   4.885  10.393
62701SOL    HW288130  11.974   4.955  10.297
62702SOL     OW88131  12.022   4.522  11.133
62702SOL    HW188132  12.018   4.598  11.198
62702SOL    HW288133  12.044   4.558  11.042
62703SOL     OW88134  11.857   4.736   9.975
62703SOL    HW188135  11.926   4.720  10.045
62703SOL    HW288136  11.784   4.793  10.013
62704SOL     OW88137  11.858   4.885  11.113
62704SOL    HW188138  11.918   4.964  11.127
62704SOL    HW288139  11.772   4.916  11.072
62705SOL     OW88140  11.507   5.159  10.371
62705SOL    HW188141  11.429   5.128  10.318
62705SOL    HW288142  11.565   5.217  10.314
62706SOL     OW88143  11.610   4.116  10.809
62706SOL    HW188144  11.692   4.060  10.818
62706SOL    HW288145  11.529   4.058  10.813
62707SOL     OW88146  11.403   5.437   9.793
62707SOL    HW188147  11.437   5.514   9.847
62707SOL    HW288148  11.447   5.437   9.703
62708SOL     OW88149  12.299   5.065  11.000
62708SOL    HW188150  12.346   5.065  11.088
62708SOL    HW288151  12.251   4.978  10.989
62709SOL     OW88152  11.402   5.158   9.848
62709SOL    HW188153  11.376   5.254   9.848
62709SOL    HW288154  11.331   5.104   9.893
62710SOL     OW88155  11.412   4.815  10.196
62710SOL    HW188156  11.426   4.731  10.248
62710SOL    HW288157  11.357   4.879  10.251
62711SOL     OW88158  11.792   5.510  10.749
62711SOL    HW188159  11.700   5.493  10.784
62711SOL    HW288160  11.820   5.602  10.775
62712SOL     OW88161  11.778   4.688   9.433
62712SOL    HW188162  11.785   4.772   9.379
62712SOL    HW288163  11.824   4.701   9.521
62713SOL     OW88164  11.294   4.367   9.873
62713SOL    HW188165  11.249   4.279   9.890
62713SOL    HW288166  11.293   4.421   9.957
62714SOL     OW88167  11.199   5.320   9.427
62714SOL    HW188168  11.180   5.224   9.448
62714SOL    HW288169  11.166   5.378   9.502
62715SOL     OW88170  12.861   4.646   9.922
62715SOL    HW188171  12.956   4.617   9.930
62715SOL    HW288172  12.853   4.711   9.847
62716SOL     OW88173  11.285   4.461  10.907
62716SOL    HW188174  11.373   4.448  10.952
62716SOL    HW288175  11.272   4.558  10.885
62717SOL     OW88176  11.785   5.089  10.036
62717SOL    HW188177  11.736   5.002  10.045
62717SOL    HW288178  11.762   5.132   9.949
62718SOL     OW88179  12.465   4.952  10.733
62718SOL    HW188180  12.502   4.879  10.675
62718SOL    HW288181  12.517   4.957  10.818
62719SOL     OW88182  11.981   3.728   9.812
62719SOL    HW188183  12.021   3.819   9.803
62719SOL    HW288184  11.881   3.736   9.818
62720SOL     OW88185  11.369   4.700  10.574
62720SOL    HW188186  11.458   4.655  10.560
62720SOL    HW288187  11.296   4.635  10.555
62721SOL     OW88188  12.359   5.516  10.926
62721SOL    HW188189  12.383   5.576  10.850
62721SOL    HW288190  12.366   5.421  10.896
62722SOL     OW88191  11.489   3.975  11.111
62722SOL    HW188192  11.560   4.046  11.117
62722SOL    HW288193  11.401   4.014  11.139
62723SOL     OW88194  12.638   5.141  10.263
62723SOL    HW188195  12.579   5.147  10.343
62723SOL    HW288196  12.623   5.053  10.217
62724SOL     OW88197  11.770   4.453   9.580
62724SOL    HW188198  11.794   4.522   9.512
62724SOL    HW288199  11.692   4.486   9.634
62725SOL     OW88200  12.453   4.069  10.254
62725SOL    HW188201  12.367   4.019  10.241
62725SOL    HW288202  12.515   4.015  10.310
62726SOL     OW88203  11.979   4.329  10.775
62726SOL    HW188204  11.932   4.326  10.864
62726SOL    HW288205  11.928   4.274  10.709
62727SOL     OW88206  12.566   4.193  10.984
62727SOL    HW188207  12.546   4.236  11.072
62727SOL    HW288208  12.644   4.131  10.993
62728SOL     OW88209  12.145   4.614  10.882
62728SOL    HW188210  12.191   4.530  10.853
62728SOL    HW288211  12.089   4.648  10.807
62729SOL     OW88212  12.163   4.134  10.552
62729SOL    HW188213  12.086   4.168  10.606
62729SOL    HW288214  12.129   4.083  10.473
62730SOL     OW88215  12.213   4.425   9.739
62730SOL    HW188216  12.239   4.421   9.835
62730SOL    HW288217  12.128   4.374   9.725
62731SOL     OW88218  11.248   4.535  10.099
62731SOL    HW188219  11.347   4.523  10.108
62731SOL    HW288220  11.224   4.630  10.120
62732SOL     OW88221  11.302   5.545  10.881
62732SOL    HW188222  11.292   5.530  10.980
62732SOL    HW288223  11.216   5.581  10.845
62733SOL     OW88224  12.037   4.072   9.505
62733SOL    HW188225  12.096   4.135   9.456
62733SOL    HW288226  12.056   3.978   9.476
62734SOL     OW88227  12.534   4.868   9.855
62734SOL    HW188228  12.617   4.839   9.807
62734SOL    HW288229  12.485   4.935   9.799
62735SOL     OW88230  11.722   3.920  10.195
62735SOL    HW188231  11.717   3.915  10.295
62735SOL    HW288232  11.724   4.016  10.166
62736SOL     OW88233  12.180   5.180   9.787
62736SOL    HW188234  12.134   5.252   9.735
62736SOL    HW288235  12.176   5.200   9.885
62737SOL     OW88236  11.523   5.525  10.163
62737SOL    HW188237  11.573   5.439  10.169
62737SOL    HW288238  11.588   5.602  10.160
62738SOL     OW88239  12.399   5.274  10.816
62738SOL    HW188240  12.405   5.197  10.880
62738SOL    HW288241  12.347   5.248  10.736
62739SOL     OW88242  11.493   4.667   9.552
62739SOL    HW188243  11.575   4.706   9.510
62739SOL    HW288244  11.466   4.585   9.503
62740SOL     OW88245  11.633   4.990  11.037
62740SOL    HW188246  11.583   4.991  10.951
62740SOL    HW288247  11.570   4.972  11.113
62741SOL     OW88248  12.283   5.500   9.547
62741SOL    HW188249  12.223   5.438   9.597
62741SOL    HW288250  12.314   5.456   9.462
62742SOL     OW88251  11.374   4.009  10.808
62742SOL    HW188252  11.294   4.069  10.795
62742SOL    HW288253  11.364   3.960  10.894
62743SOL     OW88254  11.636   5.467   9.633
62743SOL    HW188255  11.669   5.506   9.719
62743SOL    HW288256  11.712   5.460   9.568
62744SOL     OW88257  12.572   3.831   9.736
62744SOL    HW188258  12.548   3.794   9.646
62744SOL    HW288259  12.671   3.847   9.740
62745SOL     OW88260  11.421   5.509  10.551
62745SOL    HW188261  11.478   5.444  10.601
62745SOL    HW288262  11.405   5.476  10.458
62746SOL     OW88263  12.112   5.422  10.214
62746SOL    HW188264  12.192   5.365  10.235
62746SOL    HW288265  12.063   5.382  10.137
62747SOL     OW88266  11.554   4.424   9.790
62747SOL    HW188267  11.599   4.334   9.787
62747SOL    HW288268  11.460   4.413   9.823
62748SOL     OW88269  11.786   3.846   9.427
62748SOL    HW188270  11.884   3.824   9.434
62748SOL    HW288271  11.755   3.829   9.334
62749SOL     OW88272  11.953   3.988  11.059
62749SOL    HW188273  12.020   3.927  11.102
62749SOL    HW288274  11.880   4.007  11.124
62750SOL     OW88275  12.060   5.238  10.505
62750SOL    HW188276  12.037   5.213  10.411
62750SOL    HW288277  12.121   5.169  10.544
62751SOL     OW88278  12.523   4.314  10.743
62751SOL    HW188279  12.551   4.271  10.828
62751SOL    HW288280  12.548   4.410  10.744
62752SOL     OW88281  11.975   5.126  10.234
62752SOL    HW188282  12.065   5.140  10.192
62752SOL    HW288283  11.904   5.128  10.163
62753SOL     OW88284  12.094   4.227  10.209
62753SOL    HW188285  12.069   4.218  10.113
62753SOL    HW288286  12.142   4.145  10.240
62754SOL     OW88287  11.711   3.788   9.822
62754SOL    HW188288  11.630   3.789   9.880
62754SOL    HW288289  11.714   3.871   9.767
62755SOL     OW88290  12.606   4.912   9.351
62755SOL    HW188291  12.638   4.836   9.408
62755SOL    HW288292  12.514   4.939   9.381
62756SOL     OW88293  11.469   3.759   9.481
62756SOL    HW188294  11.518   3.843   9.460
62756SOL    HW288295  11.531   3.694   9.526
62757SOL     OW88296  12.107   3.960   9.790
62757SOL    HW188297  12.059   4.001   9.712
62757SOL    HW288298  12.206   3.958   9.771
62758SOL     OW88299  12.248   4.407  10.774
62758SOL    HW188300  12.168   4.346  10.777
62758SOL    HW288301  12.329   4.354  10.750
62759SOL     OW88302  12.399   5.294  10.103
62759SOL    HW188303  12.420   5.368  10.038
62759SOL    HW288304  12.467   5.294  10.176
62760SOL     OW88305  11.631   4.876  10.051
62760SOL    HW188306  11.560   4.849  10.116
62760SOL    HW288307  11.605   4.848   9.958
62761SOL     OW88308  12.443   5.521   9.901
62761SOL    HW188309  12.487   5.585   9.837
62761SOL    HW288310  12.393   5.573   9.971
62762SOL     OW88311  12.204   4.273   9.326
62762SOL    HW188312  12.163   4.355   9.287
62762SOL    HW288313  12.268   4.299   9.399
62763SOL     OW88314  11.250   4.280  10.696
62763SOL    HW188315  11.342   4.279  10.655
62763SOL    HW288316  11.244   4.354  10.763
62764SOL     OW88317  11.733   3.946  10.457
62764SOL    HW188318  11.771   3.862  10.494
62764SOL    HW288319  11.645   3.965  10.501
62765SOL     OW88320  12.038   4.178   9.952
62765SOL    HW188321  12.006   4.250   9.890
62765SOL    HW288322  12.062   4.097   9.899
62766SOL     OW88323  12.189   3.763  10.063
62766SOL    HW188324  12.117   3.768   9.994
62766SOL    HW288325  12.165   3.694  10.132
62767SOL     OW88326  12.601   4.897  10.177
62767SOL    HW188327  12.546   4.813  10.170
62767SOL    HW288328  12.627   4.926  10.085
62768SOL     OW88329  11.660   5.109   9.484
62768SOL    HW188330  11.573   5.094   9.531
62768SOL    HW288331  11.643   5.135   9.389
62769SOL     OW88332  12.562   4.299   9.388
62769SOL    HW188333  12.508   4.278   9.469
62769SOL    HW288334  12.653   4.258   9.397
62770SOL     OW88335  11.699   3.980   9.638
62770SOL    HW188336  11.726   3.921   9.563
62770SOL    HW288337  11.699   4.075   9.607
62771SOL     OW88338  12.236   5.071  10.650
62771SOL    HW188339  12.156   5.048  10.705
62771SOL    HW288340  12.319   5.045  10.699
62772SOL     OW88341  12.764   5.353  10.935
62772SOL    HW188342  12.791   5.387  10.845
62772SOL    HW288343  12.843   5.315  10.981
62773SOL     OW88344  12.283   4.919  10.410
62773SOL    HW188345  12.243   4.963  10.491
62773SOL    HW288346  12.242   4.956  10.327
62774SOL     OW88347  12.087   3.813  10.712
62774SOL    HW188348  12.112   3.793  10.617
62774SOL    HW288349  12.159   3.869  10.754
62775SOL     OW88350  12.152   4.840  11.029
62775SOL    HW188351  12.053   4.846  11.039
62775SOL    HW288352  12.175   4.760  10.973
62776SOL     OW88353  11.877   4.774   9.678
62776SOL    HW188354  11.863   4.781   9.777
62776SOL    HW288355  11.961   4.723   9.660
62777SOL     OW88356  11.582   4.537  10.561
62777SOL    HW188357  11.668   4.549  10.611
62777SOL    HW288358  11.540   4.450  10.588
62778SOL     OW88359  12.446   4.110  10.572
62778SOL    HW188360  12.467   4.184  10.636
62778SOL    HW288361  12.357   4.127  10.529
62779SOL     OW88362  11.236   5.288  10.641
62779SOL    HW188363  11.190   5.370  10.607
62779SOL    HW288364  11.334   5.307  10.650
62780SOL     OW88365  11.539   4.824   9.811
62780SOL    HW188366  11.532   4.907   9.755
62780SOL    HW288367  11.543   4.744   9.751
62781SOL     OW88368  11.738   4.261  10.175
62781SOL    HW188369  11.750   4.327  10.101
62781SOL    HW288370  11.784   4.295  10.258
62782SOL     OW88371  12.424   5.072   9.698
62782SOL    HW188372  12.474   5.149   9.738
62782SOL    HW288373  12.329   5.074   9.730
62783SOL     OW88374  12.444   5.169  10.452
62783SOL    HW188375  12.491   5.182  10.539
62783SOL    HW288376  12.378   5.095  10.461
62784SOL     OW88377  11.526   5.234  10.639
62784SOL    HW188378  11.505   5.190  10.552
62784SOL    HW288379  11.623   5.260  10.642
62785SOL     OW88380  11.574   4.475  10.908
62785SOL    HW188381  11.642   4.530  10.861
62785SOL    HW288382  11.614   4.387  10.935
62786SOL     OW88383  12.185   3.829  11.080
62786SOL    HW188384  12.191   3.914  11.028
62786SOL    HW288385  12.217   3.753  11.023
62787SOL     OW88386  11.676   3.774  11.050
62787SOL    HW188387  11.634   3.717  10.980
62787SOL    HW288388  11.610   3.843  11.082
62788SOL     OW88389  11.745   4.594  10.339
62788SOL    HW188390  11.789   4.683  10.330
62788SOL    HW288391  11.682   4.594  10.416
62789SOL     OW88392  12.532   4.586  10.355
62789SOL    HW188393  12.457   4.586  10.289
62789SOL    HW288394  12.569   4.494  10.364
62790SOL     OW88395  12.381   4.249   9.585
62790SOL    HW188396  12.394   4.165   9.639
62790SOL    HW288397  12.352   4.323   9.645
62791SOL     OW88398  11.479   3.937  10.541
62791SOL    HW188399  11.456   3.974  10.631
62791SOL    HW288400  11.449   3.842  10.535
62792SOL     OW88401  11.209   5.034  10.592
62792SOL    HW188402  11.262   4.985  10.660
62792SOL    HW288403  11.231   5.132  10.597
62793SOL     OW88404  11.904   4.358  10.374
62793SOL    HW188405  11.963   4.332  10.298
62793SOL    HW288406  11.876   4.454  10.363
62794SOL     OW88407  11.479   3.787   9.928
62794SOL    HW188408  11.468   3.881   9.961
62794SOL    HW288409  11.474   3.724  10.005
62795SOL     OW88410  12.794   4.091   9.684
62795SOL    HW188411  12.796   4.015   9.748
62795SOL    HW288412  12.746   4.168   9.724
62796SOL     OW88413  12.195   4.490  10.276
62796SOL    HW188414  12.210   4.511  10.372
62796SOL    HW288415  12.165   4.395  10.267
62797SOL     OW88416  12.152   5.297  11.010
62797SOL    HW188417  12.132   5.341  10.922
62797SOL    HW288418  12.191   5.206  10.994
62798SOL     OW88419  11.522   4.622  11.114
62798SOL    HW188420  11.598   4.666  11.162
62798SOL    HW288421  11.557   4.575  11.032
62799SOL     OW88422  12.475   4.562   9.352
62799SOL    HW188423  12.509   4.469   9.367
62799SOL    HW288424  12.493   4.589   9.257
62800SOL     OW88425  12.240   5.057  10.159
62800SOL    HW188426  12.247   4.973  10.104
62800SOL    HW288427  12.302   5.126  10.123
62801SOL     OW88428  11.491   4.534  10.259
62801SOL    HW188429  11.584   4.570  10.264
62801SOL    HW288430  11.485   4.449  10.311
62802SOL     OW88431  11.511   4.233  10.316
62802SOL    HW188432  11.459   4.150  10.299
62802SOL    HW288433  11.588   4.238  10.252
62803SOL     OW88434  12.310   4.104  10.988
62803SOL    HW188435  12.265   4.167  11.052
62803SOL    HW288436  12.403   4.135  10.971
62804SOL     OW88437  12.332   3.931  10.787
62804SOL    HW188438  12.332   3.995  10.864
62804SOL    HW288439  12.360   3.979  10.704
62805SOL     OW88440  11.180   5.050   9.510
62805SOL    HW188441  11.087   5.071   9.479
62805SOL    HW288442  11.190   4.951   9.523
62806SOL     OW88443  11.260   5.525  10.237
62806SOL    HW188444  11.218   5.439  10.210
62806SOL    HW288445  11.354   5.528  10.203
62807SOL     OW88446  11.676   5.292  10.220
62807SOL    HW188447  11.742   5.366  10.229
62807SOL    HW288448  11.720   5.213  10.178
62808SOL     OW88449  12.174   4.520  10.548
62808SOL    HW188450  12.215   4.488  10.634
62808SOL    HW288451  12.078   4.493  10.545
62809SOL     OW88452  11.212   4.268  10.424
62809SOL    HW188453  11.297   4.235  10.383
62809SOL    HW288454  11.225   4.283  10.522
62810SOL     OW88455  11.361   4.244  11.032
62810SOL    HW188456  11.420   4.204  10.962
62810SOL    HW288457  11.303   4.315  10.991
62811SOL     OW88458  12.541   4.674  10.970
62811SOL    HW188459  12.580   4.763  10.990
62811SOL    HW288460  12.551   4.654  10.873
62812SOL     OW88461  11.987   4.296   9.635
62812SOL    HW188462  11.994   4.207   9.589
62812SOL    HW288463  11.893   4.330   9.627
62813SOL     OW88464  11.424   5.288  11.054
62813SOL    HW188465  11.394   5.345  11.130
62813SOL    HW288466  11.417   5.191  11.080
62814SOL     OW88467  11.843   4.188  10.579
62814SOL    HW188468  11.809   4.099  10.549
62814SOL    HW288469  11.869   4.242  10.499
62815SOL     OW88470  12.102   5.402  10.775
62815SOL    HW188471  12.078   5.384  10.680
62815SOL    HW288472  12.132   5.496  10.785
62816SOL     OW88473  11.645   4.224   9.501
62816SOL    HW188474  11.706   4.304   9.505
62816SOL    HW288475  11.550   4.255   9.508
62817SOL     OW88476  11.331   4.861  10.776
62817SOL    HW188477  11.353   4.800  10.852
62817SOL    HW288478  11.341   4.812  10.690
62818SOL     OW88479  12.519   4.783  10.544
62818SOL    HW188480  12.543   4.720  10.470
62818SOL    HW288481  12.429   4.823  10.526
62819SOL     OW88482  12.474   4.579   9.619
62819SOL    HW188483  12.388   4.548   9.661
62819SOL    HW288484  12.470   4.565   9.520
62820SOL     OW88485  12.424   5.455  10.438
62820SOL    HW188486  12.508   5.460  10.384
62820SOL    HW288487  12.401   5.359  10.456
62821SOL     OW88488  11.255   4.982  10.332
62821SOL    HW188489  11.250   4.981  10.432
62821SOL    HW288490  11.172   4.941  10.294
62822SOL     OW88491  11.860   5.386  11.026
62822SOL    HW188492  11.804   5.467  11.035
62822SOL    HW288493  11.912   5.390  10.940
62823SOL     OW88494  12.898   3.859   9.833
62823SOL    HW188495  12.971   3.842   9.766
62823SOL    HW288496  12.867   3.772   9.871
62824SOL     OW88497  12.560   5.297   9.787
62824SOL    HW188498  12.627   5.309   9.713
62824SOL    HW288499  12.520   5.386   9.810
62825SOL     OW88500  11.302   5.518  11.161
62825SOL    HW188501  11.261   5.444  11.214
62825SOL    HW288502  11.366   5.569  11.219
62826SOL     OW88503  12.452   4.651   9.982
62826SOL    HW188504  12.512   4.570   9.984
62826SOL    HW288505  12.492   4.720   9.922
62827SOL     OW88506  12.002   4.997  10.732
62827SOL    HW188507  11.997   5.030  10.827
62827SOL    HW288508  11.916   5.016  10.686
62828SOL     OW88509  11.844   5.340   9.464
62828SOL    HW188510  11.853   5.350   9.365
62828SOL    HW288511  11.804   5.251   9.485
62829SOL     OW88512  11.435   4.050  10.030
62829SOL    HW188513  11.356   4.101   9.996
62829SOL    HW288514  11.426   4.035  10.128
62830SOL     OW88515  12.366   5.336   9.341
62830SOL    HW188516  12.372   5.243   9.378
62830SOL    HW288517  12.307   5.336   9.261
62831SOL     OW88518  11.994   4.726  10.682
62831SOL    HW188519  12.034   4.725  10.590
62831SOL    HW288520  12.004   4.818  10.722
62832SOL     OW88521  12.088   4.634   9.601
62832SOL    HW188522  12.151   4.672   9.533
62832SOL    HW288523  12.128   4.551   9.640
62833SOL     OW88524  11.544   5.012  10.800
62833SOL    HW188525  11.531   5.105  10.766
62833SOL    HW288526  11.460   4.960  10.787
62834SOL     OW88527  12.211   4.822  10.006
62834SOL    HW188528  12.141   4.775  10.060
62834SOL    HW288529  12.270   4.754   9.963
62835SOL     OW88530  12.186   3.960  10.281
62835SOL    HW188531  12.178   3.924  10.188
62835SOL    HW288532  12.184   3.884  10.346
62836SOL     OW88533  11.762   5.211   9.801
62836SOL    HW188534  11.804   5.153   9.731
62836SOL    HW288535  11.718   5.290   9.757
62837SOL     OW88536  11.427   5.072   9.600
62837SOL    HW188537  11.331   5.073   9.573
62837SOL    HW288538  11.439   5.125   9.684
62838SOL     OW88539  11.277   4.737  11.036
62838SOL    HW188540  11.200   4.704  11.090
62838SOL    HW288541  11.362   4.707  11.078
62839SOL     OW88542  11.844   3.927  10.799
62839SOL    HW188543  11.934   3.911  10.759
62839SOL    HW288544  11.852   3.932  10.898
62840SOL     OW88545  11.247   4.069   9.343
62840SOL    HW188546  11.155   4.041   9.314
62840SOL    HW288547  11.278   4.146   9.287
62841SOL     OW88548  12.612   4.580  10.708
62841SOL    HW188549  12.555   4.632  10.645
62841SOL    HW288550  12.708   4.592  10.684
62842SOL     OW88551  11.244   3.890   9.628
62842SOL    HW188552  11.227   3.973   9.574
62842SOL    HW288553  11.334   3.853   9.606
62843SOL     OW88554  12.355   5.059   9.429
62843SOL    HW188555  12.256   5.048   9.431
62843SOL    HW288556  12.389   5.074   9.522
62844SOL     OW88557  11.785   4.566  10.741
62844SOL    HW188558  11.841   4.647  10.724
62844SOL    HW288559  11.844   4.486  10.744
62845SOL     OW88560  11.888   4.289  11.018
62845SOL    HW188561  11.907   4.354  11.092
62845SOL    HW288562  11.948   4.209  11.027
62846SOL     OW88563  12.622   4.944  10.943
62846SOL    HW188564  12.613   4.934  11.042
62846SOL    HW288565  12.718   4.937  10.917
62847SOL     OW88566  11.562   5.465  10.870
62847SOL    HW188567  11.471   5.506  10.868
62847SOL    HW288568  11.555   5.371  10.902
62848SOL     OW88569  12.397   4.049   9.759
62848SOL    HW188570  12.462   3.975   9.748
62848SOL    HW288571  12.417   4.099   9.843
62849SOL     OW88572  11.766   4.469   9.962
62849SOL    HW188573  11.816   4.554   9.943
62849SOL    HW288574  11.678   4.471   9.914
62850SOL     OW88575  12.031   5.098   9.326
62850SOL    HW188576  11.985   5.113   9.414
62850SOL    HW288577  12.075   5.183   9.296
62851SOL     OW88578  11.833   5.514  10.263
62851SOL    HW188579  11.787   5.602  10.250
62851SOL    HW288580  11.932   5.526  10.256
62852SOL     OW88581  12.031   4.680  10.171
62852SOL    HW188582  12.085   4.611  10.219
62852SOL    HW288583  11.999   4.749  10.237
62853SOL     OW88584  12.255   4.708   9.397
62853SOL    HW188585  12.232   4.761   9.315
62853SOL    HW288586  12.336   4.652   9.378
62854SOL     OW88587  11.393   5.038  11.154
62854SOL    HW188588  11.328   4.965  11.133
62854SOL    HW288589  11.397   5.052  11.252
62855SOL     OW88590  11.251   4.964   9.963
62855SOL    HW188591  11.250   4.917  10.051
62855SOL    HW288592  11.333   4.936   9.912
62856SOL     OW88593  11.844   5.115  10.934
62856SOL    HW188594  11.766   5.065  10.972
62856SOL    HW288595  11.841   5.210  10.965
62857SOL     OW88596  11.600   4.148   9.830
62857SOL    HW188597  11.630   4.076   9.768
62857SOL    HW288598  11.561   4.108   9.913
62858SOL     OW88599  12.877   5.211  10.414
62858SOL    HW188600  12.784   5.186  10.387
62858SOL    HW288601  12.903   5.161  10.496
62859SOL     OW88602  11.489   4.271  10.590
62859SOL    HW188603  11.527   4.212  10.662
62859SOL    HW288604  11.529   4.245  10.502
62860SOL     OW88605  11.984   5.310   9.997
62860SOL    HW188606  12.016   5.320   9.903
62860SOL    HW288607  11.905   5.248   9.999
62861SOL     OW88608  12.596   3.938  10.422
62861SOL    HW188609  12.648   3.873  10.477
62861SOL    HW288610  12.547   4.001  10.483
62862SOL     OW88611  12.173   3.758  10.464
62862SOL    HW188612  12.110   3.686  10.433
62862SOL    HW288613  12.266   3.722  10.464
62863SOL     OW88614  11.942   5.054   9.611
62863SOL    HW188615  11.896   4.967   9.628
62863SOL    HW288616  12.033   5.051   9.652
62864SOL     OW88617  11.790   5.291  10.594
62864SOL    HW188618  11.785   5.373  10.651
62864SOL    HW288619  11.879   5.288  10.549
62865SOL     OW88620  12.524   3.776   9.478
62865SOL    HW188621  12.559   3.735   9.394
62865SOL    HW288622  12.434   3.738   9.498
62866SOL     OW88623  12.472   4.177  10.001
62866SOL    HW188624  12.413   4.257  10.005
62866SOL    HW288625  12.487   4.142  10.094
62867SOL     OW88626  11.211   4.801   9.610
62867SOL    HW188627  11.310   4.790   9.601
62867SOL    HW288628  11.171   4.715   9.642
62868SOL     OW88629  12.047   5.370   9.647
62868SOL    HW188630  11.970   5.335   9.593
62868SOL    HW288631  12.015   5.441   9.709
62869SOL     OW88632  11.402   4.352  11.285
62869SOL    HW188633  11.309   4.350  11.322
62869SOL    HW288634  11.403   4.313  11.193
62870SOL     OW88635  11.397   3.999  12.168
62870SOL    HW188636  11.432   3.982  12.260
62870SOL    HW288637  11.309   3.954  12.156
62871SOL     OW88638  11.191   4.092  11.819
62871SOL    HW188639  11.109   4.135  11.858
62871SOL    HW288640  11.163   4.019  11.756
62872SOL     OW88641  11.741   4.999  12.337
62872SOL    HW188642  11.648   4.992  12.300
62872SOL    HW288643  11.752   5.088  12.381
62873SOL     OW88644  12.727   5.235  11.875
62873SOL    HW188645  12.670   5.219  11.956
62873SOL    HW288646  12.668   5.245  11.795
62874SOL     OW88647  12.307   4.427  11.889
62874SOL    HW188648  12.364   4.505  11.864
62874SOL    HW288649  12.247   4.453  11.965
62875SOL     OW88650  11.940   4.868  12.195
62875SOL    HW188651  11.862   4.885  12.255
62875SOL    HW288652  11.974   4.955  12.159
62876SOL     OW88653  11.857   4.736  11.837
62876SOL    HW188654  11.926   4.720  11.907
62876SOL    HW288655  11.784   4.793  11.875
62877SOL     OW88656  11.507   5.159  12.233
62877SOL    HW188657  11.429   5.128  12.180
62877SOL    HW288658  11.565   5.217  12.176
62878SOL     OW88659  11.610   4.116  12.671
62878SOL    HW188660  11.692   4.060  12.680
62878SOL    HW288661  11.529   4.058  12.675
62879SOL     OW88662  11.403   5.437  11.655
62879SOL    HW188663  11.437   5.514  11.709
62879SOL    HW288664  11.447   5.437  11.565
62880SOL     OW88665  11.402   5.158  11.710
62880SOL    HW188666  11.376   5.254  11.710
62880SOL    HW288667  11.331   5.104  11.755
62881SOL     OW88668  11.412   4.815  12.058
62881SOL    HW188669  11.426   4.731  12.110
62881SOL    HW288670  11.357   4.879  12.113
62882SOL     OW88671  11.792   5.510  12.611
62882SOL    HW188672  11.700   5.493  12.646
62882SOL    HW288673  11.820   5.602  12.637
62883SOL     OW88674  11.778   4.688  11.295
62883SOL    HW188675  11.785   4.772  11.241
62883SOL    HW288676  11.824   4.701  11.383
62884SOL     OW88677  11.294   4.367  11.735
62884SOL    HW188678  11.249   4.279  11.752
62884SOL    HW288679  11.293   4.421  11.819
62885SOL     OW88680  11.199   5.320  11.289
62885SOL    HW188681  11.180   5.224  11.310
62885SOL    HW288682  11.166   5.378  11.364
62886SOL     OW88683  12.861   4.646  11.784
62886SOL    HW188684  12.956   4.617  11.792
62886SOL    HW288685  12.853   4.711  11.709
62887SOL     OW88686  11.785   5.089  11.898
62887SOL    HW188687  11.736   5.002  11.907
62887SOL    HW288688  11.762   5.132  11.811
62888SOL     OW88689  11.981   3.728  11.674
62888SOL    HW188690  12.021   3.819  11.665
62888SOL    HW288691  11.881   3.736  11.680
62889SOL     OW88692  11.369   4.700  12.436
62889SOL    HW188693  11.458   4.655  12.422
62889SOL    HW288694  11.296   4.635  12.417
62890SOL     OW88695  11.489   3.975  12.973
62890SOL    HW188696  11.560   4.046  12.979
62890SOL    HW288697  11.401   4.014  13.001
62891SOL     OW88698  12.638   5.141  12.125
62891SOL    HW188699  12.579   5.147  12.205
62891SOL    HW288700  12.623   5.053  12.079
62892SOL     OW88701  11.770   4.453  11.442
62892SOL    HW188702  11.794   4.522  11.374
62892SOL    HW288703  11.692   4.486  11.496
62893SOL     OW88704  12.453   4.069  12.116
62893SOL    HW188705  12.367   4.019  12.103
62893SOL    HW288706  12.515   4.015  12.172
62894SOL     OW88707  11.979   4.329  12.637
62894SOL    HW188708  11.932   4.326  12.726
62894SOL    HW288709  11.928   4.274  12.571
62895SOL     OW88710  12.163   4.134  12.414
62895SOL    HW188711  12.086   4.168  12.468
62895SOL    HW288712  12.129   4.083  12.335
62896SOL     OW88713  12.213   4.425  11.601
62896SOL    HW188714  12.239   4.421  11.697
62896SOL    HW288715  12.128   4.374  11.587
62897SOL     OW88716  11.248   4.535  11.961
62897SOL    HW188717  11.347   4.523  11.970
62897SOL    HW288718  11.224   4.630  11.982
62898SOL     OW88719  11.302   5.545  12.743
62898SOL    HW188720  11.292   5.530  12.842
62898SOL    HW288721  11.216   5.581  12.707
62899SOL     OW88722  12.037   4.072  11.367
62899SOL    HW188723  12.096   4.135  11.318
62899SOL    HW288724  12.056   3.978  11.338
62900SOL     OW88725  12.534   4.868  11.717
62900SOL    HW188726  12.617   4.839  11.669
62900SOL    HW288727  12.485   4.935  11.661
62901SOL     OW88728  11.722   3.920  12.057
62901SOL    HW188729  11.717   3.915  12.157
62901SOL    HW288730  11.724   4.016  12.028
62902SOL     OW88731  12.180   5.180  11.649
62902SOL    HW188732  12.134   5.252  11.597
62902SOL    HW288733  12.176   5.200  11.747
62903SOL     OW88734  11.523   5.525  12.025
62903SOL    HW188735  11.573   5.439  12.031
62903SOL    HW288736  11.588   5.602  12.022
62904SOL     OW88737  11.493   4.667  11.414
62904SOL    HW188738  11.575   4.706  11.372
62904SOL    HW288739  11.466   4.585  11.365
62905SOL     OW88740  12.283   5.500  11.409
62905SOL    HW188741  12.223   5.438  11.459
62905SOL    HW288742  12.314   5.456  11.324
62906SOL     OW88743  11.374   4.009  12.670
62906SOL    HW188744  11.294   4.069  12.657
62906SOL    HW288745  11.364   3.960  12.756
62907SOL     OW88746  11.636   5.467  11.495
62907SOL    HW188747  11.669   5.506  11.581
62907SOL    HW288748  11.712   5.460  11.430
62908SOL     OW88749  12.572   3.831  11.598
62908SOL    HW188750  12.548   3.794  11.508
62908SOL    HW288751  12.671   3.847  11.602
62909SOL     OW88752  11.421   5.509  12.413
62909SOL    HW188753  11.478   5.444  12.463
62909SOL    HW288754  11.405   5.476  12.320
62910SOL     OW88755  12.112   5.422  12.076
62910SOL    HW188756  12.192   5.365  12.097
62910SOL    HW288757  12.063   5.382  11.999
62911SOL     OW88758  11.554   4.424  11.652
62911SOL    HW188759  11.599   4.334  11.649
62911SOL    HW288760  11.460   4.413  11.685
62912SOL     OW88761  11.786   3.846  11.289
62912SOL    HW188762  11.884   3.824  11.296
62912SOL    HW288763  11.755   3.829  11.196
62913SOL     OW88764  12.060   5.238  12.367
62913SOL    HW188765  12.037   5.213  12.273
62913SOL    HW288766  12.121   5.169  12.406
62914SOL     OW88767  11.975   5.126  12.096
62914SOL    HW188768  12.065   5.140  12.054
62914SOL    HW288769  11.904   5.128  12.025
62915SOL     OW88770  12.094   4.227  12.071
62915SOL    HW188771  12.069   4.218  11.975
62915SOL    HW288772  12.142   4.145  12.102
62916SOL     OW88773  11.711   3.788  11.684
62916SOL    HW188774  11.630   3.789  11.742
62916SOL    HW288775  11.714   3.871  11.629
62917SOL     OW88776  12.606   4.912  11.213
62917SOL    HW188777  12.638   4.836  11.270
62917SOL    HW288778  12.514   4.939  11.243
62918SOL     OW88779  11.469   3.759  11.343
62918SOL    HW188780  11.518   3.843  11.322
62918SOL    HW288781  11.531   3.694  11.388
62919SOL     OW88782  12.107   3.960  11.652
62919SOL    HW188783  12.059   4.001  11.574
62919SOL    HW288784  12.206   3.958  11.633
62920SOL     OW88785  12.399   5.294  11.965
62920SOL    HW188786  12.420   5.368  11.900
62920SOL    HW288787  12.467   5.294  12.038
62921SOL     OW88788  11.631   4.876  11.913
62921SOL    HW188789  11.560   4.849  11.978
62921SOL    HW288790  11.605   4.848  11.820
62922SOL     OW88791  12.443   5.521  11.763
62922SOL    HW188792  12.487   5.585  11.699
62922SOL    HW288793  12.393   5.573  11.833
62923SOL     OW88794  12.204   4.273  11.188
62923SOL    HW188795  12.163   4.355  11.149
62923SOL    HW288796  12.268   4.299  11.261
62924SOL     OW88797  11.250   4.280  12.558
62924SOL    HW188798  11.342   4.279  12.517
62924SOL    HW288799  11.244   4.354  12.625
62925SOL     OW88800  11.733   3.946  12.319
62925SOL    HW188801  11.771   3.862  12.356
62925SOL    HW288802  11.645   3.965  12.363
62926SOL     OW88803  12.038   4.178  11.814
62926SOL    HW188804  12.006   4.250  11.752
62926SOL    HW288805  12.062   4.097  11.761
62927SOL     OW88806  12.189   3.763  11.925
62927SOL    HW188807  12.117   3.768  11.856
62927SOL    HW288808  12.165   3.694  11.994
62928SOL     OW88809  12.601   4.897  12.039
62928SOL    HW188810  12.546   4.813  12.032
62928SOL    HW288811  12.627   4.926  11.947
62929SOL     OW88812  11.660   5.109  11.346
62929SOL    HW188813  11.573   5.094  11.393
62929SOL    HW288814  11.643   5.135  11.251
62930SOL     OW88815  12.562   4.299  11.250
62930SOL    HW188816  12.508   4.278  11.331
62930SOL    HW288817  12.653   4.258  11.259
62931SOL     OW88818  11.699   3.980  11.500
62931SOL    HW188819  11.726   3.921  11.425
62931SOL    HW288820  11.699   4.075  11.469
62932SOL     OW88821  12.236   5.071  12.512
62932SOL    HW188822  12.156   5.048  12.567
62932SOL    HW288823  12.319   5.045  12.561
62933SOL     OW88824  12.283   4.919  12.272
62933SOL    HW188825  12.243   4.963  12.353
62933SOL    HW288826  12.242   4.956  12.189
62934SOL     OW88827  12.087   3.813  12.574
62934SOL    HW188828  12.112   3.793  12.479
62934SOL    HW288829  12.159   3.869  12.616
62935SOL     OW88830  11.877   4.774  11.540
62935SOL    HW188831  11.863   4.781  11.639
62935SOL    HW288832  11.961   4.723  11.522
62936SOL     OW88833  11.582   4.537  12.423
62936SOL    HW188834  11.668   4.549  12.473
62936SOL    HW288835  11.540   4.450  12.450
62937SOL     OW88836  12.446   4.110  12.434
62937SOL    HW188837  12.467   4.184  12.498
62937SOL    HW288838  12.357   4.127  12.391
62938SOL     OW88839  11.236   5.288  12.503
62938SOL    HW188840  11.190   5.370  12.469
62938SOL    HW288841  11.334   5.307  12.512
62939SOL     OW88842  11.539   4.824  11.673
62939SOL    HW188843  11.532   4.907  11.617
62939SOL    HW288844  11.543   4.744  11.613
62940SOL     OW88845  11.738   4.261  12.037
62940SOL    HW188846  11.750   4.327  11.963
62940SOL    HW288847  11.784   4.295  12.120
62941SOL     OW88848  12.424   5.072  11.560
62941SOL    HW188849  12.474   5.149  11.600
62941SOL    HW288850  12.329   5.074  11.592
62942SOL     OW88851  12.444   5.169  12.314
62942SOL    HW188852  12.491   5.182  12.401
62942SOL    HW288853  12.378   5.095  12.323
62943SOL     OW88854  11.526   5.234  12.501
62943SOL    HW188855  11.505   5.190  12.414
62943SOL    HW288856  11.623   5.260  12.504
62944SOL     OW88857  11.574   4.475  12.770
62944SOL    HW188858  11.642   4.530  12.723
62944SOL    HW288859  11.614   4.387  12.797
62945SOL     OW88860  12.759   4.503  12.842
62945SOL    HW188861  12.667   4.541  12.837
62945SOL    HW288862  12.819   4.550  12.777
62946SOL     OW88863  11.745   4.594  12.201
62946SOL    HW188864  11.789   4.683  12.192
62946SOL    HW288865  11.682   4.594  12.278
62947SOL     OW88866  12.532   4.586  12.217
62947SOL    HW188867  12.457   4.586  12.151
62947SOL    HW288868  12.569   4.494  12.226
62948SOL     OW88869  12.381   4.249  11.447
62948SOL    HW188870  12.394   4.165  11.501
62948SOL    HW288871  12.352   4.323  11.507
62949SOL     OW88872  11.479   3.937  12.403
62949SOL    HW188873  11.456   3.974  12.493
62949SOL    HW288874  11.449   3.842  12.397
62950SOL     OW88875  11.209   5.034  12.454
62950SOL    HW188876  11.262   4.985  12.522
62950SOL    HW288877  11.231   5.132  12.459
62951SOL     OW88878  11.904   4.358  12.236
62951SOL    HW188879  11.963   4.332  12.160
62951SOL    HW288880  11.876   4.454  12.225
62952SOL     OW88881  11.479   3.787  11.790
62952SOL    HW188882  11.468   3.881  11.823
62952SOL    HW288883  11.474   3.724  11.867
62953SOL     OW88884  12.794   4.091  11.546
62953SOL    HW188885  12.796   4.015  11.610
62953SOL    HW288886  12.746   4.168  11.586
62954SOL     OW88887  12.195   4.490  12.138
62954SOL    HW188888  12.210   4.511  12.234
62954SOL    HW288889  12.165   4.395  12.129
62955SOL     OW88890  12.152   5.297  12.872
62955SOL    HW188891  12.132   5.341  12.784
62955SOL    HW288892  12.191   5.206  12.856
62956SOL     OW88893  12.475   4.562  11.214
62956SOL    HW188894  12.509   4.469  11.229
62956SOL    HW288895  12.493   4.589  11.119
62957SOL     OW88896  12.240   5.057  12.021
62957SOL    HW188897  12.247   4.973  11.966
62957SOL    HW288898  12.302   5.126  11.985
62958SOL     OW88899  11.491   4.534  12.121
62958SOL    HW188900  11.584   4.570  12.126
62958SOL    HW288901  11.485   4.449  12.173
62959SOL     OW88902  11.511   4.233  12.178
62959SOL    HW188903  11.459   4.150  12.161
62959SOL    HW288904  11.588   4.238  12.114
62960SOL     OW88905  12.310   4.104  12.850
62960SOL    HW188906  12.265   4.167  12.914
62960SOL    HW288907  12.403   4.135  12.833
62961SOL     OW88908  12.332   3.931  12.649
62961SOL    HW188909  12.332   3.995  12.726
62961SOL    HW288910  12.360   3.979  12.566
62962SOL     OW88911  11.180   5.050  11.372
62962SOL    HW188912  11.087   5.071  11.341
62962SOL    HW288913  11.190   4.951  11.385
62963SOL     OW88914  11.260   5.525  12.099
62963SOL    HW188915  11.218   5.439  12.072
62963SOL    HW288916  11.354   5.528  12.065
62964SOL     OW88917  11.676   5.292  12.082
62964SOL    HW188918  11.742   5.366  12.091
62964SOL    HW288919  11.720   5.213  12.040
62965SOL     OW88920  12.174   4.520  12.410
62965SOL    HW188921  12.215   4.488  12.496
62965SOL    HW288922  12.078   4.493  12.407
62966SOL     OW88923  11.212   4.268  12.286
62966SOL    HW188924  11.297   4.235  12.245
62966SOL    HW288925  11.225   4.283  12.384
62967SOL     OW88926  11.987   4.296  11.497
62967SOL    HW188927  11.994   4.207  11.451
62967SOL    HW288928  11.893   4.330  11.489
62968SOL     OW88929  11.843   4.188  12.441
62968SOL    HW188930  11.809   4.099  12.411
62968SOL    HW288931  11.869   4.242  12.361
62969SOL     OW88932  12.102   5.402  12.637
62969SOL    HW188933  12.078   5.384  12.542
62969SOL    HW288934  12.132   5.496  12.647
62970SOL     OW88935  11.645   4.224  11.363
62970SOL    HW188936  11.706   4.304  11.367
62970SOL    HW288937  11.550   4.255  11.370
62971SOL     OW88938  11.331   4.861  12.638
62971SOL    HW188939  11.353   4.800  12.714
62971SOL    HW288940  11.341   4.812  12.552
62972SOL     OW88941  12.519   4.783  12.406
62972SOL    HW188942  12.543   4.720  12.332
62972SOL    HW288943  12.429   4.823  12.388
62973SOL     OW88944  12.474   4.579  11.481
62973SOL    HW188945  12.388   4.548  11.523
62973SOL    HW288946  12.470   4.565  11.382
62974SOL     OW88947  12.424   5.455  12.300
62974SOL    HW188948  12.508   5.460  12.246
62974SOL    HW288949  12.401   5.359  12.318
62975SOL     OW88950  11.255   4.982  12.194
62975SOL    HW188951  11.250   4.981  12.294
62975SOL    HW288952  11.172   4.941  12.156
62976SOL     OW88953  12.898   3.859  11.695
62976SOL    HW188954  12.971   3.842  11.628
62976SOL    HW288955  12.867   3.772  11.733
62977SOL     OW88956  12.560   5.297  11.649
62977SOL    HW188957  12.627   5.309  11.575
62977SOL    HW288958  12.520   5.386  11.672
62978SOL     OW88959  12.452   4.651  11.844
62978SOL    HW188960  12.512   4.570  11.846
62978SOL    HW288961  12.492   4.720  11.784
62979SOL     OW88962  11.844   5.340  11.326
62979SOL    HW188963  11.853   5.350  11.227
62979SOL    HW288964  11.804   5.251  11.347
62980SOL     OW88965  11.435   4.050  11.892
62980SOL    HW188966  11.356   4.101  11.858
62980SOL    HW288967  11.426   4.035  11.990
62981SOL     OW88968  12.366   5.336  11.203
62981SOL    HW188969  12.372   5.243  11.240
62981SOL    HW288970  12.307   5.336  11.123
62982SOL     OW88971  11.994   4.726  12.544
62982SOL    HW188972  12.034   4.725  12.452
62982SOL    HW288973  12.004   4.818  12.584
62983SOL     OW88974  12.088   4.634  11.463
62983SOL    HW188975  12.151   4.672  11.395
62983SOL    HW288976  12.128   4.551  11.502
62984SOL     OW88977  11.544   5.012  12.662
62984SOL    HW188978  11.531   5.105  12.628
62984SOL    HW288979  11.460   4.960  12.649
62985SOL     OW88980  12.211   4.822  11.868
62985SOL    HW188981  12.141   4.775  11.922
62985SOL    HW288982  12.270   4.754  11.825
62986SOL     OW88983  12.186   3.960  12.143
62986SOL    HW188984  12.178   3.924  12.050
62986SOL    HW288985  12.184   3.884  12.208
62987SOL     OW88986  11.762   5.211  11.663
62987SOL    HW188987  11.804   5.153  11.593
62987SOL    HW288988  11.718   5.290  11.619
62988SOL     OW88989  11.427   5.072  11.462
62988SOL    HW188990  11.331   5.073  11.435
62988SOL    HW288991  11.439   5.125  11.546
62989SOL     OW88992  11.247   4.069  11.205
62989SOL    HW188993  11.155   4.041  11.176
62989SOL    HW288994  11.278   4.146  11.149
62990SOL     OW88995  12.612   4.580  12.570
62990SOL    HW188996  12.555   4.632  12.507
62990SOL    HW288997  12.708   4.592  12.546
62991SOL     OW88998  11.244   3.890  11.490
62991SOL    HW188999  11.227   3.973  11.436
62991SOL    HW289000  11.334   3.853  11.468
62992SOL     OW89001  12.355   5.059  11.291
62992SOL    HW189002  12.256   5.048  11.293
62992SOL    HW289003  12.389   5.074  11.384
62993SOL     OW89004  11.785   4.566  12.603
62993SOL    HW189005  11.841   4.647  12.586
62993SOL    HW289006  11.844   4.486  12.606
62994SOL     OW89007  11.562   5.465  12.732
62994SOL    HW189008  11.471   5.506  12.730
62994SOL    HW289009  11.555   5.371  12.764
62995SOL     OW89010  12.397   4.049  11.621
62995SOL    HW189011  12.462   3.975  11.610
62995SOL    HW289012  12.417   4.099  11.705
62996SOL     OW89013  11.766   4.469  11.824
62996SOL    HW189014  11.816   4.554  11.805
62996SOL    HW289015  11.678   4.471  11.776
62997SOL     OW89016  12.031   5.098  11.188
62997SOL    HW189017  11.985   5.113  11.276
62997SOL    HW289018  12.075   5.183  11.158
62998SOL     OW89019  11.833   5.514  12.125
62998SOL    HW189020  11.787   5.602  12.112
62998SOL    HW289021  11.932   5.526  12.118
62999SOL     OW89022  12.031   4.680  12.033
62999SOL    HW189023  12.085   4.611  12.081
62999SOL    HW289024  11.999   4.749  12.099
63000SOL     OW89025  12.255   4.708  11.259
63000SOL    HW189026  12.232   4.761  11.177
63000SOL    HW289027  12.336   4.652  11.240
63001SOL     OW89028  11.251   4.964  11.825
63001SOL    HW189029  11.250   4.917  11.913
63001SOL    HW289030  11.333   4.936  11.774
63002SOL     OW89031  11.600   4.148  11.692
63002SOL    HW189032  11.630   4.076  11.630
63002SOL    HW289033  11.561   4.108  11.775
63003SOL     OW89034  12.877   5.211  12.276
63003SOL    HW189035  12.784   5.186  12.249
63003SOL    HW289036  12.903   5.161  12.358
63004SOL     OW89037  11.489   4.271  12.452
63004SOL    HW189038  11.527   4.212  12.524
63004SOL    HW289039  11.529   4.245  12.364
63005SOL     OW89040  11.984   5.310  11.859
63005SOL    HW189041  12.016   5.320  11.765
63005SOL    HW289042  11.905   5.248  11.861
63006SOL     OW89043  12.596   3.938  12.284
63006SOL    HW189044  12.648   3.873  12.339
63006SOL    HW289045  12.547   4.001  12.345
63007SOL     OW89046  12.173   3.758  12.326
63007SOL    HW189047  12.110   3.686  12.295
63007SOL    HW289048  12.266   3.722  12.326
63008SOL     OW89049  11.942   5.054  11.473
63008SOL    HW189050  11.896   4.967  11.490
63008SOL    HW289051  12.033   5.051  11.514
63009SOL     OW89052  11.790   5.291  12.456
63009SOL    HW189053  11.785   5.373  12.513
63009SOL    HW289054  11.879   5.288  12.411
63010SOL     OW89055  12.524   3.776  11.340
63010SOL    HW189056  12.559   3.735  11.256
63010SOL    HW289057  12.434   3.738  11.360
63011SOL     OW89058  12.472   4.177  11.863
63011SOL    HW189059  12.413   4.257  11.867
63011SOL    HW289060  12.487   4.142  11.956
63012SOL     OW89061  11.211   4.801  11.472
63012SOL    HW189062  11.310   4.790  11.463
63012SOL    HW289063  11.171   4.715  11.504
63013SOL     OW89064  12.047   5.370  11.509
63013SOL    HW189065  11.970   5.335  11.455
63013SOL    HW289066  12.015   5.441  11.571
63014SOL     OW89067  11.402   6.214   0.113
63014SOL    HW189068  11.309   6.212   0.150
63014SOL    HW289069  11.403   6.175   0.021
63015SOL     OW89070  11.397   5.861   0.996
63015SOL    HW189071  11.432   5.844   1.088
63015SOL    HW289072  11.309   5.816   0.984
63016SOL     OW89073  11.191   5.954   0.647
63016SOL    HW189074  11.109   5.997   0.686
63016SOL    HW289075  11.163   5.881   0.584
63017SOL     OW89076  11.741   6.861   1.165
63017SOL    HW189077  11.648   6.854   1.128
63017SOL    HW289078  11.752   6.950   1.209
63018SOL     OW89079  12.727   7.097   0.703
63018SOL    HW189080  12.670   7.081   0.784
63018SOL    HW289081  12.668   7.107   0.623
63019SOL     OW89082  12.307   6.289   0.717
63019SOL    HW189083  12.364   6.367   0.692
63019SOL    HW289084  12.247   6.315   0.793
63020SOL     OW89085  11.940   6.730   1.023
63020SOL    HW189086  11.862   6.747   1.083
63020SOL    HW289087  11.974   6.817   0.987
63021SOL     OW89088  12.022   6.384   1.823
63021SOL    HW189089  12.018   6.460   1.888
63021SOL    HW289090  12.044   6.420   1.732
63022SOL     OW89091  11.857   6.598   0.665
63022SOL    HW189092  11.926   6.582   0.735
63022SOL    HW289093  11.784   6.655   0.703
63023SOL     OW89094  11.858   6.747   1.803
63023SOL    HW189095  11.918   6.826   1.817
63023SOL    HW289096  11.772   6.778   1.762
63024SOL     OW89097  11.507   7.021   1.061
63024SOL    HW189098  11.429   6.990   1.008
63024SOL    HW289099  11.565   7.079   1.004
63025SOL     OW89100  11.610   5.978   1.499
63025SOL    HW189101  11.692   5.922   1.508
63025SOL    HW289102  11.529   5.920   1.503
63026SOL     OW89103  11.403   7.299   0.483
63026SOL    HW189104  11.437   7.376   0.537
63026SOL    HW289105  11.447   7.299   0.393
63027SOL     OW89106  12.299   6.927   1.690
63027SOL    HW189107  12.346   6.927   1.778
63027SOL    HW289108  12.251   6.840   1.679
63028SOL     OW89109  11.402   7.020   0.538
63028SOL    HW189110  11.376   7.116   0.538
63028SOL    HW289111  11.331   6.966   0.583
63029SOL     OW89112  11.412   6.677   0.886
63029SOL    HW189113  11.426   6.593   0.938
63029SOL    HW289114  11.357   6.741   0.941
63030SOL     OW89115  11.792   7.372   1.439
63030SOL    HW189116  11.700   7.355   1.474
63030SOL    HW289117  11.820   7.464   1.465
63031SOL     OW89118  11.778   6.550   0.123
63031SOL    HW189119  11.785   6.634   0.069
63031SOL    HW289120  11.824   6.563   0.211
63032SOL     OW89121  11.294   6.229   0.563
63032SOL    HW189122  11.249   6.141   0.580
63032SOL    HW289123  11.293   6.283   0.647
63033SOL     OW89124  11.199   7.182   0.117
63033SOL    HW189125  11.180   7.086   0.138
63033SOL    HW289126  11.166   7.240   0.192
63034SOL     OW89127  12.861   6.508   0.612
63034SOL    HW189128  12.956   6.479   0.620
63034SOL    HW289129  12.853   6.573   0.537
63035SOL     OW89130  11.285   6.323   1.597
63035SOL    HW189131  11.373   6.310   1.642
63035SOL    HW289132  11.272   6.420   1.575
63036SOL     OW89133  11.785   6.951   0.726
63036SOL    HW189134  11.736   6.864   0.735
63036SOL    HW289135  11.762   6.994   0.639
63037SOL     OW89136  12.465   6.814   1.423
63037SOL    HW189137  12.502   6.741   1.365
63037SOL    HW289138  12.517   6.819   1.508
63038SOL     OW89139  11.981   5.590   0.502
63038SOL    HW189140  12.021   5.681   0.493
63038SOL    HW289141  11.881   5.598   0.508
63039SOL     OW89142  11.369   6.562   1.264
63039SOL    HW189143  11.458   6.517   1.250
63039SOL    HW289144  11.296   6.497   1.245
63040SOL     OW89145  12.359   7.378   1.616
63040SOL    HW189146  12.383   7.438   1.540
63040SOL    HW289147  12.366   7.283   1.586
63041SOL     OW89148  11.489   5.837   1.801
63041SOL    HW189149  11.560   5.908   1.807
63041SOL    HW289150  11.401   5.876   1.829
63042SOL     OW89151  12.638   7.003   0.953
63042SOL    HW189152  12.579   7.009   1.033
63042SOL    HW289153  12.623   6.915   0.907
63043SOL     OW89154  11.770   6.315   0.270
63043SOL    HW189155  11.794   6.384   0.202
63043SOL    HW289156  11.692   6.348   0.324
63044SOL     OW89157  12.453   5.931   0.944
63044SOL    HW189158  12.367   5.881   0.931
63044SOL    HW289159  12.515   5.877   1.000
63045SOL     OW89160  11.979   6.191   1.465
63045SOL    HW189161  11.932   6.188   1.554
63045SOL    HW289162  11.928   6.136   1.399
63046SOL     OW89163  12.566   6.055   1.674
63046SOL    HW189164  12.546   6.098   1.762
63046SOL    HW289165  12.644   5.993   1.683
63047SOL     OW89166  12.145   6.476   1.572
63047SOL    HW189167  12.191   6.392   1.543
63047SOL    HW289168  12.089   6.510   1.497
63048SOL     OW89169  12.163   5.996   1.242
63048SOL    HW189170  12.086   6.030   1.296
63048SOL    HW289171  12.129   5.945   1.163
63049SOL     OW89172  12.213   6.287   0.429
63049SOL    HW189173  12.239   6.283   0.525
63049SOL    HW289174  12.128   6.236   0.415
63050SOL     OW89175  11.248   6.397   0.789
63050SOL    HW189176  11.347   6.385   0.798
63050SOL    HW289177  11.224   6.492   0.810
63051SOL     OW89178  11.302   7.407   1.571
63051SOL    HW189179  11.292   7.392   1.670
63051SOL    HW289180  11.216   7.443   1.535
63052SOL     OW89181  12.037   5.934   0.195
63052SOL    HW189182  12.096   5.997   0.146
63052SOL    HW289183  12.056   5.840   0.166
63053SOL     OW89184  12.534   6.730   0.545
63053SOL    HW189185  12.617   6.701   0.497
63053SOL    HW289186  12.485   6.797   0.489
63054SOL     OW89187  11.722   5.782   0.885
63054SOL    HW189188  11.717   5.777   0.985
63054SOL    HW289189  11.724   5.878   0.856
63055SOL     OW89190  12.180   7.042   0.477
63055SOL    HW189191  12.134   7.114   0.425
63055SOL    HW289192  12.176   7.062   0.575
63056SOL     OW89193  11.523   7.387   0.853
63056SOL    HW189194  11.573   7.301   0.859
63056SOL    HW289195  11.588   7.464   0.850
63057SOL     OW89196  12.399   7.136   1.506
63057SOL    HW189197  12.405   7.059   1.570
63057SOL    HW289198  12.347   7.110   1.426
63058SOL     OW89199  11.493   6.529   0.242
63058SOL    HW189200  11.575   6.568   0.200
63058SOL    HW289201  11.466   6.447   0.193
63059SOL     OW89202  11.633   6.852   1.727
63059SOL    HW189203  11.583   6.853   1.641
63059SOL    HW289204  11.570   6.834   1.803
63060SOL     OW89205  12.283   7.362   0.237
63060SOL    HW189206  12.223   7.300   0.287
63060SOL    HW289207  12.314   7.318   0.152
63061SOL     OW89208  11.374   5.871   1.498
63061SOL    HW189209  11.294   5.931   1.485
63061SOL    HW289210  11.364   5.822   1.584
63062SOL     OW89211  11.636   7.329   0.323
63062SOL    HW189212  11.669   7.368   0.409
63062SOL    HW289213  11.712   7.322   0.258
63063SOL     OW89214  12.572   5.693   0.426
63063SOL    HW189215  12.548   5.656   0.336
63063SOL    HW289216  12.671   5.709   0.430
63064SOL     OW89217  11.421   7.371   1.241
63064SOL    HW189218  11.478   7.306   1.291
63064SOL    HW289219  11.405   7.338   1.148
63065SOL     OW89220  12.112   7.284   0.904
63065SOL    HW189221  12.192   7.227   0.925
63065SOL    HW289222  12.063   7.244   0.827
63066SOL     OW89223  11.554   6.286   0.480
63066SOL    HW189224  11.599   6.196   0.477
63066SOL    HW289225  11.460   6.275   0.513
63067SOL     OW89226  11.786   5.708   0.117
63067SOL    HW189227  11.884   5.686   0.124
63067SOL    HW289228  11.755   5.691   0.024
63068SOL     OW89229  11.953   5.850   1.749
63068SOL    HW189230  12.020   5.789   1.792
63068SOL    HW289231  11.880   5.869   1.814
63069SOL     OW89232  12.060   7.100   1.195
63069SOL    HW189233  12.037   7.075   1.101
63069SOL    HW289234  12.121   7.031   1.234
63070SOL     OW89235  12.523   6.176   1.433
63070SOL    HW189236  12.551   6.133   1.518
63070SOL    HW289237  12.548   6.272   1.434
63071SOL     OW89238  11.975   6.988   0.924
63071SOL    HW189239  12.065   7.002   0.882
63071SOL    HW289240  11.904   6.990   0.853
63072SOL     OW89241  12.094   6.089   0.899
63072SOL    HW189242  12.069   6.080   0.803
63072SOL    HW289243  12.142   6.007   0.930
63073SOL     OW89244  11.711   5.650   0.512
63073SOL    HW189245  11.630   5.651   0.570
63073SOL    HW289246  11.714   5.733   0.457
63074SOL     OW89247  12.606   6.774   0.041
63074SOL    HW189248  12.638   6.698   0.098
63074SOL    HW289249  12.514   6.801   0.071
63075SOL     OW89250  11.469   5.621   0.171
63075SOL    HW189251  11.518   5.705   0.150
63075SOL    HW289252  11.531   5.556   0.216
63076SOL     OW89253  12.107   5.822   0.480
63076SOL    HW189254  12.059   5.863   0.402
63076SOL    HW289255  12.206   5.820   0.461
63077SOL     OW89256  12.248   6.269   1.464
63077SOL    HW189257  12.168   6.208   1.467
63077SOL    HW289258  12.329   6.216   1.440
63078SOL     OW89259  12.399   7.156   0.793
63078SOL    HW189260  12.420   7.230   0.728
63078SOL    HW289261  12.467   7.156   0.866
63079SOL     OW89262  11.631   6.738   0.741
63079SOL    HW189263  11.560   6.711   0.806
63079SOL    HW289264  11.605   6.710   0.648
63080SOL     OW89265  12.443   7.383   0.591
63080SOL    HW189266  12.487   7.447   0.527
63080SOL    HW289267  12.393   7.435   0.661
63081SOL     OW89268  12.204   6.135   0.016
63081SOL    HW189269  12.163   6.217  -0.023
63081SOL    HW289270  12.268   6.161   0.089
63082SOL     OW89271  11.250   6.142   1.386
63082SOL    HW189272  11.342   6.141   1.345
63082SOL    HW289273  11.244   6.216   1.453
63083SOL     OW89274  11.733   5.808   1.147
63083SOL    HW189275  11.771   5.724   1.184
63083SOL    HW289276  11.645   5.827   1.191
63084SOL     OW89277  12.038   6.040   0.642
63084SOL    HW189278  12.006   6.112   0.580
63084SOL    HW289279  12.062   5.959   0.589
63085SOL     OW89280  12.189   5.625   0.753
63085SOL    HW189281  12.117   5.630   0.684
63085SOL    HW289282  12.165   5.556   0.822
63086SOL     OW89283  12.601   6.759   0.867
63086SOL    HW189284  12.546   6.675   0.860
63086SOL    HW289285  12.627   6.788   0.775
63087SOL     OW89286  11.660   6.971   0.174
63087SOL    HW189287  11.573   6.956   0.221
63087SOL    HW289288  11.643   6.997   0.079
63088SOL     OW89289  12.562   6.161   0.078
63088SOL    HW189290  12.508   6.140   0.159
63088SOL    HW289291  12.653   6.120   0.087
63089SOL     OW89292  11.699   5.842   0.328
63089SOL    HW189293  11.726   5.783   0.253
63089SOL    HW289294  11.699   5.937   0.297
63090SOL     OW89295  12.236   6.933   1.340
63090SOL    HW189296  12.156   6.910   1.395
63090SOL    HW289297  12.319   6.907   1.389
63091SOL     OW89298  12.764   7.215   1.625
63091SOL    HW189299  12.791   7.249   1.535
63091SOL    HW289300  12.843   7.177   1.671
63092SOL     OW89301  12.283   6.781   1.100
63092SOL    HW189302  12.243   6.825   1.181
63092SOL    HW289303  12.242   6.818   1.017
63093SOL     OW89304  12.087   5.675   1.402
63093SOL    HW189305  12.112   5.655   1.307
63093SOL    HW289306  12.159   5.731   1.444
63094SOL     OW89307  12.152   6.702   1.719
63094SOL    HW189308  12.053   6.708   1.729
63094SOL    HW289309  12.175   6.622   1.663
63095SOL     OW89310  11.877   6.636   0.368
63095SOL    HW189311  11.863   6.643   0.467
63095SOL    HW289312  11.961   6.585   0.350
63096SOL     OW89313  11.582   6.399   1.251
63096SOL    HW189314  11.668   6.411   1.301
63096SOL    HW289315  11.540   6.312   1.278
63097SOL     OW89316  12.446   5.972   1.262
63097SOL    HW189317  12.467   6.046   1.326
63097SOL    HW289318  12.357   5.989   1.219
63098SOL     OW89319  11.236   7.150   1.331
63098SOL    HW189320  11.190   7.232   1.297
63098SOL    HW289321  11.334   7.169   1.340
63099SOL     OW89322  11.539   6.686   0.501
63099SOL    HW189323  11.532   6.769   0.445
63099SOL    HW289324  11.543   6.606   0.441
63100SOL     OW89325  11.738   6.123   0.865
63100SOL    HW189326  11.750   6.189   0.791
63100SOL    HW289327  11.784   6.157   0.948
63101SOL     OW89328  12.424   6.934   0.388
63101SOL    HW189329  12.474   7.011   0.428
63101SOL    HW289330  12.329   6.936   0.420
63102SOL     OW89331  12.444   7.031   1.142
63102SOL    HW189332  12.491   7.044   1.229
63102SOL    HW289333  12.378   6.957   1.151
63103SOL     OW89334  11.526   7.096   1.329
63103SOL    HW189335  11.505   7.052   1.242
63103SOL    HW289336  11.623   7.122   1.332
63104SOL     OW89337  11.574   6.337   1.598
63104SOL    HW189338  11.642   6.392   1.551
63104SOL    HW289339  11.614   6.249   1.625
63105SOL     OW89340  12.185   5.691   1.770
63105SOL    HW189341  12.191   5.776   1.718
63105SOL    HW289342  12.217   5.615   1.713
63106SOL     OW89343  11.676   5.636   1.740
63106SOL    HW189344  11.634   5.579   1.670
63106SOL    HW289345  11.610   5.705   1.772
63107SOL     OW89346  11.745   6.456   1.029
63107SOL    HW189347  11.789   6.545   1.020
63107SOL    HW289348  11.682   6.456   1.106
63108SOL     OW89349  12.532   6.448   1.045
63108SOL    HW189350  12.457   6.448   0.979
63108SOL    HW289351  12.569   6.356   1.054
63109SOL     OW89352  12.381   6.111   0.275
63109SOL    HW189353  12.394   6.027   0.329
63109SOL    HW289354  12.352   6.185   0.335
63110SOL     OW89355  11.479   5.799   1.231
63110SOL    HW189356  11.456   5.836   1.321
63110SOL    HW289357  11.449   5.704   1.225
63111SOL     OW89358  11.209   6.896   1.282
63111SOL    HW189359  11.262   6.847   1.350
63111SOL    HW289360  11.231   6.994   1.287
63112SOL     OW89361  11.904   6.220   1.064
63112SOL    HW189362  11.963   6.194   0.988
63112SOL    HW289363  11.876   6.316   1.053
63113SOL     OW89364  11.479   5.649   0.618
63113SOL    HW189365  11.468   5.743   0.651
63113SOL    HW289366  11.474   5.586   0.695
63114SOL     OW89367  12.794   5.953   0.374
63114SOL    HW189368  12.796   5.877   0.438
63114SOL    HW289369  12.746   6.030   0.414
63115SOL     OW89370  12.195   6.352   0.966
63115SOL    HW189371  12.210   6.373   1.062
63115SOL    HW289372  12.165   6.257   0.957
63116SOL     OW89373  12.152   7.159   1.700
63116SOL    HW189374  12.132   7.203   1.612
63116SOL    HW289375  12.191   7.068   1.684
63117SOL     OW89376  11.522   6.484   1.804
63117SOL    HW189377  11.598   6.528   1.852
63117SOL    HW289378  11.557   6.437   1.722
63118SOL     OW89379  12.475   6.424   0.042
63118SOL    HW189380  12.509   6.331   0.057
63118SOL    HW289381  12.493   6.451  -0.053
63119SOL     OW89382  12.240   6.919   0.849
63119SOL    HW189383  12.247   6.835   0.794
63119SOL    HW289384  12.302   6.988   0.813
63120SOL     OW89385  11.491   6.396   0.949
63120SOL    HW189386  11.584   6.432   0.954
63120SOL    HW289387  11.485   6.311   1.001
63121SOL     OW89388  11.511   6.095   1.006
63121SOL    HW189389  11.459   6.012   0.989
63121SOL    HW289390  11.588   6.100   0.942
63122SOL     OW89391  12.310   5.966   1.678
63122SOL    HW189392  12.265   6.029   1.742
63122SOL    HW289393  12.403   5.997   1.661
63123SOL     OW89394  12.332   5.793   1.477
63123SOL    HW189395  12.332   5.857   1.554
63123SOL    HW289396  12.360   5.841   1.394
63124SOL     OW89397  11.180   6.912   0.200
63124SOL    HW189398  11.087   6.933   0.169
63124SOL    HW289399  11.190   6.813   0.213
63125SOL     OW89400  11.260   7.387   0.927
63125SOL    HW189401  11.218   7.301   0.900
63125SOL    HW289402  11.354   7.390   0.893
63126SOL     OW89403  11.676   7.154   0.910
63126SOL    HW189404  11.742   7.228   0.919
63126SOL    HW289405  11.720   7.075   0.868
63127SOL     OW89406  12.174   6.382   1.238
63127SOL    HW189407  12.215   6.350   1.324
63127SOL    HW289408  12.078   6.355   1.235
63128SOL     OW89409  11.212   6.130   1.114
63128SOL    HW189410  11.297   6.097   1.073
63128SOL    HW289411  11.225   6.145   1.212
63129SOL     OW89412  11.361   6.106   1.722
63129SOL    HW189413  11.420   6.066   1.652
63129SOL    HW289414  11.303   6.177   1.681
63130SOL     OW89415  12.541   6.536   1.660
63130SOL    HW189416  12.580   6.625   1.680
63130SOL    HW289417  12.551   6.516   1.563
63131SOL     OW89418  11.987   6.158   0.325
63131SOL    HW189419  11.994   6.069   0.279
63131SOL    HW289420  11.893   6.192   0.317
63132SOL     OW89421  11.424   7.150   1.744
63132SOL    HW189422  11.394   7.207   1.820
63132SOL    HW289423  11.417   7.053   1.770
63133SOL     OW89424  11.843   6.050   1.269
63133SOL    HW189425  11.809   5.961   1.239
63133SOL    HW289426  11.869   6.104   1.189
63134SOL     OW89427  12.102   7.264   1.465
63134SOL    HW189428  12.078   7.246   1.370
63134SOL    HW289429  12.132   7.358   1.475
63135SOL     OW89430  11.645   6.086   0.191
63135SOL    HW189431  11.706   6.166   0.195
63135SOL    HW289432  11.550   6.117   0.198
63136SOL     OW89433  11.331   6.723   1.466
63136SOL    HW189434  11.353   6.662   1.542
63136SOL    HW289435  11.341   6.674   1.380
63137SOL     OW89436  12.519   6.645   1.234
63137SOL    HW189437  12.543   6.582   1.160
63137SOL    HW289438  12.429   6.685   1.216
63138SOL     OW89439  12.474   6.441   0.309
63138SOL    HW189440  12.388   6.410   0.351
63138SOL    HW289441  12.470   6.427   0.210
63139SOL     OW89442  12.424   7.317   1.128
63139SOL    HW189443  12.508   7.322   1.074
63139SOL    HW289444  12.401   7.221   1.146
63140SOL     OW89445  11.255   6.844   1.022
63140SOL    HW189446  11.250   6.843   1.122
63140SOL    HW289447  11.172   6.803   0.984
63141SOL     OW89448  11.860   7.248   1.716
63141SOL    HW189449  11.804   7.329   1.725
63141SOL    HW289450  11.912   7.252   1.630
63142SOL     OW89451  12.075   5.672   0.133
63142SOL    HW189452  12.126   5.673   0.047
63142SOL    HW289453  12.131   5.630   0.204
63143SOL     OW89454  12.898   5.721   0.523
63143SOL    HW189455  12.971   5.704   0.456
63143SOL    HW289456  12.867   5.634   0.561
63144SOL     OW89457  12.560   7.159   0.477
63144SOL    HW189458  12.627   7.171   0.403
63144SOL    HW289459  12.520   7.248   0.500
63145SOL     OW89460  11.302   7.380   1.851
63145SOL    HW189461  11.261   7.306   1.904
63145SOL    HW289462  11.366   7.431   1.909
63146SOL     OW89463  12.452   6.513   0.672
63146SOL    HW189464  12.512   6.432   0.674
63146SOL    HW289465  12.492   6.582   0.612
63147SOL     OW89466  12.002   6.859   1.422
63147SOL    HW189467  11.997   6.892   1.517
63147SOL    HW289468  11.916   6.878   1.376
63148SOL     OW89469  11.844   7.202   0.154
63148SOL    HW189470  11.853   7.212   0.055
63148SOL    HW289471  11.804   7.113   0.175
63149SOL     OW89472  11.435   5.912   0.720
63149SOL    HW189473  11.356   5.963   0.686
63149SOL    HW289474  11.426   5.897   0.818
63150SOL     OW89475  12.366   7.198   0.031
63150SOL    HW189476  12.372   7.105   0.068
63150SOL    HW289477  12.307   7.198  -0.049
63151SOL     OW89478  11.994   6.588   1.372
63151SOL    HW189479  12.034   6.587   1.280
63151SOL    HW289480  12.004   6.680   1.412
63152SOL     OW89481  12.088   6.496   0.291
63152SOL    HW189482  12.151   6.534   0.223
63152SOL    HW289483  12.128   6.413   0.330
63153SOL     OW89484  11.544   6.874   1.490
63153SOL    HW189485  11.531   6.967   1.456
63153SOL    HW289486  11.460   6.822   1.477
63154SOL     OW89487  12.211   6.684   0.696
63154SOL    HW189488  12.141   6.637   0.750
63154SOL    HW289489  12.270   6.616   0.653
63155SOL     OW89490  12.186   5.822   0.971
63155SOL    HW189491  12.178   5.786   0.878
63155SOL    HW289492  12.184   5.746   1.036
63156SOL     OW89493  11.762   7.073   0.491
63156SOL    HW189494  11.804   7.015   0.421
63156SOL    HW289495  11.718   7.152   0.447
63157SOL     OW89496  11.427   6.934   0.290
63157SOL    HW189497  11.331   6.935   0.263
63157SOL    HW289498  11.439   6.987   0.374
63158SOL     OW89499  11.277   6.599   1.726
63158SOL    HW189500  11.200   6.566   1.780
63158SOL    HW289501  11.362   6.569   1.768
63159SOL     OW89502  11.844   5.789   1.489
63159SOL    HW189503  11.934   5.773   1.449
63159SOL    HW289504  11.852   5.794   1.588
63160SOL     OW89505  11.247   5.931   0.033
63160SOL    HW189506  11.155   5.903   0.004
63160SOL    HW289507  11.278   6.008  -0.023
63161SOL     OW89508  12.612   6.442   1.398
63161SOL    HW189509  12.555   6.494   1.335
63161SOL    HW289510  12.708   6.454   1.374
63162SOL     OW89511  11.244   5.752   0.318
63162SOL    HW189512  11.227   5.835   0.264
63162SOL    HW289513  11.334   5.715   0.296
63163SOL     OW89514  12.355   6.921   0.119
63163SOL    HW189515  12.256   6.910   0.121
63163SOL    HW289516  12.389   6.936   0.212
63164SOL     OW89517  11.785   6.428   1.431
63164SOL    HW189518  11.841   6.509   1.414
63164SOL    HW289519  11.844   6.348   1.434
63165SOL     OW89520  11.888   6.151   1.708
63165SOL    HW189521  11.907   6.216   1.782
63165SOL    HW289522  11.948   6.071   1.717
63166SOL     OW89523  12.622   6.806   1.633
63166SOL    HW189524  12.613   6.796   1.732
63166SOL    HW289525  12.718   6.799   1.607
63167SOL     OW89526  11.562   7.327   1.560
63167SOL    HW189527  11.471   7.368   1.558
63167SOL    HW289528  11.555   7.233   1.592
63168SOL     OW89529  12.397   5.911   0.449
63168SOL    HW189530  12.462   5.837   0.438
63168SOL    HW289531  12.417   5.961   0.533
63169SOL     OW89532  11.766   6.331   0.652
63169SOL    HW189533  11.816   6.416   0.633
63169SOL    HW289534  11.678   6.333   0.604
63170SOL     OW89535  12.031   6.960   0.016
63170SOL    HW189536  11.985   6.975   0.104
63170SOL    HW289537  12.075   7.045  -0.014
63171SOL     OW89538  11.833   7.376   0.953
63171SOL    HW189539  11.787   7.464   0.940
63171SOL    HW289540  11.932   7.388   0.946
63172SOL     OW89541  12.031   6.542   0.861
63172SOL    HW189542  12.085   6.473   0.909
63172SOL    HW289543  11.999   6.611   0.927
63173SOL     OW89544  12.255   6.570   0.087
63173SOL    HW189545  12.232   6.623   0.005
63173SOL    HW289546  12.336   6.514   0.068
63174SOL     OW89547  11.393   6.900   1.844
63174SOL    HW189548  11.328   6.827   1.823
63174SOL    HW289549  11.397   6.914   1.942
63175SOL     OW89550  11.251   6.826   0.653
63175SOL    HW189551  11.250   6.779   0.741
63175SOL    HW289552  11.333   6.798   0.602
63176SOL     OW89553  11.844   6.977   1.624
63176SOL    HW189554  11.766   6.927   1.662
63176SOL    HW289555  11.841   7.072   1.655
63177SOL     OW89556  11.600   6.010   0.520
63177SOL    HW189557  11.630   5.938   0.458
63177SOL    HW289558  11.561   5.970   0.603
63178SOL     OW89559  12.877   7.073   1.104
63178SOL    HW189560  12.784   7.048   1.077
63178SOL    HW289561  12.903   7.023   1.186
63179SOL     OW89562  11.489   6.133   1.280
63179SOL    HW189563  11.527   6.074   1.352
63179SOL    HW289564  11.529   6.107   1.192
63180SOL     OW89565  11.984   7.172   0.687
63180SOL    HW189566  12.016   7.182   0.593
63180SOL    HW289567  11.905   7.110   0.689
63181SOL     OW89568  12.596   5.800   1.112
63181SOL    HW189569  12.648   5.735   1.167
63181SOL    HW289570  12.547   5.863   1.173
63182SOL     OW89571  12.173   5.620   1.154
63182SOL    HW189572  12.110   5.548   1.123
63182SOL    HW289573  12.266   5.584   1.154
63183SOL     OW89574  11.942   6.916   0.301
63183SOL    HW189575  11.896   6.829   0.318
63183SOL    HW289576  12.033   6.913   0.342
63184SOL     OW89577  11.790   7.153   1.284
63184SOL    HW189578  11.785   7.235   1.341
63184SOL    HW289579  11.879   7.150   1.239
63185SOL     OW89580  12.524   5.638   0.168
63185SOL    HW189581  12.559   5.597   0.084
63185SOL    HW289582  12.434   5.600   0.188
63186SOL     OW89583  12.472   6.039   0.691
63186SOL    HW189584  12.413   6.119   0.695
63186SOL    HW289585  12.487   6.004   0.784
63187SOL     OW89586  11.211   6.663   0.300
63187SOL    HW189587  11.310   6.652   0.291
63187SOL    HW289588  11.171   6.577   0.332
63188SOL     OW89589  12.047   7.232   0.337
63188SOL    HW189590  11.970   7.197   0.283
63188SOL    HW289591  12.015   7.303   0.399
63189SOL     OW89592  11.402   6.214   1.975
63189SOL    HW189593  11.309   6.212   2.012
63189SOL    HW289594  11.403   6.175   1.883
63190SOL     OW89595  11.397   5.861   2.858
63190SOL    HW189596  11.432   5.844   2.950
63190SOL    HW289597  11.309   5.816   2.846
63191SOL     OW89598  11.191   5.954   2.509
63191SOL    HW189599  11.109   5.997   2.548
63191SOL    HW289600  11.163   5.881   2.446
63192SOL     OW89601  11.741   6.861   3.027
63192SOL    HW189602  11.648   6.854   2.990
63192SOL    HW289603  11.752   6.950   3.071
63193SOL     OW89604  12.727   7.097   2.565
63193SOL    HW189605  12.670   7.081   2.646
63193SOL    HW289606  12.668   7.107   2.485
63194SOL     OW89607  12.307   6.289   2.579
63194SOL    HW189608  12.364   6.367   2.554
63194SOL    HW289609  12.247   6.315   2.655
63195SOL     OW89610  11.940   6.730   2.885
63195SOL    HW189611  11.862   6.747   2.945
63195SOL    HW289612  11.974   6.817   2.849
63196SOL     OW89613  12.022   6.384   3.685
63196SOL    HW189614  12.018   6.460   3.750
63196SOL    HW289615  12.044   6.420   3.594
63197SOL     OW89616  11.857   6.598   2.527
63197SOL    HW189617  11.926   6.582   2.597
63197SOL    HW289618  11.784   6.655   2.565
63198SOL     OW89619  11.858   6.747   3.665
63198SOL    HW189620  11.918   6.826   3.679
63198SOL    HW289621  11.772   6.778   3.624
63199SOL     OW89622  11.507   7.021   2.923
63199SOL    HW189623  11.429   6.990   2.870
63199SOL    HW289624  11.565   7.079   2.866
63200SOL     OW89625  11.610   5.978   3.361
63200SOL    HW189626  11.692   5.922   3.370
63200SOL    HW289627  11.529   5.920   3.365
63201SOL     OW89628  11.403   7.299   2.345
63201SOL    HW189629  11.437   7.376   2.399
63201SOL    HW289630  11.447   7.299   2.255
63202SOL     OW89631  12.299   6.927   3.552
63202SOL    HW189632  12.346   6.927   3.640
63202SOL    HW289633  12.251   6.840   3.541
63203SOL     OW89634  11.402   7.020   2.400
63203SOL    HW189635  11.376   7.116   2.400
63203SOL    HW289636  11.331   6.966   2.445
63204SOL     OW89637  11.412   6.677   2.748
63204SOL    HW189638  11.426   6.593   2.800
63204SOL    HW289639  11.357   6.741   2.803
63205SOL     OW89640  11.792   7.372   3.301
63205SOL    HW189641  11.700   7.355   3.336
63205SOL    HW289642  11.820   7.464   3.327
63206SOL     OW89643  11.778   6.550   1.985
63206SOL    HW189644  11.785   6.634   1.931
63206SOL    HW289645  11.824   6.563   2.073
63207SOL     OW89646  11.294   6.229   2.425
63207SOL    HW189647  11.249   6.141   2.442
63207SOL    HW289648  11.293   6.283   2.509
63208SOL     OW89649  11.199   7.182   1.979
63208SOL    HW189650  11.180   7.086   2.000
63208SOL    HW289651  11.166   7.240   2.054
63209SOL     OW89652  12.861   6.508   2.474
63209SOL    HW189653  12.956   6.479   2.482
63209SOL    HW289654  12.853   6.573   2.399
63210SOL     OW89655  11.285   6.323   3.459
63210SOL    HW189656  11.373   6.310   3.504
63210SOL    HW289657  11.272   6.420   3.437
63211SOL     OW89658  11.785   6.951   2.588
63211SOL    HW189659  11.736   6.864   2.597
63211SOL    HW289660  11.762   6.994   2.501
63212SOL     OW89661  12.465   6.814   3.285
63212SOL    HW189662  12.502   6.741   3.227
63212SOL    HW289663  12.517   6.819   3.370
63213SOL     OW89664  11.981   5.590   2.364
63213SOL    HW189665  12.021   5.681   2.355
63213SOL    HW289666  11.881   5.598   2.370
63214SOL     OW89667  11.369   6.562   3.126
63214SOL    HW189668  11.458   6.517   3.112
63214SOL    HW289669  11.296   6.497   3.107
63215SOL     OW89670  12.359   7.378   3.478
63215SOL    HW189671  12.383   7.438   3.402
63215SOL    HW289672  12.366   7.283   3.448
63216SOL     OW89673  11.489   5.837   3.663
63216SOL    HW189674  11.560   5.908   3.669
63216SOL    HW289675  11.401   5.876   3.691
63217SOL     OW89676  12.638   7.003   2.815
63217SOL    HW189677  12.579   7.009   2.895
63217SOL    HW289678  12.623   6.915   2.769
63218SOL     OW89679  11.770   6.315   2.132
63218SOL    HW189680  11.794   6.384   2.064
63218SOL    HW289681  11.692   6.348   2.186
63219SOL     OW89682  12.453   5.931   2.806
63219SOL    HW189683  12.367   5.881   2.793
63219SOL    HW289684  12.515   5.877   2.862
63220SOL     OW89685  11.979   6.191   3.327
63220SOL    HW189686  11.932   6.188   3.416
63220SOL    HW289687  11.928   6.136   3.261
63221SOL     OW89688  12.566   6.055   3.536
63221SOL    HW189689  12.546   6.098   3.624
63221SOL    HW289690  12.644   5.993   3.545
63222SOL     OW89691  12.145   6.476   3.434
63222SOL    HW189692  12.191   6.392   3.405
63222SOL    HW289693  12.089   6.510   3.359
63223SOL     OW89694  12.163   5.996   3.104
63223SOL    HW189695  12.086   6.030   3.158
63223SOL    HW289696  12.129   5.945   3.025
63224SOL     OW89697  12.213   6.287   2.291
63224SOL    HW189698  12.239   6.283   2.387
63224SOL    HW289699  12.128   6.236   2.277
63225SOL     OW89700  11.248   6.397   2.651
63225SOL    HW189701  11.347   6.385   2.660
63225SOL    HW289702  11.224   6.492   2.672
63226SOL     OW89703  11.302   7.407   3.433
63226SOL    HW189704  11.292   7.392   3.532
63226SOL    HW289705  11.216   7.443   3.397
63227SOL     OW89706  12.037   5.934   2.057
63227SOL    HW189707  12.096   5.997   2.008
63227SOL    HW289708  12.056   5.840   2.028
63228SOL     OW89709  12.534   6.730   2.407
63228SOL    HW189710  12.617   6.701   2.359
63228SOL    HW289711  12.485   6.797   2.351
63229SOL     OW89712  11.722   5.782   2.747
63229SOL    HW189713  11.717   5.777   2.847
63229SOL    HW289714  11.724   5.878   2.718
63230SOL     OW89715  12.180   7.042   2.339
63230SOL    HW189716  12.134   7.114   2.287
63230SOL    HW289717  12.176   7.062   2.437
63231SOL     OW89718  11.523   7.387   2.715
63231SOL    HW189719  11.573   7.301   2.721
63231SOL    HW289720  11.588   7.464   2.712
63232SOL     OW89721  12.399   7.136   3.368
63232SOL    HW189722  12.405   7.059   3.432
63232SOL    HW289723  12.347   7.110   3.288
63233SOL     OW89724  11.493   6.529   2.104
63233SOL    HW189725  11.575   6.568   2.062
63233SOL    HW289726  11.466   6.447   2.055
63234SOL     OW89727  11.633   6.852   3.589
63234SOL    HW189728  11.583   6.853   3.503
63234SOL    HW289729  11.570   6.834   3.665
63235SOL     OW89730  12.283   7.362   2.099
63235SOL    HW189731  12.223   7.300   2.149
63235SOL    HW289732  12.314   7.318   2.014
63236SOL     OW89733  11.374   5.871   3.360
63236SOL    HW189734  11.294   5.931   3.347
63236SOL    HW289735  11.364   5.822   3.446
63237SOL     OW89736  11.636   7.329   2.185
63237SOL    HW189737  11.669   7.368   2.271
63237SOL    HW289738  11.712   7.322   2.120
63238SOL     OW89739  12.572   5.693   2.288
63238SOL    HW189740  12.548   5.656   2.198
63238SOL    HW289741  12.671   5.709   2.292
63239SOL     OW89742  11.421   7.371   3.103
63239SOL    HW189743  11.478   7.306   3.153
63239SOL    HW289744  11.405   7.338   3.010
63240SOL     OW89745  12.112   7.284   2.766
63240SOL    HW189746  12.192   7.227   2.787
63240SOL    HW289747  12.063   7.244   2.689
63241SOL     OW89748  11.554   6.286   2.342
63241SOL    HW189749  11.599   6.196   2.339
63241SOL    HW289750  11.460   6.275   2.375
63242SOL     OW89751  11.786   5.708   1.979
63242SOL    HW189752  11.884   5.686   1.986
63242SOL    HW289753  11.755   5.691   1.886
63243SOL     OW89754  11.953   5.850   3.611
63243SOL    HW189755  12.020   5.789   3.654
63243SOL    HW289756  11.880   5.869   3.676
63244SOL     OW89757  12.060   7.100   3.057
63244SOL    HW189758  12.037   7.075   2.963
63244SOL    HW289759  12.121   7.031   3.096
63245SOL     OW89760  12.523   6.176   3.295
63245SOL    HW189761  12.551   6.133   3.380
63245SOL    HW289762  12.548   6.272   3.296
63246SOL     OW89763  11.975   6.988   2.786
63246SOL    HW189764  12.065   7.002   2.744
63246SOL    HW289765  11.904   6.990   2.715
63247SOL     OW89766  12.094   6.089   2.761
63247SOL    HW189767  12.069   6.080   2.665
63247SOL    HW289768  12.142   6.007   2.792
63248SOL     OW89769  11.711   5.650   2.374
63248SOL    HW189770  11.630   5.651   2.432
63248SOL    HW289771  11.714   5.733   2.319
63249SOL     OW89772  12.606   6.774   1.903
63249SOL    HW189773  12.638   6.698   1.960
63249SOL    HW289774  12.514   6.801   1.933
63250SOL     OW89775  11.469   5.621   2.033
63250SOL    HW189776  11.518   5.705   2.012
63250SOL    HW289777  11.531   5.556   2.078
63251SOL     OW89778  12.107   5.822   2.342
63251SOL    HW189779  12.059   5.863   2.264
63251SOL    HW289780  12.206   5.820   2.323
63252SOL     OW89781  12.248   6.269   3.326
63252SOL    HW189782  12.168   6.208   3.329
63252SOL    HW289783  12.329   6.216   3.302
63253SOL     OW89784  12.399   7.156   2.655
63253SOL    HW189785  12.420   7.230   2.590
63253SOL    HW289786  12.467   7.156   2.728
63254SOL     OW89787  11.631   6.738   2.603
63254SOL    HW189788  11.560   6.711   2.668
63254SOL    HW289789  11.605   6.710   2.510
63255SOL     OW89790  12.443   7.383   2.453
63255SOL    HW189791  12.487   7.447   2.389
63255SOL    HW289792  12.393   7.435   2.523
63256SOL     OW89793  12.204   6.135   1.878
63256SOL    HW189794  12.163   6.217   1.839
63256SOL    HW289795  12.268   6.161   1.951
63257SOL     OW89796  11.250   6.142   3.248
63257SOL    HW189797  11.342   6.141   3.207
63257SOL    HW289798  11.244   6.216   3.315
63258SOL     OW89799  11.733   5.808   3.009
63258SOL    HW189800  11.771   5.724   3.046
63258SOL    HW289801  11.645   5.827   3.053
63259SOL     OW89802  12.038   6.040   2.504
63259SOL    HW189803  12.006   6.112   2.442
63259SOL    HW289804  12.062   5.959   2.451
63260SOL     OW89805  12.189   5.625   2.615
63260SOL    HW189806  12.117   5.630   2.546
63260SOL    HW289807  12.165   5.556   2.684
63261SOL     OW89808  12.601   6.759   2.729
63261SOL    HW189809  12.546   6.675   2.722
63261SOL    HW289810  12.627   6.788   2.637
63262SOL     OW89811  11.660   6.971   2.036
63262SOL    HW189812  11.573   6.956   2.083
63262SOL    HW289813  11.643   6.997   1.941
63263SOL     OW89814  12.562   6.161   1.940
63263SOL    HW189815  12.508   6.140   2.021
63263SOL    HW289816  12.653   6.120   1.949
63264SOL     OW89817  11.699   5.842   2.190
63264SOL    HW189818  11.726   5.783   2.115
63264SOL    HW289819  11.699   5.937   2.159
63265SOL     OW89820  12.236   6.933   3.202
63265SOL    HW189821  12.156   6.910   3.257
63265SOL    HW289822  12.319   6.907   3.251
63266SOL     OW89823  12.764   7.215   3.487
63266SOL    HW189824  12.791   7.249   3.397
63266SOL    HW289825  12.843   7.177   3.533
63267SOL     OW89826  12.283   6.781   2.962
63267SOL    HW189827  12.243   6.825   3.043
63267SOL    HW289828  12.242   6.818   2.879
63268SOL     OW89829  12.087   5.675   3.264
63268SOL    HW189830  12.112   5.655   3.169
63268SOL    HW289831  12.159   5.731   3.306
63269SOL     OW89832  12.152   6.702   3.581
63269SOL    HW189833  12.053   6.708   3.591
63269SOL    HW289834  12.175   6.622   3.525
63270SOL     OW89835  11.877   6.636   2.230
63270SOL    HW189836  11.863   6.643   2.329
63270SOL    HW289837  11.961   6.585   2.212
63271SOL     OW89838  11.582   6.399   3.113
63271SOL    HW189839  11.668   6.411   3.163
63271SOL    HW289840  11.540   6.312   3.140
63272SOL     OW89841  12.446   5.972   3.124
63272SOL    HW189842  12.467   6.046   3.188
63272SOL    HW289843  12.357   5.989   3.081
63273SOL     OW89844  11.236   7.150   3.193
63273SOL    HW189845  11.190   7.232   3.159
63273SOL    HW289846  11.334   7.169   3.202
63274SOL     OW89847  11.539   6.686   2.363
63274SOL    HW189848  11.532   6.769   2.307
63274SOL    HW289849  11.543   6.606   2.303
63275SOL     OW89850  11.738   6.123   2.727
63275SOL    HW189851  11.750   6.189   2.653
63275SOL    HW289852  11.784   6.157   2.810
63276SOL     OW89853  12.424   6.934   2.250
63276SOL    HW189854  12.474   7.011   2.290
63276SOL    HW289855  12.329   6.936   2.282
63277SOL     OW89856  12.444   7.031   3.004
63277SOL    HW189857  12.491   7.044   3.091
63277SOL    HW289858  12.378   6.957   3.013
63278SOL     OW89859  11.526   7.096   3.191
63278SOL    HW189860  11.505   7.052   3.104
63278SOL    HW289861  11.623   7.122   3.194
63279SOL     OW89862  11.574   6.337   3.460
63279SOL    HW189863  11.642   6.392   3.413
63279SOL    HW289864  11.614   6.249   3.487
63280SOL     OW89865  12.185   5.691   3.632
63280SOL    HW189866  12.191   5.776   3.580
63280SOL    HW289867  12.217   5.615   3.575
63281SOL     OW89868  11.676   5.636   3.602
63281SOL    HW189869  11.634   5.579   3.532
63281SOL    HW289870  11.610   5.705   3.634
63282SOL     OW89871  11.745   6.456   2.891
63282SOL    HW189872  11.789   6.545   2.882
63282SOL    HW289873  11.682   6.456   2.968
63283SOL     OW89874  12.532   6.448   2.907
63283SOL    HW189875  12.457   6.448   2.841
63283SOL    HW289876  12.569   6.356   2.916
63284SOL     OW89877  12.381   6.111   2.137
63284SOL    HW189878  12.394   6.027   2.191
63284SOL    HW289879  12.352   6.185   2.197
63285SOL     OW89880  11.479   5.799   3.093
63285SOL    HW189881  11.456   5.836   3.183
63285SOL    HW289882  11.449   5.704   3.087
63286SOL     OW89883  11.209   6.896   3.144
63286SOL    HW189884  11.262   6.847   3.212
63286SOL    HW289885  11.231   6.994   3.149
63287SOL     OW89886  11.904   6.220   2.926
63287SOL    HW189887  11.963   6.194   2.850
63287SOL    HW289888  11.876   6.316   2.915
63288SOL     OW89889  11.479   5.649   2.480
63288SOL    HW189890  11.468   5.743   2.513
63288SOL    HW289891  11.474   5.586   2.557
63289SOL     OW89892  12.794   5.953   2.236
63289SOL    HW189893  12.796   5.877   2.300
63289SOL    HW289894  12.746   6.030   2.276
63290SOL     OW89895  12.195   6.352   2.828
63290SOL    HW189896  12.210   6.373   2.924
63290SOL    HW289897  12.165   6.257   2.819
63291SOL     OW89898  12.152   7.159   3.562
63291SOL    HW189899  12.132   7.203   3.474
63291SOL    HW289900  12.191   7.068   3.546
63292SOL     OW89901  11.522   6.484   3.666
63292SOL    HW189902  11.598   6.528   3.714
63292SOL    HW289903  11.557   6.437   3.584
63293SOL     OW89904  12.475   6.424   1.904
63293SOL    HW189905  12.509   6.331   1.919
63293SOL    HW289906  12.493   6.451   1.809
63294SOL     OW89907  12.240   6.919   2.711
63294SOL    HW189908  12.247   6.835   2.656
63294SOL    HW289909  12.302   6.988   2.675
63295SOL     OW89910  11.491   6.396   2.811
63295SOL    HW189911  11.584   6.432   2.816
63295SOL    HW289912  11.485   6.311   2.863
63296SOL     OW89913  11.511   6.095   2.868
63296SOL    HW189914  11.459   6.012   2.851
63296SOL    HW289915  11.588   6.100   2.804
63297SOL     OW89916  12.310   5.966   3.540
63297SOL    HW189917  12.265   6.029   3.604
63297SOL    HW289918  12.403   5.997   3.523
63298SOL     OW89919  12.332   5.793   3.339
63298SOL    HW189920  12.332   5.857   3.416
63298SOL    HW289921  12.360   5.841   3.256
63299SOL     OW89922  11.180   6.912   2.062
63299SOL    HW189923  11.087   6.933   2.031
63299SOL    HW289924  11.190   6.813   2.075
63300SOL     OW89925  11.260   7.387   2.789
63300SOL    HW189926  11.218   7.301   2.762
63300SOL    HW289927  11.354   7.390   2.755
63301SOL     OW89928  11.676   7.154   2.772
63301SOL    HW189929  11.742   7.228   2.781
63301SOL    HW289930  11.720   7.075   2.730
63302SOL     OW89931  12.174   6.382   3.100
63302SOL    HW189932  12.215   6.350   3.186
63302SOL    HW289933  12.078   6.355   3.097
63303SOL     OW89934  11.212   6.130   2.976
63303SOL    HW189935  11.297   6.097   2.935
63303SOL    HW289936  11.225   6.145   3.074
63304SOL     OW89937  11.361   6.106   3.584
63304SOL    HW189938  11.420   6.066   3.514
63304SOL    HW289939  11.303   6.177   3.543
63305SOL     OW89940  12.541   6.536   3.522
63305SOL    HW189941  12.580   6.625   3.542
63305SOL    HW289942  12.551   6.516   3.425
63306SOL     OW89943  11.987   6.158   2.187
63306SOL    HW189944  11.994   6.069   2.141
63306SOL    HW289945  11.893   6.192   2.179
63307SOL     OW89946  11.424   7.150   3.606
63307SOL    HW189947  11.394   7.207   3.682
63307SOL    HW289948  11.417   7.053   3.632
63308SOL     OW89949  11.843   6.050   3.131
63308SOL    HW189950  11.809   5.961   3.101
63308SOL    HW289951  11.869   6.104   3.051
63309SOL     OW89952  12.102   7.264   3.327
63309SOL    HW189953  12.078   7.246   3.232
63309SOL    HW289954  12.132   7.358   3.337
63310SOL     OW89955  11.645   6.086   2.053
63310SOL    HW189956  11.706   6.166   2.057
63310SOL    HW289957  11.550   6.117   2.060
63311SOL     OW89958  11.331   6.723   3.328
63311SOL    HW189959  11.353   6.662   3.404
63311SOL    HW289960  11.341   6.674   3.242
63312SOL     OW89961  12.519   6.645   3.096
63312SOL    HW189962  12.543   6.582   3.022
63312SOL    HW289963  12.429   6.685   3.078
63313SOL     OW89964  12.474   6.441   2.171
63313SOL    HW189965  12.388   6.410   2.213
63313SOL    HW289966  12.470   6.427   2.072
63314SOL     OW89967  12.424   7.317   2.990
63314SOL    HW189968  12.508   7.322   2.936
63314SOL    HW289969  12.401   7.221   3.008
63315SOL     OW89970  11.255   6.844   2.884
63315SOL    HW189971  11.250   6.843   2.984
63315SOL    HW289972  11.172   6.803   2.846
63316SOL     OW89973  11.860   7.248   3.578
63316SOL    HW189974  11.804   7.329   3.587
63316SOL    HW289975  11.912   7.252   3.492
63317SOL     OW89976  12.898   5.721   2.385
63317SOL    HW189977  12.971   5.704   2.318
63317SOL    HW289978  12.867   5.634   2.423
63318SOL     OW89979  12.560   7.159   2.339
63318SOL    HW189980  12.627   7.171   2.265
63318SOL    HW289981  12.520   7.248   2.362
63319SOL     OW89982  11.302   7.380   3.713
63319SOL    HW189983  11.261   7.306   3.766
63319SOL    HW289984  11.366   7.431   3.771
63320SOL     OW89985  12.452   6.513   2.534
63320SOL    HW189986  12.512   6.432   2.536
63320SOL    HW289987  12.492   6.582   2.474
63321SOL     OW89988  12.002   6.859   3.284
63321SOL    HW189989  11.997   6.892   3.379
63321SOL    HW289990  11.916   6.878   3.238
63322SOL     OW89991  11.844   7.202   2.016
63322SOL    HW189992  11.853   7.212   1.917
63322SOL    HW289993  11.804   7.113   2.037
63323SOL     OW89994  11.435   5.912   2.582
63323SOL    HW189995  11.356   5.963   2.548
63323SOL    HW289996  11.426   5.897   2.680
63324SOL     OW89997  12.366   7.198   1.893
63324SOL    HW189998  12.372   7.105   1.930
63324SOL    HW289999  12.307   7.198   1.813
63325SOL     OW90000  11.994   6.588   3.234
63325SOL    HW190001  12.034   6.587   3.142
63325SOL    HW290002  12.004   6.680   3.274
63326SOL     OW90003  12.088   6.496   2.153
63326SOL    HW190004  12.151   6.534   2.085
63326SOL    HW290005  12.128   6.413   2.192
63327SOL     OW90006  11.544   6.874   3.352
63327SOL    HW190007  11.531   6.967   3.318
63327SOL    HW290008  11.460   6.822   3.339
63328SOL     OW90009  12.211   6.684   2.558
63328SOL    HW190010  12.141   6.637   2.612
63328SOL    HW290011  12.270   6.616   2.515
63329SOL     OW90012  12.186   5.822   2.833
63329SOL    HW190013  12.178   5.786   2.740
63329SOL    HW290014  12.184   5.746   2.898
63330SOL     OW90015  11.762   7.073   2.353
63330SOL    HW190016  11.804   7.015   2.283
63330SOL    HW290017  11.718   7.152   2.309
63331SOL     OW90018  11.427   6.934   2.152
63331SOL    HW190019  11.331   6.935   2.125
63331SOL    HW290020  11.439   6.987   2.236
63332SOL     OW90021  11.277   6.599   3.588
63332SOL    HW190022  11.200   6.566   3.642
63332SOL    HW290023  11.362   6.569   3.630
63333SOL     OW90024  11.844   5.789   3.351
63333SOL    HW190025  11.934   5.773   3.311
63333SOL    HW290026  11.852   5.794   3.450
63334SOL     OW90027  11.247   5.931   1.895
63334SOL    HW190028  11.155   5.903   1.866
63334SOL    HW290029  11.278   6.008   1.839
63335SOL     OW90030  12.612   6.442   3.260
63335SOL    HW190031  12.555   6.494   3.197
63335SOL    HW290032  12.708   6.454   3.236
63336SOL     OW90033  11.244   5.752   2.180
63336SOL    HW190034  11.227   5.835   2.126
63336SOL    HW290035  11.334   5.715   2.158
63337SOL     OW90036  12.355   6.921   1.981
63337SOL    HW190037  12.256   6.910   1.983
63337SOL    HW290038  12.389   6.936   2.074
63338SOL     OW90039  11.785   6.428   3.293
63338SOL    HW190040  11.841   6.509   3.276
63338SOL    HW290041  11.844   6.348   3.296
63339SOL     OW90042  11.888   6.151   3.570
63339SOL    HW190043  11.907   6.216   3.644
63339SOL    HW290044  11.948   6.071   3.579
63340SOL     OW90045  12.622   6.806   3.495
63340SOL    HW190046  12.613   6.796   3.594
63340SOL    HW290047  12.718   6.799   3.469
63341SOL     OW90048  11.562   7.327   3.422
63341SOL    HW190049  11.471   7.368   3.420
63341SOL    HW290050  11.555   7.233   3.454
63342SOL     OW90051  12.397   5.911   2.311
63342SOL    HW190052  12.462   5.837   2.300
63342SOL    HW290053  12.417   5.961   2.395
63343SOL     OW90054  11.766   6.331   2.514
63343SOL    HW190055  11.816   6.416   2.495
63343SOL    HW290056  11.678   6.333   2.466
63344SOL     OW90057  12.031   6.960   1.878
63344SOL    HW190058  11.985   6.975   1.966
63344SOL    HW290059  12.075   7.045   1.848
63345SOL     OW90060  11.833   7.376   2.815
63345SOL    HW190061  11.787   7.464   2.802
63345SOL    HW290062  11.932   7.388   2.808
63346SOL     OW90063  12.031   6.542   2.723
63346SOL    HW190064  12.085   6.473   2.771
63346SOL    HW290065  11.999   6.611   2.789
63347SOL     OW90066  12.255   6.570   1.949
63347SOL    HW190067  12.232   6.623   1.867
63347SOL    HW290068  12.336   6.514   1.930
63348SOL     OW90069  11.393   6.900   3.706
63348SOL    HW190070  11.328   6.827   3.685
63348SOL    HW290071  11.397   6.914   3.804
63349SOL     OW90072  11.251   6.826   2.515
63349SOL    HW190073  11.250   6.779   2.603
63349SOL    HW290074  11.333   6.798   2.464
63350SOL     OW90075  11.844   6.977   3.486
63350SOL    HW190076  11.766   6.927   3.524
63350SOL    HW290077  11.841   7.072   3.517
63351SOL     OW90078  11.600   6.010   2.382
63351SOL    HW190079  11.630   5.938   2.320
63351SOL    HW290080  11.561   5.970   2.465
63352SOL     OW90081  12.877   7.073   2.966
63352SOL    HW190082  12.784   7.048   2.939
63352SOL    HW290083  12.903   7.023   3.048
63353SOL     OW90084  11.489   6.133   3.142
63353SOL    HW190085  11.527   6.074   3.214
63353SOL    HW290086  11.529   6.107   3.054
63354SOL     OW90087  11.984   7.172   2.549
63354SOL    HW190088  12.016   7.182   2.455
63354SOL    HW290089  11.905   7.110   2.551
63355SOL     OW90090  12.596   5.800   2.974
63355SOL    HW190091  12.648   5.735   3.029
63355SOL    HW290092  12.547   5.863   3.035
63356SOL     OW90093  12.173   5.620   3.016
63356SOL    HW190094  12.110   5.548   2.985
63356SOL    HW290095  12.266   5.584   3.016
63357SOL     OW90096  11.942   6.916   2.163
63357SOL    HW190097  11.896   6.829   2.180
63357SOL    HW290098  12.033   6.913   2.204
63358SOL     OW90099  11.790   7.153   3.146
63358SOL    HW190100  11.785   7.235   3.203
63358SOL    HW290101  11.879   7.150   3.101
63359SOL     OW90102  12.524   5.638   2.030
63359SOL    HW190103  12.559   5.597   1.946
63359SOL    HW290104  12.434   5.600   2.050
63360SOL     OW90105  12.472   6.039   2.553
63360SOL    HW190106  12.413   6.119   2.557
63360SOL    HW290107  12.487   6.004   2.646
63361SOL     OW90108  11.211   6.663   2.162
63361SOL    HW190109  11.310   6.652   2.153
63361SOL    HW290110  11.171   6.577   2.194
63362SOL     OW90111  12.047   7.232   2.199
63362SOL    HW190112  11.970   7.197   2.145
63362SOL    HW290113  12.015   7.303   2.261
63363SOL     OW90114  11.402   6.214   3.837
63363SOL    HW190115  11.309   6.212   3.874
63363SOL    HW290116  11.403   6.175   3.745
63364SOL     OW90117  11.397   5.861   4.720
63364SOL    HW190118  11.432   5.844   4.812
63364SOL    HW290119  11.309   5.816   4.708
63365SOL     OW90120  11.191   5.954   4.371
63365SOL    HW190121  11.109   5.997   4.410
63365SOL    HW290122  11.163   5.881   4.308
63366SOL     OW90123  11.741   6.861   4.889
63366SOL    HW190124  11.648   6.854   4.852
63366SOL    HW290125  11.752   6.950   4.933
63367SOL     OW90126  12.727   7.097   4.427
63367SOL    HW190127  12.670   7.081   4.508
63367SOL    HW290128  12.668   7.107   4.347
63368SOL     OW90129  12.307   6.289   4.441
63368SOL    HW190130  12.364   6.367   4.416
63368SOL    HW290131  12.247   6.315   4.517
63369SOL     OW90132  11.940   6.730   4.747
63369SOL    HW190133  11.862   6.747   4.807
63369SOL    HW290134  11.974   6.817   4.711
63370SOL     OW90135  12.022   6.384   5.547
63370SOL    HW190136  12.018   6.460   5.612
63370SOL    HW290137  12.044   6.420   5.456
63371SOL     OW90138  11.857   6.598   4.389
63371SOL    HW190139  11.926   6.582   4.459
63371SOL    HW290140  11.784   6.655   4.427
63372SOL     OW90141  11.858   6.747   5.527
63372SOL    HW190142  11.918   6.826   5.541
63372SOL    HW290143  11.772   6.778   5.486
63373SOL     OW90144  11.507   7.021   4.785
63373SOL    HW190145  11.429   6.990   4.732
63373SOL    HW290146  11.565   7.079   4.728
63374SOL     OW90147  11.610   5.978   5.223
63374SOL    HW190148  11.692   5.922   5.232
63374SOL    HW290149  11.529   5.920   5.227
63375SOL     OW90150  11.403   7.299   4.207
63375SOL    HW190151  11.437   7.376   4.261
63375SOL    HW290152  11.447   7.299   4.117
63376SOL     OW90153  12.299   6.927   5.414
63376SOL    HW190154  12.346   6.927   5.502
63376SOL    HW290155  12.251   6.840   5.403
63377SOL     OW90156  11.402   7.020   4.262
63377SOL    HW190157  11.376   7.116   4.262
63377SOL    HW290158  11.331   6.966   4.307
63378SOL     OW90159  11.412   6.677   4.610
63378SOL    HW190160  11.426   6.593   4.662
63378SOL    HW290161  11.357   6.741   4.665
63379SOL     OW90162  11.792   7.372   5.163
63379SOL    HW190163  11.700   7.355   5.198
63379SOL    HW290164  11.820   7.464   5.189
63380SOL     OW90165  11.778   6.550   3.847
63380SOL    HW190166  11.785   6.634   3.793
63380SOL    HW290167  11.824   6.563   3.935
63381SOL     OW90168  11.294   6.229   4.287
63381SOL    HW190169  11.249   6.141   4.304
63381SOL    HW290170  11.293   6.283   4.371
63382SOL     OW90171  11.199   7.182   3.841
63382SOL    HW190172  11.180   7.086   3.862
63382SOL    HW290173  11.166   7.240   3.916
63383SOL     OW90174  12.861   6.508   4.336
63383SOL    HW190175  12.956   6.479   4.344
63383SOL    HW290176  12.853   6.573   4.261
63384SOL     OW90177  11.285   6.323   5.321
63384SOL    HW190178  11.373   6.310   5.366
63384SOL    HW290179  11.272   6.420   5.299
63385SOL     OW90180  11.785   6.951   4.450
63385SOL    HW190181  11.736   6.864   4.459
63385SOL    HW290182  11.762   6.994   4.363
63386SOL     OW90183  12.465   6.814   5.147
63386SOL    HW190184  12.502   6.741   5.089
63386SOL    HW290185  12.517   6.819   5.232
63387SOL     OW90186  11.981   5.590   4.226
63387SOL    HW190187  12.021   5.681   4.217
63387SOL    HW290188  11.881   5.598   4.232
63388SOL     OW90189  11.369   6.562   4.988
63388SOL    HW190190  11.458   6.517   4.974
63388SOL    HW290191  11.296   6.497   4.969
63389SOL     OW90192  12.359   7.378   5.340
63389SOL    HW190193  12.383   7.438   5.264
63389SOL    HW290194  12.366   7.283   5.310
63390SOL     OW90195  11.489   5.837   5.525
63390SOL    HW190196  11.560   5.908   5.531
63390SOL    HW290197  11.401   5.876   5.553
63391SOL     OW90198  12.638   7.003   4.677
63391SOL    HW190199  12.579   7.009   4.757
63391SOL    HW290200  12.623   6.915   4.631
63392SOL     OW90201  11.770   6.315   3.994
63392SOL    HW190202  11.794   6.384   3.926
63392SOL    HW290203  11.692   6.348   4.048
63393SOL     OW90204  12.453   5.931   4.668
63393SOL    HW190205  12.367   5.881   4.655
63393SOL    HW290206  12.515   5.877   4.724
63394SOL     OW90207  11.979   6.191   5.189
63394SOL    HW190208  11.932   6.188   5.278
63394SOL    HW290209  11.928   6.136   5.123
63395SOL     OW90210  12.566   6.055   5.398
63395SOL    HW190211  12.546   6.098   5.486
63395SOL    HW290212  12.644   5.993   5.407
63396SOL     OW90213  12.145   6.476   5.296
63396SOL    HW190214  12.191   6.392   5.267
63396SOL    HW290215  12.089   6.510   5.221
63397SOL     OW90216  12.163   5.996   4.966
63397SOL    HW190217  12.086   6.030   5.020
63397SOL    HW290218  12.129   5.945   4.887
63398SOL     OW90219  12.213   6.287   4.153
63398SOL    HW190220  12.239   6.283   4.249
63398SOL    HW290221  12.128   6.236   4.139
63399SOL     OW90222  11.248   6.397   4.513
63399SOL    HW190223  11.347   6.385   4.522
63399SOL    HW290224  11.224   6.492   4.534
63400SOL     OW90225  11.302   7.407   5.295
63400SOL    HW190226  11.292   7.392   5.394
63400SOL    HW290227  11.216   7.443   5.259
63401SOL     OW90228  12.037   5.934   3.919
63401SOL    HW190229  12.096   5.997   3.870
63401SOL    HW290230  12.056   5.840   3.890
63402SOL     OW90231  12.534   6.730   4.269
63402SOL    HW190232  12.617   6.701   4.221
63402SOL    HW290233  12.485   6.797   4.213
63403SOL     OW90234  11.722   5.782   4.609
63403SOL    HW190235  11.717   5.777   4.709
63403SOL    HW290236  11.724   5.878   4.580
63404SOL     OW90237  12.180   7.042   4.201
63404SOL    HW190238  12.134   7.114   4.149
63404SOL    HW290239  12.176   7.062   4.299
63405SOL     OW90240  11.523   7.387   4.577
63405SOL    HW190241  11.573   7.301   4.583
63405SOL    HW290242  11.588   7.464   4.574
63406SOL     OW90243  12.399   7.136   5.230
63406SOL    HW190244  12.405   7.059   5.294
63406SOL    HW290245  12.347   7.110   5.150
63407SOL     OW90246  11.493   6.529   3.966
63407SOL    HW190247  11.575   6.568   3.924
63407SOL    HW290248  11.466   6.447   3.917
63408SOL     OW90249  11.633   6.852   5.451
63408SOL    HW190250  11.583   6.853   5.365
63408SOL    HW290251  11.570   6.834   5.527
63409SOL     OW90252  12.283   7.362   3.961
63409SOL    HW190253  12.223   7.300   4.011
63409SOL    HW290254  12.314   7.318   3.876
63410SOL     OW90255  11.374   5.871   5.222
63410SOL    HW190256  11.294   5.931   5.209
63410SOL    HW290257  11.364   5.822   5.308
63411SOL     OW90258  11.636   7.329   4.047
63411SOL    HW190259  11.669   7.368   4.133
63411SOL    HW290260  11.712   7.322   3.982
63412SOL     OW90261  12.572   5.693   4.150
63412SOL    HW190262  12.548   5.656   4.060
63412SOL    HW290263  12.671   5.709   4.154
63413SOL     OW90264  11.421   7.371   4.965
63413SOL    HW190265  11.478   7.306   5.015
63413SOL    HW290266  11.405   7.338   4.872
63414SOL     OW90267  12.112   7.284   4.628
63414SOL    HW190268  12.192   7.227   4.649
63414SOL    HW290269  12.063   7.244   4.551
63415SOL     OW90270  11.554   6.286   4.204
63415SOL    HW190271  11.599   6.196   4.201
63415SOL    HW290272  11.460   6.275   4.237
63416SOL     OW90273  11.786   5.708   3.841
63416SOL    HW190274  11.884   5.686   3.848
63416SOL    HW290275  11.755   5.691   3.748
63417SOL     OW90276  11.953   5.850   5.473
63417SOL    HW190277  12.020   5.789   5.516
63417SOL    HW290278  11.880   5.869   5.538
63418SOL     OW90279  12.060   7.100   4.919
63418SOL    HW190280  12.037   7.075   4.825
63418SOL    HW290281  12.121   7.031   4.958
63419SOL     OW90282  12.523   6.176   5.157
63419SOL    HW190283  12.551   6.133   5.242
63419SOL    HW290284  12.548   6.272   5.158
63420SOL     OW90285  11.975   6.988   4.648
63420SOL    HW190286  12.065   7.002   4.606
63420SOL    HW290287  11.904   6.990   4.577
63421SOL     OW90288  12.094   6.089   4.623
63421SOL    HW190289  12.069   6.080   4.527
63421SOL    HW290290  12.142   6.007   4.654
63422SOL     OW90291  11.711   5.650   4.236
63422SOL    HW190292  11.630   5.651   4.294
63422SOL    HW290293  11.714   5.733   4.181
63423SOL     OW90294  12.606   6.774   3.765
63423SOL    HW190295  12.638   6.698   3.822
63423SOL    HW290296  12.514   6.801   3.795
63424SOL     OW90297  11.469   5.621   3.895
63424SOL    HW190298  11.518   5.705   3.874
63424SOL    HW290299  11.531   5.556   3.940
63425SOL     OW90300  12.107   5.822   4.204
63425SOL    HW190301  12.059   5.863   4.126
63425SOL    HW290302  12.206   5.820   4.185
63426SOL     OW90303  12.248   6.269   5.188
63426SOL    HW190304  12.168   6.208   5.191
63426SOL    HW290305  12.329   6.216   5.164
63427SOL     OW90306  12.399   7.156   4.517
63427SOL    HW190307  12.420   7.230   4.452
63427SOL    HW290308  12.467   7.156   4.590
63428SOL     OW90309  11.631   6.738   4.465
63428SOL    HW190310  11.560   6.711   4.530
63428SOL    HW290311  11.605   6.710   4.372
63429SOL     OW90312  12.443   7.383   4.315
63429SOL    HW190313  12.487   7.447   4.251
63429SOL    HW290314  12.393   7.435   4.385
63430SOL     OW90315  12.204   6.135   3.740
63430SOL    HW190316  12.163   6.217   3.701
63430SOL    HW290317  12.268   6.161   3.813
63431SOL     OW90318  11.250   6.142   5.110
63431SOL    HW190319  11.342   6.141   5.069
63431SOL    HW290320  11.244   6.216   5.177
63432SOL     OW90321  11.733   5.808   4.871
63432SOL    HW190322  11.771   5.724   4.908
63432SOL    HW290323  11.645   5.827   4.915
63433SOL     OW90324  12.038   6.040   4.366
63433SOL    HW190325  12.006   6.112   4.304
63433SOL    HW290326  12.062   5.959   4.313
63434SOL     OW90327  12.189   5.625   4.477
63434SOL    HW190328  12.117   5.630   4.408
63434SOL    HW290329  12.165   5.556   4.546
63435SOL     OW90330  12.601   6.759   4.591
63435SOL    HW190331  12.546   6.675   4.584
63435SOL    HW290332  12.627   6.788   4.499
63436SOL     OW90333  11.660   6.971   3.898
63436SOL    HW190334  11.573   6.956   3.945
63436SOL    HW290335  11.643   6.997   3.803
63437SOL     OW90336  12.562   6.161   3.802
63437SOL    HW190337  12.508   6.140   3.883
63437SOL    HW290338  12.653   6.120   3.811
63438SOL     OW90339  11.699   5.842   4.052
63438SOL    HW190340  11.726   5.783   3.977
63438SOL    HW290341  11.699   5.937   4.021
63439SOL     OW90342  12.236   6.933   5.064
63439SOL    HW190343  12.156   6.910   5.119
63439SOL    HW290344  12.319   6.907   5.113
63440SOL     OW90345  12.764   7.215   5.349
63440SOL    HW190346  12.791   7.249   5.259
63440SOL    HW290347  12.843   7.177   5.395
63441SOL     OW90348  12.283   6.781   4.824
63441SOL    HW190349  12.243   6.825   4.905
63441SOL    HW290350  12.242   6.818   4.741
63442SOL     OW90351  12.087   5.675   5.126
63442SOL    HW190352  12.112   5.655   5.031
63442SOL    HW290353  12.159   5.731   5.168
63443SOL     OW90354  12.152   6.702   5.443
63443SOL    HW190355  12.053   6.708   5.453
63443SOL    HW290356  12.175   6.622   5.387
63444SOL     OW90357  11.877   6.636   4.092
63444SOL    HW190358  11.863   6.643   4.191
63444SOL    HW290359  11.961   6.585   4.074
63445SOL     OW90360  11.582   6.399   4.975
63445SOL    HW190361  11.668   6.411   5.025
63445SOL    HW290362  11.540   6.312   5.002
63446SOL     OW90363  12.446   5.972   4.986
63446SOL    HW190364  12.467   6.046   5.050
63446SOL    HW290365  12.357   5.989   4.943
63447SOL     OW90366  11.236   7.150   5.055
63447SOL    HW190367  11.190   7.232   5.021
63447SOL    HW290368  11.334   7.169   5.064
63448SOL     OW90369  11.539   6.686   4.225
63448SOL    HW190370  11.532   6.769   4.169
63448SOL    HW290371  11.543   6.606   4.165
63449SOL     OW90372  11.738   6.123   4.589
63449SOL    HW190373  11.750   6.189   4.515
63449SOL    HW290374  11.784   6.157   4.672
63450SOL     OW90375  12.424   6.934   4.112
63450SOL    HW190376  12.474   7.011   4.152
63450SOL    HW290377  12.329   6.936   4.144
63451SOL     OW90378  12.444   7.031   4.866
63451SOL    HW190379  12.491   7.044   4.953
63451SOL    HW290380  12.378   6.957   4.875
63452SOL     OW90381  11.526   7.096   5.053
63452SOL    HW190382  11.505   7.052   4.966
63452SOL    HW290383  11.623   7.122   5.056
63453SOL     OW90384  11.574   6.337   5.322
63453SOL    HW190385  11.642   6.392   5.275
63453SOL    HW290386  11.614   6.249   5.349
63454SOL     OW90387  12.185   5.691   5.494
63454SOL    HW190388  12.191   5.776   5.442
63454SOL    HW290389  12.217   5.615   5.437
63455SOL     OW90390  11.676   5.636   5.464
63455SOL    HW190391  11.634   5.579   5.394
63455SOL    HW290392  11.610   5.705   5.496
63456SOL     OW90393  11.745   6.456   4.753
63456SOL    HW190394  11.789   6.545   4.744
63456SOL    HW290395  11.682   6.456   4.830
63457SOL     OW90396  12.532   6.448   4.769
63457SOL    HW190397  12.457   6.448   4.703
63457SOL    HW290398  12.569   6.356   4.778
63458SOL     OW90399  12.381   6.111   3.999
63458SOL    HW190400  12.394   6.027   4.053
63458SOL    HW290401  12.352   6.185   4.059
63459SOL     OW90402  11.479   5.799   4.955
63459SOL    HW190403  11.456   5.836   5.045
63459SOL    HW290404  11.449   5.704   4.949
63460SOL     OW90405  11.209   6.896   5.006
63460SOL    HW190406  11.262   6.847   5.074
63460SOL    HW290407  11.231   6.994   5.011
63461SOL     OW90408  11.904   6.220   4.788
63461SOL    HW190409  11.963   6.194   4.712
63461SOL    HW290410  11.876   6.316   4.777
63462SOL     OW90411  11.479   5.649   4.342
63462SOL    HW190412  11.468   5.743   4.375
63462SOL    HW290413  11.474   5.586   4.419
63463SOL     OW90414  12.794   5.953   4.098
63463SOL    HW190415  12.796   5.877   4.162
63463SOL    HW290416  12.746   6.030   4.138
63464SOL     OW90417  12.195   6.352   4.690
63464SOL    HW190418  12.210   6.373   4.786
63464SOL    HW290419  12.165   6.257   4.681
63465SOL     OW90420  12.152   7.159   5.424
63465SOL    HW190421  12.132   7.203   5.336
63465SOL    HW290422  12.191   7.068   5.408
63466SOL     OW90423  11.522   6.484   5.528
63466SOL    HW190424  11.598   6.528   5.576
63466SOL    HW290425  11.557   6.437   5.446
63467SOL     OW90426  12.475   6.424   3.766
63467SOL    HW190427  12.509   6.331   3.781
63467SOL    HW290428  12.493   6.451   3.671
63468SOL     OW90429  12.240   6.919   4.573
63468SOL    HW190430  12.247   6.835   4.518
63468SOL    HW290431  12.302   6.988   4.537
63469SOL     OW90432  11.491   6.396   4.673
63469SOL    HW190433  11.584   6.432   4.678
63469SOL    HW290434  11.485   6.311   4.725
63470SOL     OW90435  11.511   6.095   4.730
63470SOL    HW190436  11.459   6.012   4.713
63470SOL    HW290437  11.588   6.100   4.666
63471SOL     OW90438  12.310   5.966   5.402
63471SOL    HW190439  12.265   6.029   5.466
63471SOL    HW290440  12.403   5.997   5.385
63472SOL     OW90441  12.332   5.793   5.201
63472SOL    HW190442  12.332   5.857   5.278
63472SOL    HW290443  12.360   5.841   5.118
63473SOL     OW90444  11.180   6.912   3.924
63473SOL    HW190445  11.087   6.933   3.893
63473SOL    HW290446  11.190   6.813   3.937
63474SOL     OW90447  11.260   7.387   4.651
63474SOL    HW190448  11.218   7.301   4.624
63474SOL    HW290449  11.354   7.390   4.617
63475SOL     OW90450  11.676   7.154   4.634
63475SOL    HW190451  11.742   7.228   4.643
63475SOL    HW290452  11.720   7.075   4.592
63476SOL     OW90453  12.174   6.382   4.962
63476SOL    HW190454  12.215   6.350   5.048
63476SOL    HW290455  12.078   6.355   4.959
63477SOL     OW90456  11.212   6.130   4.838
63477SOL    HW190457  11.297   6.097   4.797
63477SOL    HW290458  11.225   6.145   4.936
63478SOL     OW90459  11.361   6.106   5.446
63478SOL    HW190460  11.420   6.066   5.376
63478SOL    HW290461  11.303   6.177   5.405
63479SOL     OW90462  12.541   6.536   5.384
63479SOL    HW190463  12.580   6.625   5.404
63479SOL    HW290464  12.551   6.516   5.287
63480SOL     OW90465  11.987   6.158   4.049
63480SOL    HW190466  11.994   6.069   4.003
63480SOL    HW290467  11.893   6.192   4.041
63481SOL     OW90468  11.424   7.150   5.468
63481SOL    HW190469  11.394   7.207   5.544
63481SOL    HW290470  11.417   7.053   5.494
63482SOL     OW90471  11.843   6.050   4.993
63482SOL    HW190472  11.809   5.961   4.963
63482SOL    HW290473  11.869   6.104   4.913
63483SOL     OW90474  12.102   7.264   5.189
63483SOL    HW190475  12.078   7.246   5.094
63483SOL    HW290476  12.132   7.358   5.199
63484SOL     OW90477  11.645   6.086   3.915
63484SOL    HW190478  11.706   6.166   3.919
63484SOL    HW290479  11.550   6.117   3.922
63485SOL     OW90480  11.331   6.723   5.190
63485SOL    HW190481  11.353   6.662   5.266
63485SOL    HW290482  11.341   6.674   5.104
63486SOL     OW90483  12.519   6.645   4.958
63486SOL    HW190484  12.543   6.582   4.884
63486SOL    HW290485  12.429   6.685   4.940
63487SOL     OW90486  12.474   6.441   4.033
63487SOL    HW190487  12.388   6.410   4.075
63487SOL    HW290488  12.470   6.427   3.934
63488SOL     OW90489  12.424   7.317   4.852
63488SOL    HW190490  12.508   7.322   4.798
63488SOL    HW290491  12.401   7.221   4.870
63489SOL     OW90492  11.255   6.844   4.746
63489SOL    HW190493  11.250   6.843   4.846
63489SOL    HW290494  11.172   6.803   4.708
63490SOL     OW90495  11.860   7.248   5.440
63490SOL    HW190496  11.804   7.329   5.449
63490SOL    HW290497  11.912   7.252   5.354
63491SOL     OW90498  12.898   5.721   4.247
63491SOL    HW190499  12.971   5.704   4.180
63491SOL    HW290500  12.867   5.634   4.285
63492SOL     OW90501  12.560   7.159   4.201
63492SOL    HW190502  12.627   7.171   4.127
63492SOL    HW290503  12.520   7.248   4.224
63493SOL     OW90504  11.302   7.380   5.575
63493SOL    HW190505  11.261   7.306   5.628
63493SOL    HW290506  11.366   7.431   5.633
63494SOL     OW90507  12.452   6.513   4.396
63494SOL    HW190508  12.512   6.432   4.398
63494SOL    HW290509  12.492   6.582   4.336
63495SOL     OW90510  12.002   6.859   5.146
63495SOL    HW190511  11.997   6.892   5.241
63495SOL    HW290512  11.916   6.878   5.100
63496SOL     OW90513  11.844   7.202   3.878
63496SOL    HW190514  11.853   7.212   3.779
63496SOL    HW290515  11.804   7.113   3.899
63497SOL     OW90516  11.435   5.912   4.444
63497SOL    HW190517  11.356   5.963   4.410
63497SOL    HW290518  11.426   5.897   4.542
63498SOL     OW90519  12.366   7.198   3.755
63498SOL    HW190520  12.372   7.105   3.792
63498SOL    HW290521  12.307   7.198   3.675
63499SOL     OW90522  11.994   6.588   5.096
63499SOL    HW190523  12.034   6.587   5.004
63499SOL    HW290524  12.004   6.680   5.136
63500SOL     OW90525  12.088   6.496   4.015
63500SOL    HW190526  12.151   6.534   3.947
63500SOL    HW290527  12.128   6.413   4.054
63501SOL     OW90528  11.544   6.874   5.214
63501SOL    HW190529  11.531   6.967   5.180
63501SOL    HW290530  11.460   6.822   5.201
63502SOL     OW90531  12.211   6.684   4.420
63502SOL    HW190532  12.141   6.637   4.474
63502SOL    HW290533  12.270   6.616   4.377
63503SOL     OW90534  12.186   5.822   4.695
63503SOL    HW190535  12.178   5.786   4.602
63503SOL    HW290536  12.184   5.746   4.760
63504SOL     OW90537  11.762   7.073   4.215
63504SOL    HW190538  11.804   7.015   4.145
63504SOL    HW290539  11.718   7.152   4.171
63505SOL     OW90540  11.427   6.934   4.014
63505SOL    HW190541  11.331   6.935   3.987
63505SOL    HW290542  11.439   6.987   4.098
63506SOL     OW90543  11.277   6.599   5.450
63506SOL    HW190544  11.200   6.566   5.504
63506SOL    HW290545  11.362   6.569   5.492
63507SOL     OW90546  11.844   5.789   5.213
63507SOL    HW190547  11.934   5.773   5.173
63507SOL    HW290548  11.852   5.794   5.312
63508SOL     OW90549  11.247   5.931   3.757
63508SOL    HW190550  11.155   5.903   3.728
63508SOL    HW290551  11.278   6.008   3.701
63509SOL     OW90552  12.612   6.442   5.122
63509SOL    HW190553  12.555   6.494   5.059
63509SOL    HW290554  12.708   6.454   5.098
63510SOL     OW90555  11.244   5.752   4.042
63510SOL    HW190556  11.227   5.835   3.988
63510SOL    HW290557  11.334   5.715   4.020
63511SOL     OW90558  12.355   6.921   3.843
63511SOL    HW190559  12.256   6.910   3.845
63511SOL    HW290560  12.389   6.936   3.936
63512SOL     OW90561  11.785   6.428   5.155
63512SOL    HW190562  11.841   6.509   5.138
63512SOL    HW290563  11.844   6.348   5.158
63513SOL     OW90564  11.888   6.151   5.432
63513SOL    HW190565  11.907   6.216   5.506
63513SOL    HW290566  11.948   6.071   5.441
63514SOL     OW90567  12.622   6.806   5.357
63514SOL    HW190568  12.613   6.796   5.456
63514SOL    HW290569  12.718   6.799   5.331
63515SOL     OW90570  11.562   7.327   5.284
63515SOL    HW190571  11.471   7.368   5.282
63515SOL    HW290572  11.555   7.233   5.316
63516SOL     OW90573  12.397   5.911   4.173
63516SOL    HW190574  12.462   5.837   4.162
63516SOL    HW290575  12.417   5.961   4.257
63517SOL     OW90576  11.766   6.331   4.376
63517SOL    HW190577  11.816   6.416   4.357
63517SOL    HW290578  11.678   6.333   4.328
63518SOL     OW90579  12.031   6.960   3.740
63518SOL    HW190580  11.985   6.975   3.828
63518SOL    HW290581  12.075   7.045   3.710
63519SOL     OW90582  11.833   7.376   4.677
63519SOL    HW190583  11.787   7.464   4.664
63519SOL    HW290584  11.932   7.388   4.670
63520SOL     OW90585  12.031   6.542   4.585
63520SOL    HW190586  12.085   6.473   4.633
63520SOL    HW290587  11.999   6.611   4.651
63521SOL     OW90588  12.255   6.570   3.811
63521SOL    HW190589  12.232   6.623   3.729
63521SOL    HW290590  12.336   6.514   3.792
63522SOL     OW90591  11.393   6.900   5.568
63522SOL    HW190592  11.328   6.827   5.547
63522SOL    HW290593  11.397   6.914   5.666
63523SOL     OW90594  11.251   6.826   4.377
63523SOL    HW190595  11.250   6.779   4.465
63523SOL    HW290596  11.333   6.798   4.326
63524SOL     OW90597  11.844   6.977   5.348
63524SOL    HW190598  11.766   6.927   5.386
63524SOL    HW290599  11.841   7.072   5.379
63525SOL     OW90600  11.600   6.010   4.244
63525SOL    HW190601  11.630   5.938   4.182
63525SOL    HW290602  11.561   5.970   4.327
63526SOL     OW90603  12.877   7.073   4.828
63526SOL    HW190604  12.784   7.048   4.801
63526SOL    HW290605  12.903   7.023   4.910
63527SOL     OW90606  11.489   6.133   5.004
63527SOL    HW190607  11.527   6.074   5.076
63527SOL    HW290608  11.529   6.107   4.916
63528SOL     OW90609  11.984   7.172   4.411
63528SOL    HW190610  12.016   7.182   4.317
63528SOL    HW290611  11.905   7.110   4.413
63529SOL     OW90612  12.596   5.800   4.836
63529SOL    HW190613  12.648   5.735   4.891
63529SOL    HW290614  12.547   5.863   4.897
63530SOL     OW90615  12.173   5.620   4.878
63530SOL    HW190616  12.110   5.548   4.847
63530SOL    HW290617  12.266   5.584   4.878
63531SOL     OW90618  11.942   6.916   4.025
63531SOL    HW190619  11.896   6.829   4.042
63531SOL    HW290620  12.033   6.913   4.066
63532SOL     OW90621  11.790   7.153   5.008
63532SOL    HW190622  11.785   7.235   5.065
63532SOL    HW290623  11.879   7.150   4.963
63533SOL     OW90624  12.524   5.638   3.892
63533SOL    HW190625  12.559   5.597   3.808
63533SOL    HW290626  12.434   5.600   3.912
63534SOL     OW90627  12.472   6.039   4.415
63534SOL    HW190628  12.413   6.119   4.419
63534SOL    HW290629  12.487   6.004   4.508
63535SOL     OW90630  11.211   6.663   4.024
63535SOL    HW190631  11.310   6.652   4.015
63535SOL    HW290632  11.171   6.577   4.056
63536SOL     OW90633  12.047   7.232   4.061
63536SOL    HW190634  11.970   7.197   4.007
63536SOL    HW290635  12.015   7.303   4.123
63537SOL     OW90636  11.402   6.214   5.699
63537SOL    HW190637  11.309   6.212   5.736
63537SOL    HW290638  11.403   6.175   5.607
63538SOL     OW90639  11.397   5.861   6.582
63538SOL    HW190640  11.432   5.844   6.674
63538SOL    HW290641  11.309   5.816   6.570
63539SOL     OW90642  11.191   5.954   6.233
63539SOL    HW190643  11.109   5.997   6.272
63539SOL    HW290644  11.163   5.881   6.170
63540SOL     OW90645  11.741   6.861   6.751
63540SOL    HW190646  11.648   6.854   6.714
63540SOL    HW290647  11.752   6.950   6.795
63541SOL     OW90648  12.727   7.097   6.289
63541SOL    HW190649  12.670   7.081   6.370
63541SOL    HW290650  12.668   7.107   6.209
63542SOL     OW90651  12.307   6.289   6.303
63542SOL    HW190652  12.364   6.367   6.278
63542SOL    HW290653  12.247   6.315   6.379
63543SOL     OW90654  11.940   6.730   6.609
63543SOL    HW190655  11.862   6.747   6.669
63543SOL    HW290656  11.974   6.817   6.573
63544SOL     OW90657  12.022   6.384   7.409
63544SOL    HW190658  12.018   6.460   7.474
63544SOL    HW290659  12.044   6.420   7.318
63545SOL     OW90660  11.857   6.598   6.251
63545SOL    HW190661  11.926   6.582   6.321
63545SOL    HW290662  11.784   6.655   6.289
63546SOL     OW90663  11.858   6.747   7.389
63546SOL    HW190664  11.918   6.826   7.403
63546SOL    HW290665  11.772   6.778   7.348
63547SOL     OW90666  11.507   7.021   6.647
63547SOL    HW190667  11.429   6.990   6.594
63547SOL    HW290668  11.565   7.079   6.590
63548SOL     OW90669  11.610   5.978   7.085
63548SOL    HW190670  11.692   5.922   7.094
63548SOL    HW290671  11.529   5.920   7.089
63549SOL     OW90672  11.403   7.299   6.069
63549SOL    HW190673  11.437   7.376   6.123
63549SOL    HW290674  11.447   7.299   5.979
63550SOL     OW90675  12.299   6.927   7.276
63550SOL    HW190676  12.346   6.927   7.364
63550SOL    HW290677  12.251   6.840   7.265
63551SOL     OW90678  11.402   7.020   6.124
63551SOL    HW190679  11.376   7.116   6.124
63551SOL    HW290680  11.331   6.966   6.169
63552SOL     OW90681  11.412   6.677   6.472
63552SOL    HW190682  11.426   6.593   6.524
63552SOL    HW290683  11.357   6.741   6.527
63553SOL     OW90684  11.792   7.372   7.025
63553SOL    HW190685  11.700   7.355   7.060
63553SOL    HW290686  11.820   7.464   7.051
63554SOL     OW90687  11.778   6.550   5.709
63554SOL    HW190688  11.785   6.634   5.655
63554SOL    HW290689  11.824   6.563   5.797
63555SOL     OW90690  11.294   6.229   6.149
63555SOL    HW190691  11.249   6.141   6.166
63555SOL    HW290692  11.293   6.283   6.233
63556SOL     OW90693  11.199   7.182   5.703
63556SOL    HW190694  11.180   7.086   5.724
63556SOL    HW290695  11.166   7.240   5.778
63557SOL     OW90696  12.861   6.508   6.198
63557SOL    HW190697  12.956   6.479   6.206
63557SOL    HW290698  12.853   6.573   6.123
63558SOL     OW90699  11.285   6.323   7.183
63558SOL    HW190700  11.373   6.310   7.228
63558SOL    HW290701  11.272   6.420   7.161
63559SOL     OW90702  11.785   6.951   6.312
63559SOL    HW190703  11.736   6.864   6.321
63559SOL    HW290704  11.762   6.994   6.225
63560SOL     OW90705  12.465   6.814   7.009
63560SOL    HW190706  12.502   6.741   6.951
63560SOL    HW290707  12.517   6.819   7.094
63561SOL     OW90708  11.981   5.590   6.088
63561SOL    HW190709  12.021   5.681   6.079
63561SOL    HW290710  11.881   5.598   6.094
63562SOL     OW90711  11.369   6.562   6.850
63562SOL    HW190712  11.458   6.517   6.836
63562SOL    HW290713  11.296   6.497   6.831
63563SOL     OW90714  12.359   7.378   7.202
63563SOL    HW190715  12.383   7.438   7.126
63563SOL    HW290716  12.366   7.283   7.172
63564SOL     OW90717  11.489   5.837   7.387
63564SOL    HW190718  11.560   5.908   7.393
63564SOL    HW290719  11.401   5.876   7.415
63565SOL     OW90720  12.638   7.003   6.539
63565SOL    HW190721  12.579   7.009   6.619
63565SOL    HW290722  12.623   6.915   6.493
63566SOL     OW90723  11.770   6.315   5.856
63566SOL    HW190724  11.794   6.384   5.788
63566SOL    HW290725  11.692   6.348   5.910
63567SOL     OW90726  12.453   5.931   6.530
63567SOL    HW190727  12.367   5.881   6.517
63567SOL    HW290728  12.515   5.877   6.586
63568SOL     OW90729  11.979   6.191   7.051
63568SOL    HW190730  11.932   6.188   7.140
63568SOL    HW290731  11.928   6.136   6.985
63569SOL     OW90732  12.566   6.055   7.260
63569SOL    HW190733  12.546   6.098   7.348
63569SOL    HW290734  12.644   5.993   7.269
63570SOL     OW90735  12.145   6.476   7.158
63570SOL    HW190736  12.191   6.392   7.129
63570SOL    HW290737  12.089   6.510   7.083
63571SOL     OW90738  12.163   5.996   6.828
63571SOL    HW190739  12.086   6.030   6.882
63571SOL    HW290740  12.129   5.945   6.749
63572SOL     OW90741  12.213   6.287   6.015
63572SOL    HW190742  12.239   6.283   6.111
63572SOL    HW290743  12.128   6.236   6.001
63573SOL     OW90744  11.248   6.397   6.375
63573SOL    HW190745  11.347   6.385   6.384
63573SOL    HW290746  11.224   6.492   6.396
63574SOL     OW90747  11.302   7.407   7.157
63574SOL    HW190748  11.292   7.392   7.256
63574SOL    HW290749  11.216   7.443   7.121
63575SOL     OW90750  12.037   5.934   5.781
63575SOL    HW190751  12.096   5.997   5.732
63575SOL    HW290752  12.056   5.840   5.752
63576SOL     OW90753  12.534   6.730   6.131
63576SOL    HW190754  12.617   6.701   6.083
63576SOL    HW290755  12.485   6.797   6.075
63577SOL     OW90756  11.722   5.782   6.471
63577SOL    HW190757  11.717   5.777   6.571
63577SOL    HW290758  11.724   5.878   6.442
63578SOL     OW90759  12.180   7.042   6.063
63578SOL    HW190760  12.134   7.114   6.011
63578SOL    HW290761  12.176   7.062   6.161
63579SOL     OW90762  11.523   7.387   6.439
63579SOL    HW190763  11.573   7.301   6.445
63579SOL    HW290764  11.588   7.464   6.436
63580SOL     OW90765  12.399   7.136   7.092
63580SOL    HW190766  12.405   7.059   7.156
63580SOL    HW290767  12.347   7.110   7.012
63581SOL     OW90768  11.493   6.529   5.828
63581SOL    HW190769  11.575   6.568   5.786
63581SOL    HW290770  11.466   6.447   5.779
63582SOL     OW90771  11.633   6.852   7.313
63582SOL    HW190772  11.583   6.853   7.227
63582SOL    HW290773  11.570   6.834   7.389
63583SOL     OW90774  12.283   7.362   5.823
63583SOL    HW190775  12.223   7.300   5.873
63583SOL    HW290776  12.314   7.318   5.738
63584SOL     OW90777  11.374   5.871   7.084
63584SOL    HW190778  11.294   5.931   7.071
63584SOL    HW290779  11.364   5.822   7.170
63585SOL     OW90780  11.636   7.329   5.909
63585SOL    HW190781  11.669   7.368   5.995
63585SOL    HW290782  11.712   7.322   5.844
63586SOL     OW90783  12.572   5.693   6.012
63586SOL    HW190784  12.548   5.656   5.922
63586SOL    HW290785  12.671   5.709   6.016
63587SOL     OW90786  11.421   7.371   6.827
63587SOL    HW190787  11.478   7.306   6.877
63587SOL    HW290788  11.405   7.338   6.734
63588SOL     OW90789  12.112   7.284   6.490
63588SOL    HW190790  12.192   7.227   6.511
63588SOL    HW290791  12.063   7.244   6.413
63589SOL     OW90792  11.554   6.286   6.066
63589SOL    HW190793  11.599   6.196   6.063
63589SOL    HW290794  11.460   6.275   6.099
63590SOL     OW90795  11.786   5.708   5.703
63590SOL    HW190796  11.884   5.686   5.710
63590SOL    HW290797  11.755   5.691   5.610
63591SOL     OW90798  11.953   5.850   7.335
63591SOL    HW190799  12.020   5.789   7.378
63591SOL    HW290800  11.880   5.869   7.400
63592SOL     OW90801  12.060   7.100   6.781
63592SOL    HW190802  12.037   7.075   6.687
63592SOL    HW290803  12.121   7.031   6.820
63593SOL     OW90804  12.523   6.176   7.019
63593SOL    HW190805  12.551   6.133   7.104
63593SOL    HW290806  12.548   6.272   7.020
63594SOL     OW90807  11.975   6.988   6.510
63594SOL    HW190808  12.065   7.002   6.468
63594SOL    HW290809  11.904   6.990   6.439
63595SOL     OW90810  12.094   6.089   6.485
63595SOL    HW190811  12.069   6.080   6.389
63595SOL    HW290812  12.142   6.007   6.516
63596SOL     OW90813  11.711   5.650   6.098
63596SOL    HW190814  11.630   5.651   6.156
63596SOL    HW290815  11.714   5.733   6.043
63597SOL     OW90816  12.606   6.774   5.627
63597SOL    HW190817  12.638   6.698   5.684
63597SOL    HW290818  12.514   6.801   5.657
63598SOL     OW90819  11.469   5.621   5.757
63598SOL    HW190820  11.518   5.705   5.736
63598SOL    HW290821  11.531   5.556   5.802
63599SOL     OW90822  12.107   5.822   6.066
63599SOL    HW190823  12.059   5.863   5.988
63599SOL    HW290824  12.206   5.820   6.047
63600SOL     OW90825  12.248   6.269   7.050
63600SOL    HW190826  12.168   6.208   7.053
63600SOL    HW290827  12.329   6.216   7.026
63601SOL     OW90828  12.399   7.156   6.379
63601SOL    HW190829  12.420   7.230   6.314
63601SOL    HW290830  12.467   7.156   6.452
63602SOL     OW90831  11.631   6.738   6.327
63602SOL    HW190832  11.560   6.711   6.392
63602SOL    HW290833  11.605   6.710   6.234
63603SOL     OW90834  12.443   7.383   6.177
63603SOL    HW190835  12.487   7.447   6.113
63603SOL    HW290836  12.393   7.435   6.247
63604SOL     OW90837  12.204   6.135   5.602
63604SOL    HW190838  12.163   6.217   5.563
63604SOL    HW290839  12.268   6.161   5.675
63605SOL     OW90840  11.250   6.142   6.972
63605SOL    HW190841  11.342   6.141   6.931
63605SOL    HW290842  11.244   6.216   7.039
63606SOL     OW90843  11.733   5.808   6.733
63606SOL    HW190844  11.771   5.724   6.770
63606SOL    HW290845  11.645   5.827   6.777
63607SOL     OW90846  12.038   6.040   6.228
63607SOL    HW190847  12.006   6.112   6.166
63607SOL    HW290848  12.062   5.959   6.175
63608SOL     OW90849  12.189   5.625   6.339
63608SOL    HW190850  12.117   5.630   6.270
63608SOL    HW290851  12.165   5.556   6.408
63609SOL     OW90852  12.601   6.759   6.453
63609SOL    HW190853  12.546   6.675   6.446
63609SOL    HW290854  12.627   6.788   6.361
63610SOL     OW90855  11.660   6.971   5.760
63610SOL    HW190856  11.573   6.956   5.807
63610SOL    HW290857  11.643   6.997   5.665
63611SOL     OW90858  12.562   6.161   5.664
63611SOL    HW190859  12.508   6.140   5.745
63611SOL    HW290860  12.653   6.120   5.673
63612SOL     OW90861  11.699   5.842   5.914
63612SOL    HW190862  11.726   5.783   5.839
63612SOL    HW290863  11.699   5.937   5.883
63613SOL     OW90864  12.236   6.933   6.926
63613SOL    HW190865  12.156   6.910   6.981
63613SOL    HW290866  12.319   6.907   6.975
63614SOL     OW90867  12.764   7.215   7.211
63614SOL    HW190868  12.791   7.249   7.121
63614SOL    HW290869  12.843   7.177   7.257
63615SOL     OW90870  12.283   6.781   6.686
63615SOL    HW190871  12.243   6.825   6.767
63615SOL    HW290872  12.242   6.818   6.603
63616SOL     OW90873  12.087   5.675   6.988
63616SOL    HW190874  12.112   5.655   6.893
63616SOL    HW290875  12.159   5.731   7.030
63617SOL     OW90876  12.152   6.702   7.305
63617SOL    HW190877  12.053   6.708   7.315
63617SOL    HW290878  12.175   6.622   7.249
63618SOL     OW90879  11.877   6.636   5.954
63618SOL    HW190880  11.863   6.643   6.053
63618SOL    HW290881  11.961   6.585   5.936
63619SOL     OW90882  11.582   6.399   6.837
63619SOL    HW190883  11.668   6.411   6.887
63619SOL    HW290884  11.540   6.312   6.864
63620SOL     OW90885  12.446   5.972   6.848
63620SOL    HW190886  12.467   6.046   6.912
63620SOL    HW290887  12.357   5.989   6.805
63621SOL     OW90888  11.236   7.150   6.917
63621SOL    HW190889  11.190   7.232   6.883
63621SOL    HW290890  11.334   7.169   6.926
63622SOL     OW90891  11.539   6.686   6.087
63622SOL    HW190892  11.532   6.769   6.031
63622SOL    HW290893  11.543   6.606   6.027
63623SOL     OW90894  11.738   6.123   6.451
63623SOL    HW190895  11.750   6.189   6.377
63623SOL    HW290896  11.784   6.157   6.534
63624SOL     OW90897  12.424   6.934   5.974
63624SOL    HW190898  12.474   7.011   6.014
63624SOL    HW290899  12.329   6.936   6.006
63625SOL     OW90900  12.444   7.031   6.728
63625SOL    HW190901  12.491   7.044   6.815
63625SOL    HW290902  12.378   6.957   6.737
63626SOL     OW90903  11.526   7.096   6.915
63626SOL    HW190904  11.505   7.052   6.828
63626SOL    HW290905  11.623   7.122   6.918
63627SOL     OW90906  11.574   6.337   7.184
63627SOL    HW190907  11.642   6.392   7.137
63627SOL    HW290908  11.614   6.249   7.211
63628SOL     OW90909  12.185   5.691   7.356
63628SOL    HW190910  12.191   5.776   7.304
63628SOL    HW290911  12.217   5.615   7.299
63629SOL     OW90912  11.676   5.636   7.326
63629SOL    HW190913  11.634   5.579   7.256
63629SOL    HW290914  11.610   5.705   7.358
63630SOL     OW90915  11.745   6.456   6.615
63630SOL    HW190916  11.789   6.545   6.606
63630SOL    HW290917  11.682   6.456   6.692
63631SOL     OW90918  12.532   6.448   6.631
63631SOL    HW190919  12.457   6.448   6.565
63631SOL    HW290920  12.569   6.356   6.640
63632SOL     OW90921  12.381   6.111   5.861
63632SOL    HW190922  12.394   6.027   5.915
63632SOL    HW290923  12.352   6.185   5.921
63633SOL     OW90924  11.479   5.799   6.817
63633SOL    HW190925  11.456   5.836   6.907
63633SOL    HW290926  11.449   5.704   6.811
63634SOL     OW90927  11.209   6.896   6.868
63634SOL    HW190928  11.262   6.847   6.936
63634SOL    HW290929  11.231   6.994   6.873
63635SOL     OW90930  11.904   6.220   6.650
63635SOL    HW190931  11.963   6.194   6.574
63635SOL    HW290932  11.876   6.316   6.639
63636SOL     OW90933  11.479   5.649   6.204
63636SOL    HW190934  11.468   5.743   6.237
63636SOL    HW290935  11.474   5.586   6.281
63637SOL     OW90936  12.794   5.953   5.960
63637SOL    HW190937  12.796   5.877   6.024
63637SOL    HW290938  12.746   6.030   6.000
63638SOL     OW90939  12.195   6.352   6.552
63638SOL    HW190940  12.210   6.373   6.648
63638SOL    HW290941  12.165   6.257   6.543
63639SOL     OW90942  12.152   7.159   7.286
63639SOL    HW190943  12.132   7.203   7.198
63639SOL    HW290944  12.191   7.068   7.270
63640SOL     OW90945  11.522   6.484   7.390
63640SOL    HW190946  11.598   6.528   7.438
63640SOL    HW290947  11.557   6.437   7.308
63641SOL     OW90948  12.475   6.424   5.628
63641SOL    HW190949  12.509   6.331   5.643
63641SOL    HW290950  12.493   6.451   5.533
63642SOL     OW90951  12.240   6.919   6.435
63642SOL    HW190952  12.247   6.835   6.380
63642SOL    HW290953  12.302   6.988   6.399
63643SOL     OW90954  11.491   6.396   6.535
63643SOL    HW190955  11.584   6.432   6.540
63643SOL    HW290956  11.485   6.311   6.587
63644SOL     OW90957  11.511   6.095   6.592
63644SOL    HW190958  11.459   6.012   6.575
63644SOL    HW290959  11.588   6.100   6.528
63645SOL     OW90960  12.310   5.966   7.264
63645SOL    HW190961  12.265   6.029   7.328
63645SOL    HW290962  12.403   5.997   7.247
63646SOL     OW90963  12.332   5.793   7.063
63646SOL    HW190964  12.332   5.857   7.140
63646SOL    HW290965  12.360   5.841   6.980
63647SOL     OW90966  11.180   6.912   5.786
63647SOL    HW190967  11.087   6.933   5.755
63647SOL    HW290968  11.190   6.813   5.799
63648SOL     OW90969  11.260   7.387   6.513
63648SOL    HW190970  11.218   7.301   6.486
63648SOL    HW290971  11.354   7.390   6.479
63649SOL     OW90972  11.676   7.154   6.496
63649SOL    HW190973  11.742   7.228   6.505
63649SOL    HW290974  11.720   7.075   6.454
63650SOL     OW90975  12.174   6.382   6.824
63650SOL    HW190976  12.215   6.350   6.910
63650SOL    HW290977  12.078   6.355   6.821
63651SOL     OW90978  11.212   6.130   6.700
63651SOL    HW190979  11.297   6.097   6.659
63651SOL    HW290980  11.225   6.145   6.798
63652SOL     OW90981  11.361   6.106   7.308
63652SOL    HW190982  11.420   6.066   7.238
63652SOL    HW290983  11.303   6.177   7.267
63653SOL     OW90984  12.541   6.536   7.246
63653SOL    HW190985  12.580   6.625   7.266
63653SOL    HW290986  12.551   6.516   7.149
63654SOL     OW90987  11.987   6.158   5.911
63654SOL    HW190988  11.994   6.069   5.865
63654SOL    HW290989  11.893   6.192   5.903
63655SOL     OW90990  11.424   7.150   7.330
63655SOL    HW190991  11.394   7.207   7.406
63655SOL    HW290992  11.417   7.053   7.356
63656SOL     OW90993  11.843   6.050   6.855
63656SOL    HW190994  11.809   5.961   6.825
63656SOL    HW290995  11.869   6.104   6.775
63657SOL     OW90996  12.102   7.264   7.051
63657SOL    HW190997  12.078   7.246   6.956
63657SOL    HW290998  12.132   7.358   7.061
63658SOL     OW90999  11.645   6.086   5.777
63658SOL    HW191000  11.706   6.166   5.781
63658SOL    HW291001  11.550   6.117   5.784
63659SOL     OW91002  11.331   6.723   7.052
63659SOL    HW191003  11.353   6.662   7.128
63659SOL    HW291004  11.341   6.674   6.966
63660SOL     OW91005  12.519   6.645   6.820
63660SOL    HW191006  12.543   6.582   6.746
63660SOL    HW291007  12.429   6.685   6.802
63661SOL     OW91008  12.474   6.441   5.895
63661SOL    HW191009  12.388   6.410   5.937
63661SOL    HW291010  12.470   6.427   5.796
63662SOL     OW91011  12.424   7.317   6.714
63662SOL    HW191012  12.508   7.322   6.660
63662SOL    HW291013  12.401   7.221   6.732
63663SOL     OW91014  11.255   6.844   6.608
63663SOL    HW191015  11.250   6.843   6.708
63663SOL    HW291016  11.172   6.803   6.570
63664SOL     OW91017  11.860   7.248   7.302
63664SOL    HW191018  11.804   7.329   7.311
63664SOL    HW291019  11.912   7.252   7.216
63665SOL     OW91020  12.898   5.721   6.109
63665SOL    HW191021  12.971   5.704   6.042
63665SOL    HW291022  12.867   5.634   6.147
63666SOL     OW91023  12.560   7.159   6.063
63666SOL    HW191024  12.627   7.171   5.989
63666SOL    HW291025  12.520   7.248   6.086
63667SOL     OW91026  11.302   7.380   7.437
63667SOL    HW191027  11.261   7.306   7.490
63667SOL    HW291028  11.366   7.431   7.495
63668SOL     OW91029  12.452   6.513   6.258
63668SOL    HW191030  12.512   6.432   6.260
63668SOL    HW291031  12.492   6.582   6.198
63669SOL     OW91032  12.002   6.859   7.008
63669SOL    HW191033  11.997   6.892   7.103
63669SOL    HW291034  11.916   6.878   6.962
63670SOL     OW91035  11.844   7.202   5.740
63670SOL    HW191036  11.853   7.212   5.641
63670SOL    HW291037  11.804   7.113   5.761
63671SOL     OW91038  11.435   5.912   6.306
63671SOL    HW191039  11.356   5.963   6.272
63671SOL    HW291040  11.426   5.897   6.404
63672SOL     OW91041  12.366   7.198   5.617
63672SOL    HW191042  12.372   7.105   5.654
63672SOL    HW291043  12.307   7.198   5.537
63673SOL     OW91044  11.994   6.588   6.958
63673SOL    HW191045  12.034   6.587   6.866
63673SOL    HW291046  12.004   6.680   6.998
63674SOL     OW91047  12.088   6.496   5.877
63674SOL    HW191048  12.151   6.534   5.809
63674SOL    HW291049  12.128   6.413   5.916
63675SOL     OW91050  11.544   6.874   7.076
63675SOL    HW191051  11.531   6.967   7.042
63675SOL    HW291052  11.460   6.822   7.063
63676SOL     OW91053  12.211   6.684   6.282
63676SOL    HW191054  12.141   6.637   6.336
63676SOL    HW291055  12.270   6.616   6.239
63677SOL     OW91056  12.186   5.822   6.557
63677SOL    HW191057  12.178   5.786   6.464
63677SOL    HW291058  12.184   5.746   6.622
63678SOL     OW91059  11.762   7.073   6.077
63678SOL    HW191060  11.804   7.015   6.007
63678SOL    HW291061  11.718   7.152   6.033
63679SOL     OW91062  11.427   6.934   5.876
63679SOL    HW191063  11.331   6.935   5.849
63679SOL    HW291064  11.439   6.987   5.960
63680SOL     OW91065  11.277   6.599   7.312
63680SOL    HW191066  11.200   6.566   7.366
63680SOL    HW291067  11.362   6.569   7.354
63681SOL     OW91068  11.844   5.789   7.075
63681SOL    HW191069  11.934   5.773   7.035
63681SOL    HW291070  11.852   5.794   7.174
63682SOL     OW91071  11.247   5.931   5.619
63682SOL    HW191072  11.155   5.903   5.590
63682SOL    HW291073  11.278   6.008   5.563
63683SOL     OW91074  12.612   6.442   6.984
63683SOL    HW191075  12.555   6.494   6.921
63683SOL    HW291076  12.708   6.454   6.960
63684SOL     OW91077  11.244   5.752   5.904
63684SOL    HW191078  11.227   5.835   5.850
63684SOL    HW291079  11.334   5.715   5.882
63685SOL     OW91080  12.355   6.921   5.705
63685SOL    HW191081  12.256   6.910   5.707
63685SOL    HW291082  12.389   6.936   5.798
63686SOL     OW91083  11.785   6.428   7.017
63686SOL    HW191084  11.841   6.509   7.000
63686SOL    HW291085  11.844   6.348   7.020
63687SOL     OW91086  11.888   6.151   7.294
63687SOL    HW191087  11.907   6.216   7.368
63687SOL    HW291088  11.948   6.071   7.303
63688SOL     OW91089  12.622   6.806   7.219
63688SOL    HW191090  12.613   6.796   7.318
63688SOL    HW291091  12.718   6.799   7.193
63689SOL     OW91092  11.562   7.327   7.146
63689SOL    HW191093  11.471   7.368   7.144
63689SOL    HW291094  11.555   7.233   7.178
63690SOL     OW91095  12.397   5.911   6.035
63690SOL    HW191096  12.462   5.837   6.024
63690SOL    HW291097  12.417   5.961   6.119
63691SOL     OW91098  11.766   6.331   6.238
63691SOL    HW191099  11.816   6.416   6.219
63691SOL    HW291100  11.678   6.333   6.190
63692SOL     OW91101  12.031   6.960   5.602
63692SOL    HW191102  11.985   6.975   5.690
63692SOL    HW291103  12.075   7.045   5.572
63693SOL     OW91104  11.833   7.376   6.539
63693SOL    HW191105  11.787   7.464   6.526
63693SOL    HW291106  11.932   7.388   6.532
63694SOL     OW91107  12.031   6.542   6.447
63694SOL    HW191108  12.085   6.473   6.495
63694SOL    HW291109  11.999   6.611   6.513
63695SOL     OW91110  12.255   6.570   5.673
63695SOL    HW191111  12.232   6.623   5.591
63695SOL    HW291112  12.336   6.514   5.654
63696SOL     OW91113  11.393   6.900   7.430
63696SOL    HW191114  11.328   6.827   7.409
63696SOL    HW291115  11.397   6.914   7.528
63697SOL     OW91116  11.251   6.826   6.239
63697SOL    HW191117  11.250   6.779   6.327
63697SOL    HW291118  11.333   6.798   6.188
63698SOL     OW91119  11.844   6.977   7.210
63698SOL    HW191120  11.766   6.927   7.248
63698SOL    HW291121  11.841   7.072   7.241
63699SOL     OW91122  11.600   6.010   6.106
63699SOL    HW191123  11.630   5.938   6.044
63699SOL    HW291124  11.561   5.970   6.189
63700SOL     OW91125  12.877   7.073   6.690
63700SOL    HW191126  12.784   7.048   6.663
63700SOL    HW291127  12.903   7.023   6.772
63701SOL     OW91128  11.489   6.133   6.866
63701SOL    HW191129  11.527   6.074   6.938
63701SOL    HW291130  11.529   6.107   6.778
63702SOL     OW91131  11.984   7.172   6.273
63702SOL    HW191132  12.016   7.182   6.179
63702SOL    HW291133  11.905   7.110   6.275
63703SOL     OW91134  12.596   5.800   6.698
63703SOL    HW191135  12.648   5.735   6.753
63703SOL    HW291136  12.547   5.863   6.759
63704SOL     OW91137  12.173   5.620   6.740
63704SOL    HW191138  12.110   5.548   6.709
63704SOL    HW291139  12.266   5.584   6.740
63705SOL     OW91140  11.942   6.916   5.887
63705SOL    HW191141  11.896   6.829   5.904
63705SOL    HW291142  12.033   6.913   5.928
63706SOL     OW91143  11.790   7.153   6.870
63706SOL    HW191144  11.785   7.235   6.927
63706SOL    HW291145  11.879   7.150   6.825
63707SOL     OW91146  12.524   5.638   5.754
63707SOL    HW191147  12.559   5.597   5.670
63707SOL    HW291148  12.434   5.600   5.774
63708SOL     OW91149  12.472   6.039   6.277
63708SOL    HW191150  12.413   6.119   6.281
63708SOL    HW291151  12.487   6.004   6.370
63709SOL     OW91152  11.211   6.663   5.886
63709SOL    HW191153  11.310   6.652   5.877
63709SOL    HW291154  11.171   6.577   5.918
63710SOL     OW91155  12.047   7.232   5.923
63710SOL    HW191156  11.970   7.197   5.869
63710SOL    HW291157  12.015   7.303   5.985
63711SOL     OW91158  11.402   6.214   7.561
63711SOL    HW191159  11.309   6.212   7.598
63711SOL    HW291160  11.403   6.175   7.469
63712SOL     OW91161  11.397   5.861   8.444
63712SOL    HW191162  11.432   5.844   8.536
63712SOL    HW291163  11.309   5.816   8.432
63713SOL     OW91164  11.191   5.954   8.095
63713SOL    HW191165  11.109   5.997   8.134
63713SOL    HW291166  11.163   5.881   8.032
63714SOL     OW91167  11.741   6.861   8.613
63714SOL    HW191168  11.648   6.854   8.576
63714SOL    HW291169  11.752   6.950   8.657
63715SOL     OW91170  12.727   7.097   8.151
63715SOL    HW191171  12.670   7.081   8.232
63715SOL    HW291172  12.668   7.107   8.071
63716SOL     OW91173  12.307   6.289   8.165
63716SOL    HW191174  12.364   6.367   8.140
63716SOL    HW291175  12.247   6.315   8.241
63717SOL     OW91176  11.940   6.730   8.471
63717SOL    HW191177  11.862   6.747   8.531
63717SOL    HW291178  11.974   6.817   8.435
63718SOL     OW91179  12.022   6.384   9.271
63718SOL    HW191180  12.018   6.460   9.336
63718SOL    HW291181  12.044   6.420   9.180
63719SOL     OW91182  11.857   6.598   8.113
63719SOL    HW191183  11.926   6.582   8.183
63719SOL    HW291184  11.784   6.655   8.151
63720SOL     OW91185  11.858   6.747   9.251
63720SOL    HW191186  11.918   6.826   9.265
63720SOL    HW291187  11.772   6.778   9.210
63721SOL     OW91188  11.507   7.021   8.509
63721SOL    HW191189  11.429   6.990   8.456
63721SOL    HW291190  11.565   7.079   8.452
63722SOL     OW91191  11.610   5.978   8.947
63722SOL    HW191192  11.692   5.922   8.956
63722SOL    HW291193  11.529   5.920   8.951
63723SOL     OW91194  11.403   7.299   7.931
63723SOL    HW191195  11.437   7.376   7.985
63723SOL    HW291196  11.447   7.299   7.841
63724SOL     OW91197  12.299   6.927   9.138
63724SOL    HW191198  12.346   6.927   9.226
63724SOL    HW291199  12.251   6.840   9.127
63725SOL     OW91200  11.402   7.020   7.986
63725SOL    HW191201  11.376   7.116   7.986
63725SOL    HW291202  11.331   6.966   8.031
63726SOL     OW91203  11.412   6.677   8.334
63726SOL    HW191204  11.426   6.593   8.386
63726SOL    HW291205  11.357   6.741   8.389
63727SOL     OW91206  11.792   7.372   8.887
63727SOL    HW191207  11.700   7.355   8.922
63727SOL    HW291208  11.820   7.464   8.913
63728SOL     OW91209  11.778   6.550   7.571
63728SOL    HW191210  11.785   6.634   7.517
63728SOL    HW291211  11.824   6.563   7.659
63729SOL     OW91212  11.294   6.229   8.011
63729SOL    HW191213  11.249   6.141   8.028
63729SOL    HW291214  11.293   6.283   8.095
63730SOL     OW91215  11.199   7.182   7.565
63730SOL    HW191216  11.180   7.086   7.586
63730SOL    HW291217  11.166   7.240   7.640
63731SOL     OW91218  12.861   6.508   8.060
63731SOL    HW191219  12.956   6.479   8.068
63731SOL    HW291220  12.853   6.573   7.985
63732SOL     OW91221  11.285   6.323   9.045
63732SOL    HW191222  11.373   6.310   9.090
63732SOL    HW291223  11.272   6.420   9.023
63733SOL     OW91224  11.785   6.951   8.174
63733SOL    HW191225  11.736   6.864   8.183
63733SOL    HW291226  11.762   6.994   8.087
63734SOL     OW91227  12.465   6.814   8.871
63734SOL    HW191228  12.502   6.741   8.813
63734SOL    HW291229  12.517   6.819   8.956
63735SOL     OW91230  11.981   5.590   7.950
63735SOL    HW191231  12.021   5.681   7.941
63735SOL    HW291232  11.881   5.598   7.956
63736SOL     OW91233  11.369   6.562   8.712
63736SOL    HW191234  11.458   6.517   8.698
63736SOL    HW291235  11.296   6.497   8.693
63737SOL     OW91236  12.359   7.378   9.064
63737SOL    HW191237  12.383   7.438   8.988
63737SOL    HW291238  12.366   7.283   9.034
63738SOL     OW91239  11.489   5.837   9.249
63738SOL    HW191240  11.560   5.908   9.255
63738SOL    HW291241  11.401   5.876   9.277
63739SOL     OW91242  12.638   7.003   8.401
63739SOL    HW191243  12.579   7.009   8.481
63739SOL    HW291244  12.623   6.915   8.355
63740SOL     OW91245  11.770   6.315   7.718
63740SOL    HW191246  11.794   6.384   7.650
63740SOL    HW291247  11.692   6.348   7.772
63741SOL     OW91248  12.453   5.931   8.392
63741SOL    HW191249  12.367   5.881   8.379
63741SOL    HW291250  12.515   5.877   8.448
63742SOL     OW91251  11.979   6.191   8.913
63742SOL    HW191252  11.932   6.188   9.002
63742SOL    HW291253  11.928   6.136   8.847
63743SOL     OW91254  12.566   6.055   9.122
63743SOL    HW191255  12.546   6.098   9.210
63743SOL    HW291256  12.644   5.993   9.131
63744SOL     OW91257  12.145   6.476   9.020
63744SOL    HW191258  12.191   6.392   8.991
63744SOL    HW291259  12.089   6.510   8.945
63745SOL     OW91260  12.163   5.996   8.690
63745SOL    HW191261  12.086   6.030   8.744
63745SOL    HW291262  12.129   5.945   8.611
63746SOL     OW91263  12.213   6.287   7.877
63746SOL    HW191264  12.239   6.283   7.973
63746SOL    HW291265  12.128   6.236   7.863
63747SOL     OW91266  11.248   6.397   8.237
63747SOL    HW191267  11.347   6.385   8.246
63747SOL    HW291268  11.224   6.492   8.258
63748SOL     OW91269  11.302   7.407   9.019
63748SOL    HW191270  11.292   7.392   9.118
63748SOL    HW291271  11.216   7.443   8.983
63749SOL     OW91272  12.037   5.934   7.643
63749SOL    HW191273  12.096   5.997   7.594
63749SOL    HW291274  12.056   5.840   7.614
63750SOL     OW91275  12.534   6.730   7.993
63750SOL    HW191276  12.617   6.701   7.945
63750SOL    HW291277  12.485   6.797   7.937
63751SOL     OW91278  11.722   5.782   8.333
63751SOL    HW191279  11.717   5.777   8.433
63751SOL    HW291280  11.724   5.878   8.304
63752SOL     OW91281  12.180   7.042   7.925
63752SOL    HW191282  12.134   7.114   7.873
63752SOL    HW291283  12.176   7.062   8.023
63753SOL     OW91284  11.523   7.387   8.301
63753SOL    HW191285  11.573   7.301   8.307
63753SOL    HW291286  11.588   7.464   8.298
63754SOL     OW91287  12.399   7.136   8.954
63754SOL    HW191288  12.405   7.059   9.018
63754SOL    HW291289  12.347   7.110   8.874
63755SOL     OW91290  11.493   6.529   7.690
63755SOL    HW191291  11.575   6.568   7.648
63755SOL    HW291292  11.466   6.447   7.641
63756SOL     OW91293  11.633   6.852   9.175
63756SOL    HW191294  11.583   6.853   9.089
63756SOL    HW291295  11.570   6.834   9.251
63757SOL     OW91296  12.283   7.362   7.685
63757SOL    HW191297  12.223   7.300   7.735
63757SOL    HW291298  12.314   7.318   7.600
63758SOL     OW91299  11.374   5.871   8.946
63758SOL    HW191300  11.294   5.931   8.933
63758SOL    HW291301  11.364   5.822   9.032
63759SOL     OW91302  11.636   7.329   7.771
63759SOL    HW191303  11.669   7.368   7.857
63759SOL    HW291304  11.712   7.322   7.706
63760SOL     OW91305  12.572   5.693   7.874
63760SOL    HW191306  12.548   5.656   7.784
63760SOL    HW291307  12.671   5.709   7.878
63761SOL     OW91308  11.421   7.371   8.689
63761SOL    HW191309  11.478   7.306   8.739
63761SOL    HW291310  11.405   7.338   8.596
63762SOL     OW91311  12.112   7.284   8.352
63762SOL    HW191312  12.192   7.227   8.373
63762SOL    HW291313  12.063   7.244   8.275
63763SOL     OW91314  11.554   6.286   7.928
63763SOL    HW191315  11.599   6.196   7.925
63763SOL    HW291316  11.460   6.275   7.961
63764SOL     OW91317  11.786   5.708   7.565
63764SOL    HW191318  11.884   5.686   7.572
63764SOL    HW291319  11.755   5.691   7.472
63765SOL     OW91320  11.953   5.850   9.197
63765SOL    HW191321  12.020   5.789   9.240
63765SOL    HW291322  11.880   5.869   9.262
63766SOL     OW91323  12.060   7.100   8.643
63766SOL    HW191324  12.037   7.075   8.549
63766SOL    HW291325  12.121   7.031   8.682
63767SOL     OW91326  12.523   6.176   8.881
63767SOL    HW191327  12.551   6.133   8.966
63767SOL    HW291328  12.548   6.272   8.882
63768SOL     OW91329  11.975   6.988   8.372
63768SOL    HW191330  12.065   7.002   8.330
63768SOL    HW291331  11.904   6.990   8.301
63769SOL     OW91332  12.094   6.089   8.347
63769SOL    HW191333  12.069   6.080   8.251
63769SOL    HW291334  12.142   6.007   8.378
63770SOL     OW91335  11.711   5.650   7.960
63770SOL    HW191336  11.630   5.651   8.018
63770SOL    HW291337  11.714   5.733   7.905
63771SOL     OW91338  12.606   6.774   7.489
63771SOL    HW191339  12.638   6.698   7.546
63771SOL    HW291340  12.514   6.801   7.519
63772SOL     OW91341  11.469   5.621   7.619
63772SOL    HW191342  11.518   5.705   7.598
63772SOL    HW291343  11.531   5.556   7.664
63773SOL     OW91344  12.107   5.822   7.928
63773SOL    HW191345  12.059   5.863   7.850
63773SOL    HW291346  12.206   5.820   7.909
63774SOL     OW91347  12.248   6.269   8.912
63774SOL    HW191348  12.168   6.208   8.915
63774SOL    HW291349  12.329   6.216   8.888
63775SOL     OW91350  12.399   7.156   8.241
63775SOL    HW191351  12.420   7.230   8.176
63775SOL    HW291352  12.467   7.156   8.314
63776SOL     OW91353  11.631   6.738   8.189
63776SOL    HW191354  11.560   6.711   8.254
63776SOL    HW291355  11.605   6.710   8.096
63777SOL     OW91356  12.443   7.383   8.039
63777SOL    HW191357  12.487   7.447   7.975
63777SOL    HW291358  12.393   7.435   8.109
63778SOL     OW91359  12.204   6.135   7.464
63778SOL    HW191360  12.163   6.217   7.425
63778SOL    HW291361  12.268   6.161   7.537
63779SOL     OW91362  11.250   6.142   8.834
63779SOL    HW191363  11.342   6.141   8.793
63779SOL    HW291364  11.244   6.216   8.901
63780SOL     OW91365  11.733   5.808   8.595
63780SOL    HW191366  11.771   5.724   8.632
63780SOL    HW291367  11.645   5.827   8.639
63781SOL     OW91368  12.038   6.040   8.090
63781SOL    HW191369  12.006   6.112   8.028
63781SOL    HW291370  12.062   5.959   8.037
63782SOL     OW91371  12.189   5.625   8.201
63782SOL    HW191372  12.117   5.630   8.132
63782SOL    HW291373  12.165   5.556   8.270
63783SOL     OW91374  12.601   6.759   8.315
63783SOL    HW191375  12.546   6.675   8.308
63783SOL    HW291376  12.627   6.788   8.223
63784SOL     OW91377  11.660   6.971   7.622
63784SOL    HW191378  11.573   6.956   7.669
63784SOL    HW291379  11.643   6.997   7.527
63785SOL     OW91380  12.562   6.161   7.526
63785SOL    HW191381  12.508   6.140   7.607
63785SOL    HW291382  12.653   6.120   7.535
63786SOL     OW91383  11.699   5.842   7.776
63786SOL    HW191384  11.726   5.783   7.701
63786SOL    HW291385  11.699   5.937   7.745
63787SOL     OW91386  12.236   6.933   8.788
63787SOL    HW191387  12.156   6.910   8.843
63787SOL    HW291388  12.319   6.907   8.837
63788SOL     OW91389  12.764   7.215   9.073
63788SOL    HW191390  12.791   7.249   8.983
63788SOL    HW291391  12.843   7.177   9.119
63789SOL     OW91392  12.283   6.781   8.548
63789SOL    HW191393  12.243   6.825   8.629
63789SOL    HW291394  12.242   6.818   8.465
63790SOL     OW91395  12.087   5.675   8.850
63790SOL    HW191396  12.112   5.655   8.755
63790SOL    HW291397  12.159   5.731   8.892
63791SOL     OW91398  12.152   6.702   9.167
63791SOL    HW191399  12.053   6.708   9.177
63791SOL    HW291400  12.175   6.622   9.111
63792SOL     OW91401  11.877   6.636   7.816
63792SOL    HW191402  11.863   6.643   7.915
63792SOL    HW291403  11.961   6.585   7.798
63793SOL     OW91404  11.582   6.399   8.699
63793SOL    HW191405  11.668   6.411   8.749
63793SOL    HW291406  11.540   6.312   8.726
63794SOL     OW91407  12.446   5.972   8.710
63794SOL    HW191408  12.467   6.046   8.774
63794SOL    HW291409  12.357   5.989   8.667
63795SOL     OW91410  11.236   7.150   8.779
63795SOL    HW191411  11.190   7.232   8.745
63795SOL    HW291412  11.334   7.169   8.788
63796SOL     OW91413  11.539   6.686   7.949
63796SOL    HW191414  11.532   6.769   7.893
63796SOL    HW291415  11.543   6.606   7.889
63797SOL     OW91416  11.738   6.123   8.313
63797SOL    HW191417  11.750   6.189   8.239
63797SOL    HW291418  11.784   6.157   8.396
63798SOL     OW91419  12.424   6.934   7.836
63798SOL    HW191420  12.474   7.011   7.876
63798SOL    HW291421  12.329   6.936   7.868
63799SOL     OW91422  12.444   7.031   8.590
63799SOL    HW191423  12.491   7.044   8.677
63799SOL    HW291424  12.378   6.957   8.599
63800SOL     OW91425  11.526   7.096   8.777
63800SOL    HW191426  11.505   7.052   8.690
63800SOL    HW291427  11.623   7.122   8.780
63801SOL     OW91428  11.574   6.337   9.046
63801SOL    HW191429  11.642   6.392   8.999
63801SOL    HW291430  11.614   6.249   9.073
63802SOL     OW91431  12.185   5.691   9.218
63802SOL    HW191432  12.191   5.776   9.166
63802SOL    HW291433  12.217   5.615   9.161
63803SOL     OW91434  11.676   5.636   9.188
63803SOL    HW191435  11.634   5.579   9.118
63803SOL    HW291436  11.610   5.705   9.220
63804SOL     OW91437  11.745   6.456   8.477
63804SOL    HW191438  11.789   6.545   8.468
63804SOL    HW291439  11.682   6.456   8.554
63805SOL     OW91440  12.532   6.448   8.493
63805SOL    HW191441  12.457   6.448   8.427
63805SOL    HW291442  12.569   6.356   8.502
63806SOL     OW91443  12.381   6.111   7.723
63806SOL    HW191444  12.394   6.027   7.777
63806SOL    HW291445  12.352   6.185   7.783
63807SOL     OW91446  11.479   5.799   8.679
63807SOL    HW191447  11.456   5.836   8.769
63807SOL    HW291448  11.449   5.704   8.673
63808SOL     OW91449  11.209   6.896   8.730
63808SOL    HW191450  11.262   6.847   8.798
63808SOL    HW291451  11.231   6.994   8.735
63809SOL     OW91452  11.904   6.220   8.512
63809SOL    HW191453  11.963   6.194   8.436
63809SOL    HW291454  11.876   6.316   8.501
63810SOL     OW91455  11.479   5.649   8.066
63810SOL    HW191456  11.468   5.743   8.099
63810SOL    HW291457  11.474   5.586   8.143
63811SOL     OW91458  12.794   5.953   7.822
63811SOL    HW191459  12.796   5.877   7.886
63811SOL    HW291460  12.746   6.030   7.862
63812SOL     OW91461  12.195   6.352   8.414
63812SOL    HW191462  12.210   6.373   8.510
63812SOL    HW291463  12.165   6.257   8.405
63813SOL     OW91464  12.152   7.159   9.148
63813SOL    HW191465  12.132   7.203   9.060
63813SOL    HW291466  12.191   7.068   9.132
63814SOL     OW91467  11.522   6.484   9.252
63814SOL    HW191468  11.598   6.528   9.300
63814SOL    HW291469  11.557   6.437   9.170
63815SOL     OW91470  12.475   6.424   7.490
63815SOL    HW191471  12.509   6.331   7.505
63815SOL    HW291472  12.493   6.451   7.395
63816SOL     OW91473  12.240   6.919   8.297
63816SOL    HW191474  12.247   6.835   8.242
63816SOL    HW291475  12.302   6.988   8.261
63817SOL     OW91476  11.491   6.396   8.397
63817SOL    HW191477  11.584   6.432   8.402
63817SOL    HW291478  11.485   6.311   8.449
63818SOL     OW91479  11.511   6.095   8.454
63818SOL    HW191480  11.459   6.012   8.437
63818SOL    HW291481  11.588   6.100   8.390
63819SOL     OW91482  12.310   5.966   9.126
63819SOL    HW191483  12.265   6.029   9.190
63819SOL    HW291484  12.403   5.997   9.109
63820SOL     OW91485  12.332   5.793   8.925
63820SOL    HW191486  12.332   5.857   9.002
63820SOL    HW291487  12.360   5.841   8.842
63821SOL     OW91488  11.180   6.912   7.648
63821SOL    HW191489  11.087   6.933   7.617
63821SOL    HW291490  11.190   6.813   7.661
63822SOL     OW91491  11.260   7.387   8.375
63822SOL    HW191492  11.218   7.301   8.348
63822SOL    HW291493  11.354   7.390   8.341
63823SOL     OW91494  11.676   7.154   8.358
63823SOL    HW191495  11.742   7.228   8.367
63823SOL    HW291496  11.720   7.075   8.316
63824SOL     OW91497  12.174   6.382   8.686
63824SOL    HW191498  12.215   6.350   8.772
63824SOL    HW291499  12.078   6.355   8.683
63825SOL     OW91500  11.212   6.130   8.562
63825SOL    HW191501  11.297   6.097   8.521
63825SOL    HW291502  11.225   6.145   8.660
63826SOL     OW91503  11.361   6.106   9.170
63826SOL    HW191504  11.420   6.066   9.100
63826SOL    HW291505  11.303   6.177   9.129
63827SOL     OW91506  12.541   6.536   9.108
63827SOL    HW191507  12.580   6.625   9.128
63827SOL    HW291508  12.551   6.516   9.011
63828SOL     OW91509  11.987   6.158   7.773
63828SOL    HW191510  11.994   6.069   7.727
63828SOL    HW291511  11.893   6.192   7.765
63829SOL     OW91512  11.424   7.150   9.192
63829SOL    HW191513  11.394   7.207   9.268
63829SOL    HW291514  11.417   7.053   9.218
63830SOL     OW91515  11.843   6.050   8.717
63830SOL    HW191516  11.809   5.961   8.687
63830SOL    HW291517  11.869   6.104   8.637
63831SOL     OW91518  12.102   7.264   8.913
63831SOL    HW191519  12.078   7.246   8.818
63831SOL    HW291520  12.132   7.358   8.923
63832SOL     OW91521  11.645   6.086   7.639
63832SOL    HW191522  11.706   6.166   7.643
63832SOL    HW291523  11.550   6.117   7.646
63833SOL     OW91524  11.331   6.723   8.914
63833SOL    HW191525  11.353   6.662   8.990
63833SOL    HW291526  11.341   6.674   8.828
63834SOL     OW91527  12.519   6.645   8.682
63834SOL    HW191528  12.543   6.582   8.608
63834SOL    HW291529  12.429   6.685   8.664
63835SOL     OW91530  12.474   6.441   7.757
63835SOL    HW191531  12.388   6.410   7.799
63835SOL    HW291532  12.470   6.427   7.658
63836SOL     OW91533  12.424   7.317   8.576
63836SOL    HW191534  12.508   7.322   8.522
63836SOL    HW291535  12.401   7.221   8.594
63837SOL     OW91536  11.255   6.844   8.470
63837SOL    HW191537  11.250   6.843   8.570
63837SOL    HW291538  11.172   6.803   8.432
63838SOL     OW91539  11.860   7.248   9.164
63838SOL    HW191540  11.804   7.329   9.173
63838SOL    HW291541  11.912   7.252   9.078
63839SOL     OW91542  12.898   5.721   7.971
63839SOL    HW191543  12.971   5.704   7.904
63839SOL    HW291544  12.867   5.634   8.009
63840SOL     OW91545  12.560   7.159   7.925
63840SOL    HW191546  12.627   7.171   7.851
63840SOL    HW291547  12.520   7.248   7.948
63841SOL     OW91548  11.302   7.380   9.299
63841SOL    HW191549  11.261   7.306   9.352
63841SOL    HW291550  11.366   7.431   9.357
63842SOL     OW91551  12.452   6.513   8.120
63842SOL    HW191552  12.512   6.432   8.122
63842SOL    HW291553  12.492   6.582   8.060
63843SOL     OW91554  12.002   6.859   8.870
63843SOL    HW191555  11.997   6.892   8.965
63843SOL    HW291556  11.916   6.878   8.824
63844SOL     OW91557  11.844   7.202   7.602
63844SOL    HW191558  11.853   7.212   7.503
63844SOL    HW291559  11.804   7.113   7.623
63845SOL     OW91560  11.435   5.912   8.168
63845SOL    HW191561  11.356   5.963   8.134
63845SOL    HW291562  11.426   5.897   8.266
63846SOL     OW91563  12.366   7.198   7.479
63846SOL    HW191564  12.372   7.105   7.516
63846SOL    HW291565  12.307   7.198   7.399
63847SOL     OW91566  11.994   6.588   8.820
63847SOL    HW191567  12.034   6.587   8.728
63847SOL    HW291568  12.004   6.680   8.860
63848SOL     OW91569  12.088   6.496   7.739
63848SOL    HW191570  12.151   6.534   7.671
63848SOL    HW291571  12.128   6.413   7.778
63849SOL     OW91572  11.544   6.874   8.938
63849SOL    HW191573  11.531   6.967   8.904
63849SOL    HW291574  11.460   6.822   8.925
63850SOL     OW91575  12.211   6.684   8.144
63850SOL    HW191576  12.141   6.637   8.198
63850SOL    HW291577  12.270   6.616   8.101
63851SOL     OW91578  12.186   5.822   8.419
63851SOL    HW191579  12.178   5.786   8.326
63851SOL    HW291580  12.184   5.746   8.484
63852SOL     OW91581  11.762   7.073   7.939
63852SOL    HW191582  11.804   7.015   7.869
63852SOL    HW291583  11.718   7.152   7.895
63853SOL     OW91584  11.427   6.934   7.738
63853SOL    HW191585  11.331   6.935   7.711
63853SOL    HW291586  11.439   6.987   7.822
63854SOL     OW91587  11.277   6.599   9.174
63854SOL    HW191588  11.200   6.566   9.228
63854SOL    HW291589  11.362   6.569   9.216
63855SOL     OW91590  11.844   5.789   8.937
63855SOL    HW191591  11.934   5.773   8.897
63855SOL    HW291592  11.852   5.794   9.036
63856SOL     OW91593  11.247   5.931   7.481
63856SOL    HW191594  11.155   5.903   7.452
63856SOL    HW291595  11.278   6.008   7.425
63857SOL     OW91596  12.612   6.442   8.846
63857SOL    HW191597  12.555   6.494   8.783
63857SOL    HW291598  12.708   6.454   8.822
63858SOL     OW91599  11.244   5.752   7.766
63858SOL    HW191600  11.227   5.835   7.712
63858SOL    HW291601  11.334   5.715   7.744
63859SOL     OW91602  12.355   6.921   7.567
63859SOL    HW191603  12.256   6.910   7.569
63859SOL    HW291604  12.389   6.936   7.660
63860SOL     OW91605  11.785   6.428   8.879
63860SOL    HW191606  11.841   6.509   8.862
63860SOL    HW291607  11.844   6.348   8.882
63861SOL     OW91608  11.888   6.151   9.156
63861SOL    HW191609  11.907   6.216   9.230
63861SOL    HW291610  11.948   6.071   9.165
63862SOL     OW91611  12.622   6.806   9.081
63862SOL    HW191612  12.613   6.796   9.180
63862SOL    HW291613  12.718   6.799   9.055
63863SOL     OW91614  11.562   7.327   9.008
63863SOL    HW191615  11.471   7.368   9.006
63863SOL    HW291616  11.555   7.233   9.040
63864SOL     OW91617  12.397   5.911   7.897
63864SOL    HW191618  12.462   5.837   7.886
63864SOL    HW291619  12.417   5.961   7.981
63865SOL     OW91620  11.766   6.331   8.100
63865SOL    HW191621  11.816   6.416   8.081
63865SOL    HW291622  11.678   6.333   8.052
63866SOL     OW91623  12.031   6.960   7.464
63866SOL    HW191624  11.985   6.975   7.552
63866SOL    HW291625  12.075   7.045   7.434
63867SOL     OW91626  11.833   7.376   8.401
63867SOL    HW191627  11.787   7.464   8.388
63867SOL    HW291628  11.932   7.388   8.394
63868SOL     OW91629  12.031   6.542   8.309
63868SOL    HW191630  12.085   6.473   8.357
63868SOL    HW291631  11.999   6.611   8.375
63869SOL     OW91632  12.255   6.570   7.535
63869SOL    HW191633  12.232   6.623   7.453
63869SOL    HW291634  12.336   6.514   7.516
63870SOL     OW91635  11.393   6.900   9.292
63870SOL    HW191636  11.328   6.827   9.271
63870SOL    HW291637  11.397   6.914   9.390
63871SOL     OW91638  11.251   6.826   8.101
63871SOL    HW191639  11.250   6.779   8.189
63871SOL    HW291640  11.333   6.798   8.050
63872SOL     OW91641  11.844   6.977   9.072
63872SOL    HW191642  11.766   6.927   9.110
63872SOL    HW291643  11.841   7.072   9.103
63873SOL     OW91644  11.600   6.010   7.968
63873SOL    HW191645  11.630   5.938   7.906
63873SOL    HW291646  11.561   5.970   8.051
63874SOL     OW91647  12.877   7.073   8.552
63874SOL    HW191648  12.784   7.048   8.525
63874SOL    HW291649  12.903   7.023   8.634
63875SOL     OW91650  11.489   6.133   8.728
63875SOL    HW191651  11.527   6.074   8.800
63875SOL    HW291652  11.529   6.107   8.640
63876SOL     OW91653  11.984   7.172   8.135
63876SOL    HW191654  12.016   7.182   8.041
63876SOL    HW291655  11.905   7.110   8.137
63877SOL     OW91656  12.596   5.800   8.560
63877SOL    HW191657  12.648   5.735   8.615
63877SOL    HW291658  12.547   5.863   8.621
63878SOL     OW91659  12.173   5.620   8.602
63878SOL    HW191660  12.110   5.548   8.571
63878SOL    HW291661  12.266   5.584   8.602
63879SOL     OW91662  11.942   6.916   7.749
63879SOL    HW191663  11.896   6.829   7.766
63879SOL    HW291664  12.033   6.913   7.790
63880SOL     OW91665  11.790   7.153   8.732
63880SOL    HW191666  11.785   7.235   8.789
63880SOL    HW291667  11.879   7.150   8.687
63881SOL     OW91668  12.524   5.638   7.616
63881SOL    HW191669  12.559   5.597   7.532
63881SOL    HW291670  12.434   5.600   7.636
63882SOL     OW91671  12.472   6.039   8.139
63882SOL    HW191672  12.413   6.119   8.143
63882SOL    HW291673  12.487   6.004   8.232
63883SOL     OW91674  11.211   6.663   7.748
63883SOL    HW191675  11.310   6.652   7.739
63883SOL    HW291676  11.171   6.577   7.780
63884SOL     OW91677  12.047   7.232   7.785
63884SOL    HW191678  11.970   7.197   7.731
63884SOL    HW291679  12.015   7.303   7.847
63885SOL     OW91680  11.402   6.214   9.423
63885SOL    HW191681  11.309   6.212   9.460
63885SOL    HW291682  11.403   6.175   9.331
63886SOL     OW91683  11.397   5.861  10.306
63886SOL    HW191684  11.432   5.844  10.398
63886SOL    HW291685  11.309   5.816  10.294
63887SOL     OW91686  11.191   5.954   9.957
63887SOL    HW191687  11.109   5.997   9.996
63887SOL    HW291688  11.163   5.881   9.894
63888SOL     OW91689  11.741   6.861  10.475
63888SOL    HW191690  11.648   6.854  10.438
63888SOL    HW291691  11.752   6.950  10.519
63889SOL     OW91692  12.727   7.097  10.013
63889SOL    HW191693  12.670   7.081  10.094
63889SOL    HW291694  12.668   7.107   9.933
63890SOL     OW91695  12.307   6.289  10.027
63890SOL    HW191696  12.364   6.367  10.002
63890SOL    HW291697  12.247   6.315  10.103
63891SOL     OW91698  11.940   6.730  10.333
63891SOL    HW191699  11.862   6.747  10.393
63891SOL    HW291700  11.974   6.817  10.297
63892SOL     OW91701  12.022   6.384  11.133
63892SOL    HW191702  12.018   6.460  11.198
63892SOL    HW291703  12.044   6.420  11.042
63893SOL     OW91704  11.857   6.598   9.975
63893SOL    HW191705  11.926   6.582  10.045
63893SOL    HW291706  11.784   6.655  10.013
63894SOL     OW91707  11.858   6.747  11.113
63894SOL    HW191708  11.918   6.826  11.127
63894SOL    HW291709  11.772   6.778  11.072
63895SOL     OW91710  11.507   7.021  10.371
63895SOL    HW191711  11.429   6.990  10.318
63895SOL    HW291712  11.565   7.079  10.314
63896SOL     OW91713  11.610   5.978  10.809
63896SOL    HW191714  11.692   5.922  10.818
63896SOL    HW291715  11.529   5.920  10.813
63897SOL     OW91716  11.403   7.299   9.793
63897SOL    HW191717  11.437   7.376   9.847
63897SOL    HW291718  11.447   7.299   9.703
63898SOL     OW91719  12.299   6.927  11.000
63898SOL    HW191720  12.346   6.927  11.088
63898SOL    HW291721  12.251   6.840  10.989
63899SOL     OW91722  11.402   7.020   9.848
63899SOL    HW191723  11.376   7.116   9.848
63899SOL    HW291724  11.331   6.966   9.893
63900SOL     OW91725  11.412   6.677  10.196
63900SOL    HW191726  11.426   6.593  10.248
63900SOL    HW291727  11.357   6.741  10.251
63901SOL     OW91728  11.792   7.372  10.749
63901SOL    HW191729  11.700   7.355  10.784
63901SOL    HW291730  11.820   7.464  10.775
63902SOL     OW91731  11.778   6.550   9.433
63902SOL    HW191732  11.785   6.634   9.379
63902SOL    HW291733  11.824   6.563   9.521
63903SOL     OW91734  11.294   6.229   9.873
63903SOL    HW191735  11.249   6.141   9.890
63903SOL    HW291736  11.293   6.283   9.957
63904SOL     OW91737  11.199   7.182   9.427
63904SOL    HW191738  11.180   7.086   9.448
63904SOL    HW291739  11.166   7.240   9.502
63905SOL     OW91740  12.861   6.508   9.922
63905SOL    HW191741  12.956   6.479   9.930
63905SOL    HW291742  12.853   6.573   9.847
63906SOL     OW91743  11.285   6.323  10.907
63906SOL    HW191744  11.373   6.310  10.952
63906SOL    HW291745  11.272   6.420  10.885
63907SOL     OW91746  11.785   6.951  10.036
63907SOL    HW191747  11.736   6.864  10.045
63907SOL    HW291748  11.762   6.994   9.949
63908SOL     OW91749  12.465   6.814  10.733
63908SOL    HW191750  12.502   6.741  10.675
63908SOL    HW291751  12.517   6.819  10.818
63909SOL     OW91752  11.981   5.590   9.812
63909SOL    HW191753  12.021   5.681   9.803
63909SOL    HW291754  11.881   5.598   9.818
63910SOL     OW91755  11.369   6.562  10.574
63910SOL    HW191756  11.458   6.517  10.560
63910SOL    HW291757  11.296   6.497  10.555
63911SOL     OW91758  12.359   7.378  10.926
63911SOL    HW191759  12.383   7.438  10.850
63911SOL    HW291760  12.366   7.283  10.896
63912SOL     OW91761  11.489   5.837  11.111
63912SOL    HW191762  11.560   5.908  11.117
63912SOL    HW291763  11.401   5.876  11.139
63913SOL     OW91764  12.638   7.003  10.263
63913SOL    HW191765  12.579   7.009  10.343
63913SOL    HW291766  12.623   6.915  10.217
63914SOL     OW91767  11.770   6.315   9.580
63914SOL    HW191768  11.794   6.384   9.512
63914SOL    HW291769  11.692   6.348   9.634
63915SOL     OW91770  12.453   5.931  10.254
63915SOL    HW191771  12.367   5.881  10.241
63915SOL    HW291772  12.515   5.877  10.310
63916SOL     OW91773  11.979   6.191  10.775
63916SOL    HW191774  11.932   6.188  10.864
63916SOL    HW291775  11.928   6.136  10.709
63917SOL     OW91776  12.566   6.055  10.984
63917SOL    HW191777  12.546   6.098  11.072
63917SOL    HW291778  12.644   5.993  10.993
63918SOL     OW91779  12.145   6.476  10.882
63918SOL    HW191780  12.191   6.392  10.853
63918SOL    HW291781  12.089   6.510  10.807
63919SOL     OW91782  12.163   5.996  10.552
63919SOL    HW191783  12.086   6.030  10.606
63919SOL    HW291784  12.129   5.945  10.473
63920SOL     OW91785  12.213   6.287   9.739
63920SOL    HW191786  12.239   6.283   9.835
63920SOL    HW291787  12.128   6.236   9.725
63921SOL     OW91788  11.248   6.397  10.099
63921SOL    HW191789  11.347   6.385  10.108
63921SOL    HW291790  11.224   6.492  10.120
63922SOL     OW91791  11.302   7.407  10.881
63922SOL    HW191792  11.292   7.392  10.980
63922SOL    HW291793  11.216   7.443  10.845
63923SOL     OW91794  12.037   5.934   9.505
63923SOL    HW191795  12.096   5.997   9.456
63923SOL    HW291796  12.056   5.840   9.476
63924SOL     OW91797  12.534   6.730   9.855
63924SOL    HW191798  12.617   6.701   9.807
63924SOL    HW291799  12.485   6.797   9.799
63925SOL     OW91800  11.722   5.782  10.195
63925SOL    HW191801  11.717   5.777  10.295
63925SOL    HW291802  11.724   5.878  10.166
63926SOL     OW91803  12.180   7.042   9.787
63926SOL    HW191804  12.134   7.114   9.735
63926SOL    HW291805  12.176   7.062   9.885
63927SOL     OW91806  11.523   7.387  10.163
63927SOL    HW191807  11.573   7.301  10.169
63927SOL    HW291808  11.588   7.464  10.160
63928SOL     OW91809  12.399   7.136  10.816
63928SOL    HW191810  12.405   7.059  10.880
63928SOL    HW291811  12.347   7.110  10.736
63929SOL     OW91812  11.493   6.529   9.552
63929SOL    HW191813  11.575   6.568   9.510
63929SOL    HW291814  11.466   6.447   9.503
63930SOL     OW91815  11.633   6.852  11.037
63930SOL    HW191816  11.583   6.853  10.951
63930SOL    HW291817  11.570   6.834  11.113
63931SOL     OW91818  12.283   7.362   9.547
63931SOL    HW191819  12.223   7.300   9.597
63931SOL    HW291820  12.314   7.318   9.462
63932SOL     OW91821  11.374   5.871  10.808
63932SOL    HW191822  11.294   5.931  10.795
63932SOL    HW291823  11.364   5.822  10.894
63933SOL     OW91824  11.636   7.329   9.633
63933SOL    HW191825  11.669   7.368   9.719
63933SOL    HW291826  11.712   7.322   9.568
63934SOL     OW91827  12.572   5.693   9.736
63934SOL    HW191828  12.548   5.656   9.646
63934SOL    HW291829  12.671   5.709   9.740
63935SOL     OW91830  11.421   7.371  10.551
63935SOL    HW191831  11.478   7.306  10.601
63935SOL    HW291832  11.405   7.338  10.458
63936SOL     OW91833  12.112   7.284  10.214
63936SOL    HW191834  12.192   7.227  10.235
63936SOL    HW291835  12.063   7.244  10.137
63937SOL     OW91836  11.554   6.286   9.790
63937SOL    HW191837  11.599   6.196   9.787
63937SOL    HW291838  11.460   6.275   9.823
63938SOL     OW91839  11.786   5.708   9.427
63938SOL    HW191840  11.884   5.686   9.434
63938SOL    HW291841  11.755   5.691   9.334
63939SOL     OW91842  11.953   5.850  11.059
63939SOL    HW191843  12.020   5.789  11.102
63939SOL    HW291844  11.880   5.869  11.124
63940SOL     OW91845  12.060   7.100  10.505
63940SOL    HW191846  12.037   7.075  10.411
63940SOL    HW291847  12.121   7.031  10.544
63941SOL     OW91848  12.523   6.176  10.743
63941SOL    HW191849  12.551   6.133  10.828
63941SOL    HW291850  12.548   6.272  10.744
63942SOL     OW91851  11.975   6.988  10.234
63942SOL    HW191852  12.065   7.002  10.192
63942SOL    HW291853  11.904   6.990  10.163
63943SOL     OW91854  12.094   6.089  10.209
63943SOL    HW191855  12.069   6.080  10.113
63943SOL    HW291856  12.142   6.007  10.240
63944SOL     OW91857  11.711   5.650   9.822
63944SOL    HW191858  11.630   5.651   9.880
63944SOL    HW291859  11.714   5.733   9.767
63945SOL     OW91860  12.606   6.774   9.351
63945SOL    HW191861  12.638   6.698   9.408
63945SOL    HW291862  12.514   6.801   9.381
63946SOL     OW91863  11.469   5.621   9.481
63946SOL    HW191864  11.518   5.705   9.460
63946SOL    HW291865  11.531   5.556   9.526
63947SOL     OW91866  12.107   5.822   9.790
63947SOL    HW191867  12.059   5.863   9.712
63947SOL    HW291868  12.206   5.820   9.771
63948SOL     OW91869  12.248   6.269  10.774
63948SOL    HW191870  12.168   6.208  10.777
63948SOL    HW291871  12.329   6.216  10.750
63949SOL     OW91872  12.399   7.156  10.103
63949SOL    HW191873  12.420   7.230  10.038
63949SOL    HW291874  12.467   7.156  10.176
63950SOL     OW91875  11.631   6.738  10.051
63950SOL    HW191876  11.560   6.711  10.116
63950SOL    HW291877  11.605   6.710   9.958
63951SOL     OW91878  12.443   7.383   9.901
63951SOL    HW191879  12.487   7.447   9.837
63951SOL    HW291880  12.393   7.435   9.971
63952SOL     OW91881  12.204   6.135   9.326
63952SOL    HW191882  12.163   6.217   9.287
63952SOL    HW291883  12.268   6.161   9.399
63953SOL     OW91884  11.250   6.142  10.696
63953SOL    HW191885  11.342   6.141  10.655
63953SOL    HW291886  11.244   6.216  10.763
63954SOL     OW91887  11.733   5.808  10.457
63954SOL    HW191888  11.771   5.724  10.494
63954SOL    HW291889  11.645   5.827  10.501
63955SOL     OW91890  12.038   6.040   9.952
63955SOL    HW191891  12.006   6.112   9.890
63955SOL    HW291892  12.062   5.959   9.899
63956SOL     OW91893  12.189   5.625  10.063
63956SOL    HW191894  12.117   5.630   9.994
63956SOL    HW291895  12.165   5.556  10.132
63957SOL     OW91896  12.601   6.759  10.177
63957SOL    HW191897  12.546   6.675  10.170
63957SOL    HW291898  12.627   6.788  10.085
63958SOL     OW91899  11.660   6.971   9.484
63958SOL    HW191900  11.573   6.956   9.531
63958SOL    HW291901  11.643   6.997   9.389
63959SOL     OW91902  12.562   6.161   9.388
63959SOL    HW191903  12.508   6.140   9.469
63959SOL    HW291904  12.653   6.120   9.397
63960SOL     OW91905  11.699   5.842   9.638
63960SOL    HW191906  11.726   5.783   9.563
63960SOL    HW291907  11.699   5.937   9.607
63961SOL     OW91908  12.236   6.933  10.650
63961SOL    HW191909  12.156   6.910  10.705
63961SOL    HW291910  12.319   6.907  10.699
63962SOL     OW91911  12.764   7.215  10.935
63962SOL    HW191912  12.791   7.249  10.845
63962SOL    HW291913  12.843   7.177  10.981
63963SOL     OW91914  12.283   6.781  10.410
63963SOL    HW191915  12.243   6.825  10.491
63963SOL    HW291916  12.242   6.818  10.327
63964SOL     OW91917  12.087   5.675  10.712
63964SOL    HW191918  12.112   5.655  10.617
63964SOL    HW291919  12.159   5.731  10.754
63965SOL     OW91920  12.152   6.702  11.029
63965SOL    HW191921  12.053   6.708  11.039
63965SOL    HW291922  12.175   6.622  10.973
63966SOL     OW91923  11.877   6.636   9.678
63966SOL    HW191924  11.863   6.643   9.777
63966SOL    HW291925  11.961   6.585   9.660
63967SOL     OW91926  11.582   6.399  10.561
63967SOL    HW191927  11.668   6.411  10.611
63967SOL    HW291928  11.540   6.312  10.588
63968SOL     OW91929  12.446   5.972  10.572
63968SOL    HW191930  12.467   6.046  10.636
63968SOL    HW291931  12.357   5.989  10.529
63969SOL     OW91932  11.236   7.150  10.641
63969SOL    HW191933  11.190   7.232  10.607
63969SOL    HW291934  11.334   7.169  10.650
63970SOL     OW91935  11.539   6.686   9.811
63970SOL    HW191936  11.532   6.769   9.755
63970SOL    HW291937  11.543   6.606   9.751
63971SOL     OW91938  11.738   6.123  10.175
63971SOL    HW191939  11.750   6.189  10.101
63971SOL    HW291940  11.784   6.157  10.258
63972SOL     OW91941  12.424   6.934   9.698
63972SOL    HW191942  12.474   7.011   9.738
63972SOL    HW291943  12.329   6.936   9.730
63973SOL     OW91944  12.444   7.031  10.452
63973SOL    HW191945  12.491   7.044  10.539
63973SOL    HW291946  12.378   6.957  10.461
63974SOL     OW91947  11.526   7.096  10.639
63974SOL    HW191948  11.505   7.052  10.552
63974SOL    HW291949  11.623   7.122  10.642
63975SOL     OW91950  11.574   6.337  10.908
63975SOL    HW191951  11.642   6.392  10.861
63975SOL    HW291952  11.614   6.249  10.935
63976SOL     OW91953  12.185   5.691  11.080
63976SOL    HW191954  12.191   5.776  11.028
63976SOL    HW291955  12.217   5.615  11.023
63977SOL     OW91956  11.676   5.636  11.050
63977SOL    HW191957  11.634   5.579  10.980
63977SOL    HW291958  11.610   5.705  11.082
63978SOL     OW91959  11.745   6.456  10.339
63978SOL    HW191960  11.789   6.545  10.330
63978SOL    HW291961  11.682   6.456  10.416
63979SOL     OW91962  12.532   6.448  10.355
63979SOL    HW191963  12.457   6.448  10.289
63979SOL    HW291964  12.569   6.356  10.364
63980SOL     OW91965  12.381   6.111   9.585
63980SOL    HW191966  12.394   6.027   9.639
63980SOL    HW291967  12.352   6.185   9.645
63981SOL     OW91968  11.479   5.799  10.541
63981SOL    HW191969  11.456   5.836  10.631
63981SOL    HW291970  11.449   5.704  10.535
63982SOL     OW91971  11.209   6.896  10.592
63982SOL    HW191972  11.262   6.847  10.660
63982SOL    HW291973  11.231   6.994  10.597
63983SOL     OW91974  11.904   6.220  10.374
63983SOL    HW191975  11.963   6.194  10.298
63983SOL    HW291976  11.876   6.316  10.363
63984SOL     OW91977  11.479   5.649   9.928
63984SOL    HW191978  11.468   5.743   9.961
63984SOL    HW291979  11.474   5.586  10.005
63985SOL     OW91980  12.794   5.953   9.684
63985SOL    HW191981  12.796   5.877   9.748
63985SOL    HW291982  12.746   6.030   9.724
63986SOL     OW91983  12.195   6.352  10.276
63986SOL    HW191984  12.210   6.373  10.372
63986SOL    HW291985  12.165   6.257  10.267
63987SOL     OW91986  12.152   7.159  11.010
63987SOL    HW191987  12.132   7.203  10.922
63987SOL    HW291988  12.191   7.068  10.994
63988SOL     OW91989  11.522   6.484  11.114
63988SOL    HW191990  11.598   6.528  11.162
63988SOL    HW291991  11.557   6.437  11.032
63989SOL     OW91992  12.475   6.424   9.352
63989SOL    HW191993  12.509   6.331   9.367
63989SOL    HW291994  12.493   6.451   9.257
63990SOL     OW91995  12.240   6.919  10.159
63990SOL    HW191996  12.247   6.835  10.104
63990SOL    HW291997  12.302   6.988  10.123
63991SOL     OW91998  11.491   6.396  10.259
63991SOL    HW191999  11.584   6.432  10.264
63991SOL    HW292000  11.485   6.311  10.311
63992SOL     OW92001  11.511   6.095  10.316
63992SOL    HW192002  11.459   6.012  10.299
63992SOL    HW292003  11.588   6.100  10.252
63993SOL     OW92004  12.310   5.966  10.988
63993SOL    HW192005  12.265   6.029  11.052
63993SOL    HW292006  12.403   5.997  10.971
63994SOL     OW92007  12.332   5.793  10.787
63994SOL    HW192008  12.332   5.857  10.864
63994SOL    HW292009  12.360   5.841  10.704
63995SOL     OW92010  11.180   6.912   9.510
63995SOL    HW192011  11.087   6.933   9.479
63995SOL    HW292012  11.190   6.813   9.523
63996SOL     OW92013  11.260   7.387  10.237
63996SOL    HW192014  11.218   7.301  10.210
63996SOL    HW292015  11.354   7.390  10.203
63997SOL     OW92016  11.676   7.154  10.220
63997SOL    HW192017  11.742   7.228  10.229
63997SOL    HW292018  11.720   7.075  10.178
63998SOL     OW92019  12.174   6.382  10.548
63998SOL    HW192020  12.215   6.350  10.634
63998SOL    HW292021  12.078   6.355  10.545
63999SOL     OW92022  11.212   6.130  10.424
63999SOL    HW192023  11.297   6.097  10.383
63999SOL    HW292024  11.225   6.145  10.522
64000SOL     OW92025  11.361   6.106  11.032
64000SOL    HW192026  11.420   6.066  10.962
64000SOL    HW292027  11.303   6.177  10.991
64001SOL     OW92028  12.541   6.536  10.970
64001SOL    HW192029  12.580   6.625  10.990
64001SOL    HW292030  12.551   6.516  10.873
64002SOL     OW92031  11.987   6.158   9.635
64002SOL    HW192032  11.994   6.069   9.589
64002SOL    HW292033  11.893   6.192   9.627
64003SOL     OW92034  11.424   7.150  11.054
64003SOL    HW192035  11.394   7.207  11.130
64003SOL    HW292036  11.417   7.053  11.080
64004SOL     OW92037  11.843   6.050  10.579
64004SOL    HW192038  11.809   5.961  10.549
64004SOL    HW292039  11.869   6.104  10.499
64005SOL     OW92040  12.102   7.264  10.775
64005SOL    HW192041  12.078   7.246  10.680
64005SOL    HW292042  12.132   7.358  10.785
64006SOL     OW92043  11.645   6.086   9.501
64006SOL    HW192044  11.706   6.166   9.505
64006SOL    HW292045  11.550   6.117   9.508
64007SOL     OW92046  11.331   6.723  10.776
64007SOL    HW192047  11.353   6.662  10.852
64007SOL    HW292048  11.341   6.674  10.690
64008SOL     OW92049  12.519   6.645  10.544
64008SOL    HW192050  12.543   6.582  10.470
64008SOL    HW292051  12.429   6.685  10.526
64009SOL     OW92052  12.474   6.441   9.619
64009SOL    HW192053  12.388   6.410   9.661
64009SOL    HW292054  12.470   6.427   9.520
64010SOL     OW92055  12.424   7.317  10.438
64010SOL    HW192056  12.508   7.322  10.384
64010SOL    HW292057  12.401   7.221  10.456
64011SOL     OW92058  11.255   6.844  10.332
64011SOL    HW192059  11.250   6.843  10.432
64011SOL    HW292060  11.172   6.803  10.294
64012SOL     OW92061  11.860   7.248  11.026
64012SOL    HW192062  11.804   7.329  11.035
64012SOL    HW292063  11.912   7.252  10.940
64013SOL     OW92064  12.898   5.721   9.833
64013SOL    HW192065  12.971   5.704   9.766
64013SOL    HW292066  12.867   5.634   9.871
64014SOL     OW92067  12.560   7.159   9.787
64014SOL    HW192068  12.627   7.171   9.713
64014SOL    HW292069  12.520   7.248   9.810
64015SOL     OW92070  11.302   7.380  11.161
64015SOL    HW192071  11.261   7.306  11.214
64015SOL    HW292072  11.366   7.431  11.219
64016SOL     OW92073  12.452   6.513   9.982
64016SOL    HW192074  12.512   6.432   9.984
64016SOL    HW292075  12.492   6.582   9.922
64017SOL     OW92076  12.002   6.859  10.732
64017SOL    HW192077  11.997   6.892  10.827
64017SOL    HW292078  11.916   6.878  10.686
64018SOL     OW92079  11.844   7.202   9.464
64018SOL    HW192080  11.853   7.212   9.365
64018SOL    HW292081  11.804   7.113   9.485
64019SOL     OW92082  11.435   5.912  10.030
64019SOL    HW192083  11.356   5.963   9.996
64019SOL    HW292084  11.426   5.897  10.128
64020SOL     OW92085  12.366   7.198   9.341
64020SOL    HW192086  12.372   7.105   9.378
64020SOL    HW292087  12.307   7.198   9.261
64021SOL     OW92088  11.994   6.588  10.682
64021SOL    HW192089  12.034   6.587  10.590
64021SOL    HW292090  12.004   6.680  10.722
64022SOL     OW92091  12.088   6.496   9.601
64022SOL    HW192092  12.151   6.534   9.533
64022SOL    HW292093  12.128   6.413   9.640
64023SOL     OW92094  11.544   6.874  10.800
64023SOL    HW192095  11.531   6.967  10.766
64023SOL    HW292096  11.460   6.822  10.787
64024SOL     OW92097  12.211   6.684  10.006
64024SOL    HW192098  12.141   6.637  10.060
64024SOL    HW292099  12.270   6.616   9.963
64025SOL     OW92100  12.186   5.822  10.281
64025SOL    HW192101  12.178   5.786  10.188
64025SOL    HW292102  12.184   5.746  10.346
64026SOL     OW92103  11.762   7.073   9.801
64026SOL    HW192104  11.804   7.015   9.731
64026SOL    HW292105  11.718   7.152   9.757
64027SOL     OW92106  11.427   6.934   9.600
64027SOL    HW192107  11.331   6.935   9.573
64027SOL    HW292108  11.439   6.987   9.684
64028SOL     OW92109  11.277   6.599  11.036
64028SOL    HW192110  11.200   6.566  11.090
64028SOL    HW292111  11.362   6.569  11.078
64029SOL     OW92112  11.844   5.789  10.799
64029SOL    HW192113  11.934   5.773  10.759
64029SOL    HW292114  11.852   5.794  10.898
64030SOL     OW92115  11.247   5.931   9.343
64030SOL    HW192116  11.155   5.903   9.314
64030SOL    HW292117  11.278   6.008   9.287
64031SOL     OW92118  12.612   6.442  10.708
64031SOL    HW192119  12.555   6.494  10.645
64031SOL    HW292120  12.708   6.454  10.684
64032SOL     OW92121  11.244   5.752   9.628
64032SOL    HW192122  11.227   5.835   9.574
64032SOL    HW292123  11.334   5.715   9.606
64033SOL     OW92124  12.355   6.921   9.429
64033SOL    HW192125  12.256   6.910   9.431
64033SOL    HW292126  12.389   6.936   9.522
64034SOL     OW92127  11.785   6.428  10.741
64034SOL    HW192128  11.841   6.509  10.724
64034SOL    HW292129  11.844   6.348  10.744
64035SOL     OW92130  11.888   6.151  11.018
64035SOL    HW192131  11.907   6.216  11.092
64035SOL    HW292132  11.948   6.071  11.027
64036SOL     OW92133  12.622   6.806  10.943
64036SOL    HW192134  12.613   6.796  11.042
64036SOL    HW292135  12.718   6.799  10.917
64037SOL     OW92136  11.562   7.327  10.870
64037SOL    HW192137  11.471   7.368  10.868
64037SOL    HW292138  11.555   7.233  10.902
64038SOL     OW92139  12.397   5.911   9.759
64038SOL    HW192140  12.462   5.837   9.748
64038SOL    HW292141  12.417   5.961   9.843
64039SOL     OW92142  11.766   6.331   9.962
64039SOL    HW192143  11.816   6.416   9.943
64039SOL    HW292144  11.678   6.333   9.914
64040SOL     OW92145  12.031   6.960   9.326
64040SOL    HW192146  11.985   6.975   9.414
64040SOL    HW292147  12.075   7.045   9.296
64041SOL     OW92148  11.833   7.376  10.263
64041SOL    HW192149  11.787   7.464  10.250
64041SOL    HW292150  11.932   7.388  10.256
64042SOL     OW92151  12.031   6.542  10.171
64042SOL    HW192152  12.085   6.473  10.219
64042SOL    HW292153  11.999   6.611  10.237
64043SOL     OW92154  12.255   6.570   9.397
64043SOL    HW192155  12.232   6.623   9.315
64043SOL    HW292156  12.336   6.514   9.378
64044SOL     OW92157  11.393   6.900  11.154
64044SOL    HW192158  11.328   6.827  11.133
64044SOL    HW292159  11.397   6.914  11.252
64045SOL     OW92160  11.251   6.826   9.963
64045SOL    HW192161  11.250   6.779  10.051
64045SOL    HW292162  11.333   6.798   9.912
64046SOL     OW92163  11.844   6.977  10.934
64046SOL    HW192164  11.766   6.927  10.972
64046SOL    HW292165  11.841   7.072  10.965
64047SOL     OW92166  11.600   6.010   9.830
64047SOL    HW192167  11.630   5.938   9.768
64047SOL    HW292168  11.561   5.970   9.913
64048SOL     OW92169  12.877   7.073  10.414
64048SOL    HW192170  12.784   7.048  10.387
64048SOL    HW292171  12.903   7.023  10.496
64049SOL     OW92172  11.489   6.133  10.590
64049SOL    HW192173  11.527   6.074  10.662
64049SOL    HW292174  11.529   6.107  10.502
64050SOL     OW92175  11.984   7.172   9.997
64050SOL    HW192176  12.016   7.182   9.903
64050SOL    HW292177  11.905   7.110   9.999
64051SOL     OW92178  12.596   5.800  10.422
64051SOL    HW192179  12.648   5.735  10.477
64051SOL    HW292180  12.547   5.863  10.483
64052SOL     OW92181  12.173   5.620  10.464
64052SOL    HW192182  12.110   5.548  10.433
64052SOL    HW292183  12.266   5.584  10.464
64053SOL     OW92184  11.942   6.916   9.611
64053SOL    HW192185  11.896   6.829   9.628
64053SOL    HW292186  12.033   6.913   9.652
64054SOL     OW92187  11.790   7.153  10.594
64054SOL    HW192188  11.785   7.235  10.651
64054SOL    HW292189  11.879   7.150  10.549
64055SOL     OW92190  12.524   5.638   9.478
64055SOL    HW192191  12.559   5.597   9.394
64055SOL    HW292192  12.434   5.600   9.498
64056SOL     OW92193  12.472   6.039  10.001
64056SOL    HW192194  12.413   6.119  10.005
64056SOL    HW292195  12.487   6.004  10.094
64057SOL     OW92196  11.211   6.663   9.610
64057SOL    HW192197  11.310   6.652   9.601
64057SOL    HW292198  11.171   6.577   9.642
64058SOL     OW92199  12.047   7.232   9.647
64058SOL    HW192200  11.970   7.197   9.593
64058SOL    HW292201  12.015   7.303   9.709
64059SOL     OW92202  11.402   6.214  11.285
64059SOL    HW192203  11.309   6.212  11.322
64059SOL    HW292204  11.403   6.175  11.193
64060SOL     OW92205  11.397   5.861  12.168
64060SOL    HW192206  11.432   5.844  12.260
64060SOL    HW292207  11.309   5.816  12.156
64061SOL     OW92208  11.191   5.954  11.819
64061SOL    HW192209  11.109   5.997  11.858
64061SOL    HW292210  11.163   5.881  11.756
64062SOL     OW92211  11.741   6.861  12.337
64062SOL    HW192212  11.648   6.854  12.300
64062SOL    HW292213  11.752   6.950  12.381
64063SOL     OW92214  12.727   7.097  11.875
64063SOL    HW192215  12.670   7.081  11.956
64063SOL    HW292216  12.668   7.107  11.795
64064SOL     OW92217  12.307   6.289  11.889
64064SOL    HW192218  12.364   6.367  11.864
64064SOL    HW292219  12.247   6.315  11.965
64065SOL     OW92220  11.940   6.730  12.195
64065SOL    HW192221  11.862   6.747  12.255
64065SOL    HW292222  11.974   6.817  12.159
64066SOL     OW92223  11.857   6.598  11.837
64066SOL    HW192224  11.926   6.582  11.907
64066SOL    HW292225  11.784   6.655  11.875
64067SOL     OW92226  11.507   7.021  12.233
64067SOL    HW192227  11.429   6.990  12.180
64067SOL    HW292228  11.565   7.079  12.176
64068SOL     OW92229  11.610   5.978  12.671
64068SOL    HW192230  11.692   5.922  12.680
64068SOL    HW292231  11.529   5.920  12.675
64069SOL     OW92232  11.403   7.299  11.655
64069SOL    HW192233  11.437   7.376  11.709
64069SOL    HW292234  11.447   7.299  11.565
64070SOL     OW92235  11.402   7.020  11.710
64070SOL    HW192236  11.376   7.116  11.710
64070SOL    HW292237  11.331   6.966  11.755
64071SOL     OW92238  11.412   6.677  12.058
64071SOL    HW192239  11.426   6.593  12.110
64071SOL    HW292240  11.357   6.741  12.113
64072SOL     OW92241  11.792   7.372  12.611
64072SOL    HW192242  11.700   7.355  12.646
64072SOL    HW292243  11.820   7.464  12.637
64073SOL     OW92244  11.778   6.550  11.295
64073SOL    HW192245  11.785   6.634  11.241
64073SOL    HW292246  11.824   6.563  11.383
64074SOL     OW92247  11.294   6.229  11.735
64074SOL    HW192248  11.249   6.141  11.752
64074SOL    HW292249  11.293   6.283  11.819
64075SOL     OW92250  11.199   7.182  11.289
64075SOL    HW192251  11.180   7.086  11.310
64075SOL    HW292252  11.166   7.240  11.364
64076SOL     OW92253  12.861   6.508  11.784
64076SOL    HW192254  12.956   6.479  11.792
64076SOL    HW292255  12.853   6.573  11.709
64077SOL     OW92256  11.785   6.951  11.898
64077SOL    HW192257  11.736   6.864  11.907
64077SOL    HW292258  11.762   6.994  11.811
64078SOL     OW92259  11.981   5.590  11.674
64078SOL    HW192260  12.021   5.681  11.665
64078SOL    HW292261  11.881   5.598  11.680
64079SOL     OW92262  11.369   6.562  12.436
64079SOL    HW192263  11.458   6.517  12.422
64079SOL    HW292264  11.296   6.497  12.417
64080SOL     OW92265  11.489   5.837  12.973
64080SOL    HW192266  11.560   5.908  12.979
64080SOL    HW292267  11.401   5.876  13.001
64081SOL     OW92268  12.638   7.003  12.125
64081SOL    HW192269  12.579   7.009  12.205
64081SOL    HW292270  12.623   6.915  12.079
64082SOL     OW92271  11.770   6.315  11.442
64082SOL    HW192272  11.794   6.384  11.374
64082SOL    HW292273  11.692   6.348  11.496
64083SOL     OW92274  12.453   5.931  12.116
64083SOL    HW192275  12.367   5.881  12.103
64083SOL    HW292276  12.515   5.877  12.172
64084SOL     OW92277  11.979   6.191  12.637
64084SOL    HW192278  11.932   6.188  12.726
64084SOL    HW292279  11.928   6.136  12.571
64085SOL     OW92280  12.163   5.996  12.414
64085SOL    HW192281  12.086   6.030  12.468
64085SOL    HW292282  12.129   5.945  12.335
64086SOL     OW92283  12.213   6.287  11.601
64086SOL    HW192284  12.239   6.283  11.697
64086SOL    HW292285  12.128   6.236  11.587
64087SOL     OW92286  11.248   6.397  11.961
64087SOL    HW192287  11.347   6.385  11.970
64087SOL    HW292288  11.224   6.492  11.982
64088SOL     OW92289  11.302   7.407  12.743
64088SOL    HW192290  11.292   7.392  12.842
64088SOL    HW292291  11.216   7.443  12.707
64089SOL     OW92292  12.037   5.934  11.367
64089SOL    HW192293  12.096   5.997  11.318
64089SOL    HW292294  12.056   5.840  11.338
64090SOL     OW92295  12.534   6.730  11.717
64090SOL    HW192296  12.617   6.701  11.669
64090SOL    HW292297  12.485   6.797  11.661
64091SOL     OW92298  11.722   5.782  12.057
64091SOL    HW192299  11.717   5.777  12.157
64091SOL    HW292300  11.724   5.878  12.028
64092SOL     OW92301  12.180   7.042  11.649
64092SOL    HW192302  12.134   7.114  11.597
64092SOL    HW292303  12.176   7.062  11.747
64093SOL     OW92304  11.523   7.387  12.025
64093SOL    HW192305  11.573   7.301  12.031
64093SOL    HW292306  11.588   7.464  12.022
64094SOL     OW92307  11.493   6.529  11.414
64094SOL    HW192308  11.575   6.568  11.372
64094SOL    HW292309  11.466   6.447  11.365
64095SOL     OW92310  12.283   7.362  11.409
64095SOL    HW192311  12.223   7.300  11.459
64095SOL    HW292312  12.314   7.318  11.324
64096SOL     OW92313  11.636   7.329  11.495
64096SOL    HW192314  11.669   7.368  11.581
64096SOL    HW292315  11.712   7.322  11.430
64097SOL     OW92316  12.572   5.693  11.598
64097SOL    HW192317  12.548   5.656  11.508
64097SOL    HW292318  12.671   5.709  11.602
64098SOL     OW92319  11.421   7.371  12.413
64098SOL    HW192320  11.478   7.306  12.463
64098SOL    HW292321  11.405   7.338  12.320
64099SOL     OW92322  12.112   7.284  12.076
64099SOL    HW192323  12.192   7.227  12.097
64099SOL    HW292324  12.063   7.244  11.999
64100SOL     OW92325  11.554   6.286  11.652
64100SOL    HW192326  11.599   6.196  11.649
64100SOL    HW292327  11.460   6.275  11.685
64101SOL     OW92328  11.786   5.708  11.289
64101SOL    HW192329  11.884   5.686  11.296
64101SOL    HW292330  11.755   5.691  11.196
64102SOL     OW92331  12.060   7.100  12.367
64102SOL    HW192332  12.037   7.075  12.273
64102SOL    HW292333  12.121   7.031  12.406
64103SOL     OW92334  11.975   6.988  12.096
64103SOL    HW192335  12.065   7.002  12.054
64103SOL    HW292336  11.904   6.990  12.025
64104SOL     OW92337  12.094   6.089  12.071
64104SOL    HW192338  12.069   6.080  11.975
64104SOL    HW292339  12.142   6.007  12.102
64105SOL     OW92340  11.711   5.650  11.684
64105SOL    HW192341  11.630   5.651  11.742
64105SOL    HW292342  11.714   5.733  11.629
64106SOL     OW92343  12.606   6.774  11.213
64106SOL    HW192344  12.638   6.698  11.270
64106SOL    HW292345  12.514   6.801  11.243
64107SOL     OW92346  11.469   5.621  11.343
64107SOL    HW192347  11.518   5.705  11.322
64107SOL    HW292348  11.531   5.556  11.388
64108SOL     OW92349  12.107   5.822  11.652
64108SOL    HW192350  12.059   5.863  11.574
64108SOL    HW292351  12.206   5.820  11.633
64109SOL     OW92352  12.399   7.156  11.965
64109SOL    HW192353  12.420   7.230  11.900
64109SOL    HW292354  12.467   7.156  12.038
64110SOL     OW92355  11.631   6.738  11.913
64110SOL    HW192356  11.560   6.711  11.978
64110SOL    HW292357  11.605   6.710  11.820
64111SOL     OW92358  12.443   7.383  11.763
64111SOL    HW192359  12.487   7.447  11.699
64111SOL    HW292360  12.393   7.435  11.833
64112SOL     OW92361  12.204   6.135  11.188
64112SOL    HW192362  12.163   6.217  11.149
64112SOL    HW292363  12.268   6.161  11.261
64113SOL     OW92364  11.250   6.142  12.558
64113SOL    HW192365  11.342   6.141  12.517
64113SOL    HW292366  11.244   6.216  12.625
64114SOL     OW92367  11.733   5.808  12.319
64114SOL    HW192368  11.771   5.724  12.356
64114SOL    HW292369  11.645   5.827  12.363
64115SOL     OW92370  12.038   6.040  11.814
64115SOL    HW192371  12.006   6.112  11.752
64115SOL    HW292372  12.062   5.959  11.761
64116SOL     OW92373  12.189   5.625  11.925
64116SOL    HW192374  12.117   5.630  11.856
64116SOL    HW292375  12.165   5.556  11.994
64117SOL     OW92376  12.601   6.759  12.039
64117SOL    HW192377  12.546   6.675  12.032
64117SOL    HW292378  12.627   6.788  11.947
64118SOL     OW92379  11.660   6.971  11.346
64118SOL    HW192380  11.573   6.956  11.393
64118SOL    HW292381  11.643   6.997  11.251
64119SOL     OW92382  12.562   6.161  11.250
64119SOL    HW192383  12.508   6.140  11.331
64119SOL    HW292384  12.653   6.120  11.259
64120SOL     OW92385  11.699   5.842  11.500
64120SOL    HW192386  11.726   5.783  11.425
64120SOL    HW292387  11.699   5.937  11.469
64121SOL     OW92388  12.236   6.933  12.512
64121SOL    HW192389  12.156   6.910  12.567
64121SOL    HW292390  12.319   6.907  12.561
64122SOL     OW92391  12.283   6.781  12.272
64122SOL    HW192392  12.243   6.825  12.353
64122SOL    HW292393  12.242   6.818  12.189
64123SOL     OW92394  12.087   5.675  12.574
64123SOL    HW192395  12.112   5.655  12.479
64123SOL    HW292396  12.159   5.731  12.616
64124SOL     OW92397  11.877   6.636  11.540
64124SOL    HW192398  11.863   6.643  11.639
64124SOL    HW292399  11.961   6.585  11.522
64125SOL     OW92400  11.582   6.399  12.423
64125SOL    HW192401  11.668   6.411  12.473
64125SOL    HW292402  11.540   6.312  12.450
64126SOL     OW92403  12.446   5.972  12.434
64126SOL    HW192404  12.467   6.046  12.498
64126SOL    HW292405  12.357   5.989  12.391
64127SOL     OW92406  11.236   7.150  12.503
64127SOL    HW192407  11.190   7.232  12.469
64127SOL    HW292408  11.334   7.169  12.512
64128SOL     OW92409  11.539   6.686  11.673
64128SOL    HW192410  11.532   6.769  11.617
64128SOL    HW292411  11.543   6.606  11.613
64129SOL     OW92412  11.738   6.123  12.037
64129SOL    HW192413  11.750   6.189  11.963
64129SOL    HW292414  11.784   6.157  12.120
64130SOL     OW92415  12.424   6.934  11.560
64130SOL    HW192416  12.474   7.011  11.600
64130SOL    HW292417  12.329   6.936  11.592
64131SOL     OW92418  12.444   7.031  12.314
64131SOL    HW192419  12.491   7.044  12.401
64131SOL    HW292420  12.378   6.957  12.323
64132SOL     OW92421  11.526   7.096  12.501
64132SOL    HW192422  11.505   7.052  12.414
64132SOL    HW292423  11.623   7.122  12.504
64133SOL     OW92424  11.574   6.337  12.770
64133SOL    HW192425  11.642   6.392  12.723
64133SOL    HW292426  11.614   6.249  12.797
64134SOL     OW92427  12.759   6.365  12.842
64134SOL    HW192428  12.667   6.403  12.837
64134SOL    HW292429  12.819   6.412  12.777
64135SOL     OW92430  11.745   6.456  12.201
64135SOL    HW192431  11.789   6.545  12.192
64135SOL    HW292432  11.682   6.456  12.278
64136SOL     OW92433  12.532   6.448  12.217
64136SOL    HW192434  12.457   6.448  12.151
64136SOL    HW292435  12.569   6.356  12.226
64137SOL     OW92436  12.381   6.111  11.447
64137SOL    HW192437  12.394   6.027  11.501
64137SOL    HW292438  12.352   6.185  11.507
64138SOL     OW92439  11.479   5.799  12.403
64138SOL    HW192440  11.456   5.836  12.493
64138SOL    HW292441  11.449   5.704  12.397
64139SOL     OW92442  11.209   6.896  12.454
64139SOL    HW192443  11.262   6.847  12.522
64139SOL    HW292444  11.231   6.994  12.459
64140SOL     OW92445  11.904   6.220  12.236
64140SOL    HW192446  11.963   6.194  12.160
64140SOL    HW292447  11.876   6.316  12.225
64141SOL     OW92448  11.479   5.649  11.790
64141SOL    HW192449  11.468   5.743  11.823
64141SOL    HW292450  11.474   5.586  11.867
64142SOL     OW92451  12.794   5.953  11.546
64142SOL    HW192452  12.796   5.877  11.610
64142SOL    HW292453  12.746   6.030  11.586
64143SOL     OW92454  12.195   6.352  12.138
64143SOL    HW192455  12.210   6.373  12.234
64143SOL    HW292456  12.165   6.257  12.129
64144SOL     OW92457  12.152   7.159  12.872
64144SOL    HW192458  12.132   7.203  12.784
64144SOL    HW292459  12.191   7.068  12.856
64145SOL     OW92460  12.475   6.424  11.214
64145SOL    HW192461  12.509   6.331  11.229
64145SOL    HW292462  12.493   6.451  11.119
64146SOL     OW92463  12.240   6.919  12.021
64146SOL    HW192464  12.247   6.835  11.966
64146SOL    HW292465  12.302   6.988  11.985
64147SOL     OW92466  11.491   6.396  12.121
64147SOL    HW192467  11.584   6.432  12.126
64147SOL    HW292468  11.485   6.311  12.173
64148SOL     OW92469  11.511   6.095  12.178
64148SOL    HW192470  11.459   6.012  12.161
64148SOL    HW292471  11.588   6.100  12.114
64149SOL     OW92472  12.310   5.966  12.850
64149SOL    HW192473  12.265   6.029  12.914
64149SOL    HW292474  12.403   5.997  12.833
64150SOL     OW92475  12.332   5.793  12.649
64150SOL    HW192476  12.332   5.857  12.726
64150SOL    HW292477  12.360   5.841  12.566
64151SOL     OW92478  11.180   6.912  11.372
64151SOL    HW192479  11.087   6.933  11.341
64151SOL    HW292480  11.190   6.813  11.385
64152SOL     OW92481  11.260   7.387  12.099
64152SOL    HW192482  11.218   7.301  12.072
64152SOL    HW292483  11.354   7.390  12.065
64153SOL     OW92484  11.676   7.154  12.082
64153SOL    HW192485  11.742   7.228  12.091
64153SOL    HW292486  11.720   7.075  12.040
64154SOL     OW92487  12.174   6.382  12.410
64154SOL    HW192488  12.215   6.350  12.496
64154SOL    HW292489  12.078   6.355  12.407
64155SOL     OW92490  11.212   6.130  12.286
64155SOL    HW192491  11.297   6.097  12.245
64155SOL    HW292492  11.225   6.145  12.384
64156SOL     OW92493  11.987   6.158  11.497
64156SOL    HW192494  11.994   6.069  11.451
64156SOL    HW292495  11.893   6.192  11.489
64157SOL     OW92496  11.843   6.050  12.441
64157SOL    HW192497  11.809   5.961  12.411
64157SOL    HW292498  11.869   6.104  12.361
64158SOL     OW92499  12.102   7.264  12.637
64158SOL    HW192500  12.078   7.246  12.542
64158SOL    HW292501  12.132   7.358  12.647
64159SOL     OW92502  11.645   6.086  11.363
64159SOL    HW192503  11.706   6.166  11.367
64159SOL    HW292504  11.550   6.117  11.370
64160SOL     OW92505  11.331   6.723  12.638
64160SOL    HW192506  11.353   6.662  12.714
64160SOL    HW292507  11.341   6.674  12.552
64161SOL     OW92508  12.519   6.645  12.406
64161SOL    HW192509  12.543   6.582  12.332
64161SOL    HW292510  12.429   6.685  12.388
64162SOL     OW92511  12.474   6.441  11.481
64162SOL    HW192512  12.388   6.410  11.523
64162SOL    HW292513  12.470   6.427  11.382
64163SOL     OW92514  12.424   7.317  12.300
64163SOL    HW192515  12.508   7.322  12.246
64163SOL    HW292516  12.401   7.221  12.318
64164SOL     OW92517  11.255   6.844  12.194
64164SOL    HW192518  11.250   6.843  12.294
64164SOL    HW292519  11.172   6.803  12.156
64165SOL     OW92520  12.898   5.721  11.695
64165SOL    HW192521  12.971   5.704  11.628
64165SOL    HW292522  12.867   5.634  11.733
64166SOL     OW92523  12.560   7.159  11.649
64166SOL    HW192524  12.627   7.171  11.575
64166SOL    HW292525  12.520   7.248  11.672
64167SOL     OW92526  12.452   6.513  11.844
64167SOL    HW192527  12.512   6.432  11.846
64167SOL    HW292528  12.492   6.582  11.784
64168SOL     OW92529  11.844   7.202  11.326
64168SOL    HW192530  11.853   7.212  11.227
64168SOL    HW292531  11.804   7.113  11.347
64169SOL     OW92532  11.435   5.912  11.892
64169SOL    HW192533  11.356   5.963  11.858
64169SOL    HW292534  11.426   5.897  11.990
64170SOL     OW92535  12.366   7.198  11.203
64170SOL    HW192536  12.372   7.105  11.240
64170SOL    HW292537  12.307   7.198  11.123
64171SOL     OW92538  11.994   6.588  12.544
64171SOL    HW192539  12.034   6.587  12.452
64171SOL    HW292540  12.004   6.680  12.584
64172SOL     OW92541  12.088   6.496  11.463
64172SOL    HW192542  12.151   6.534  11.395
64172SOL    HW292543  12.128   6.413  11.502
64173SOL     OW92544  11.544   6.874  12.662
64173SOL    HW192545  11.531   6.967  12.628
64173SOL    HW292546  11.460   6.822  12.649
64174SOL     OW92547  12.211   6.684  11.868
64174SOL    HW192548  12.141   6.637  11.922
64174SOL    HW292549  12.270   6.616  11.825
64175SOL     OW92550  12.186   5.822  12.143
64175SOL    HW192551  12.178   5.786  12.050
64175SOL    HW292552  12.184   5.746  12.208
64176SOL     OW92553  11.762   7.073  11.663
64176SOL    HW192554  11.804   7.015  11.593
64176SOL    HW292555  11.718   7.152  11.619
64177SOL     OW92556  11.427   6.934  11.462
64177SOL    HW192557  11.331   6.935  11.435
64177SOL    HW292558  11.439   6.987  11.546
64178SOL     OW92559  11.247   5.931  11.205
64178SOL    HW192560  11.155   5.903  11.176
64178SOL    HW292561  11.278   6.008  11.149
64179SOL     OW92562  12.612   6.442  12.570
64179SOL    HW192563  12.555   6.494  12.507
64179SOL    HW292564  12.708   6.454  12.546
64180SOL     OW92565  11.244   5.752  11.490
64180SOL    HW192566  11.227   5.835  11.436
64180SOL    HW292567  11.334   5.715  11.468
64181SOL     OW92568  12.355   6.921  11.291
64181SOL    HW192569  12.256   6.910  11.293
64181SOL    HW292570  12.389   6.936  11.384
64182SOL     OW92571  11.785   6.428  12.603
64182SOL    HW192572  11.841   6.509  12.586
64182SOL    HW292573  11.844   6.348  12.606
64183SOL     OW92574  11.562   7.327  12.732
64183SOL    HW192575  11.471   7.368  12.730
64183SOL    HW292576  11.555   7.233  12.764
64184SOL     OW92577  12.397   5.911  11.621
64184SOL    HW192578  12.462   5.837  11.610
64184SOL    HW292579  12.417   5.961  11.705
64185SOL     OW92580  11.766   6.331  11.824
64185SOL    HW192581  11.816   6.416  11.805
64185SOL    HW292582  11.678   6.333  11.776
64186SOL     OW92583  12.031   6.960  11.188
64186SOL    HW192584  11.985   6.975  11.276
64186SOL    HW292585  12.075   7.045  11.158
64187SOL     OW92586  11.833   7.376  12.125
64187SOL    HW192587  11.787   7.464  12.112
64187SOL    HW292588  11.932   7.388  12.118
64188SOL     OW92589  12.031   6.542  12.033
64188SOL    HW192590  12.085   6.473  12.081
64188SOL    HW292591  11.999   6.611  12.099
64189SOL     OW92592  12.255   6.570  11.259
64189SOL    HW192593  12.232   6.623  11.177
64189SOL    HW292594  12.336   6.514  11.240
64190SOL     OW92595  11.251   6.826  11.825
64190SOL    HW192596  11.250   6.779  11.913
64190SOL    HW292597  11.333   6.798  11.774
64191SOL     OW92598  11.600   6.010  11.692
64191SOL    HW192599  11.630   5.938  11.630
64191SOL    HW292600  11.561   5.970  11.775
64192SOL     OW92601  12.877   7.073  12.276
64192SOL    HW192602  12.784   7.048  12.249
64192SOL    HW292603  12.903   7.023  12.358
64193SOL     OW92604  11.489   6.133  12.452
64193SOL    HW192605  11.527   6.074  12.524
64193SOL    HW292606  11.529   6.107  12.364
64194SOL     OW92607  11.984   7.172  11.859
64194SOL    HW192608  12.016   7.182  11.765
64194SOL    HW292609  11.905   7.110  11.861
64195SOL     OW92610  12.596   5.800  12.284
64195SOL    HW192611  12.648   5.735  12.339
64195SOL    HW292612  12.547   5.863  12.345
64196SOL     OW92613  12.173   5.620  12.326
64196SOL    HW192614  12.110   5.548  12.295
64196SOL    HW292615  12.266   5.584  12.326
64197SOL     OW92616  11.942   6.916  11.473
64197SOL    HW192617  11.896   6.829  11.490
64197SOL    HW292618  12.033   6.913  11.514
64198SOL     OW92619  11.790   7.153  12.456
64198SOL    HW192620  11.785   7.235  12.513
64198SOL    HW292621  11.879   7.150  12.411
64199SOL     OW92622  12.524   5.638  11.340
64199SOL    HW192623  12.559   5.597  11.256
64199SOL    HW292624  12.434   5.600  11.360
64200SOL     OW92625  12.472   6.039  11.863
64200SOL    HW192626  12.413   6.119  11.867
64200SOL    HW292627  12.487   6.004  11.956
64201SOL     OW92628  11.211   6.663  11.472
64201SOL    HW192629  11.310   6.652  11.463
64201SOL    HW292630  11.171   6.577  11.504
64202SOL     OW92631  12.047   7.232  11.509
64202SOL    HW192632  11.970   7.197  11.455
64202SOL    HW292633  12.015   7.303  11.571
64203SOL     OW92634  11.402   8.076   0.113
64203SOL    HW192635  11.309   8.074   0.150
64203SOL    HW292636  11.403   8.037   0.021
64204SOL     OW92637  11.397   7.723   0.996
64204SOL    HW192638  11.432   7.706   1.088
64204SOL    HW292639  11.309   7.678   0.984
64205SOL     OW92640  11.191   7.816   0.647
64205SOL    HW192641  11.109   7.859   0.686
64205SOL    HW292642  11.163   7.743   0.584
64206SOL     OW92643  11.741   8.723   1.165
64206SOL    HW192644  11.648   8.716   1.128
64206SOL    HW292645  11.752   8.812   1.209
64207SOL     OW92646  12.727   8.959   0.703
64207SOL    HW192647  12.670   8.943   0.784
64207SOL    HW292648  12.668   8.969   0.623
64208SOL     OW92649  12.307   8.151   0.717
64208SOL    HW192650  12.364   8.229   0.692
64208SOL    HW292651  12.247   8.177   0.793
64209SOL     OW92652  11.940   8.592   1.023
64209SOL    HW192653  11.862   8.609   1.083
64209SOL    HW292654  11.974   8.679   0.987
64210SOL     OW92655  12.022   8.246   1.823
64210SOL    HW192656  12.018   8.322   1.888
64210SOL    HW292657  12.044   8.282   1.732
64211SOL     OW92658  11.857   8.460   0.665
64211SOL    HW192659  11.926   8.444   0.735
64211SOL    HW292660  11.784   8.517   0.703
64212SOL     OW92661  11.858   8.609   1.803
64212SOL    HW192662  11.918   8.688   1.817
64212SOL    HW292663  11.772   8.640   1.762
64213SOL     OW92664  11.507   8.883   1.061
64213SOL    HW192665  11.429   8.852   1.008
64213SOL    HW292666  11.565   8.941   1.004
64214SOL     OW92667  11.610   7.840   1.499
64214SOL    HW192668  11.692   7.784   1.508
64214SOL    HW292669  11.529   7.782   1.503
64215SOL     OW92670  11.403   9.161   0.483
64215SOL    HW192671  11.437   9.238   0.537
64215SOL    HW292672  11.447   9.161   0.393
64216SOL     OW92673  12.299   8.789   1.690
64216SOL    HW192674  12.346   8.789   1.778
64216SOL    HW292675  12.251   8.702   1.679
64217SOL     OW92676  11.402   8.882   0.538
64217SOL    HW192677  11.376   8.978   0.538
64217SOL    HW292678  11.331   8.828   0.583
64218SOL     OW92679  11.412   8.539   0.886
64218SOL    HW192680  11.426   8.455   0.938
64218SOL    HW292681  11.357   8.603   0.941
64219SOL     OW92682  11.792   9.234   1.439
64219SOL    HW192683  11.700   9.217   1.474
64219SOL    HW292684  11.820   9.326   1.465
64220SOL     OW92685  11.778   8.412   0.123
64220SOL    HW192686  11.785   8.496   0.069
64220SOL    HW292687  11.824   8.425   0.211
64221SOL     OW92688  11.294   8.091   0.563
64221SOL    HW192689  11.249   8.003   0.580
64221SOL    HW292690  11.293   8.145   0.647
64222SOL     OW92691  11.199   9.044   0.117
64222SOL    HW192692  11.180   8.948   0.138
64222SOL    HW292693  11.166   9.102   0.192
64223SOL     OW92694  12.861   8.370   0.612
64223SOL    HW192695  12.956   8.341   0.620
64223SOL    HW292696  12.853   8.435   0.537
64224SOL     OW92697  11.285   8.185   1.597
64224SOL    HW192698  11.373   8.172   1.642
64224SOL    HW292699  11.272   8.282   1.575
64225SOL     OW92700  11.785   8.813   0.726
64225SOL    HW192701  11.736   8.726   0.735
64225SOL    HW292702  11.762   8.856   0.639
64226SOL     OW92703  12.465   8.676   1.423
64226SOL    HW192704  12.502   8.603   1.365
64226SOL    HW292705  12.517   8.681   1.508
64227SOL     OW92706  11.981   7.452   0.502
64227SOL    HW192707  12.021   7.543   0.493
64227SOL    HW292708  11.881   7.460   0.508
64228SOL     OW92709  11.369   8.424   1.264
64228SOL    HW192710  11.458   8.379   1.250
64228SOL    HW292711  11.296   8.359   1.245
64229SOL     OW92712  12.359   9.240   1.616
64229SOL    HW192713  12.383   9.300   1.540
64229SOL    HW292714  12.366   9.145   1.586
64230SOL     OW92715  11.489   7.699   1.801
64230SOL    HW192716  11.560   7.770   1.807
64230SOL    HW292717  11.401   7.738   1.829
64231SOL     OW92718  12.638   8.865   0.953
64231SOL    HW192719  12.579   8.871   1.033
64231SOL    HW292720  12.623   8.777   0.907
64232SOL     OW92721  11.770   8.177   0.270
64232SOL    HW192722  11.794   8.246   0.202
64232SOL    HW292723  11.692   8.210   0.324
64233SOL     OW92724  12.453   7.793   0.944
64233SOL    HW192725  12.367   7.743   0.931
64233SOL    HW292726  12.515   7.739   1.000
64234SOL     OW92727  11.979   8.053   1.465
64234SOL    HW192728  11.932   8.050   1.554
64234SOL    HW292729  11.928   7.998   1.399
64235SOL     OW92730  12.566   7.917   1.674
64235SOL    HW192731  12.546   7.960   1.762
64235SOL    HW292732  12.644   7.855   1.683
64236SOL     OW92733  12.145   8.338   1.572
64236SOL    HW192734  12.191   8.254   1.543
64236SOL    HW292735  12.089   8.372   1.497
64237SOL     OW92736  12.163   7.858   1.242
64237SOL    HW192737  12.086   7.892   1.296
64237SOL    HW292738  12.129   7.807   1.163
64238SOL     OW92739  12.213   8.149   0.429
64238SOL    HW192740  12.239   8.145   0.525
64238SOL    HW292741  12.128   8.098   0.415
64239SOL     OW92742  11.248   8.259   0.789
64239SOL    HW192743  11.347   8.247   0.798
64239SOL    HW292744  11.224   8.354   0.810
64240SOL     OW92745  11.302   9.269   1.571
64240SOL    HW192746  11.292   9.254   1.670
64240SOL    HW292747  11.216   9.305   1.535
64241SOL     OW92748  12.037   7.796   0.195
64241SOL    HW192749  12.096   7.859   0.146
64241SOL    HW292750  12.056   7.702   0.166
64242SOL     OW92751  12.534   8.592   0.545
64242SOL    HW192752  12.617   8.563   0.497
64242SOL    HW292753  12.485   8.659   0.489
64243SOL     OW92754  11.722   7.644   0.885
64243SOL    HW192755  11.717   7.639   0.985
64243SOL    HW292756  11.724   7.740   0.856
64244SOL     OW92757  12.180   8.904   0.477
64244SOL    HW192758  12.134   8.976   0.425
64244SOL    HW292759  12.176   8.924   0.575
64245SOL     OW92760  11.523   9.249   0.853
64245SOL    HW192761  11.573   9.163   0.859
64245SOL    HW292762  11.588   9.326   0.850
64246SOL     OW92763  12.399   8.998   1.506
64246SOL    HW192764  12.405   8.921   1.570
64246SOL    HW292765  12.347   8.972   1.426
64247SOL     OW92766  11.493   8.391   0.242
64247SOL    HW192767  11.575   8.430   0.200
64247SOL    HW292768  11.466   8.309   0.193
64248SOL     OW92769  11.633   8.714   1.727
64248SOL    HW192770  11.583   8.715   1.641
64248SOL    HW292771  11.570   8.696   1.803
64249SOL     OW92772  12.283   9.224   0.237
64249SOL    HW192773  12.223   9.162   0.287
64249SOL    HW292774  12.314   9.180   0.152
64250SOL     OW92775  11.374   7.733   1.498
64250SOL    HW192776  11.294   7.793   1.485
64250SOL    HW292777  11.364   7.684   1.584
64251SOL     OW92778  11.636   9.191   0.323
64251SOL    HW192779  11.669   9.230   0.409
64251SOL    HW292780  11.712   9.184   0.258
64252SOL     OW92781  12.572   7.555   0.426
64252SOL    HW192782  12.548   7.518   0.336
64252SOL    HW292783  12.671   7.571   0.430
64253SOL     OW92784  11.421   9.233   1.241
64253SOL    HW192785  11.478   9.168   1.291
64253SOL    HW292786  11.405   9.200   1.148
64254SOL     OW92787  12.112   9.146   0.904
64254SOL    HW192788  12.192   9.089   0.925
64254SOL    HW292789  12.063   9.106   0.827
64255SOL     OW92790  11.554   8.148   0.480
64255SOL    HW192791  11.599   8.058   0.477
64255SOL    HW292792  11.460   8.137   0.513
64256SOL     OW92793  11.786   7.570   0.117
64256SOL    HW192794  11.884   7.548   0.124
64256SOL    HW292795  11.755   7.553   0.024
64257SOL     OW92796  11.953   7.712   1.749
64257SOL    HW192797  12.020   7.651   1.792
64257SOL    HW292798  11.880   7.731   1.814
64258SOL     OW92799  12.060   8.962   1.195
64258SOL    HW192800  12.037   8.937   1.101
64258SOL    HW292801  12.121   8.893   1.234
64259SOL     OW92802  12.523   8.038   1.433
64259SOL    HW192803  12.551   7.995   1.518
64259SOL    HW292804  12.548   8.134   1.434
64260SOL     OW92805  11.975   8.850   0.924
64260SOL    HW192806  12.065   8.864   0.882
64260SOL    HW292807  11.904   8.852   0.853
64261SOL     OW92808  12.094   7.951   0.899
64261SOL    HW192809  12.069   7.942   0.803
64261SOL    HW292810  12.142   7.869   0.930
64262SOL     OW92811  11.711   7.512   0.512
64262SOL    HW192812  11.630   7.513   0.570
64262SOL    HW292813  11.714   7.595   0.457
64263SOL     OW92814  12.606   8.636   0.041
64263SOL    HW192815  12.638   8.560   0.098
64263SOL    HW292816  12.514   8.663   0.071
64264SOL     OW92817  11.469   7.483   0.171
64264SOL    HW192818  11.518   7.567   0.150
64264SOL    HW292819  11.531   7.418   0.216
64265SOL     OW92820  12.107   7.684   0.480
64265SOL    HW192821  12.059   7.725   0.402
64265SOL    HW292822  12.206   7.682   0.461
64266SOL     OW92823  12.248   8.131   1.464
64266SOL    HW192824  12.168   8.070   1.467
64266SOL    HW292825  12.329   8.078   1.440
64267SOL     OW92826  12.399   9.018   0.793
64267SOL    HW192827  12.420   9.092   0.728
64267SOL    HW292828  12.467   9.018   0.866
64268SOL     OW92829  11.631   8.600   0.741
64268SOL    HW192830  11.560   8.573   0.806
64268SOL    HW292831  11.605   8.572   0.648
64269SOL     OW92832  12.443   9.245   0.591
64269SOL    HW192833  12.487   9.309   0.527
64269SOL    HW292834  12.393   9.297   0.661
64270SOL     OW92835  12.204   7.997   0.016
64270SOL    HW192836  12.163   8.079  -0.023
64270SOL    HW292837  12.268   8.023   0.089
64271SOL     OW92838  11.250   8.004   1.386
64271SOL    HW192839  11.342   8.003   1.345
64271SOL    HW292840  11.244   8.078   1.453
64272SOL     OW92841  11.733   7.670   1.147
64272SOL    HW192842  11.771   7.586   1.184
64272SOL    HW292843  11.645   7.689   1.191
64273SOL     OW92844  12.038   7.902   0.642
64273SOL    HW192845  12.006   7.974   0.580
64273SOL    HW292846  12.062   7.821   0.589
64274SOL     OW92847  12.189   7.487   0.753
64274SOL    HW192848  12.117   7.492   0.684
64274SOL    HW292849  12.165   7.418   0.822
64275SOL     OW92850  12.601   8.621   0.867
64275SOL    HW192851  12.546   8.537   0.860
64275SOL    HW292852  12.627   8.650   0.775
64276SOL     OW92853  11.660   8.833   0.174
64276SOL    HW192854  11.573   8.818   0.221
64276SOL    HW292855  11.643   8.859   0.079
64277SOL     OW92856  12.562   8.023   0.078
64277SOL    HW192857  12.508   8.002   0.159
64277SOL    HW292858  12.653   7.982   0.087
64278SOL     OW92859  11.699   7.704   0.328
64278SOL    HW192860  11.726   7.645   0.253
64278SOL    HW292861  11.699   7.799   0.297
64279SOL     OW92862  12.236   8.795   1.340
64279SOL    HW192863  12.156   8.772   1.395
64279SOL    HW292864  12.319   8.769   1.389
64280SOL     OW92865  12.764   9.077   1.625
64280SOL    HW192866  12.791   9.111   1.535
64280SOL    HW292867  12.843   9.039   1.671
64281SOL     OW92868  12.283   8.643   1.100
64281SOL    HW192869  12.243   8.687   1.181
64281SOL    HW292870  12.242   8.680   1.017
64282SOL     OW92871  12.087   7.537   1.402
64282SOL    HW192872  12.112   7.517   1.307
64282SOL    HW292873  12.159   7.593   1.444
64283SOL     OW92874  12.152   8.564   1.719
64283SOL    HW192875  12.053   8.570   1.729
64283SOL    HW292876  12.175   8.484   1.663
64284SOL     OW92877  11.877   8.498   0.368
64284SOL    HW192878  11.863   8.505   0.467
64284SOL    HW292879  11.961   8.447   0.350
64285SOL     OW92880  11.582   8.261   1.251
64285SOL    HW192881  11.668   8.273   1.301
64285SOL    HW292882  11.540   8.174   1.278
64286SOL     OW92883  12.446   7.834   1.262
64286SOL    HW192884  12.467   7.908   1.326
64286SOL    HW292885  12.357   7.851   1.219
64287SOL     OW92886  11.236   9.012   1.331
64287SOL    HW192887  11.190   9.094   1.297
64287SOL    HW292888  11.334   9.031   1.340
64288SOL     OW92889  11.539   8.548   0.501
64288SOL    HW192890  11.532   8.631   0.445
64288SOL    HW292891  11.543   8.468   0.441
64289SOL     OW92892  11.738   7.985   0.865
64289SOL    HW192893  11.750   8.051   0.791
64289SOL    HW292894  11.784   8.019   0.948
64290SOL     OW92895  12.424   8.796   0.388
64290SOL    HW192896  12.474   8.873   0.428
64290SOL    HW292897  12.329   8.798   0.420
64291SOL     OW92898  12.444   8.893   1.142
64291SOL    HW192899  12.491   8.906   1.229
64291SOL    HW292900  12.378   8.819   1.151
64292SOL     OW92901  11.526   8.958   1.329
64292SOL    HW192902  11.505   8.914   1.242
64292SOL    HW292903  11.623   8.984   1.332
64293SOL     OW92904  11.574   8.199   1.598
64293SOL    HW192905  11.642   8.254   1.551
64293SOL    HW292906  11.614   8.111   1.625
64294SOL     OW92907  12.185   7.553   1.770
64294SOL    HW192908  12.191   7.638   1.718
64294SOL    HW292909  12.217   7.477   1.713
64295SOL     OW92910  11.676   7.498   1.740
64295SOL    HW192911  11.634   7.441   1.670
64295SOL    HW292912  11.610   7.567   1.772
64296SOL     OW92913  11.745   8.318   1.029
64296SOL    HW192914  11.789   8.407   1.020
64296SOL    HW292915  11.682   8.318   1.106
64297SOL     OW92916  12.532   8.310   1.045
64297SOL    HW192917  12.457   8.310   0.979
64297SOL    HW292918  12.569   8.218   1.054
64298SOL     OW92919  12.381   7.973   0.275
64298SOL    HW192920  12.394   7.889   0.329
64298SOL    HW292921  12.352   8.047   0.335
64299SOL     OW92922  11.479   7.661   1.231
64299SOL    HW192923  11.456   7.698   1.321
64299SOL    HW292924  11.449   7.566   1.225
64300SOL     OW92925  11.209   8.758   1.282
64300SOL    HW192926  11.262   8.709   1.350
64300SOL    HW292927  11.231   8.856   1.287
64301SOL     OW92928  11.904   8.082   1.064
64301SOL    HW192929  11.963   8.056   0.988
64301SOL    HW292930  11.876   8.178   1.053
64302SOL     OW92931  11.479   7.511   0.618
64302SOL    HW192932  11.468   7.605   0.651
64302SOL    HW292933  11.474   7.448   0.695
64303SOL     OW92934  12.794   7.815   0.374
64303SOL    HW192935  12.796   7.739   0.438
64303SOL    HW292936  12.746   7.892   0.414
64304SOL     OW92937  12.195   8.214   0.966
64304SOL    HW192938  12.210   8.235   1.062
64304SOL    HW292939  12.165   8.119   0.957
64305SOL     OW92940  12.152   9.021   1.700
64305SOL    HW192941  12.132   9.065   1.612
64305SOL    HW292942  12.191   8.930   1.684
64306SOL     OW92943  11.522   8.346   1.804
64306SOL    HW192944  11.598   8.390   1.852
64306SOL    HW292945  11.557   8.299   1.722
64307SOL     OW92946  12.475   8.286   0.042
64307SOL    HW192947  12.509   8.193   0.057
64307SOL    HW292948  12.493   8.313  -0.053
64308SOL     OW92949  12.240   8.781   0.849
64308SOL    HW192950  12.247   8.697   0.794
64308SOL    HW292951  12.302   8.850   0.813
64309SOL     OW92952  11.491   8.258   0.949
64309SOL    HW192953  11.584   8.294   0.954
64309SOL    HW292954  11.485   8.173   1.001
64310SOL     OW92955  11.511   7.957   1.006
64310SOL    HW192956  11.459   7.874   0.989
64310SOL    HW292957  11.588   7.962   0.942
64311SOL     OW92958  12.310   7.828   1.678
64311SOL    HW192959  12.265   7.891   1.742
64311SOL    HW292960  12.403   7.859   1.661
64312SOL     OW92961  12.332   7.655   1.477
64312SOL    HW192962  12.332   7.719   1.554
64312SOL    HW292963  12.360   7.703   1.394
64313SOL     OW92964  11.180   8.774   0.200
64313SOL    HW192965  11.087   8.795   0.169
64313SOL    HW292966  11.190   8.675   0.213
64314SOL     OW92967  11.260   9.249   0.927
64314SOL    HW192968  11.218   9.163   0.900
64314SOL    HW292969  11.354   9.252   0.893
64315SOL     OW92970  11.676   9.016   0.910
64315SOL    HW192971  11.742   9.090   0.919
64315SOL    HW292972  11.720   8.937   0.868
64316SOL     OW92973  12.174   8.244   1.238
64316SOL    HW192974  12.215   8.212   1.324
64316SOL    HW292975  12.078   8.217   1.235
64317SOL     OW92976  11.212   7.992   1.114
64317SOL    HW192977  11.297   7.959   1.073
64317SOL    HW292978  11.225   8.007   1.212
64318SOL     OW92979  11.361   7.968   1.722
64318SOL    HW192980  11.420   7.928   1.652
64318SOL    HW292981  11.303   8.039   1.681
64319SOL     OW92982  12.541   8.398   1.660
64319SOL    HW192983  12.580   8.487   1.680
64319SOL    HW292984  12.551   8.378   1.563
64320SOL     OW92985  11.987   8.020   0.325
64320SOL    HW192986  11.994   7.931   0.279
64320SOL    HW292987  11.893   8.054   0.317
64321SOL     OW92988  11.424   9.012   1.744
64321SOL    HW192989  11.394   9.069   1.820
64321SOL    HW292990  11.417   8.915   1.770
64322SOL     OW92991  11.843   7.912   1.269
64322SOL    HW192992  11.809   7.823   1.239
64322SOL    HW292993  11.869   7.966   1.189
64323SOL     OW92994  12.102   9.126   1.465
64323SOL    HW192995  12.078   9.108   1.370
64323SOL    HW292996  12.132   9.220   1.475
64324SOL     OW92997  11.645   7.948   0.191
64324SOL    HW192998  11.706   8.028   0.195
64324SOL    HW292999  11.550   7.979   0.198
64325SOL     OW93000  11.331   8.585   1.466
64325SOL    HW193001  11.353   8.524   1.542
64325SOL    HW293002  11.341   8.536   1.380
64326SOL     OW93003  12.519   8.507   1.234
64326SOL    HW193004  12.543   8.444   1.160
64326SOL    HW293005  12.429   8.547   1.216
64327SOL     OW93006  12.474   8.303   0.309
64327SOL    HW193007  12.388   8.272   0.351
64327SOL    HW293008  12.470   8.289   0.210
64328SOL     OW93009  12.424   9.179   1.128
64328SOL    HW193010  12.508   9.184   1.074
64328SOL    HW293011  12.401   9.083   1.146
64329SOL     OW93012  11.255   8.706   1.022
64329SOL    HW193013  11.250   8.705   1.122
64329SOL    HW293014  11.172   8.665   0.984
64330SOL     OW93015  11.860   9.110   1.716
64330SOL    HW193016  11.804   9.191   1.725
64330SOL    HW293017  11.912   9.114   1.630
64331SOL     OW93018  12.075   7.534   0.133
64331SOL    HW193019  12.126   7.535   0.047
64331SOL    HW293020  12.131   7.492   0.204
64332SOL     OW93021  12.898   7.583   0.523
64332SOL    HW193022  12.971   7.566   0.456
64332SOL    HW293023  12.867   7.496   0.561
64333SOL     OW93024  12.560   9.021   0.477
64333SOL    HW193025  12.627   9.033   0.403
64333SOL    HW293026  12.520   9.110   0.500
64334SOL     OW93027  11.302   9.242   1.851
64334SOL    HW193028  11.261   9.168   1.904
64334SOL    HW293029  11.366   9.293   1.909
64335SOL     OW93030  12.452   8.375   0.672
64335SOL    HW193031  12.512   8.294   0.674
64335SOL    HW293032  12.492   8.444   0.612
64336SOL     OW93033  12.002   8.721   1.422
64336SOL    HW193034  11.997   8.754   1.517
64336SOL    HW293035  11.916   8.740   1.376
64337SOL     OW93036  11.844   9.064   0.154
64337SOL    HW193037  11.853   9.074   0.055
64337SOL    HW293038  11.804   8.975   0.175
64338SOL     OW93039  11.435   7.774   0.720
64338SOL    HW193040  11.356   7.825   0.686
64338SOL    HW293041  11.426   7.759   0.818
64339SOL     OW93042  12.366   9.060   0.031
64339SOL    HW193043  12.372   8.967   0.068
64339SOL    HW293044  12.307   9.060  -0.049
64340SOL     OW93045  11.994   8.450   1.372
64340SOL    HW193046  12.034   8.449   1.280
64340SOL    HW293047  12.004   8.542   1.412
64341SOL     OW93048  12.088   8.358   0.291
64341SOL    HW193049  12.151   8.396   0.223
64341SOL    HW293050  12.128   8.275   0.330
64342SOL     OW93051  11.544   8.736   1.490
64342SOL    HW193052  11.531   8.829   1.456
64342SOL    HW293053  11.460   8.684   1.477
64343SOL     OW93054  12.211   8.546   0.696
64343SOL    HW193055  12.141   8.499   0.750
64343SOL    HW293056  12.270   8.478   0.653
64344SOL     OW93057  12.186   7.684   0.971
64344SOL    HW193058  12.178   7.648   0.878
64344SOL    HW293059  12.184   7.608   1.036
64345SOL     OW93060  11.762   8.935   0.491
64345SOL    HW193061  11.804   8.877   0.421
64345SOL    HW293062  11.718   9.014   0.447
64346SOL     OW93063  11.427   8.796   0.290
64346SOL    HW193064  11.331   8.797   0.263
64346SOL    HW293065  11.439   8.849   0.374
64347SOL     OW93066  11.277   8.461   1.726
64347SOL    HW193067  11.200   8.428   1.780
64347SOL    HW293068  11.362   8.431   1.768
64348SOL     OW93069  11.844   7.651   1.489
64348SOL    HW193070  11.934   7.635   1.449
64348SOL    HW293071  11.852   7.656   1.588
64349SOL     OW93072  12.612   8.304   1.398
64349SOL    HW193073  12.555   8.356   1.335
64349SOL    HW293074  12.708   8.316   1.374
64350SOL     OW93075  11.244   7.614   0.318
64350SOL    HW193076  11.227   7.697   0.264
64350SOL    HW293077  11.334   7.577   0.296
64351SOL     OW93078  12.355   8.783   0.119
64351SOL    HW193079  12.256   8.772   0.121
64351SOL    HW293080  12.389   8.798   0.212
64352SOL     OW93081  11.785   8.290   1.431
64352SOL    HW193082  11.841   8.371   1.414
64352SOL    HW293083  11.844   8.210   1.434
64353SOL     OW93084  11.888   8.013   1.708
64353SOL    HW193085  11.907   8.078   1.782
64353SOL    HW293086  11.948   7.933   1.717
64354SOL     OW93087  12.622   8.668   1.633
64354SOL    HW193088  12.613   8.658   1.732
64354SOL    HW293089  12.718   8.661   1.607
64355SOL     OW93090  11.562   9.189   1.560
64355SOL    HW193091  11.471   9.230   1.558
64355SOL    HW293092  11.555   9.095   1.592
64356SOL     OW93093  12.397   7.773   0.449
64356SOL    HW193094  12.462   7.699   0.438
64356SOL    HW293095  12.417   7.823   0.533
64357SOL     OW93096  11.766   8.193   0.652
64357SOL    HW193097  11.816   8.278   0.633
64357SOL    HW293098  11.678   8.195   0.604
64358SOL     OW93099  12.031   8.822   0.016
64358SOL    HW193100  11.985   8.837   0.104
64358SOL    HW293101  12.075   8.907  -0.014
64359SOL     OW93102  11.833   9.238   0.953
64359SOL    HW193103  11.787   9.326   0.940
64359SOL    HW293104  11.932   9.250   0.946
64360SOL     OW93105  12.031   8.404   0.861
64360SOL    HW193106  12.085   8.335   0.909
64360SOL    HW293107  11.999   8.473   0.927
64361SOL     OW93108  12.255   8.432   0.087
64361SOL    HW193109  12.232   8.485   0.005
64361SOL    HW293110  12.336   8.376   0.068
64362SOL     OW93111  11.393   8.762   1.844
64362SOL    HW193112  11.328   8.689   1.823
64362SOL    HW293113  11.397   8.776   1.942
64363SOL     OW93114  11.251   8.688   0.653
64363SOL    HW193115  11.250   8.641   0.741
64363SOL    HW293116  11.333   8.660   0.602
64364SOL     OW93117  11.844   8.839   1.624
64364SOL    HW193118  11.766   8.789   1.662
64364SOL    HW293119  11.841   8.934   1.655
64365SOL     OW93120  11.600   7.872   0.520
64365SOL    HW193121  11.630   7.800   0.458
64365SOL    HW293122  11.561   7.832   0.603
64366SOL     OW93123  12.877   8.935   1.104
64366SOL    HW193124  12.784   8.910   1.077
64366SOL    HW293125  12.903   8.885   1.186
64367SOL     OW93126  11.489   7.995   1.280
64367SOL    HW193127  11.527   7.936   1.352
64367SOL    HW293128  11.529   7.969   1.192
64368SOL     OW93129  11.984   9.034   0.687
64368SOL    HW193130  12.016   9.044   0.593
64368SOL    HW293131  11.905   8.972   0.689
64369SOL     OW93132  12.596   7.662   1.112
64369SOL    HW193133  12.648   7.597   1.167
64369SOL    HW293134  12.547   7.725   1.173
64370SOL     OW93135  12.173   7.482   1.154
64370SOL    HW193136  12.110   7.410   1.123
64370SOL    HW293137  12.266   7.446   1.154
64371SOL     OW93138  11.942   8.778   0.301
64371SOL    HW193139  11.896   8.691   0.318
64371SOL    HW293140  12.033   8.775   0.342
64372SOL     OW93141  11.790   9.015   1.284
64372SOL    HW193142  11.785   9.097   1.341
64372SOL    HW293143  11.879   9.012   1.239
64373SOL     OW93144  12.524   7.500   0.168
64373SOL    HW193145  12.559   7.459   0.084
64373SOL    HW293146  12.434   7.462   0.188
64374SOL     OW93147  12.472   7.901   0.691
64374SOL    HW193148  12.413   7.981   0.695
64374SOL    HW293149  12.487   7.866   0.784
64375SOL     OW93150  11.211   8.525   0.300
64375SOL    HW193151  11.310   8.514   0.291
64375SOL    HW293152  11.171   8.439   0.332
64376SOL     OW93153  12.047   9.094   0.337
64376SOL    HW193154  11.970   9.059   0.283
64376SOL    HW293155  12.015   9.165   0.399
64377SOL     OW93156  11.402   8.076   1.975
64377SOL    HW193157  11.309   8.074   2.012
64377SOL    HW293158  11.403   8.037   1.883
64378SOL     OW93159  11.397   7.723   2.858
64378SOL    HW193160  11.432   7.706   2.950
64378SOL    HW293161  11.309   7.678   2.846
64379SOL     OW93162  11.191   7.816   2.509
64379SOL    HW193163  11.109   7.859   2.548
64379SOL    HW293164  11.163   7.743   2.446
64380SOL     OW93165  11.741   8.723   3.027
64380SOL    HW193166  11.648   8.716   2.990
64380SOL    HW293167  11.752   8.812   3.071
64381SOL     OW93168  12.727   8.959   2.565
64381SOL    HW193169  12.670   8.943   2.646
64381SOL    HW293170  12.668   8.969   2.485
64382SOL     OW93171  12.307   8.151   2.579
64382SOL    HW193172  12.364   8.229   2.554
64382SOL    HW293173  12.247   8.177   2.655
64383SOL     OW93174  11.940   8.592   2.885
64383SOL    HW193175  11.862   8.609   2.945
64383SOL    HW293176  11.974   8.679   2.849
64384SOL     OW93177  12.022   8.246   3.685
64384SOL    HW193178  12.018   8.322   3.750
64384SOL    HW293179  12.044   8.282   3.594
64385SOL     OW93180  11.857   8.460   2.527
64385SOL    HW193181  11.926   8.444   2.597
64385SOL    HW293182  11.784   8.517   2.565
64386SOL     OW93183  11.858   8.609   3.665
64386SOL    HW193184  11.918   8.688   3.679
64386SOL    HW293185  11.772   8.640   3.624
64387SOL     OW93186  11.507   8.883   2.923
64387SOL    HW193187  11.429   8.852   2.870
64387SOL    HW293188  11.565   8.941   2.866
64388SOL     OW93189  11.610   7.840   3.361
64388SOL    HW193190  11.692   7.784   3.370
64388SOL    HW293191  11.529   7.782   3.365
64389SOL     OW93192  11.403   9.161   2.345
64389SOL    HW193193  11.437   9.238   2.399
64389SOL    HW293194  11.447   9.161   2.255
64390SOL     OW93195  12.299   8.789   3.552
64390SOL    HW193196  12.346   8.789   3.640
64390SOL    HW293197  12.251   8.702   3.541
64391SOL     OW93198  11.402   8.882   2.400
64391SOL    HW193199  11.376   8.978   2.400
64391SOL    HW293200  11.331   8.828   2.445
64392SOL     OW93201  11.412   8.539   2.748
64392SOL    HW193202  11.426   8.455   2.800
64392SOL    HW293203  11.357   8.603   2.803
64393SOL     OW93204  11.792   9.234   3.301
64393SOL    HW193205  11.700   9.217   3.336
64393SOL    HW293206  11.820   9.326   3.327
64394SOL     OW93207  11.778   8.412   1.985
64394SOL    HW193208  11.785   8.496   1.931
64394SOL    HW293209  11.824   8.425   2.073
64395SOL     OW93210  11.294   8.091   2.425
64395SOL    HW193211  11.249   8.003   2.442
64395SOL    HW293212  11.293   8.145   2.509
64396SOL     OW93213  11.199   9.044   1.979
64396SOL    HW193214  11.180   8.948   2.000
64396SOL    HW293215  11.166   9.102   2.054
64397SOL     OW93216  12.861   8.370   2.474
64397SOL    HW193217  12.956   8.341   2.482
64397SOL    HW293218  12.853   8.435   2.399
64398SOL     OW93219  11.285   8.185   3.459
64398SOL    HW193220  11.373   8.172   3.504
64398SOL    HW293221  11.272   8.282   3.437
64399SOL     OW93222  11.785   8.813   2.588
64399SOL    HW193223  11.736   8.726   2.597
64399SOL    HW293224  11.762   8.856   2.501
64400SOL     OW93225  12.465   8.676   3.285
64400SOL    HW193226  12.502   8.603   3.227
64400SOL    HW293227  12.517   8.681   3.370
64401SOL     OW93228  11.981   7.452   2.364
64401SOL    HW193229  12.021   7.543   2.355
64401SOL    HW293230  11.881   7.460   2.370
64402SOL     OW93231  11.369   8.424   3.126
64402SOL    HW193232  11.458   8.379   3.112
64402SOL    HW293233  11.296   8.359   3.107
64403SOL     OW93234  12.359   9.240   3.478
64403SOL    HW193235  12.383   9.300   3.402
64403SOL    HW293236  12.366   9.145   3.448
64404SOL     OW93237  11.489   7.699   3.663
64404SOL    HW193238  11.560   7.770   3.669
64404SOL    HW293239  11.401   7.738   3.691
64405SOL     OW93240  12.638   8.865   2.815
64405SOL    HW193241  12.579   8.871   2.895
64405SOL    HW293242  12.623   8.777   2.769
64406SOL     OW93243  11.770   8.177   2.132
64406SOL    HW193244  11.794   8.246   2.064
64406SOL    HW293245  11.692   8.210   2.186
64407SOL     OW93246  12.453   7.793   2.806
64407SOL    HW193247  12.367   7.743   2.793
64407SOL    HW293248  12.515   7.739   2.862
64408SOL     OW93249  11.979   8.053   3.327
64408SOL    HW193250  11.932   8.050   3.416
64408SOL    HW293251  11.928   7.998   3.261
64409SOL     OW93252  12.566   7.917   3.536
64409SOL    HW193253  12.546   7.960   3.624
64409SOL    HW293254  12.644   7.855   3.545
64410SOL     OW93255  12.145   8.338   3.434
64410SOL    HW193256  12.191   8.254   3.405
64410SOL    HW293257  12.089   8.372   3.359
64411SOL     OW93258  12.163   7.858   3.104
64411SOL    HW193259  12.086   7.892   3.158
64411SOL    HW293260  12.129   7.807   3.025
64412SOL     OW93261  12.213   8.149   2.291
64412SOL    HW193262  12.239   8.145   2.387
64412SOL    HW293263  12.128   8.098   2.277
64413SOL     OW93264  11.248   8.259   2.651
64413SOL    HW193265  11.347   8.247   2.660
64413SOL    HW293266  11.224   8.354   2.672
64414SOL     OW93267  11.302   9.269   3.433
64414SOL    HW193268  11.292   9.254   3.532
64414SOL    HW293269  11.216   9.305   3.397
64415SOL     OW93270  12.037   7.796   2.057
64415SOL    HW193271  12.096   7.859   2.008
64415SOL    HW293272  12.056   7.702   2.028
64416SOL     OW93273  12.534   8.592   2.407
64416SOL    HW193274  12.617   8.563   2.359
64416SOL    HW293275  12.485   8.659   2.351
64417SOL     OW93276  11.722   7.644   2.747
64417SOL    HW193277  11.717   7.639   2.847
64417SOL    HW293278  11.724   7.740   2.718
64418SOL     OW93279  12.180   8.904   2.339
64418SOL    HW193280  12.134   8.976   2.287
64418SOL    HW293281  12.176   8.924   2.437
64419SOL     OW93282  11.523   9.249   2.715
64419SOL    HW193283  11.573   9.163   2.721
64419SOL    HW293284  11.588   9.326   2.712
64420SOL     OW93285  12.399   8.998   3.368
64420SOL    HW193286  12.405   8.921   3.432
64420SOL    HW293287  12.347   8.972   3.288
64421SOL     OW93288  11.493   8.391   2.104
64421SOL    HW193289  11.575   8.430   2.062
64421SOL    HW293290  11.466   8.309   2.055
64422SOL     OW93291  11.633   8.714   3.589
64422SOL    HW193292  11.583   8.715   3.503
64422SOL    HW293293  11.570   8.696   3.665
64423SOL     OW93294  12.283   9.224   2.099
64423SOL    HW193295  12.223   9.162   2.149
64423SOL    HW293296  12.314   9.180   2.014
64424SOL     OW93297  11.374   7.733   3.360
64424SOL    HW193298  11.294   7.793   3.347
64424SOL    HW293299  11.364   7.684   3.446
64425SOL     OW93300  11.636   9.191   2.185
64425SOL    HW193301  11.669   9.230   2.271
64425SOL    HW293302  11.712   9.184   2.120
64426SOL     OW93303  12.572   7.555   2.288
64426SOL    HW193304  12.548   7.518   2.198
64426SOL    HW293305  12.671   7.571   2.292
64427SOL     OW93306  11.421   9.233   3.103
64427SOL    HW193307  11.478   9.168   3.153
64427SOL    HW293308  11.405   9.200   3.010
64428SOL     OW93309  12.112   9.146   2.766
64428SOL    HW193310  12.192   9.089   2.787
64428SOL    HW293311  12.063   9.106   2.689
64429SOL     OW93312  11.554   8.148   2.342
64429SOL    HW193313  11.599   8.058   2.339
64429SOL    HW293314  11.460   8.137   2.375
64430SOL     OW93315  11.786   7.570   1.979
64430SOL    HW193316  11.884   7.548   1.986
64430SOL    HW293317  11.755   7.553   1.886
64431SOL     OW93318  11.953   7.712   3.611
64431SOL    HW193319  12.020   7.651   3.654
64431SOL    HW293320  11.880   7.731   3.676
64432SOL     OW93321  12.060   8.962   3.057
64432SOL    HW193322  12.037   8.937   2.963
64432SOL    HW293323  12.121   8.893   3.096
64433SOL     OW93324  12.523   8.038   3.295
64433SOL    HW193325  12.551   7.995   3.380
64433SOL    HW293326  12.548   8.134   3.296
64434SOL     OW93327  11.975   8.850   2.786
64434SOL    HW193328  12.065   8.864   2.744
64434SOL    HW293329  11.904   8.852   2.715
64435SOL     OW93330  12.094   7.951   2.761
64435SOL    HW193331  12.069   7.942   2.665
64435SOL    HW293332  12.142   7.869   2.792
64436SOL     OW93333  11.711   7.512   2.374
64436SOL    HW193334  11.630   7.513   2.432
64436SOL    HW293335  11.714   7.595   2.319
64437SOL     OW93336  12.606   8.636   1.903
64437SOL    HW193337  12.638   8.560   1.960
64437SOL    HW293338  12.514   8.663   1.933
64438SOL     OW93339  11.469   7.483   2.033
64438SOL    HW193340  11.518   7.567   2.012
64438SOL    HW293341  11.531   7.418   2.078
64439SOL     OW93342  12.107   7.684   2.342
64439SOL    HW193343  12.059   7.725   2.264
64439SOL    HW293344  12.206   7.682   2.323
64440SOL     OW93345  12.248   8.131   3.326
64440SOL    HW193346  12.168   8.070   3.329
64440SOL    HW293347  12.329   8.078   3.302
64441SOL     OW93348  12.399   9.018   2.655
64441SOL    HW193349  12.420   9.092   2.590
64441SOL    HW293350  12.467   9.018   2.728
64442SOL     OW93351  11.631   8.600   2.603
64442SOL    HW193352  11.560   8.573   2.668
64442SOL    HW293353  11.605   8.572   2.510
64443SOL     OW93354  12.443   9.245   2.453
64443SOL    HW193355  12.487   9.309   2.389
64443SOL    HW293356  12.393   9.297   2.523
64444SOL     OW93357  12.204   7.997   1.878
64444SOL    HW193358  12.163   8.079   1.839
64444SOL    HW293359  12.268   8.023   1.951
64445SOL     OW93360  11.250   8.004   3.248
64445SOL    HW193361  11.342   8.003   3.207
64445SOL    HW293362  11.244   8.078   3.315
64446SOL     OW93363  11.733   7.670   3.009
64446SOL    HW193364  11.771   7.586   3.046
64446SOL    HW293365  11.645   7.689   3.053
64447SOL     OW93366  12.038   7.902   2.504
64447SOL    HW193367  12.006   7.974   2.442
64447SOL    HW293368  12.062   7.821   2.451
64448SOL     OW93369  12.189   7.487   2.615
64448SOL    HW193370  12.117   7.492   2.546
64448SOL    HW293371  12.165   7.418   2.684
64449SOL     OW93372  12.601   8.621   2.729
64449SOL    HW193373  12.546   8.537   2.722
64449SOL    HW293374  12.627   8.650   2.637
64450SOL     OW93375  11.660   8.833   2.036
64450SOL    HW193376  11.573   8.818   2.083
64450SOL    HW293377  11.643   8.859   1.941
64451SOL     OW93378  12.562   8.023   1.940
64451SOL    HW193379  12.508   8.002   2.021
64451SOL    HW293380  12.653   7.982   1.949
64452SOL     OW93381  11.699   7.704   2.190
64452SOL    HW193382  11.726   7.645   2.115
64452SOL    HW293383  11.699   7.799   2.159
64453SOL     OW93384  12.236   8.795   3.202
64453SOL    HW193385  12.156   8.772   3.257
64453SOL    HW293386  12.319   8.769   3.251
64454SOL     OW93387  12.764   9.077   3.487
64454SOL    HW193388  12.791   9.111   3.397
64454SOL    HW293389  12.843   9.039   3.533
64455SOL     OW93390  12.283   8.643   2.962
64455SOL    HW193391  12.243   8.687   3.043
64455SOL    HW293392  12.242   8.680   2.879
64456SOL     OW93393  12.087   7.537   3.264
64456SOL    HW193394  12.112   7.517   3.169
64456SOL    HW293395  12.159   7.593   3.306
64457SOL     OW93396  12.152   8.564   3.581
64457SOL    HW193397  12.053   8.570   3.591
64457SOL    HW293398  12.175   8.484   3.525
64458SOL     OW93399  11.877   8.498   2.230
64458SOL    HW193400  11.863   8.505   2.329
64458SOL    HW293401  11.961   8.447   2.212
64459SOL     OW93402  11.582   8.261   3.113
64459SOL    HW193403  11.668   8.273   3.163
64459SOL    HW293404  11.540   8.174   3.140
64460SOL     OW93405  12.446   7.834   3.124
64460SOL    HW193406  12.467   7.908   3.188
64460SOL    HW293407  12.357   7.851   3.081
64461SOL     OW93408  11.236   9.012   3.193
64461SOL    HW193409  11.190   9.094   3.159
64461SOL    HW293410  11.334   9.031   3.202
64462SOL     OW93411  11.539   8.548   2.363
64462SOL    HW193412  11.532   8.631   2.307
64462SOL    HW293413  11.543   8.468   2.303
64463SOL     OW93414  11.738   7.985   2.727
64463SOL    HW193415  11.750   8.051   2.653
64463SOL    HW293416  11.784   8.019   2.810
64464SOL     OW93417  12.424   8.796   2.250
64464SOL    HW193418  12.474   8.873   2.290
64464SOL    HW293419  12.329   8.798   2.282
64465SOL     OW93420  12.444   8.893   3.004
64465SOL    HW193421  12.491   8.906   3.091
64465SOL    HW293422  12.378   8.819   3.013
64466SOL     OW93423  11.526   8.958   3.191
64466SOL    HW193424  11.505   8.914   3.104
64466SOL    HW293425  11.623   8.984   3.194
64467SOL     OW93426  11.574   8.199   3.460
64467SOL    HW193427  11.642   8.254   3.413
64467SOL    HW293428  11.614   8.111   3.487
64468SOL     OW93429  12.185   7.553   3.632
64468SOL    HW193430  12.191   7.638   3.580
64468SOL    HW293431  12.217   7.477   3.575
64469SOL     OW93432  11.676   7.498   3.602
64469SOL    HW193433  11.634   7.441   3.532
64469SOL    HW293434  11.610   7.567   3.634
64470SOL     OW93435  11.745   8.318   2.891
64470SOL    HW193436  11.789   8.407   2.882
64470SOL    HW293437  11.682   8.318   2.968
64471SOL     OW93438  12.532   8.310   2.907
64471SOL    HW193439  12.457   8.310   2.841
64471SOL    HW293440  12.569   8.218   2.916
64472SOL     OW93441  12.381   7.973   2.137
64472SOL    HW193442  12.394   7.889   2.191
64472SOL    HW293443  12.352   8.047   2.197
64473SOL     OW93444  11.479   7.661   3.093
64473SOL    HW193445  11.456   7.698   3.183
64473SOL    HW293446  11.449   7.566   3.087
64474SOL     OW93447  11.209   8.758   3.144
64474SOL    HW193448  11.262   8.709   3.212
64474SOL    HW293449  11.231   8.856   3.149
64475SOL     OW93450  11.904   8.082   2.926
64475SOL    HW193451  11.963   8.056   2.850
64475SOL    HW293452  11.876   8.178   2.915
64476SOL     OW93453  11.479   7.511   2.480
64476SOL    HW193454  11.468   7.605   2.513
64476SOL    HW293455  11.474   7.448   2.557
64477SOL     OW93456  12.794   7.815   2.236
64477SOL    HW193457  12.796   7.739   2.300
64477SOL    HW293458  12.746   7.892   2.276
64478SOL     OW93459  12.195   8.214   2.828
64478SOL    HW193460  12.210   8.235   2.924
64478SOL    HW293461  12.165   8.119   2.819
64479SOL     OW93462  12.152   9.021   3.562
64479SOL    HW193463  12.132   9.065   3.474
64479SOL    HW293464  12.191   8.930   3.546
64480SOL     OW93465  11.522   8.346   3.666
64480SOL    HW193466  11.598   8.390   3.714
64480SOL    HW293467  11.557   8.299   3.584
64481SOL     OW93468  12.475   8.286   1.904
64481SOL    HW193469  12.509   8.193   1.919
64481SOL    HW293470  12.493   8.313   1.809
64482SOL     OW93471  12.240   8.781   2.711
64482SOL    HW193472  12.247   8.697   2.656
64482SOL    HW293473  12.302   8.850   2.675
64483SOL     OW93474  11.491   8.258   2.811
64483SOL    HW193475  11.584   8.294   2.816
64483SOL    HW293476  11.485   8.173   2.863
64484SOL     OW93477  11.511   7.957   2.868
64484SOL    HW193478  11.459   7.874   2.851
64484SOL    HW293479  11.588   7.962   2.804
64485SOL     OW93480  12.310   7.828   3.540
64485SOL    HW193481  12.265   7.891   3.604
64485SOL    HW293482  12.403   7.859   3.523
64486SOL     OW93483  12.332   7.655   3.339
64486SOL    HW193484  12.332   7.719   3.416
64486SOL    HW293485  12.360   7.703   3.256
64487SOL     OW93486  11.180   8.774   2.062
64487SOL    HW193487  11.087   8.795   2.031
64487SOL    HW293488  11.190   8.675   2.075
64488SOL     OW93489  11.260   9.249   2.789
64488SOL    HW193490  11.218   9.163   2.762
64488SOL    HW293491  11.354   9.252   2.755
64489SOL     OW93492  11.676   9.016   2.772
64489SOL    HW193493  11.742   9.090   2.781
64489SOL    HW293494  11.720   8.937   2.730
64490SOL     OW93495  12.174   8.244   3.100
64490SOL    HW193496  12.215   8.212   3.186
64490SOL    HW293497  12.078   8.217   3.097
64491SOL     OW93498  11.212   7.992   2.976
64491SOL    HW193499  11.297   7.959   2.935
64491SOL    HW293500  11.225   8.007   3.074
64492SOL     OW93501  11.361   7.968   3.584
64492SOL    HW193502  11.420   7.928   3.514
64492SOL    HW293503  11.303   8.039   3.543
64493SOL     OW93504  12.541   8.398   3.522
64493SOL    HW193505  12.580   8.487   3.542
64493SOL    HW293506  12.551   8.378   3.425
64494SOL     OW93507  11.987   8.020   2.187
64494SOL    HW193508  11.994   7.931   2.141
64494SOL    HW293509  11.893   8.054   2.179
64495SOL     OW93510  11.424   9.012   3.606
64495SOL    HW193511  11.394   9.069   3.682
64495SOL    HW293512  11.417   8.915   3.632
64496SOL     OW93513  11.843   7.912   3.131
64496SOL    HW193514  11.809   7.823   3.101
64496SOL    HW293515  11.869   7.966   3.051
64497SOL     OW93516  12.102   9.126   3.327
64497SOL    HW193517  12.078   9.108   3.232
64497SOL    HW293518  12.132   9.220   3.337
64498SOL     OW93519  11.645   7.948   2.053
64498SOL    HW193520  11.706   8.028   2.057
64498SOL    HW293521  11.550   7.979   2.060
64499SOL     OW93522  11.331   8.585   3.328
64499SOL    HW193523  11.353   8.524   3.404
64499SOL    HW293524  11.341   8.536   3.242
64500SOL     OW93525  12.519   8.507   3.096
64500SOL    HW193526  12.543   8.444   3.022
64500SOL    HW293527  12.429   8.547   3.078
64501SOL     OW93528  12.474   8.303   2.171
64501SOL    HW193529  12.388   8.272   2.213
64501SOL    HW293530  12.470   8.289   2.072
64502SOL     OW93531  12.424   9.179   2.990
64502SOL    HW193532  12.508   9.184   2.936
64502SOL    HW293533  12.401   9.083   3.008
64503SOL     OW93534  11.255   8.706   2.884
64503SOL    HW193535  11.250   8.705   2.984
64503SOL    HW293536  11.172   8.665   2.846
64504SOL     OW93537  11.860   9.110   3.578
64504SOL    HW193538  11.804   9.191   3.587
64504SOL    HW293539  11.912   9.114   3.492
64505SOL     OW93540  12.898   7.583   2.385
64505SOL    HW193541  12.971   7.566   2.318
64505SOL    HW293542  12.867   7.496   2.423
64506SOL     OW93543  12.560   9.021   2.339
64506SOL    HW193544  12.627   9.033   2.265
64506SOL    HW293545  12.520   9.110   2.362
64507SOL     OW93546  11.302   9.242   3.713
64507SOL    HW193547  11.261   9.168   3.766
64507SOL    HW293548  11.366   9.293   3.771
64508SOL     OW93549  12.452   8.375   2.534
64508SOL    HW193550  12.512   8.294   2.536
64508SOL    HW293551  12.492   8.444   2.474
64509SOL     OW93552  12.002   8.721   3.284
64509SOL    HW193553  11.997   8.754   3.379
64509SOL    HW293554  11.916   8.740   3.238
64510SOL     OW93555  11.844   9.064   2.016
64510SOL    HW193556  11.853   9.074   1.917
64510SOL    HW293557  11.804   8.975   2.037
64511SOL     OW93558  11.435   7.774   2.582
64511SOL    HW193559  11.356   7.825   2.548
64511SOL    HW293560  11.426   7.759   2.680
64512SOL     OW93561  12.366   9.060   1.893
64512SOL    HW193562  12.372   8.967   1.930
64512SOL    HW293563  12.307   9.060   1.813
64513SOL     OW93564  11.994   8.450   3.234
64513SOL    HW193565  12.034   8.449   3.142
64513SOL    HW293566  12.004   8.542   3.274
64514SOL     OW93567  12.088   8.358   2.153
64514SOL    HW193568  12.151   8.396   2.085
64514SOL    HW293569  12.128   8.275   2.192
64515SOL     OW93570  11.544   8.736   3.352
64515SOL    HW193571  11.531   8.829   3.318
64515SOL    HW293572  11.460   8.684   3.339
64516SOL     OW93573  12.211   8.546   2.558
64516SOL    HW193574  12.141   8.499   2.612
64516SOL    HW293575  12.270   8.478   2.515
64517SOL     OW93576  12.186   7.684   2.833
64517SOL    HW193577  12.178   7.648   2.740
64517SOL    HW293578  12.184   7.608   2.898
64518SOL     OW93579  11.762   8.935   2.353
64518SOL    HW193580  11.804   8.877   2.283
64518SOL    HW293581  11.718   9.014   2.309
64519SOL     OW93582  11.427   8.796   2.152
64519SOL    HW193583  11.331   8.797   2.125
64519SOL    HW293584  11.439   8.849   2.236
64520SOL     OW93585  11.277   8.461   3.588
64520SOL    HW193586  11.200   8.428   3.642
64520SOL    HW293587  11.362   8.431   3.630
64521SOL     OW93588  11.844   7.651   3.351
64521SOL    HW193589  11.934   7.635   3.311
64521SOL    HW293590  11.852   7.656   3.450
64522SOL     OW93591  11.247   7.793   1.895
64522SOL    HW193592  11.155   7.765   1.866
64522SOL    HW293593  11.278   7.870   1.839
64523SOL     OW93594  12.612   8.304   3.260
64523SOL    HW193595  12.555   8.356   3.197
64523SOL    HW293596  12.708   8.316   3.236
64524SOL     OW93597  11.244   7.614   2.180
64524SOL    HW193598  11.227   7.697   2.126
64524SOL    HW293599  11.334   7.577   2.158
64525SOL     OW93600  12.355   8.783   1.981
64525SOL    HW193601  12.256   8.772   1.983
64525SOL    HW293602  12.389   8.798   2.074
64526SOL     OW93603  11.785   8.290   3.293
64526SOL    HW193604  11.841   8.371   3.276
64526SOL    HW293605  11.844   8.210   3.296
64527SOL     OW93606  11.888   8.013   3.570
64527SOL    HW193607  11.907   8.078   3.644
64527SOL    HW293608  11.948   7.933   3.579
64528SOL     OW93609  12.622   8.668   3.495
64528SOL    HW193610  12.613   8.658   3.594
64528SOL    HW293611  12.718   8.661   3.469
64529SOL     OW93612  11.562   9.189   3.422
64529SOL    HW193613  11.471   9.230   3.420
64529SOL    HW293614  11.555   9.095   3.454
64530SOL     OW93615  12.397   7.773   2.311
64530SOL    HW193616  12.462   7.699   2.300
64530SOL    HW293617  12.417   7.823   2.395
64531SOL     OW93618  11.766   8.193   2.514
64531SOL    HW193619  11.816   8.278   2.495
64531SOL    HW293620  11.678   8.195   2.466
64532SOL     OW93621  12.031   8.822   1.878
64532SOL    HW193622  11.985   8.837   1.966
64532SOL    HW293623  12.075   8.907   1.848
64533SOL     OW93624  11.833   9.238   2.815
64533SOL    HW193625  11.787   9.326   2.802
64533SOL    HW293626  11.932   9.250   2.808
64534SOL     OW93627  12.031   8.404   2.723
64534SOL    HW193628  12.085   8.335   2.771
64534SOL    HW293629  11.999   8.473   2.789
64535SOL     OW93630  12.255   8.432   1.949
64535SOL    HW193631  12.232   8.485   1.867
64535SOL    HW293632  12.336   8.376   1.930
64536SOL     OW93633  11.393   8.762   3.706
64536SOL    HW193634  11.328   8.689   3.685
64536SOL    HW293635  11.397   8.776   3.804
64537SOL     OW93636  11.251   8.688   2.515
64537SOL    HW193637  11.250   8.641   2.603
64537SOL    HW293638  11.333   8.660   2.464
64538SOL     OW93639  11.844   8.839   3.486
64538SOL    HW193640  11.766   8.789   3.524
64538SOL    HW293641  11.841   8.934   3.517
64539SOL     OW93642  11.600   7.872   2.382
64539SOL    HW193643  11.630   7.800   2.320
64539SOL    HW293644  11.561   7.832   2.465
64540SOL     OW93645  12.877   8.935   2.966
64540SOL    HW193646  12.784   8.910   2.939
64540SOL    HW293647  12.903   8.885   3.048
64541SOL     OW93648  11.489   7.995   3.142
64541SOL    HW193649  11.527   7.936   3.214
64541SOL    HW293650  11.529   7.969   3.054
64542SOL     OW93651  11.984   9.034   2.549
64542SOL    HW193652  12.016   9.044   2.455
64542SOL    HW293653  11.905   8.972   2.551
64543SOL     OW93654  12.596   7.662   2.974
64543SOL    HW193655  12.648   7.597   3.029
64543SOL    HW293656  12.547   7.725   3.035
64544SOL     OW93657  12.173   7.482   3.016
64544SOL    HW193658  12.110   7.410   2.985
64544SOL    HW293659  12.266   7.446   3.016
64545SOL     OW93660  11.942   8.778   2.163
64545SOL    HW193661  11.896   8.691   2.180
64545SOL    HW293662  12.033   8.775   2.204
64546SOL     OW93663  11.790   9.015   3.146
64546SOL    HW193664  11.785   9.097   3.203
64546SOL    HW293665  11.879   9.012   3.101
64547SOL     OW93666  12.524   7.500   2.030
64547SOL    HW193667  12.559   7.459   1.946
64547SOL    HW293668  12.434   7.462   2.050
64548SOL     OW93669  12.472   7.901   2.553
64548SOL    HW193670  12.413   7.981   2.557
64548SOL    HW293671  12.487   7.866   2.646
64549SOL     OW93672  11.211   8.525   2.162
64549SOL    HW193673  11.310   8.514   2.153
64549SOL    HW293674  11.171   8.439   2.194
64550SOL     OW93675  12.047   9.094   2.199
64550SOL    HW193676  11.970   9.059   2.145
64550SOL    HW293677  12.015   9.165   2.261
64551SOL     OW93678  11.402   8.076   3.837
64551SOL    HW193679  11.309   8.074   3.874
64551SOL    HW293680  11.403   8.037   3.745
64552SOL     OW93681  11.397   7.723   4.720
64552SOL    HW193682  11.432   7.706   4.812
64552SOL    HW293683  11.309   7.678   4.708
64553SOL     OW93684  11.191   7.816   4.371
64553SOL    HW193685  11.109   7.859   4.410
64553SOL    HW293686  11.163   7.743   4.308
64554SOL     OW93687  11.741   8.723   4.889
64554SOL    HW193688  11.648   8.716   4.852
64554SOL    HW293689  11.752   8.812   4.933
64555SOL     OW93690  12.727   8.959   4.427
64555SOL    HW193691  12.670   8.943   4.508
64555SOL    HW293692  12.668   8.969   4.347
64556SOL     OW93693  12.307   8.151   4.441
64556SOL    HW193694  12.364   8.229   4.416
64556SOL    HW293695  12.247   8.177   4.517
64557SOL     OW93696  11.940   8.592   4.747
64557SOL    HW193697  11.862   8.609   4.807
64557SOL    HW293698  11.974   8.679   4.711
64558SOL     OW93699  12.022   8.246   5.547
64558SOL    HW193700  12.018   8.322   5.612
64558SOL    HW293701  12.044   8.282   5.456
64559SOL     OW93702  11.857   8.460   4.389
64559SOL    HW193703  11.926   8.444   4.459
64559SOL    HW293704  11.784   8.517   4.427
64560SOL     OW93705  11.858   8.609   5.527
64560SOL    HW193706  11.918   8.688   5.541
64560SOL    HW293707  11.772   8.640   5.486
64561SOL     OW93708  11.507   8.883   4.785
64561SOL    HW193709  11.429   8.852   4.732
64561SOL    HW293710  11.565   8.941   4.728
64562SOL     OW93711  11.610   7.840   5.223
64562SOL    HW193712  11.692   7.784   5.232
64562SOL    HW293713  11.529   7.782   5.227
64563SOL     OW93714  11.403   9.161   4.207
64563SOL    HW193715  11.437   9.238   4.261
64563SOL    HW293716  11.447   9.161   4.117
64564SOL     OW93717  12.299   8.789   5.414
64564SOL    HW193718  12.346   8.789   5.502
64564SOL    HW293719  12.251   8.702   5.403
64565SOL     OW93720  11.402   8.882   4.262
64565SOL    HW193721  11.376   8.978   4.262
64565SOL    HW293722  11.331   8.828   4.307
64566SOL     OW93723  11.412   8.539   4.610
64566SOL    HW193724  11.426   8.455   4.662
64566SOL    HW293725  11.357   8.603   4.665
64567SOL     OW93726  11.792   9.234   5.163
64567SOL    HW193727  11.700   9.217   5.198
64567SOL    HW293728  11.820   9.326   5.189
64568SOL     OW93729  11.778   8.412   3.847
64568SOL    HW193730  11.785   8.496   3.793
64568SOL    HW293731  11.824   8.425   3.935
64569SOL     OW93732  11.294   8.091   4.287
64569SOL    HW193733  11.249   8.003   4.304
64569SOL    HW293734  11.293   8.145   4.371
64570SOL     OW93735  11.199   9.044   3.841
64570SOL    HW193736  11.180   8.948   3.862
64570SOL    HW293737  11.166   9.102   3.916
64571SOL     OW93738  12.861   8.370   4.336
64571SOL    HW193739  12.956   8.341   4.344
64571SOL    HW293740  12.853   8.435   4.261
64572SOL     OW93741  11.285   8.185   5.321
64572SOL    HW193742  11.373   8.172   5.366
64572SOL    HW293743  11.272   8.282   5.299
64573SOL     OW93744  11.785   8.813   4.450
64573SOL    HW193745  11.736   8.726   4.459
64573SOL    HW293746  11.762   8.856   4.363
64574SOL     OW93747  12.465   8.676   5.147
64574SOL    HW193748  12.502   8.603   5.089
64574SOL    HW293749  12.517   8.681   5.232
64575SOL     OW93750  11.981   7.452   4.226
64575SOL    HW193751  12.021   7.543   4.217
64575SOL    HW293752  11.881   7.460   4.232
64576SOL     OW93753  11.369   8.424   4.988
64576SOL    HW193754  11.458   8.379   4.974
64576SOL    HW293755  11.296   8.359   4.969
64577SOL     OW93756  12.359   9.240   5.340
64577SOL    HW193757  12.383   9.300   5.264
64577SOL    HW293758  12.366   9.145   5.310
64578SOL     OW93759  11.489   7.699   5.525
64578SOL    HW193760  11.560   7.770   5.531
64578SOL    HW293761  11.401   7.738   5.553
64579SOL     OW93762  12.638   8.865   4.677
64579SOL    HW193763  12.579   8.871   4.757
64579SOL    HW293764  12.623   8.777   4.631
64580SOL     OW93765  11.770   8.177   3.994
64580SOL    HW193766  11.794   8.246   3.926
64580SOL    HW293767  11.692   8.210   4.048
64581SOL     OW93768  12.453   7.793   4.668
64581SOL    HW193769  12.367   7.743   4.655
64581SOL    HW293770  12.515   7.739   4.724
64582SOL     OW93771  11.979   8.053   5.189
64582SOL    HW193772  11.932   8.050   5.278
64582SOL    HW293773  11.928   7.998   5.123
64583SOL     OW93774  12.566   7.917   5.398
64583SOL    HW193775  12.546   7.960   5.486
64583SOL    HW293776  12.644   7.855   5.407
64584SOL     OW93777  12.145   8.338   5.296
64584SOL    HW193778  12.191   8.254   5.267
64584SOL    HW293779  12.089   8.372   5.221
64585SOL     OW93780  12.163   7.858   4.966
64585SOL    HW193781  12.086   7.892   5.020
64585SOL    HW293782  12.129   7.807   4.887
64586SOL     OW93783  12.213   8.149   4.153
64586SOL    HW193784  12.239   8.145   4.249
64586SOL    HW293785  12.128   8.098   4.139
64587SOL     OW93786  11.248   8.259   4.513
64587SOL    HW193787  11.347   8.247   4.522
64587SOL    HW293788  11.224   8.354   4.534
64588SOL     OW93789  11.302   9.269   5.295
64588SOL    HW193790  11.292   9.254   5.394
64588SOL    HW293791  11.216   9.305   5.259
64589SOL     OW93792  12.037   7.796   3.919
64589SOL    HW193793  12.096   7.859   3.870
64589SOL    HW293794  12.056   7.702   3.890
64590SOL     OW93795  12.534   8.592   4.269
64590SOL    HW193796  12.617   8.563   4.221
64590SOL    HW293797  12.485   8.659   4.213
64591SOL     OW93798  11.722   7.644   4.609
64591SOL    HW193799  11.717   7.639   4.709
64591SOL    HW293800  11.724   7.740   4.580
64592SOL     OW93801  12.180   8.904   4.201
64592SOL    HW193802  12.134   8.976   4.149
64592SOL    HW293803  12.176   8.924   4.299
64593SOL     OW93804  11.523   9.249   4.577
64593SOL    HW193805  11.573   9.163   4.583
64593SOL    HW293806  11.588   9.326   4.574
64594SOL     OW93807  12.399   8.998   5.230
64594SOL    HW193808  12.405   8.921   5.294
64594SOL    HW293809  12.347   8.972   5.150
64595SOL     OW93810  11.493   8.391   3.966
64595SOL    HW193811  11.575   8.430   3.924
64595SOL    HW293812  11.466   8.309   3.917
64596SOL     OW93813  11.633   8.714   5.451
64596SOL    HW193814  11.583   8.715   5.365
64596SOL    HW293815  11.570   8.696   5.527
64597SOL     OW93816  12.283   9.224   3.961
64597SOL    HW193817  12.223   9.162   4.011
64597SOL    HW293818  12.314   9.180   3.876
64598SOL     OW93819  11.374   7.733   5.222
64598SOL    HW193820  11.294   7.793   5.209
64598SOL    HW293821  11.364   7.684   5.308
64599SOL     OW93822  11.636   9.191   4.047
64599SOL    HW193823  11.669   9.230   4.133
64599SOL    HW293824  11.712   9.184   3.982
64600SOL     OW93825  12.572   7.555   4.150
64600SOL    HW193826  12.548   7.518   4.060
64600SOL    HW293827  12.671   7.571   4.154
64601SOL     OW93828  11.421   9.233   4.965
64601SOL    HW193829  11.478   9.168   5.015
64601SOL    HW293830  11.405   9.200   4.872
64602SOL     OW93831  12.112   9.146   4.628
64602SOL    HW193832  12.192   9.089   4.649
64602SOL    HW293833  12.063   9.106   4.551
64603SOL     OW93834  11.554   8.148   4.204
64603SOL    HW193835  11.599   8.058   4.201
64603SOL    HW293836  11.460   8.137   4.237
64604SOL     OW93837  11.786   7.570   3.841
64604SOL    HW193838  11.884   7.548   3.848
64604SOL    HW293839  11.755   7.553   3.748
64605SOL     OW93840  11.953   7.712   5.473
64605SOL    HW193841  12.020   7.651   5.516
64605SOL    HW293842  11.880   7.731   5.538
64606SOL     OW93843  12.060   8.962   4.919
64606SOL    HW193844  12.037   8.937   4.825
64606SOL    HW293845  12.121   8.893   4.958
64607SOL     OW93846  12.523   8.038   5.157
64607SOL    HW193847  12.551   7.995   5.242
64607SOL    HW293848  12.548   8.134   5.158
64608SOL     OW93849  11.975   8.850   4.648
64608SOL    HW193850  12.065   8.864   4.606
64608SOL    HW293851  11.904   8.852   4.577
64609SOL     OW93852  12.094   7.951   4.623
64609SOL    HW193853  12.069   7.942   4.527
64609SOL    HW293854  12.142   7.869   4.654
64610SOL     OW93855  11.711   7.512   4.236
64610SOL    HW193856  11.630   7.513   4.294
64610SOL    HW293857  11.714   7.595   4.181
64611SOL     OW93858  12.606   8.636   3.765
64611SOL    HW193859  12.638   8.560   3.822
64611SOL    HW293860  12.514   8.663   3.795
64612SOL     OW93861  11.469   7.483   3.895
64612SOL    HW193862  11.518   7.567   3.874
64612SOL    HW293863  11.531   7.418   3.940
64613SOL     OW93864  12.107   7.684   4.204
64613SOL    HW193865  12.059   7.725   4.126
64613SOL    HW293866  12.206   7.682   4.185
64614SOL     OW93867  12.248   8.131   5.188
64614SOL    HW193868  12.168   8.070   5.191
64614SOL    HW293869  12.329   8.078   5.164
64615SOL     OW93870  12.399   9.018   4.517
64615SOL    HW193871  12.420   9.092   4.452
64615SOL    HW293872  12.467   9.018   4.590
64616SOL     OW93873  11.631   8.600   4.465
64616SOL    HW193874  11.560   8.573   4.530
64616SOL    HW293875  11.605   8.572   4.372
64617SOL     OW93876  12.443   9.245   4.315
64617SOL    HW193877  12.487   9.309   4.251
64617SOL    HW293878  12.393   9.297   4.385
64618SOL     OW93879  12.204   7.997   3.740
64618SOL    HW193880  12.163   8.079   3.701
64618SOL    HW293881  12.268   8.023   3.813
64619SOL     OW93882  11.250   8.004   5.110
64619SOL    HW193883  11.342   8.003   5.069
64619SOL    HW293884  11.244   8.078   5.177
64620SOL     OW93885  11.733   7.670   4.871
64620SOL    HW193886  11.771   7.586   4.908
64620SOL    HW293887  11.645   7.689   4.915
64621SOL     OW93888  12.038   7.902   4.366
64621SOL    HW193889  12.006   7.974   4.304
64621SOL    HW293890  12.062   7.821   4.313
64622SOL     OW93891  12.189   7.487   4.477
64622SOL    HW193892  12.117   7.492   4.408
64622SOL    HW293893  12.165   7.418   4.546
64623SOL     OW93894  12.601   8.621   4.591
64623SOL    HW193895  12.546   8.537   4.584
64623SOL    HW293896  12.627   8.650   4.499
64624SOL     OW93897  11.660   8.833   3.898
64624SOL    HW193898  11.573   8.818   3.945
64624SOL    HW293899  11.643   8.859   3.803
64625SOL     OW93900  12.562   8.023   3.802
64625SOL    HW193901  12.508   8.002   3.883
64625SOL    HW293902  12.653   7.982   3.811
64626SOL     OW93903  11.699   7.704   4.052
64626SOL    HW193904  11.726   7.645   3.977
64626SOL    HW293905  11.699   7.799   4.021
64627SOL     OW93906  12.236   8.795   5.064
64627SOL    HW193907  12.156   8.772   5.119
64627SOL    HW293908  12.319   8.769   5.113
64628SOL     OW93909  12.764   9.077   5.349
64628SOL    HW193910  12.791   9.111   5.259
64628SOL    HW293911  12.843   9.039   5.395
64629SOL     OW93912  12.283   8.643   4.824
64629SOL    HW193913  12.243   8.687   4.905
64629SOL    HW293914  12.242   8.680   4.741
64630SOL     OW93915  12.087   7.537   5.126
64630SOL    HW193916  12.112   7.517   5.031
64630SOL    HW293917  12.159   7.593   5.168
64631SOL     OW93918  12.152   8.564   5.443
64631SOL    HW193919  12.053   8.570   5.453
64631SOL    HW293920  12.175   8.484   5.387
64632SOL     OW93921  11.877   8.498   4.092
64632SOL    HW193922  11.863   8.505   4.191
64632SOL    HW293923  11.961   8.447   4.074
64633SOL     OW93924  11.582   8.261   4.975
64633SOL    HW193925  11.668   8.273   5.025
64633SOL    HW293926  11.540   8.174   5.002
64634SOL     OW93927  12.446   7.834   4.986
64634SOL    HW193928  12.467   7.908   5.050
64634SOL    HW293929  12.357   7.851   4.943
64635SOL     OW93930  11.236   9.012   5.055
64635SOL    HW193931  11.190   9.094   5.021
64635SOL    HW293932  11.334   9.031   5.064
64636SOL     OW93933  11.539   8.548   4.225
64636SOL    HW193934  11.532   8.631   4.169
64636SOL    HW293935  11.543   8.468   4.165
64637SOL     OW93936  11.738   7.985   4.589
64637SOL    HW193937  11.750   8.051   4.515
64637SOL    HW293938  11.784   8.019   4.672
64638SOL     OW93939  12.424   8.796   4.112
64638SOL    HW193940  12.474   8.873   4.152
64638SOL    HW293941  12.329   8.798   4.144
64639SOL     OW93942  12.444   8.893   4.866
64639SOL    HW193943  12.491   8.906   4.953
64639SOL    HW293944  12.378   8.819   4.875
64640SOL     OW93945  11.526   8.958   5.053
64640SOL    HW193946  11.505   8.914   4.966
64640SOL    HW293947  11.623   8.984   5.056
64641SOL     OW93948  11.574   8.199   5.322
64641SOL    HW193949  11.642   8.254   5.275
64641SOL    HW293950  11.614   8.111   5.349
64642SOL     OW93951  12.185   7.553   5.494
64642SOL    HW193952  12.191   7.638   5.442
64642SOL    HW293953  12.217   7.477   5.437
64643SOL     OW93954  11.676   7.498   5.464
64643SOL    HW193955  11.634   7.441   5.394
64643SOL    HW293956  11.610   7.567   5.496
64644SOL     OW93957  11.745   8.318   4.753
64644SOL    HW193958  11.789   8.407   4.744
64644SOL    HW293959  11.682   8.318   4.830
64645SOL     OW93960  12.532   8.310   4.769
64645SOL    HW193961  12.457   8.310   4.703
64645SOL    HW293962  12.569   8.218   4.778
64646SOL     OW93963  12.381   7.973   3.999
64646SOL    HW193964  12.394   7.889   4.053
64646SOL    HW293965  12.352   8.047   4.059
64647SOL     OW93966  11.479   7.661   4.955
64647SOL    HW193967  11.456   7.698   5.045
64647SOL    HW293968  11.449   7.566   4.949
64648SOL     OW93969  11.209   8.758   5.006
64648SOL    HW193970  11.262   8.709   5.074
64648SOL    HW293971  11.231   8.856   5.011
64649SOL     OW93972  11.904   8.082   4.788
64649SOL    HW193973  11.963   8.056   4.712
64649SOL    HW293974  11.876   8.178   4.777
64650SOL     OW93975  11.479   7.511   4.342
64650SOL    HW193976  11.468   7.605   4.375
64650SOL    HW293977  11.474   7.448   4.419
64651SOL     OW93978  12.794   7.815   4.098
64651SOL    HW193979  12.796   7.739   4.162
64651SOL    HW293980  12.746   7.892   4.138
64652SOL     OW93981  12.195   8.214   4.690
64652SOL    HW193982  12.210   8.235   4.786
64652SOL    HW293983  12.165   8.119   4.681
64653SOL     OW93984  12.152   9.021   5.424
64653SOL    HW193985  12.132   9.065   5.336
64653SOL    HW293986  12.191   8.930   5.408
64654SOL     OW93987  11.522   8.346   5.528
64654SOL    HW193988  11.598   8.390   5.576
64654SOL    HW293989  11.557   8.299   5.446
64655SOL     OW93990  12.475   8.286   3.766
64655SOL    HW193991  12.509   8.193   3.781
64655SOL    HW293992  12.493   8.313   3.671
64656SOL     OW93993  12.240   8.781   4.573
64656SOL    HW193994  12.247   8.697   4.518
64656SOL    HW293995  12.302   8.850   4.537
64657SOL     OW93996  11.491   8.258   4.673
64657SOL    HW193997  11.584   8.294   4.678
64657SOL    HW293998  11.485   8.173   4.725
64658SOL     OW93999  11.511   7.957   4.730
64658SOL    HW194000  11.459   7.874   4.713
64658SOL    HW294001  11.588   7.962   4.666
64659SOL     OW94002  12.310   7.828   5.402
64659SOL    HW194003  12.265   7.891   5.466
64659SOL    HW294004  12.403   7.859   5.385
64660SOL     OW94005  12.332   7.655   5.201
64660SOL    HW194006  12.332   7.719   5.278
64660SOL    HW294007  12.360   7.703   5.118
64661SOL     OW94008  11.180   8.774   3.924
64661SOL    HW194009  11.087   8.795   3.893
64661SOL    HW294010  11.190   8.675   3.937
64662SOL     OW94011  11.260   9.249   4.651
64662SOL    HW194012  11.218   9.163   4.624
64662SOL    HW294013  11.354   9.252   4.617
64663SOL     OW94014  11.676   9.016   4.634
64663SOL    HW194015  11.742   9.090   4.643
64663SOL    HW294016  11.720   8.937   4.592
64664SOL     OW94017  12.174   8.244   4.962
64664SOL    HW194018  12.215   8.212   5.048
64664SOL    HW294019  12.078   8.217   4.959
64665SOL     OW94020  11.212   7.992   4.838
64665SOL    HW194021  11.297   7.959   4.797
64665SOL    HW294022  11.225   8.007   4.936
64666SOL     OW94023  11.361   7.968   5.446
64666SOL    HW194024  11.420   7.928   5.376
64666SOL    HW294025  11.303   8.039   5.405
64667SOL     OW94026  12.541   8.398   5.384
64667SOL    HW194027  12.580   8.487   5.404
64667SOL    HW294028  12.551   8.378   5.287
64668SOL     OW94029  11.987   8.020   4.049
64668SOL    HW194030  11.994   7.931   4.003
64668SOL    HW294031  11.893   8.054   4.041
64669SOL     OW94032  11.424   9.012   5.468
64669SOL    HW194033  11.394   9.069   5.544
64669SOL    HW294034  11.417   8.915   5.494
64670SOL     OW94035  11.843   7.912   4.993
64670SOL    HW194036  11.809   7.823   4.963
64670SOL    HW294037  11.869   7.966   4.913
64671SOL     OW94038  12.102   9.126   5.189
64671SOL    HW194039  12.078   9.108   5.094
64671SOL    HW294040  12.132   9.220   5.199
64672SOL     OW94041  11.645   7.948   3.915
64672SOL    HW194042  11.706   8.028   3.919
64672SOL    HW294043  11.550   7.979   3.922
64673SOL     OW94044  11.331   8.585   5.190
64673SOL    HW194045  11.353   8.524   5.266
64673SOL    HW294046  11.341   8.536   5.104
64674SOL     OW94047  12.519   8.507   4.958
64674SOL    HW194048  12.543   8.444   4.884
64674SOL    HW294049  12.429   8.547   4.940
64675SOL     OW94050  12.474   8.303   4.033
64675SOL    HW194051  12.388   8.272   4.075
64675SOL    HW294052  12.470   8.289   3.934
64676SOL     OW94053  12.424   9.179   4.852
64676SOL    HW194054  12.508   9.184   4.798
64676SOL    HW294055  12.401   9.083   4.870
64677SOL     OW94056  11.255   8.706   4.746
64677SOL    HW194057  11.250   8.705   4.846
64677SOL    HW294058  11.172   8.665   4.708
64678SOL     OW94059  11.860   9.110   5.440
64678SOL    HW194060  11.804   9.191   5.449
64678SOL    HW294061  11.912   9.114   5.354
64679SOL     OW94062  12.898   7.583   4.247
64679SOL    HW194063  12.971   7.566   4.180
64679SOL    HW294064  12.867   7.496   4.285
64680SOL     OW94065  12.560   9.021   4.201
64680SOL    HW194066  12.627   9.033   4.127
64680SOL    HW294067  12.520   9.110   4.224
64681SOL     OW94068  11.302   9.242   5.575
64681SOL    HW194069  11.261   9.168   5.628
64681SOL    HW294070  11.366   9.293   5.633
64682SOL     OW94071  12.452   8.375   4.396
64682SOL    HW194072  12.512   8.294   4.398
64682SOL    HW294073  12.492   8.444   4.336
64683SOL     OW94074  12.002   8.721   5.146
64683SOL    HW194075  11.997   8.754   5.241
64683SOL    HW294076  11.916   8.740   5.100
64684SOL     OW94077  11.844   9.064   3.878
64684SOL    HW194078  11.853   9.074   3.779
64684SOL    HW294079  11.804   8.975   3.899
64685SOL     OW94080  11.435   7.774   4.444
64685SOL    HW194081  11.356   7.825   4.410
64685SOL    HW294082  11.426   7.759   4.542
64686SOL     OW94083  12.366   9.060   3.755
64686SOL    HW194084  12.372   8.967   3.792
64686SOL    HW294085  12.307   9.060   3.675
64687SOL     OW94086  11.994   8.450   5.096
64687SOL    HW194087  12.034   8.449   5.004
64687SOL    HW294088  12.004   8.542   5.136
64688SOL     OW94089  12.088   8.358   4.015
64688SOL    HW194090  12.151   8.396   3.947
64688SOL    HW294091  12.128   8.275   4.054
64689SOL     OW94092  11.544   8.736   5.214
64689SOL    HW194093  11.531   8.829   5.180
64689SOL    HW294094  11.460   8.684   5.201
64690SOL     OW94095  12.211   8.546   4.420
64690SOL    HW194096  12.141   8.499   4.474
64690SOL    HW294097  12.270   8.478   4.377
64691SOL     OW94098  12.186   7.684   4.695
64691SOL    HW194099  12.178   7.648   4.602
64691SOL    HW294100  12.184   7.608   4.760
64692SOL     OW94101  11.762   8.935   4.215
64692SOL    HW194102  11.804   8.877   4.145
64692SOL    HW294103  11.718   9.014   4.171
64693SOL     OW94104  11.427   8.796   4.014
64693SOL    HW194105  11.331   8.797   3.987
64693SOL    HW294106  11.439   8.849   4.098
64694SOL     OW94107  11.277   8.461   5.450
64694SOL    HW194108  11.200   8.428   5.504
64694SOL    HW294109  11.362   8.431   5.492
64695SOL     OW94110  11.844   7.651   5.213
64695SOL    HW194111  11.934   7.635   5.173
64695SOL    HW294112  11.852   7.656   5.312
64696SOL     OW94113  11.247   7.793   3.757
64696SOL    HW194114  11.155   7.765   3.728
64696SOL    HW294115  11.278   7.870   3.701
64697SOL     OW94116  12.612   8.304   5.122
64697SOL    HW194117  12.555   8.356   5.059
64697SOL    HW294118  12.708   8.316   5.098
64698SOL     OW94119  11.244   7.614   4.042
64698SOL    HW194120  11.227   7.697   3.988
64698SOL    HW294121  11.334   7.577   4.020
64699SOL     OW94122  12.355   8.783   3.843
64699SOL    HW194123  12.256   8.772   3.845
64699SOL    HW294124  12.389   8.798   3.936
64700SOL     OW94125  11.785   8.290   5.155
64700SOL    HW194126  11.841   8.371   5.138
64700SOL    HW294127  11.844   8.210   5.158
64701SOL     OW94128  11.888   8.013   5.432
64701SOL    HW194129  11.907   8.078   5.506
64701SOL    HW294130  11.948   7.933   5.441
64702SOL     OW94131  12.622   8.668   5.357
64702SOL    HW194132  12.613   8.658   5.456
64702SOL    HW294133  12.718   8.661   5.331
64703SOL     OW94134  11.562   9.189   5.284
64703SOL    HW194135  11.471   9.230   5.282
64703SOL    HW294136  11.555   9.095   5.316
64704SOL     OW94137  12.397   7.773   4.173
64704SOL    HW194138  12.462   7.699   4.162
64704SOL    HW294139  12.417   7.823   4.257
64705SOL     OW94140  11.766   8.193   4.376
64705SOL    HW194141  11.816   8.278   4.357
64705SOL    HW294142  11.678   8.195   4.328
64706SOL     OW94143  12.031   8.822   3.740
64706SOL    HW194144  11.985   8.837   3.828
64706SOL    HW294145  12.075   8.907   3.710
64707SOL     OW94146  11.833   9.238   4.677
64707SOL    HW194147  11.787   9.326   4.664
64707SOL    HW294148  11.932   9.250   4.670
64708SOL     OW94149  12.031   8.404   4.585
64708SOL    HW194150  12.085   8.335   4.633
64708SOL    HW294151  11.999   8.473   4.651
64709SOL     OW94152  12.255   8.432   3.811
64709SOL    HW194153  12.232   8.485   3.729
64709SOL    HW294154  12.336   8.376   3.792
64710SOL     OW94155  11.393   8.762   5.568
64710SOL    HW194156  11.328   8.689   5.547
64710SOL    HW294157  11.397   8.776   5.666
64711SOL     OW94158  11.251   8.688   4.377
64711SOL    HW194159  11.250   8.641   4.465
64711SOL    HW294160  11.333   8.660   4.326
64712SOL     OW94161  11.844   8.839   5.348
64712SOL    HW194162  11.766   8.789   5.386
64712SOL    HW294163  11.841   8.934   5.379
64713SOL     OW94164  11.600   7.872   4.244
64713SOL    HW194165  11.630   7.800   4.182
64713SOL    HW294166  11.561   7.832   4.327
64714SOL     OW94167  12.877   8.935   4.828
64714SOL    HW194168  12.784   8.910   4.801
64714SOL    HW294169  12.903   8.885   4.910
64715SOL     OW94170  11.489   7.995   5.004
64715SOL    HW194171  11.527   7.936   5.076
64715SOL    HW294172  11.529   7.969   4.916
64716SOL     OW94173  11.984   9.034   4.411
64716SOL    HW194174  12.016   9.044   4.317
64716SOL    HW294175  11.905   8.972   4.413
64717SOL     OW94176  12.596   7.662   4.836
64717SOL    HW194177  12.648   7.597   4.891
64717SOL    HW294178  12.547   7.725   4.897
64718SOL     OW94179  12.173   7.482   4.878
64718SOL    HW194180  12.110   7.410   4.847
64718SOL    HW294181  12.266   7.446   4.878
64719SOL     OW94182  11.942   8.778   4.025
64719SOL    HW194183  11.896   8.691   4.042
64719SOL    HW294184  12.033   8.775   4.066
64720SOL     OW94185  11.790   9.015   5.008
64720SOL    HW194186  11.785   9.097   5.065
64720SOL    HW294187  11.879   9.012   4.963
64721SOL     OW94188  12.524   7.500   3.892
64721SOL    HW194189  12.559   7.459   3.808
64721SOL    HW294190  12.434   7.462   3.912
64722SOL     OW94191  12.472   7.901   4.415
64722SOL    HW194192  12.413   7.981   4.419
64722SOL    HW294193  12.487   7.866   4.508
64723SOL     OW94194  11.211   8.525   4.024
64723SOL    HW194195  11.310   8.514   4.015
64723SOL    HW294196  11.171   8.439   4.056
64724SOL     OW94197  12.047   9.094   4.061
64724SOL    HW194198  11.970   9.059   4.007
64724SOL    HW294199  12.015   9.165   4.123
64725SOL     OW94200  11.402   8.076   5.699
64725SOL    HW194201  11.309   8.074   5.736
64725SOL    HW294202  11.403   8.037   5.607
64726SOL     OW94203  11.397   7.723   6.582
64726SOL    HW194204  11.432   7.706   6.674
64726SOL    HW294205  11.309   7.678   6.570
64727SOL     OW94206  11.191   7.816   6.233
64727SOL    HW194207  11.109   7.859   6.272
64727SOL    HW294208  11.163   7.743   6.170
64728SOL     OW94209  11.741   8.723   6.751
64728SOL    HW194210  11.648   8.716   6.714
64728SOL    HW294211  11.752   8.812   6.795
64729SOL     OW94212  12.727   8.959   6.289
64729SOL    HW194213  12.670   8.943   6.370
64729SOL    HW294214  12.668   8.969   6.209
64730SOL     OW94215  12.307   8.151   6.303
64730SOL    HW194216  12.364   8.229   6.278
64730SOL    HW294217  12.247   8.177   6.379
64731SOL     OW94218  11.940   8.592   6.609
64731SOL    HW194219  11.862   8.609   6.669
64731SOL    HW294220  11.974   8.679   6.573
64732SOL     OW94221  12.022   8.246   7.409
64732SOL    HW194222  12.018   8.322   7.474
64732SOL    HW294223  12.044   8.282   7.318
64733SOL     OW94224  11.857   8.460   6.251
64733SOL    HW194225  11.926   8.444   6.321
64733SOL    HW294226  11.784   8.517   6.289
64734SOL     OW94227  11.858   8.609   7.389
64734SOL    HW194228  11.918   8.688   7.403
64734SOL    HW294229  11.772   8.640   7.348
64735SOL     OW94230  11.507   8.883   6.647
64735SOL    HW194231  11.429   8.852   6.594
64735SOL    HW294232  11.565   8.941   6.590
64736SOL     OW94233  11.610   7.840   7.085
64736SOL    HW194234  11.692   7.784   7.094
64736SOL    HW294235  11.529   7.782   7.089
64737SOL     OW94236  11.403   9.161   6.069
64737SOL    HW194237  11.437   9.238   6.123
64737SOL    HW294238  11.447   9.161   5.979
64738SOL     OW94239  12.299   8.789   7.276
64738SOL    HW194240  12.346   8.789   7.364
64738SOL    HW294241  12.251   8.702   7.265
64739SOL     OW94242  11.402   8.882   6.124
64739SOL    HW194243  11.376   8.978   6.124
64739SOL    HW294244  11.331   8.828   6.169
64740SOL     OW94245  11.412   8.539   6.472
64740SOL    HW194246  11.426   8.455   6.524
64740SOL    HW294247  11.357   8.603   6.527
64741SOL     OW94248  11.792   9.234   7.025
64741SOL    HW194249  11.700   9.217   7.060
64741SOL    HW294250  11.820   9.326   7.051
64742SOL     OW94251  11.778   8.412   5.709
64742SOL    HW194252  11.785   8.496   5.655
64742SOL    HW294253  11.824   8.425   5.797
64743SOL     OW94254  11.294   8.091   6.149
64743SOL    HW194255  11.249   8.003   6.166
64743SOL    HW294256  11.293   8.145   6.233
64744SOL     OW94257  11.199   9.044   5.703
64744SOL    HW194258  11.180   8.948   5.724
64744SOL    HW294259  11.166   9.102   5.778
64745SOL     OW94260  12.861   8.370   6.198
64745SOL    HW194261  12.956   8.341   6.206
64745SOL    HW294262  12.853   8.435   6.123
64746SOL     OW94263  11.285   8.185   7.183
64746SOL    HW194264  11.373   8.172   7.228
64746SOL    HW294265  11.272   8.282   7.161
64747SOL     OW94266  11.785   8.813   6.312
64747SOL    HW194267  11.736   8.726   6.321
64747SOL    HW294268  11.762   8.856   6.225
64748SOL     OW94269  12.465   8.676   7.009
64748SOL    HW194270  12.502   8.603   6.951
64748SOL    HW294271  12.517   8.681   7.094
64749SOL     OW94272  11.981   7.452   6.088
64749SOL    HW194273  12.021   7.543   6.079
64749SOL    HW294274  11.881   7.460   6.094
64750SOL     OW94275  11.369   8.424   6.850
64750SOL    HW194276  11.458   8.379   6.836
64750SOL    HW294277  11.296   8.359   6.831
64751SOL     OW94278  12.359   9.240   7.202
64751SOL    HW194279  12.383   9.300   7.126
64751SOL    HW294280  12.366   9.145   7.172
64752SOL     OW94281  11.489   7.699   7.387
64752SOL    HW194282  11.560   7.770   7.393
64752SOL    HW294283  11.401   7.738   7.415
64753SOL     OW94284  12.638   8.865   6.539
64753SOL    HW194285  12.579   8.871   6.619
64753SOL    HW294286  12.623   8.777   6.493
64754SOL     OW94287  11.770   8.177   5.856
64754SOL    HW194288  11.794   8.246   5.788
64754SOL    HW294289  11.692   8.210   5.910
64755SOL     OW94290  12.453   7.793   6.530
64755SOL    HW194291  12.367   7.743   6.517
64755SOL    HW294292  12.515   7.739   6.586
64756SOL     OW94293  11.979   8.053   7.051
64756SOL    HW194294  11.932   8.050   7.140
64756SOL    HW294295  11.928   7.998   6.985
64757SOL     OW94296  12.566   7.917   7.260
64757SOL    HW194297  12.546   7.960   7.348
64757SOL    HW294298  12.644   7.855   7.269
64758SOL     OW94299  12.145   8.338   7.158
64758SOL    HW194300  12.191   8.254   7.129
64758SOL    HW294301  12.089   8.372   7.083
64759SOL     OW94302  12.163   7.858   6.828
64759SOL    HW194303  12.086   7.892   6.882
64759SOL    HW294304  12.129   7.807   6.749
64760SOL     OW94305  12.213   8.149   6.015
64760SOL    HW194306  12.239   8.145   6.111
64760SOL    HW294307  12.128   8.098   6.001
64761SOL     OW94308  11.248   8.259   6.375
64761SOL    HW194309  11.347   8.247   6.384
64761SOL    HW294310  11.224   8.354   6.396
64762SOL     OW94311  11.302   9.269   7.157
64762SOL    HW194312  11.292   9.254   7.256
64762SOL    HW294313  11.216   9.305   7.121
64763SOL     OW94314  12.037   7.796   5.781
64763SOL    HW194315  12.096   7.859   5.732
64763SOL    HW294316  12.056   7.702   5.752
64764SOL     OW94317  12.534   8.592   6.131
64764SOL    HW194318  12.617   8.563   6.083
64764SOL    HW294319  12.485   8.659   6.075
64765SOL     OW94320  11.722   7.644   6.471
64765SOL    HW194321  11.717   7.639   6.571
64765SOL    HW294322  11.724   7.740   6.442
64766SOL     OW94323  12.180   8.904   6.063
64766SOL    HW194324  12.134   8.976   6.011
64766SOL    HW294325  12.176   8.924   6.161
64767SOL     OW94326  11.523   9.249   6.439
64767SOL    HW194327  11.573   9.163   6.445
64767SOL    HW294328  11.588   9.326   6.436
64768SOL     OW94329  12.399   8.998   7.092
64768SOL    HW194330  12.405   8.921   7.156
64768SOL    HW294331  12.347   8.972   7.012
64769SOL     OW94332  11.493   8.391   5.828
64769SOL    HW194333  11.575   8.430   5.786
64769SOL    HW294334  11.466   8.309   5.779
64770SOL     OW94335  11.633   8.714   7.313
64770SOL    HW194336  11.583   8.715   7.227
64770SOL    HW294337  11.570   8.696   7.389
64771SOL     OW94338  12.283   9.224   5.823
64771SOL    HW194339  12.223   9.162   5.873
64771SOL    HW294340  12.314   9.180   5.738
64772SOL     OW94341  11.374   7.733   7.084
64772SOL    HW194342  11.294   7.793   7.071
64772SOL    HW294343  11.364   7.684   7.170
64773SOL     OW94344  11.636   9.191   5.909
64773SOL    HW194345  11.669   9.230   5.995
64773SOL    HW294346  11.712   9.184   5.844
64774SOL     OW94347  12.572   7.555   6.012
64774SOL    HW194348  12.548   7.518   5.922
64774SOL    HW294349  12.671   7.571   6.016
64775SOL     OW94350  11.421   9.233   6.827
64775SOL    HW194351  11.478   9.168   6.877
64775SOL    HW294352  11.405   9.200   6.734
64776SOL     OW94353  12.112   9.146   6.490
64776SOL    HW194354  12.192   9.089   6.511
64776SOL    HW294355  12.063   9.106   6.413
64777SOL     OW94356  11.554   8.148   6.066
64777SOL    HW194357  11.599   8.058   6.063
64777SOL    HW294358  11.460   8.137   6.099
64778SOL     OW94359  11.786   7.570   5.703
64778SOL    HW194360  11.884   7.548   5.710
64778SOL    HW294361  11.755   7.553   5.610
64779SOL     OW94362  11.953   7.712   7.335
64779SOL    HW194363  12.020   7.651   7.378
64779SOL    HW294364  11.880   7.731   7.400
64780SOL     OW94365  12.060   8.962   6.781
64780SOL    HW194366  12.037   8.937   6.687
64780SOL    HW294367  12.121   8.893   6.820
64781SOL     OW94368  12.523   8.038   7.019
64781SOL    HW194369  12.551   7.995   7.104
64781SOL    HW294370  12.548   8.134   7.020
64782SOL     OW94371  11.975   8.850   6.510
64782SOL    HW194372  12.065   8.864   6.468
64782SOL    HW294373  11.904   8.852   6.439
64783SOL     OW94374  12.094   7.951   6.485
64783SOL    HW194375  12.069   7.942   6.389
64783SOL    HW294376  12.142   7.869   6.516
64784SOL     OW94377  11.711   7.512   6.098
64784SOL    HW194378  11.630   7.513   6.156
64784SOL    HW294379  11.714   7.595   6.043
64785SOL     OW94380  12.606   8.636   5.627
64785SOL    HW194381  12.638   8.560   5.684
64785SOL    HW294382  12.514   8.663   5.657
64786SOL     OW94383  11.469   7.483   5.757
64786SOL    HW194384  11.518   7.567   5.736
64786SOL    HW294385  11.531   7.418   5.802
64787SOL     OW94386  12.107   7.684   6.066
64787SOL    HW194387  12.059   7.725   5.988
64787SOL    HW294388  12.206   7.682   6.047
64788SOL     OW94389  12.248   8.131   7.050
64788SOL    HW194390  12.168   8.070   7.053
64788SOL    HW294391  12.329   8.078   7.026
64789SOL     OW94392  12.399   9.018   6.379
64789SOL    HW194393  12.420   9.092   6.314
64789SOL    HW294394  12.467   9.018   6.452
64790SOL     OW94395  11.631   8.600   6.327
64790SOL    HW194396  11.560   8.573   6.392
64790SOL    HW294397  11.605   8.572   6.234
64791SOL     OW94398  12.443   9.245   6.177
64791SOL    HW194399  12.487   9.309   6.113
64791SOL    HW294400  12.393   9.297   6.247
64792SOL     OW94401  12.204   7.997   5.602
64792SOL    HW194402  12.163   8.079   5.563
64792SOL    HW294403  12.268   8.023   5.675
64793SOL     OW94404  11.250   8.004   6.972
64793SOL    HW194405  11.342   8.003   6.931
64793SOL    HW294406  11.244   8.078   7.039
64794SOL     OW94407  11.733   7.670   6.733
64794SOL    HW194408  11.771   7.586   6.770
64794SOL    HW294409  11.645   7.689   6.777
64795SOL     OW94410  12.038   7.902   6.228
64795SOL    HW194411  12.006   7.974   6.166
64795SOL    HW294412  12.062   7.821   6.175
64796SOL     OW94413  12.189   7.487   6.339
64796SOL    HW194414  12.117   7.492   6.270
64796SOL    HW294415  12.165   7.418   6.408
64797SOL     OW94416  12.601   8.621   6.453
64797SOL    HW194417  12.546   8.537   6.446
64797SOL    HW294418  12.627   8.650   6.361
64798SOL     OW94419  11.660   8.833   5.760
64798SOL    HW194420  11.573   8.818   5.807
64798SOL    HW294421  11.643   8.859   5.665
64799SOL     OW94422  12.562   8.023   5.664
64799SOL    HW194423  12.508   8.002   5.745
64799SOL    HW294424  12.653   7.982   5.673
64800SOL     OW94425  11.699   7.704   5.914
64800SOL    HW194426  11.726   7.645   5.839
64800SOL    HW294427  11.699   7.799   5.883
64801SOL     OW94428  12.236   8.795   6.926
64801SOL    HW194429  12.156   8.772   6.981
64801SOL    HW294430  12.319   8.769   6.975
64802SOL     OW94431  12.764   9.077   7.211
64802SOL    HW194432  12.791   9.111   7.121
64802SOL    HW294433  12.843   9.039   7.257
64803SOL     OW94434  12.283   8.643   6.686
64803SOL    HW194435  12.243   8.687   6.767
64803SOL    HW294436  12.242   8.680   6.603
64804SOL     OW94437  12.087   7.537   6.988
64804SOL    HW194438  12.112   7.517   6.893
64804SOL    HW294439  12.159   7.593   7.030
64805SOL     OW94440  12.152   8.564   7.305
64805SOL    HW194441  12.053   8.570   7.315
64805SOL    HW294442  12.175   8.484   7.249
64806SOL     OW94443  11.877   8.498   5.954
64806SOL    HW194444  11.863   8.505   6.053
64806SOL    HW294445  11.961   8.447   5.936
64807SOL     OW94446  11.582   8.261   6.837
64807SOL    HW194447  11.668   8.273   6.887
64807SOL    HW294448  11.540   8.174   6.864
64808SOL     OW94449  12.446   7.834   6.848
64808SOL    HW194450  12.467   7.908   6.912
64808SOL    HW294451  12.357   7.851   6.805
64809SOL     OW94452  11.236   9.012   6.917
64809SOL    HW194453  11.190   9.094   6.883
64809SOL    HW294454  11.334   9.031   6.926
64810SOL     OW94455  11.539   8.548   6.087
64810SOL    HW194456  11.532   8.631   6.031
64810SOL    HW294457  11.543   8.468   6.027
64811SOL     OW94458  11.738   7.985   6.451
64811SOL    HW194459  11.750   8.051   6.377
64811SOL    HW294460  11.784   8.019   6.534
64812SOL     OW94461  12.424   8.796   5.974
64812SOL    HW194462  12.474   8.873   6.014
64812SOL    HW294463  12.329   8.798   6.006
64813SOL     OW94464  12.444   8.893   6.728
64813SOL    HW194465  12.491   8.906   6.815
64813SOL    HW294466  12.378   8.819   6.737
64814SOL     OW94467  11.526   8.958   6.915
64814SOL    HW194468  11.505   8.914   6.828
64814SOL    HW294469  11.623   8.984   6.918
64815SOL     OW94470  11.574   8.199   7.184
64815SOL    HW194471  11.642   8.254   7.137
64815SOL    HW294472  11.614   8.111   7.211
64816SOL     OW94473  12.185   7.553   7.356
64816SOL    HW194474  12.191   7.638   7.304
64816SOL    HW294475  12.217   7.477   7.299
64817SOL     OW94476  11.676   7.498   7.326
64817SOL    HW194477  11.634   7.441   7.256
64817SOL    HW294478  11.610   7.567   7.358
64818SOL     OW94479  11.745   8.318   6.615
64818SOL    HW194480  11.789   8.407   6.606
64818SOL    HW294481  11.682   8.318   6.692
64819SOL     OW94482  12.532   8.310   6.631
64819SOL    HW194483  12.457   8.310   6.565
64819SOL    HW294484  12.569   8.218   6.640
64820SOL     OW94485  12.381   7.973   5.861
64820SOL    HW194486  12.394   7.889   5.915
64820SOL    HW294487  12.352   8.047   5.921
64821SOL     OW94488  11.479   7.661   6.817
64821SOL    HW194489  11.456   7.698   6.907
64821SOL    HW294490  11.449   7.566   6.811
64822SOL     OW94491  11.209   8.758   6.868
64822SOL    HW194492  11.262   8.709   6.936
64822SOL    HW294493  11.231   8.856   6.873
64823SOL     OW94494  11.904   8.082   6.650
64823SOL    HW194495  11.963   8.056   6.574
64823SOL    HW294496  11.876   8.178   6.639
64824SOL     OW94497  11.479   7.511   6.204
64824SOL    HW194498  11.468   7.605   6.237
64824SOL    HW294499  11.474   7.448   6.281
64825SOL     OW94500  12.794   7.815   5.960
64825SOL    HW194501  12.796   7.739   6.024
64825SOL    HW294502  12.746   7.892   6.000
64826SOL     OW94503  12.195   8.214   6.552
64826SOL    HW194504  12.210   8.235   6.648
64826SOL    HW294505  12.165   8.119   6.543
64827SOL     OW94506  12.152   9.021   7.286
64827SOL    HW194507  12.132   9.065   7.198
64827SOL    HW294508  12.191   8.930   7.270
64828SOL     OW94509  11.522   8.346   7.390
64828SOL    HW194510  11.598   8.390   7.438
64828SOL    HW294511  11.557   8.299   7.308
64829SOL     OW94512  12.475   8.286   5.628
64829SOL    HW194513  12.509   8.193   5.643
64829SOL    HW294514  12.493   8.313   5.533
64830SOL     OW94515  12.240   8.781   6.435
64830SOL    HW194516  12.247   8.697   6.380
64830SOL    HW294517  12.302   8.850   6.399
64831SOL     OW94518  11.491   8.258   6.535
64831SOL    HW194519  11.584   8.294   6.540
64831SOL    HW294520  11.485   8.173   6.587
64832SOL     OW94521  11.511   7.957   6.592
64832SOL    HW194522  11.459   7.874   6.575
64832SOL    HW294523  11.588   7.962   6.528
64833SOL     OW94524  12.310   7.828   7.264
64833SOL    HW194525  12.265   7.891   7.328
64833SOL    HW294526  12.403   7.859   7.247
64834SOL     OW94527  12.332   7.655   7.063
64834SOL    HW194528  12.332   7.719   7.140
64834SOL    HW294529  12.360   7.703   6.980
64835SOL     OW94530  11.180   8.774   5.786
64835SOL    HW194531  11.087   8.795   5.755
64835SOL    HW294532  11.190   8.675   5.799
64836SOL     OW94533  11.260   9.249   6.513
64836SOL    HW194534  11.218   9.163   6.486
64836SOL    HW294535  11.354   9.252   6.479
64837SOL     OW94536  11.676   9.016   6.496
64837SOL    HW194537  11.742   9.090   6.505
64837SOL    HW294538  11.720   8.937   6.454
64838SOL     OW94539  12.174   8.244   6.824
64838SOL    HW194540  12.215   8.212   6.910
64838SOL    HW294541  12.078   8.217   6.821
64839SOL     OW94542  11.212   7.992   6.700
64839SOL    HW194543  11.297   7.959   6.659
64839SOL    HW294544  11.225   8.007   6.798
64840SOL     OW94545  11.361   7.968   7.308
64840SOL    HW194546  11.420   7.928   7.238
64840SOL    HW294547  11.303   8.039   7.267
64841SOL     OW94548  12.541   8.398   7.246
64841SOL    HW194549  12.580   8.487   7.266
64841SOL    HW294550  12.551   8.378   7.149
64842SOL     OW94551  11.987   8.020   5.911
64842SOL    HW194552  11.994   7.931   5.865
64842SOL    HW294553  11.893   8.054   5.903
64843SOL     OW94554  11.424   9.012   7.330
64843SOL    HW194555  11.394   9.069   7.406
64843SOL    HW294556  11.417   8.915   7.356
64844SOL     OW94557  11.843   7.912   6.855
64844SOL    HW194558  11.809   7.823   6.825
64844SOL    HW294559  11.869   7.966   6.775
64845SOL     OW94560  12.102   9.126   7.051
64845SOL    HW194561  12.078   9.108   6.956
64845SOL    HW294562  12.132   9.220   7.061
64846SOL     OW94563  11.645   7.948   5.777
64846SOL    HW194564  11.706   8.028   5.781
64846SOL    HW294565  11.550   7.979   5.784
64847SOL     OW94566  11.331   8.585   7.052
64847SOL    HW194567  11.353   8.524   7.128
64847SOL    HW294568  11.341   8.536   6.966
64848SOL     OW94569  12.519   8.507   6.820
64848SOL    HW194570  12.543   8.444   6.746
64848SOL    HW294571  12.429   8.547   6.802
64849SOL     OW94572  12.474   8.303   5.895
64849SOL    HW194573  12.388   8.272   5.937
64849SOL    HW294574  12.470   8.289   5.796
64850SOL     OW94575  12.424   9.179   6.714
64850SOL    HW194576  12.508   9.184   6.660
64850SOL    HW294577  12.401   9.083   6.732
64851SOL     OW94578  11.255   8.706   6.608
64851SOL    HW194579  11.250   8.705   6.708
64851SOL    HW294580  11.172   8.665   6.570
64852SOL     OW94581  11.860   9.110   7.302
64852SOL    HW194582  11.804   9.191   7.311
64852SOL    HW294583  11.912   9.114   7.216
64853SOL     OW94584  12.898   7.583   6.109
64853SOL    HW194585  12.971   7.566   6.042
64853SOL    HW294586  12.867   7.496   6.147
64854SOL     OW94587  12.560   9.021   6.063
64854SOL    HW194588  12.627   9.033   5.989
64854SOL    HW294589  12.520   9.110   6.086
64855SOL     OW94590  11.302   9.242   7.437
64855SOL    HW194591  11.261   9.168   7.490
64855SOL    HW294592  11.366   9.293   7.495
64856SOL     OW94593  12.452   8.375   6.258
64856SOL    HW194594  12.512   8.294   6.260
64856SOL    HW294595  12.492   8.444   6.198
64857SOL     OW94596  12.002   8.721   7.008
64857SOL    HW194597  11.997   8.754   7.103
64857SOL    HW294598  11.916   8.740   6.962
64858SOL     OW94599  11.844   9.064   5.740
64858SOL    HW194600  11.853   9.074   5.641
64858SOL    HW294601  11.804   8.975   5.761
64859SOL     OW94602  11.435   7.774   6.306
64859SOL    HW194603  11.356   7.825   6.272
64859SOL    HW294604  11.426   7.759   6.404
64860SOL     OW94605  12.366   9.060   5.617
64860SOL    HW194606  12.372   8.967   5.654
64860SOL    HW294607  12.307   9.060   5.537
64861SOL     OW94608  11.994   8.450   6.958
64861SOL    HW194609  12.034   8.449   6.866
64861SOL    HW294610  12.004   8.542   6.998
64862SOL     OW94611  12.088   8.358   5.877
64862SOL    HW194612  12.151   8.396   5.809
64862SOL    HW294613  12.128   8.275   5.916
64863SOL     OW94614  11.544   8.736   7.076
64863SOL    HW194615  11.531   8.829   7.042
64863SOL    HW294616  11.460   8.684   7.063
64864SOL     OW94617  12.211   8.546   6.282
64864SOL    HW194618  12.141   8.499   6.336
64864SOL    HW294619  12.270   8.478   6.239
64865SOL     OW94620  12.186   7.684   6.557
64865SOL    HW194621  12.178   7.648   6.464
64865SOL    HW294622  12.184   7.608   6.622
64866SOL     OW94623  11.762   8.935   6.077
64866SOL    HW194624  11.804   8.877   6.007
64866SOL    HW294625  11.718   9.014   6.033
64867SOL     OW94626  11.427   8.796   5.876
64867SOL    HW194627  11.331   8.797   5.849
64867SOL    HW294628  11.439   8.849   5.960
64868SOL     OW94629  11.277   8.461   7.312
64868SOL    HW194630  11.200   8.428   7.366
64868SOL    HW294631  11.362   8.431   7.354
64869SOL     OW94632  11.844   7.651   7.075
64869SOL    HW194633  11.934   7.635   7.035
64869SOL    HW294634  11.852   7.656   7.174
64870SOL     OW94635  11.247   7.793   5.619
64870SOL    HW194636  11.155   7.765   5.590
64870SOL    HW294637  11.278   7.870   5.563
64871SOL     OW94638  12.612   8.304   6.984
64871SOL    HW194639  12.555   8.356   6.921
64871SOL    HW294640  12.708   8.316   6.960
64872SOL     OW94641  11.244   7.614   5.904
64872SOL    HW194642  11.227   7.697   5.850
64872SOL    HW294643  11.334   7.577   5.882
64873SOL     OW94644  12.355   8.783   5.705
64873SOL    HW194645  12.256   8.772   5.707
64873SOL    HW294646  12.389   8.798   5.798
64874SOL     OW94647  11.785   8.290   7.017
64874SOL    HW194648  11.841   8.371   7.000
64874SOL    HW294649  11.844   8.210   7.020
64875SOL     OW94650  11.888   8.013   7.294
64875SOL    HW194651  11.907   8.078   7.368
64875SOL    HW294652  11.948   7.933   7.303
64876SOL     OW94653  12.622   8.668   7.219
64876SOL    HW194654  12.613   8.658   7.318
64876SOL    HW294655  12.718   8.661   7.193
64877SOL     OW94656  11.562   9.189   7.146
64877SOL    HW194657  11.471   9.230   7.144
64877SOL    HW294658  11.555   9.095   7.178
64878SOL     OW94659  12.397   7.773   6.035
64878SOL    HW194660  12.462   7.699   6.024
64878SOL    HW294661  12.417   7.823   6.119
64879SOL     OW94662  11.766   8.193   6.238
64879SOL    HW194663  11.816   8.278   6.219
64879SOL    HW294664  11.678   8.195   6.190
64880SOL     OW94665  12.031   8.822   5.602
64880SOL    HW194666  11.985   8.837   5.690
64880SOL    HW294667  12.075   8.907   5.572
64881SOL     OW94668  11.833   9.238   6.539
64881SOL    HW194669  11.787   9.326   6.526
64881SOL    HW294670  11.932   9.250   6.532
64882SOL     OW94671  12.031   8.404   6.447
64882SOL    HW194672  12.085   8.335   6.495
64882SOL    HW294673  11.999   8.473   6.513
64883SOL     OW94674  12.255   8.432   5.673
64883SOL    HW194675  12.232   8.485   5.591
64883SOL    HW294676  12.336   8.376   5.654
64884SOL     OW94677  11.393   8.762   7.430
64884SOL    HW194678  11.328   8.689   7.409
64884SOL    HW294679  11.397   8.776   7.528
64885SOL     OW94680  11.251   8.688   6.239
64885SOL    HW194681  11.250   8.641   6.327
64885SOL    HW294682  11.333   8.660   6.188
64886SOL     OW94683  11.844   8.839   7.210
64886SOL    HW194684  11.766   8.789   7.248
64886SOL    HW294685  11.841   8.934   7.241
64887SOL     OW94686  11.600   7.872   6.106
64887SOL    HW194687  11.630   7.800   6.044
64887SOL    HW294688  11.561   7.832   6.189
64888SOL     OW94689  12.877   8.935   6.690
64888SOL    HW194690  12.784   8.910   6.663
64888SOL    HW294691  12.903   8.885   6.772
64889SOL     OW94692  11.489   7.995   6.866
64889SOL    HW194693  11.527   7.936   6.938
64889SOL    HW294694  11.529   7.969   6.778
64890SOL     OW94695  11.984   9.034   6.273
64890SOL    HW194696  12.016   9.044   6.179
64890SOL    HW294697  11.905   8.972   6.275
64891SOL     OW94698  12.596   7.662   6.698
64891SOL    HW194699  12.648   7.597   6.753
64891SOL    HW294700  12.547   7.725   6.759
64892SOL     OW94701  12.173   7.482   6.740
64892SOL    HW194702  12.110   7.410   6.709
64892SOL    HW294703  12.266   7.446   6.740
64893SOL     OW94704  11.942   8.778   5.887
64893SOL    HW194705  11.896   8.691   5.904
64893SOL    HW294706  12.033   8.775   5.928
64894SOL     OW94707  11.790   9.015   6.870
64894SOL    HW194708  11.785   9.097   6.927
64894SOL    HW294709  11.879   9.012   6.825
64895SOL     OW94710  12.524   7.500   5.754
64895SOL    HW194711  12.559   7.459   5.670
64895SOL    HW294712  12.434   7.462   5.774
64896SOL     OW94713  12.472   7.901   6.277
64896SOL    HW194714  12.413   7.981   6.281
64896SOL    HW294715  12.487   7.866   6.370
64897SOL     OW94716  11.211   8.525   5.886
64897SOL    HW194717  11.310   8.514   5.877
64897SOL    HW294718  11.171   8.439   5.918
64898SOL     OW94719  12.047   9.094   5.923
64898SOL    HW194720  11.970   9.059   5.869
64898SOL    HW294721  12.015   9.165   5.985
64899SOL     OW94722  11.402   8.076   7.561
64899SOL    HW194723  11.309   8.074   7.598
64899SOL    HW294724  11.403   8.037   7.469
64900SOL     OW94725  11.397   7.723   8.444
64900SOL    HW194726  11.432   7.706   8.536
64900SOL    HW294727  11.309   7.678   8.432
64901SOL     OW94728  11.191   7.816   8.095
64901SOL    HW194729  11.109   7.859   8.134
64901SOL    HW294730  11.163   7.743   8.032
64902SOL     OW94731  11.741   8.723   8.613
64902SOL    HW194732  11.648   8.716   8.576
64902SOL    HW294733  11.752   8.812   8.657
64903SOL     OW94734  12.727   8.959   8.151
64903SOL    HW194735  12.670   8.943   8.232
64903SOL    HW294736  12.668   8.969   8.071
64904SOL     OW94737  12.307   8.151   8.165
64904SOL    HW194738  12.364   8.229   8.140
64904SOL    HW294739  12.247   8.177   8.241
64905SOL     OW94740  11.940   8.592   8.471
64905SOL    HW194741  11.862   8.609   8.531
64905SOL    HW294742  11.974   8.679   8.435
64906SOL     OW94743  12.022   8.246   9.271
64906SOL    HW194744  12.018   8.322   9.336
64906SOL    HW294745  12.044   8.282   9.180
64907SOL     OW94746  11.857   8.460   8.113
64907SOL    HW194747  11.926   8.444   8.183
64907SOL    HW294748  11.784   8.517   8.151
64908SOL     OW94749  11.858   8.609   9.251
64908SOL    HW194750  11.918   8.688   9.265
64908SOL    HW294751  11.772   8.640   9.210
64909SOL     OW94752  11.507   8.883   8.509
64909SOL    HW194753  11.429   8.852   8.456
64909SOL    HW294754  11.565   8.941   8.452
64910SOL     OW94755  11.610   7.840   8.947
64910SOL    HW194756  11.692   7.784   8.956
64910SOL    HW294757  11.529   7.782   8.951
64911SOL     OW94758  11.403   9.161   7.931
64911SOL    HW194759  11.437   9.238   7.985
64911SOL    HW294760  11.447   9.161   7.841
64912SOL     OW94761  12.299   8.789   9.138
64912SOL    HW194762  12.346   8.789   9.226
64912SOL    HW294763  12.251   8.702   9.127
64913SOL     OW94764  11.402   8.882   7.986
64913SOL    HW194765  11.376   8.978   7.986
64913SOL    HW294766  11.331   8.828   8.031
64914SOL     OW94767  11.412   8.539   8.334
64914SOL    HW194768  11.426   8.455   8.386
64914SOL    HW294769  11.357   8.603   8.389
64915SOL     OW94770  11.792   9.234   8.887
64915SOL    HW194771  11.700   9.217   8.922
64915SOL    HW294772  11.820   9.326   8.913
64916SOL     OW94773  11.778   8.412   7.571
64916SOL    HW194774  11.785   8.496   7.517
64916SOL    HW294775  11.824   8.425   7.659
64917SOL     OW94776  11.294   8.091   8.011
64917SOL    HW194777  11.249   8.003   8.028
64917SOL    HW294778  11.293   8.145   8.095
64918SOL     OW94779  11.199   9.044   7.565
64918SOL    HW194780  11.180   8.948   7.586
64918SOL    HW294781  11.166   9.102   7.640
64919SOL     OW94782  12.861   8.370   8.060
64919SOL    HW194783  12.956   8.341   8.068
64919SOL    HW294784  12.853   8.435   7.985
64920SOL     OW94785  11.285   8.185   9.045
64920SOL    HW194786  11.373   8.172   9.090
64920SOL    HW294787  11.272   8.282   9.023
64921SOL     OW94788  11.785   8.813   8.174
64921SOL    HW194789  11.736   8.726   8.183
64921SOL    HW294790  11.762   8.856   8.087
64922SOL     OW94791  12.465   8.676   8.871
64922SOL    HW194792  12.502   8.603   8.813
64922SOL    HW294793  12.517   8.681   8.956
64923SOL     OW94794  11.981   7.452   7.950
64923SOL    HW194795  12.021   7.543   7.941
64923SOL    HW294796  11.881   7.460   7.956
64924SOL     OW94797  11.369   8.424   8.712
64924SOL    HW194798  11.458   8.379   8.698
64924SOL    HW294799  11.296   8.359   8.693
64925SOL     OW94800  12.359   9.240   9.064
64925SOL    HW194801  12.383   9.300   8.988
64925SOL    HW294802  12.366   9.145   9.034
64926SOL     OW94803  11.489   7.699   9.249
64926SOL    HW194804  11.560   7.770   9.255
64926SOL    HW294805  11.401   7.738   9.277
64927SOL     OW94806  12.638   8.865   8.401
64927SOL    HW194807  12.579   8.871   8.481
64927SOL    HW294808  12.623   8.777   8.355
64928SOL     OW94809  11.770   8.177   7.718
64928SOL    HW194810  11.794   8.246   7.650
64928SOL    HW294811  11.692   8.210   7.772
64929SOL     OW94812  12.453   7.793   8.392
64929SOL    HW194813  12.367   7.743   8.379
64929SOL    HW294814  12.515   7.739   8.448
64930SOL     OW94815  11.979   8.053   8.913
64930SOL    HW194816  11.932   8.050   9.002
64930SOL    HW294817  11.928   7.998   8.847
64931SOL     OW94818  12.566   7.917   9.122
64931SOL    HW194819  12.546   7.960   9.210
64931SOL    HW294820  12.644   7.855   9.131
64932SOL     OW94821  12.145   8.338   9.020
64932SOL    HW194822  12.191   8.254   8.991
64932SOL    HW294823  12.089   8.372   8.945
64933SOL     OW94824  12.163   7.858   8.690
64933SOL    HW194825  12.086   7.892   8.744
64933SOL    HW294826  12.129   7.807   8.611
64934SOL     OW94827  12.213   8.149   7.877
64934SOL    HW194828  12.239   8.145   7.973
64934SOL    HW294829  12.128   8.098   7.863
64935SOL     OW94830  11.248   8.259   8.237
64935SOL    HW194831  11.347   8.247   8.246
64935SOL    HW294832  11.224   8.354   8.258
64936SOL     OW94833  11.302   9.269   9.019
64936SOL    HW194834  11.292   9.254   9.118
64936SOL    HW294835  11.216   9.305   8.983
64937SOL     OW94836  12.037   7.796   7.643
64937SOL    HW194837  12.096   7.859   7.594
64937SOL    HW294838  12.056   7.702   7.614
64938SOL     OW94839  12.534   8.592   7.993
64938SOL    HW194840  12.617   8.563   7.945
64938SOL    HW294841  12.485   8.659   7.937
64939SOL     OW94842  11.722   7.644   8.333
64939SOL    HW194843  11.717   7.639   8.433
64939SOL    HW294844  11.724   7.740   8.304
64940SOL     OW94845  12.180   8.904   7.925
64940SOL    HW194846  12.134   8.976   7.873
64940SOL    HW294847  12.176   8.924   8.023
64941SOL     OW94848  11.523   9.249   8.301
64941SOL    HW194849  11.573   9.163   8.307
64941SOL    HW294850  11.588   9.326   8.298
64942SOL     OW94851  12.399   8.998   8.954
64942SOL    HW194852  12.405   8.921   9.018
64942SOL    HW294853  12.347   8.972   8.874
64943SOL     OW94854  11.493   8.391   7.690
64943SOL    HW194855  11.575   8.430   7.648
64943SOL    HW294856  11.466   8.309   7.641
64944SOL     OW94857  11.633   8.714   9.175
64944SOL    HW194858  11.583   8.715   9.089
64944SOL    HW294859  11.570   8.696   9.251
64945SOL     OW94860  12.283   9.224   7.685
64945SOL    HW194861  12.223   9.162   7.735
64945SOL    HW294862  12.314   9.180   7.600
64946SOL     OW94863  11.374   7.733   8.946
64946SOL    HW194864  11.294   7.793   8.933
64946SOL    HW294865  11.364   7.684   9.032
64947SOL     OW94866  11.636   9.191   7.771
64947SOL    HW194867  11.669   9.230   7.857
64947SOL    HW294868  11.712   9.184   7.706
64948SOL     OW94869  12.572   7.555   7.874
64948SOL    HW194870  12.548   7.518   7.784
64948SOL    HW294871  12.671   7.571   7.878
64949SOL     OW94872  11.421   9.233   8.689
64949SOL    HW194873  11.478   9.168   8.739
64949SOL    HW294874  11.405   9.200   8.596
64950SOL     OW94875  12.112   9.146   8.352
64950SOL    HW194876  12.192   9.089   8.373
64950SOL    HW294877  12.063   9.106   8.275
64951SOL     OW94878  11.554   8.148   7.928
64951SOL    HW194879  11.599   8.058   7.925
64951SOL    HW294880  11.460   8.137   7.961
64952SOL     OW94881  11.786   7.570   7.565
64952SOL    HW194882  11.884   7.548   7.572
64952SOL    HW294883  11.755   7.553   7.472
64953SOL     OW94884  11.953   7.712   9.197
64953SOL    HW194885  12.020   7.651   9.240
64953SOL    HW294886  11.880   7.731   9.262
64954SOL     OW94887  12.060   8.962   8.643
64954SOL    HW194888  12.037   8.937   8.549
64954SOL    HW294889  12.121   8.893   8.682
64955SOL     OW94890  12.523   8.038   8.881
64955SOL    HW194891  12.551   7.995   8.966
64955SOL    HW294892  12.548   8.134   8.882
64956SOL     OW94893  11.975   8.850   8.372
64956SOL    HW194894  12.065   8.864   8.330
64956SOL    HW294895  11.904   8.852   8.301
64957SOL     OW94896  12.094   7.951   8.347
64957SOL    HW194897  12.069   7.942   8.251
64957SOL    HW294898  12.142   7.869   8.378
64958SOL     OW94899  11.711   7.512   7.960
64958SOL    HW194900  11.630   7.513   8.018
64958SOL    HW294901  11.714   7.595   7.905
64959SOL     OW94902  12.606   8.636   7.489
64959SOL    HW194903  12.638   8.560   7.546
64959SOL    HW294904  12.514   8.663   7.519
64960SOL     OW94905  11.469   7.483   7.619
64960SOL    HW194906  11.518   7.567   7.598
64960SOL    HW294907  11.531   7.418   7.664
64961SOL     OW94908  12.107   7.684   7.928
64961SOL    HW194909  12.059   7.725   7.850
64961SOL    HW294910  12.206   7.682   7.909
64962SOL     OW94911  12.248   8.131   8.912
64962SOL    HW194912  12.168   8.070   8.915
64962SOL    HW294913  12.329   8.078   8.888
64963SOL     OW94914  12.399   9.018   8.241
64963SOL    HW194915  12.420   9.092   8.176
64963SOL    HW294916  12.467   9.018   8.314
64964SOL     OW94917  11.631   8.600   8.189
64964SOL    HW194918  11.560   8.573   8.254
64964SOL    HW294919  11.605   8.572   8.096
64965SOL     OW94920  12.443   9.245   8.039
64965SOL    HW194921  12.487   9.309   7.975
64965SOL    HW294922  12.393   9.297   8.109
64966SOL     OW94923  12.204   7.997   7.464
64966SOL    HW194924  12.163   8.079   7.425
64966SOL    HW294925  12.268   8.023   7.537
64967SOL     OW94926  11.250   8.004   8.834
64967SOL    HW194927  11.342   8.003   8.793
64967SOL    HW294928  11.244   8.078   8.901
64968SOL     OW94929  11.733   7.670   8.595
64968SOL    HW194930  11.771   7.586   8.632
64968SOL    HW294931  11.645   7.689   8.639
64969SOL     OW94932  12.038   7.902   8.090
64969SOL    HW194933  12.006   7.974   8.028
64969SOL    HW294934  12.062   7.821   8.037
64970SOL     OW94935  12.189   7.487   8.201
64970SOL    HW194936  12.117   7.492   8.132
64970SOL    HW294937  12.165   7.418   8.270
64971SOL     OW94938  12.601   8.621   8.315
64971SOL    HW194939  12.546   8.537   8.308
64971SOL    HW294940  12.627   8.650   8.223
64972SOL     OW94941  11.660   8.833   7.622
64972SOL    HW194942  11.573   8.818   7.669
64972SOL    HW294943  11.643   8.859   7.527
64973SOL     OW94944  12.562   8.023   7.526
64973SOL    HW194945  12.508   8.002   7.607
64973SOL    HW294946  12.653   7.982   7.535
64974SOL     OW94947  11.699   7.704   7.776
64974SOL    HW194948  11.726   7.645   7.701
64974SOL    HW294949  11.699   7.799   7.745
64975SOL     OW94950  12.236   8.795   8.788
64975SOL    HW194951  12.156   8.772   8.843
64975SOL    HW294952  12.319   8.769   8.837
64976SOL     OW94953  12.764   9.077   9.073
64976SOL    HW194954  12.791   9.111   8.983
64976SOL    HW294955  12.843   9.039   9.119
64977SOL     OW94956  12.283   8.643   8.548
64977SOL    HW194957  12.243   8.687   8.629
64977SOL    HW294958  12.242   8.680   8.465
64978SOL     OW94959  12.087   7.537   8.850
64978SOL    HW194960  12.112   7.517   8.755
64978SOL    HW294961  12.159   7.593   8.892
64979SOL     OW94962  12.152   8.564   9.167
64979SOL    HW194963  12.053   8.570   9.177
64979SOL    HW294964  12.175   8.484   9.111
64980SOL     OW94965  11.877   8.498   7.816
64980SOL    HW194966  11.863   8.505   7.915
64980SOL    HW294967  11.961   8.447   7.798
64981SOL     OW94968  11.582   8.261   8.699
64981SOL    HW194969  11.668   8.273   8.749
64981SOL    HW294970  11.540   8.174   8.726
64982SOL     OW94971  12.446   7.834   8.710
64982SOL    HW194972  12.467   7.908   8.774
64982SOL    HW294973  12.357   7.851   8.667
64983SOL     OW94974  11.236   9.012   8.779
64983SOL    HW194975  11.190   9.094   8.745
64983SOL    HW294976  11.334   9.031   8.788
64984SOL     OW94977  11.539   8.548   7.949
64984SOL    HW194978  11.532   8.631   7.893
64984SOL    HW294979  11.543   8.468   7.889
64985SOL     OW94980  11.738   7.985   8.313
64985SOL    HW194981  11.750   8.051   8.239
64985SOL    HW294982  11.784   8.019   8.396
64986SOL     OW94983  12.424   8.796   7.836
64986SOL    HW194984  12.474   8.873   7.876
64986SOL    HW294985  12.329   8.798   7.868
64987SOL     OW94986  12.444   8.893   8.590
64987SOL    HW194987  12.491   8.906   8.677
64987SOL    HW294988  12.378   8.819   8.599
64988SOL     OW94989  11.526   8.958   8.777
64988SOL    HW194990  11.505   8.914   8.690
64988SOL    HW294991  11.623   8.984   8.780
64989SOL     OW94992  11.574   8.199   9.046
64989SOL    HW194993  11.642   8.254   8.999
64989SOL    HW294994  11.614   8.111   9.073
64990SOL     OW94995  12.185   7.553   9.218
64990SOL    HW194996  12.191   7.638   9.166
64990SOL    HW294997  12.217   7.477   9.161
64991SOL     OW94998  11.676   7.498   9.188
64991SOL    HW194999  11.634   7.441   9.118
64991SOL    HW295000  11.610   7.567   9.220
64992SOL     OW95001  11.745   8.318   8.477
64992SOL    HW195002  11.789   8.407   8.468
64992SOL    HW295003  11.682   8.318   8.554
64993SOL     OW95004  12.532   8.310   8.493
64993SOL    HW195005  12.457   8.310   8.427
64993SOL    HW295006  12.569   8.218   8.502
64994SOL     OW95007  12.381   7.973   7.723
64994SOL    HW195008  12.394   7.889   7.777
64994SOL    HW295009  12.352   8.047   7.783
64995SOL     OW95010  11.479   7.661   8.679
64995SOL    HW195011  11.456   7.698   8.769
64995SOL    HW295012  11.449   7.566   8.673
64996SOL     OW95013  11.209   8.758   8.730
64996SOL    HW195014  11.262   8.709   8.798
64996SOL    HW295015  11.231   8.856   8.735
64997SOL     OW95016  11.904   8.082   8.512
64997SOL    HW195017  11.963   8.056   8.436
64997SOL    HW295018  11.876   8.178   8.501
64998SOL     OW95019  11.479   7.511   8.066
64998SOL    HW195020  11.468   7.605   8.099
64998SOL    HW295021  11.474   7.448   8.143
64999SOL     OW95022  12.794   7.815   7.822
64999SOL    HW195023  12.796   7.739   7.886
64999SOL    HW295024  12.746   7.892   7.862
65000SOL     OW95025  12.195   8.214   8.414
65000SOL    HW195026  12.210   8.235   8.510
65000SOL    HW295027  12.165   8.119   8.405
65001SOL     OW95028  12.152   9.021   9.148
65001SOL    HW195029  12.132   9.065   9.060
65001SOL    HW295030  12.191   8.930   9.132
65002SOL     OW95031  11.522   8.346   9.252
65002SOL    HW195032  11.598   8.390   9.300
65002SOL    HW295033  11.557   8.299   9.170
65003SOL     OW95034  12.475   8.286   7.490
65003SOL    HW195035  12.509   8.193   7.505
65003SOL    HW295036  12.493   8.313   7.395
65004SOL     OW95037  12.240   8.781   8.297
65004SOL    HW195038  12.247   8.697   8.242
65004SOL    HW295039  12.302   8.850   8.261
65005SOL     OW95040  11.491   8.258   8.397
65005SOL    HW195041  11.584   8.294   8.402
65005SOL    HW295042  11.485   8.173   8.449
65006SOL     OW95043  11.511   7.957   8.454
65006SOL    HW195044  11.459   7.874   8.437
65006SOL    HW295045  11.588   7.962   8.390
65007SOL     OW95046  12.310   7.828   9.126
65007SOL    HW195047  12.265   7.891   9.190
65007SOL    HW295048  12.403   7.859   9.109
65008SOL     OW95049  12.332   7.655   8.925
65008SOL    HW195050  12.332   7.719   9.002
65008SOL    HW295051  12.360   7.703   8.842
65009SOL     OW95052  11.180   8.774   7.648
65009SOL    HW195053  11.087   8.795   7.617
65009SOL    HW295054  11.190   8.675   7.661
65010SOL     OW95055  11.260   9.249   8.375
65010SOL    HW195056  11.218   9.163   8.348
65010SOL    HW295057  11.354   9.252   8.341
65011SOL     OW95058  11.676   9.016   8.358
65011SOL    HW195059  11.742   9.090   8.367
65011SOL    HW295060  11.720   8.937   8.316
65012SOL     OW95061  12.174   8.244   8.686
65012SOL    HW195062  12.215   8.212   8.772
65012SOL    HW295063  12.078   8.217   8.683
65013SOL     OW95064  11.212   7.992   8.562
65013SOL    HW195065  11.297   7.959   8.521
65013SOL    HW295066  11.225   8.007   8.660
65014SOL     OW95067  11.361   7.968   9.170
65014SOL    HW195068  11.420   7.928   9.100
65014SOL    HW295069  11.303   8.039   9.129
65015SOL     OW95070  12.541   8.398   9.108
65015SOL    HW195071  12.580   8.487   9.128
65015SOL    HW295072  12.551   8.378   9.011
65016SOL     OW95073  11.987   8.020   7.773
65016SOL    HW195074  11.994   7.931   7.727
65016SOL    HW295075  11.893   8.054   7.765
65017SOL     OW95076  11.424   9.012   9.192
65017SOL    HW195077  11.394   9.069   9.268
65017SOL    HW295078  11.417   8.915   9.218
65018SOL     OW95079  11.843   7.912   8.717
65018SOL    HW195080  11.809   7.823   8.687
65018SOL    HW295081  11.869   7.966   8.637
65019SOL     OW95082  12.102   9.126   8.913
65019SOL    HW195083  12.078   9.108   8.818
65019SOL    HW295084  12.132   9.220   8.923
65020SOL     OW95085  11.645   7.948   7.639
65020SOL    HW195086  11.706   8.028   7.643
65020SOL    HW295087  11.550   7.979   7.646
65021SOL     OW95088  11.331   8.585   8.914
65021SOL    HW195089  11.353   8.524   8.990
65021SOL    HW295090  11.341   8.536   8.828
65022SOL     OW95091  12.519   8.507   8.682
65022SOL    HW195092  12.543   8.444   8.608
65022SOL    HW295093  12.429   8.547   8.664
65023SOL     OW95094  12.474   8.303   7.757
65023SOL    HW195095  12.388   8.272   7.799
65023SOL    HW295096  12.470   8.289   7.658
65024SOL     OW95097  12.424   9.179   8.576
65024SOL    HW195098  12.508   9.184   8.522
65024SOL    HW295099  12.401   9.083   8.594
65025SOL     OW95100  11.255   8.706   8.470
65025SOL    HW195101  11.250   8.705   8.570
65025SOL    HW295102  11.172   8.665   8.432
65026SOL     OW95103  11.860   9.110   9.164
65026SOL    HW195104  11.804   9.191   9.173
65026SOL    HW295105  11.912   9.114   9.078
65027SOL     OW95106  12.898   7.583   7.971
65027SOL    HW195107  12.971   7.566   7.904
65027SOL    HW295108  12.867   7.496   8.009
65028SOL     OW95109  12.560   9.021   7.925
65028SOL    HW195110  12.627   9.033   7.851
65028SOL    HW295111  12.520   9.110   7.948
65029SOL     OW95112  11.302   9.242   9.299
65029SOL    HW195113  11.261   9.168   9.352
65029SOL    HW295114  11.366   9.293   9.357
65030SOL     OW95115  12.452   8.375   8.120
65030SOL    HW195116  12.512   8.294   8.122
65030SOL    HW295117  12.492   8.444   8.060
65031SOL     OW95118  12.002   8.721   8.870
65031SOL    HW195119  11.997   8.754   8.965
65031SOL    HW295120  11.916   8.740   8.824
65032SOL     OW95121  11.844   9.064   7.602
65032SOL    HW195122  11.853   9.074   7.503
65032SOL    HW295123  11.804   8.975   7.623
65033SOL     OW95124  11.435   7.774   8.168
65033SOL    HW195125  11.356   7.825   8.134
65033SOL    HW295126  11.426   7.759   8.266
65034SOL     OW95127  12.366   9.060   7.479
65034SOL    HW195128  12.372   8.967   7.516
65034SOL    HW295129  12.307   9.060   7.399
65035SOL     OW95130  11.994   8.450   8.820
65035SOL    HW195131  12.034   8.449   8.728
65035SOL    HW295132  12.004   8.542   8.860
65036SOL     OW95133  12.088   8.358   7.739
65036SOL    HW195134  12.151   8.396   7.671
65036SOL    HW295135  12.128   8.275   7.778
65037SOL     OW95136  11.544   8.736   8.938
65037SOL    HW195137  11.531   8.829   8.904
65037SOL    HW295138  11.460   8.684   8.925
65038SOL     OW95139  12.211   8.546   8.144
65038SOL    HW195140  12.141   8.499   8.198
65038SOL    HW295141  12.270   8.478   8.101
65039SOL     OW95142  12.186   7.684   8.419
65039SOL    HW195143  12.178   7.648   8.326
65039SOL    HW295144  12.184   7.608   8.484
65040SOL     OW95145  11.762   8.935   7.939
65040SOL    HW195146  11.804   8.877   7.869
65040SOL    HW295147  11.718   9.014   7.895
65041SOL     OW95148  11.427   8.796   7.738
65041SOL    HW195149  11.331   8.797   7.711
65041SOL    HW295150  11.439   8.849   7.822
65042SOL     OW95151  11.277   8.461   9.174
65042SOL    HW195152  11.200   8.428   9.228
65042SOL    HW295153  11.362   8.431   9.216
65043SOL     OW95154  11.844   7.651   8.937
65043SOL    HW195155  11.934   7.635   8.897
65043SOL    HW295156  11.852   7.656   9.036
65044SOL     OW95157  11.247   7.793   7.481
65044SOL    HW195158  11.155   7.765   7.452
65044SOL    HW295159  11.278   7.870   7.425
65045SOL     OW95160  12.612   8.304   8.846
65045SOL    HW195161  12.555   8.356   8.783
65045SOL    HW295162  12.708   8.316   8.822
65046SOL     OW95163  11.244   7.614   7.766
65046SOL    HW195164  11.227   7.697   7.712
65046SOL    HW295165  11.334   7.577   7.744
65047SOL     OW95166  12.355   8.783   7.567
65047SOL    HW195167  12.256   8.772   7.569
65047SOL    HW295168  12.389   8.798   7.660
65048SOL     OW95169  11.785   8.290   8.879
65048SOL    HW195170  11.841   8.371   8.862
65048SOL    HW295171  11.844   8.210   8.882
65049SOL     OW95172  11.888   8.013   9.156
65049SOL    HW195173  11.907   8.078   9.230
65049SOL    HW295174  11.948   7.933   9.165
65050SOL     OW95175  12.622   8.668   9.081
65050SOL    HW195176  12.613   8.658   9.180
65050SOL    HW295177  12.718   8.661   9.055
65051SOL     OW95178  11.562   9.189   9.008
65051SOL    HW195179  11.471   9.230   9.006
65051SOL    HW295180  11.555   9.095   9.040
65052SOL     OW95181  12.397   7.773   7.897
65052SOL    HW195182  12.462   7.699   7.886
65052SOL    HW295183  12.417   7.823   7.981
65053SOL     OW95184  11.766   8.193   8.100
65053SOL    HW195185  11.816   8.278   8.081
65053SOL    HW295186  11.678   8.195   8.052
65054SOL     OW95187  12.031   8.822   7.464
65054SOL    HW195188  11.985   8.837   7.552
65054SOL    HW295189  12.075   8.907   7.434
65055SOL     OW95190  11.833   9.238   8.401
65055SOL    HW195191  11.787   9.326   8.388
65055SOL    HW295192  11.932   9.250   8.394
65056SOL     OW95193  12.031   8.404   8.309
65056SOL    HW195194  12.085   8.335   8.357
65056SOL    HW295195  11.999   8.473   8.375
65057SOL     OW95196  12.255   8.432   7.535
65057SOL    HW195197  12.232   8.485   7.453
65057SOL    HW295198  12.336   8.376   7.516
65058SOL     OW95199  11.393   8.762   9.292
65058SOL    HW195200  11.328   8.689   9.271
65058SOL    HW295201  11.397   8.776   9.390
65059SOL     OW95202  11.251   8.688   8.101
65059SOL    HW195203  11.250   8.641   8.189
65059SOL    HW295204  11.333   8.660   8.050
65060SOL     OW95205  11.844   8.839   9.072
65060SOL    HW195206  11.766   8.789   9.110
65060SOL    HW295207  11.841   8.934   9.103
65061SOL     OW95208  11.600   7.872   7.968
65061SOL    HW195209  11.630   7.800   7.906
65061SOL    HW295210  11.561   7.832   8.051
65062SOL     OW95211  12.877   8.935   8.552
65062SOL    HW195212  12.784   8.910   8.525
65062SOL    HW295213  12.903   8.885   8.634
65063SOL     OW95214  11.489   7.995   8.728
65063SOL    HW195215  11.527   7.936   8.800
65063SOL    HW295216  11.529   7.969   8.640
65064SOL     OW95217  11.984   9.034   8.135
65064SOL    HW195218  12.016   9.044   8.041
65064SOL    HW295219  11.905   8.972   8.137
65065SOL     OW95220  12.596   7.662   8.560
65065SOL    HW195221  12.648   7.597   8.615
65065SOL    HW295222  12.547   7.725   8.621
65066SOL     OW95223  12.173   7.482   8.602
65066SOL    HW195224  12.110   7.410   8.571
65066SOL    HW295225  12.266   7.446   8.602
65067SOL     OW95226  11.942   8.778   7.749
65067SOL    HW195227  11.896   8.691   7.766
65067SOL    HW295228  12.033   8.775   7.790
65068SOL     OW95229  11.790   9.015   8.732
65068SOL    HW195230  11.785   9.097   8.789
65068SOL    HW295231  11.879   9.012   8.687
65069SOL     OW95232  12.524   7.500   7.616
65069SOL    HW195233  12.559   7.459   7.532
65069SOL    HW295234  12.434   7.462   7.636
65070SOL     OW95235  12.472   7.901   8.139
65070SOL    HW195236  12.413   7.981   8.143
65070SOL    HW295237  12.487   7.866   8.232
65071SOL     OW95238  11.211   8.525   7.748
65071SOL    HW195239  11.310   8.514   7.739
65071SOL    HW295240  11.171   8.439   7.780
65072SOL     OW95241  12.047   9.094   7.785
65072SOL    HW195242  11.970   9.059   7.731
65072SOL    HW295243  12.015   9.165   7.847
65073SOL     OW95244  11.402   8.076   9.423
65073SOL    HW195245  11.309   8.074   9.460
65073SOL    HW295246  11.403   8.037   9.331
65074SOL     OW95247  11.397   7.723  10.306
65074SOL    HW195248  11.432   7.706  10.398
65074SOL    HW295249  11.309   7.678  10.294
65075SOL     OW95250  11.191   7.816   9.957
65075SOL    HW195251  11.109   7.859   9.996
65075SOL    HW295252  11.163   7.743   9.894
65076SOL     OW95253  11.741   8.723  10.475
65076SOL    HW195254  11.648   8.716  10.438
65076SOL    HW295255  11.752   8.812  10.519
65077SOL     OW95256  12.727   8.959  10.013
65077SOL    HW195257  12.670   8.943  10.094
65077SOL    HW295258  12.668   8.969   9.933
65078SOL     OW95259  12.307   8.151  10.027
65078SOL    HW195260  12.364   8.229  10.002
65078SOL    HW295261  12.247   8.177  10.103
65079SOL     OW95262  11.940   8.592  10.333
65079SOL    HW195263  11.862   8.609  10.393
65079SOL    HW295264  11.974   8.679  10.297
65080SOL     OW95265  12.022   8.246  11.133
65080SOL    HW195266  12.018   8.322  11.198
65080SOL    HW295267  12.044   8.282  11.042
65081SOL     OW95268  11.857   8.460   9.975
65081SOL    HW195269  11.926   8.444  10.045
65081SOL    HW295270  11.784   8.517  10.013
65082SOL     OW95271  11.858   8.609  11.113
65082SOL    HW195272  11.918   8.688  11.127
65082SOL    HW295273  11.772   8.640  11.072
65083SOL     OW95274  11.507   8.883  10.371
65083SOL    HW195275  11.429   8.852  10.318
65083SOL    HW295276  11.565   8.941  10.314
65084SOL     OW95277  11.610   7.840  10.809
65084SOL    HW195278  11.692   7.784  10.818
65084SOL    HW295279  11.529   7.782  10.813
65085SOL     OW95280  11.403   9.161   9.793
65085SOL    HW195281  11.437   9.238   9.847
65085SOL    HW295282  11.447   9.161   9.703
65086SOL     OW95283  12.299   8.789  11.000
65086SOL    HW195284  12.346   8.789  11.088
65086SOL    HW295285  12.251   8.702  10.989
65087SOL     OW95286  11.402   8.882   9.848
65087SOL    HW195287  11.376   8.978   9.848
65087SOL    HW295288  11.331   8.828   9.893
65088SOL     OW95289  11.412   8.539  10.196
65088SOL    HW195290  11.426   8.455  10.248
65088SOL    HW295291  11.357   8.603  10.251
65089SOL     OW95292  11.792   9.234  10.749
65089SOL    HW195293  11.700   9.217  10.784
65089SOL    HW295294  11.820   9.326  10.775
65090SOL     OW95295  11.778   8.412   9.433
65090SOL    HW195296  11.785   8.496   9.379
65090SOL    HW295297  11.824   8.425   9.521
65091SOL     OW95298  11.294   8.091   9.873
65091SOL    HW195299  11.249   8.003   9.890
65091SOL    HW295300  11.293   8.145   9.957
65092SOL     OW95301  11.199   9.044   9.427
65092SOL    HW195302  11.180   8.948   9.448
65092SOL    HW295303  11.166   9.102   9.502
65093SOL     OW95304  12.861   8.370   9.922
65093SOL    HW195305  12.956   8.341   9.930
65093SOL    HW295306  12.853   8.435   9.847
65094SOL     OW95307  11.285   8.185  10.907
65094SOL    HW195308  11.373   8.172  10.952
65094SOL    HW295309  11.272   8.282  10.885
65095SOL     OW95310  11.785   8.813  10.036
65095SOL    HW195311  11.736   8.726  10.045
65095SOL    HW295312  11.762   8.856   9.949
65096SOL     OW95313  12.465   8.676  10.733
65096SOL    HW195314  12.502   8.603  10.675
65096SOL    HW295315  12.517   8.681  10.818
65097SOL     OW95316  11.981   7.452   9.812
65097SOL    HW195317  12.021   7.543   9.803
65097SOL    HW295318  11.881   7.460   9.818
65098SOL     OW95319  11.369   8.424  10.574
65098SOL    HW195320  11.458   8.379  10.560
65098SOL    HW295321  11.296   8.359  10.555
65099SOL     OW95322  12.359   9.240  10.926
65099SOL    HW195323  12.383   9.300  10.850
65099SOL    HW295324  12.366   9.145  10.896
65100SOL     OW95325  11.489   7.699  11.111
65100SOL    HW195326  11.560   7.770  11.117
65100SOL    HW295327  11.401   7.738  11.139
65101SOL     OW95328  12.638   8.865  10.263
65101SOL    HW195329  12.579   8.871  10.343
65101SOL    HW295330  12.623   8.777  10.217
65102SOL     OW95331  11.770   8.177   9.580
65102SOL    HW195332  11.794   8.246   9.512
65102SOL    HW295333  11.692   8.210   9.634
65103SOL     OW95334  12.453   7.793  10.254
65103SOL    HW195335  12.367   7.743  10.241
65103SOL    HW295336  12.515   7.739  10.310
65104SOL     OW95337  11.979   8.053  10.775
65104SOL    HW195338  11.932   8.050  10.864
65104SOL    HW295339  11.928   7.998  10.709
65105SOL     OW95340  12.566   7.917  10.984
65105SOL    HW195341  12.546   7.960  11.072
65105SOL    HW295342  12.644   7.855  10.993
65106SOL     OW95343  12.145   8.338  10.882
65106SOL    HW195344  12.191   8.254  10.853
65106SOL    HW295345  12.089   8.372  10.807
65107SOL     OW95346  12.163   7.858  10.552
65107SOL    HW195347  12.086   7.892  10.606
65107SOL    HW295348  12.129   7.807  10.473
65108SOL     OW95349  12.213   8.149   9.739
65108SOL    HW195350  12.239   8.145   9.835
65108SOL    HW295351  12.128   8.098   9.725
65109SOL     OW95352  11.248   8.259  10.099
65109SOL    HW195353  11.347   8.247  10.108
65109SOL    HW295354  11.224   8.354  10.120
65110SOL     OW95355  11.302   9.269  10.881
65110SOL    HW195356  11.292   9.254  10.980
65110SOL    HW295357  11.216   9.305  10.845
65111SOL     OW95358  12.037   7.796   9.505
65111SOL    HW195359  12.096   7.859   9.456
65111SOL    HW295360  12.056   7.702   9.476
65112SOL     OW95361  12.534   8.592   9.855
65112SOL    HW195362  12.617   8.563   9.807
65112SOL    HW295363  12.485   8.659   9.799
65113SOL     OW95364  11.722   7.644  10.195
65113SOL    HW195365  11.717   7.639  10.295
65113SOL    HW295366  11.724   7.740  10.166
65114SOL     OW95367  12.180   8.904   9.787
65114SOL    HW195368  12.134   8.976   9.735
65114SOL    HW295369  12.176   8.924   9.885
65115SOL     OW95370  11.523   9.249  10.163
65115SOL    HW195371  11.573   9.163  10.169
65115SOL    HW295372  11.588   9.326  10.160
65116SOL     OW95373  12.399   8.998  10.816
65116SOL    HW195374  12.405   8.921  10.880
65116SOL    HW295375  12.347   8.972  10.736
65117SOL     OW95376  11.493   8.391   9.552
65117SOL    HW195377  11.575   8.430   9.510
65117SOL    HW295378  11.466   8.309   9.503
65118SOL     OW95379  11.633   8.714  11.037
65118SOL    HW195380  11.583   8.715  10.951
65118SOL    HW295381  11.570   8.696  11.113
65119SOL     OW95382  12.283   9.224   9.547
65119SOL    HW195383  12.223   9.162   9.597
65119SOL    HW295384  12.314   9.180   9.462
65120SOL     OW95385  11.374   7.733  10.808
65120SOL    HW195386  11.294   7.793  10.795
65120SOL    HW295387  11.364   7.684  10.894
65121SOL     OW95388  11.636   9.191   9.633
65121SOL    HW195389  11.669   9.230   9.719
65121SOL    HW295390  11.712   9.184   9.568
65122SOL     OW95391  12.572   7.555   9.736
65122SOL    HW195392  12.548   7.518   9.646
65122SOL    HW295393  12.671   7.571   9.740
65123SOL     OW95394  11.421   9.233  10.551
65123SOL    HW195395  11.478   9.168  10.601
65123SOL    HW295396  11.405   9.200  10.458
65124SOL     OW95397  12.112   9.146  10.214
65124SOL    HW195398  12.192   9.089  10.235
65124SOL    HW295399  12.063   9.106  10.137
65125SOL     OW95400  11.554   8.148   9.790
65125SOL    HW195401  11.599   8.058   9.787
65125SOL    HW295402  11.460   8.137   9.823
65126SOL     OW95403  11.786   7.570   9.427
65126SOL    HW195404  11.884   7.548   9.434
65126SOL    HW295405  11.755   7.553   9.334
65127SOL     OW95406  11.953   7.712  11.059
65127SOL    HW195407  12.020   7.651  11.102
65127SOL    HW295408  11.880   7.731  11.124
65128SOL     OW95409  12.060   8.962  10.505
65128SOL    HW195410  12.037   8.937  10.411
65128SOL    HW295411  12.121   8.893  10.544
65129SOL     OW95412  12.523   8.038  10.743
65129SOL    HW195413  12.551   7.995  10.828
65129SOL    HW295414  12.548   8.134  10.744
65130SOL     OW95415  11.975   8.850  10.234
65130SOL    HW195416  12.065   8.864  10.192
65130SOL    HW295417  11.904   8.852  10.163
65131SOL     OW95418  12.094   7.951  10.209
65131SOL    HW195419  12.069   7.942  10.113
65131SOL    HW295420  12.142   7.869  10.240
65132SOL     OW95421  11.711   7.512   9.822
65132SOL    HW195422  11.630   7.513   9.880
65132SOL    HW295423  11.714   7.595   9.767
65133SOL     OW95424  12.606   8.636   9.351
65133SOL    HW195425  12.638   8.560   9.408
65133SOL    HW295426  12.514   8.663   9.381
65134SOL     OW95427  11.469   7.483   9.481
65134SOL    HW195428  11.518   7.567   9.460
65134SOL    HW295429  11.531   7.418   9.526
65135SOL     OW95430  12.107   7.684   9.790
65135SOL    HW195431  12.059   7.725   9.712
65135SOL    HW295432  12.206   7.682   9.771
65136SOL     OW95433  12.248   8.131  10.774
65136SOL    HW195434  12.168   8.070  10.777
65136SOL    HW295435  12.329   8.078  10.750
65137SOL     OW95436  12.399   9.018  10.103
65137SOL    HW195437  12.420   9.092  10.038
65137SOL    HW295438  12.467   9.018  10.176
65138SOL     OW95439  11.631   8.600  10.051
65138SOL    HW195440  11.560   8.573  10.116
65138SOL    HW295441  11.605   8.572   9.958
65139SOL     OW95442  12.443   9.245   9.901
65139SOL    HW195443  12.487   9.309   9.837
65139SOL    HW295444  12.393   9.297   9.971
65140SOL     OW95445  12.204   7.997   9.326
65140SOL    HW195446  12.163   8.079   9.287
65140SOL    HW295447  12.268   8.023   9.399
65141SOL     OW95448  11.250   8.004  10.696
65141SOL    HW195449  11.342   8.003  10.655
65141SOL    HW295450  11.244   8.078  10.763
65142SOL     OW95451  11.733   7.670  10.457
65142SOL    HW195452  11.771   7.586  10.494
65142SOL    HW295453  11.645   7.689  10.501
65143SOL     OW95454  12.038   7.902   9.952
65143SOL    HW195455  12.006   7.974   9.890
65143SOL    HW295456  12.062   7.821   9.899
65144SOL     OW95457  12.189   7.487  10.063
65144SOL    HW195458  12.117   7.492   9.994
65144SOL    HW295459  12.165   7.418  10.132
65145SOL     OW95460  12.601   8.621  10.177
65145SOL    HW195461  12.546   8.537  10.170
65145SOL    HW295462  12.627   8.650  10.085
65146SOL     OW95463  11.660   8.833   9.484
65146SOL    HW195464  11.573   8.818   9.531
65146SOL    HW295465  11.643   8.859   9.389
65147SOL     OW95466  12.562   8.023   9.388
65147SOL    HW195467  12.508   8.002   9.469
65147SOL    HW295468  12.653   7.982   9.397
65148SOL     OW95469  11.699   7.704   9.638
65148SOL    HW195470  11.726   7.645   9.563
65148SOL    HW295471  11.699   7.799   9.607
65149SOL     OW95472  12.236   8.795  10.650
65149SOL    HW195473  12.156   8.772  10.705
65149SOL    HW295474  12.319   8.769  10.699
65150SOL     OW95475  12.764   9.077  10.935
65150SOL    HW195476  12.791   9.111  10.845
65150SOL    HW295477  12.843   9.039  10.981
65151SOL     OW95478  12.283   8.643  10.410
65151SOL    HW195479  12.243   8.687  10.491
65151SOL    HW295480  12.242   8.680  10.327
65152SOL     OW95481  12.087   7.537  10.712
65152SOL    HW195482  12.112   7.517  10.617
65152SOL    HW295483  12.159   7.593  10.754
65153SOL     OW95484  12.152   8.564  11.029
65153SOL    HW195485  12.053   8.570  11.039
65153SOL    HW295486  12.175   8.484  10.973
65154SOL     OW95487  11.877   8.498   9.678
65154SOL    HW195488  11.863   8.505   9.777
65154SOL    HW295489  11.961   8.447   9.660
65155SOL     OW95490  11.582   8.261  10.561
65155SOL    HW195491  11.668   8.273  10.611
65155SOL    HW295492  11.540   8.174  10.588
65156SOL     OW95493  12.446   7.834  10.572
65156SOL    HW195494  12.467   7.908  10.636
65156SOL    HW295495  12.357   7.851  10.529
65157SOL     OW95496  11.236   9.012  10.641
65157SOL    HW195497  11.190   9.094  10.607
65157SOL    HW295498  11.334   9.031  10.650
65158SOL     OW95499  11.539   8.548   9.811
65158SOL    HW195500  11.532   8.631   9.755
65158SOL    HW295501  11.543   8.468   9.751
65159SOL     OW95502  11.738   7.985  10.175
65159SOL    HW195503  11.750   8.051  10.101
65159SOL    HW295504  11.784   8.019  10.258
65160SOL     OW95505  12.424   8.796   9.698
65160SOL    HW195506  12.474   8.873   9.738
65160SOL    HW295507  12.329   8.798   9.730
65161SOL     OW95508  12.444   8.893  10.452
65161SOL    HW195509  12.491   8.906  10.539
65161SOL    HW295510  12.378   8.819  10.461
65162SOL     OW95511  11.526   8.958  10.639
65162SOL    HW195512  11.505   8.914  10.552
65162SOL    HW295513  11.623   8.984  10.642
65163SOL     OW95514  11.574   8.199  10.908
65163SOL    HW195515  11.642   8.254  10.861
65163SOL    HW295516  11.614   8.111  10.935
65164SOL     OW95517  12.185   7.553  11.080
65164SOL    HW195518  12.191   7.638  11.028
65164SOL    HW295519  12.217   7.477  11.023
65165SOL     OW95520  11.676   7.498  11.050
65165SOL    HW195521  11.634   7.441  10.980
65165SOL    HW295522  11.610   7.567  11.082
65166SOL     OW95523  11.745   8.318  10.339
65166SOL    HW195524  11.789   8.407  10.330
65166SOL    HW295525  11.682   8.318  10.416
65167SOL     OW95526  12.532   8.310  10.355
65167SOL    HW195527  12.457   8.310  10.289
65167SOL    HW295528  12.569   8.218  10.364
65168SOL     OW95529  12.381   7.973   9.585
65168SOL    HW195530  12.394   7.889   9.639
65168SOL    HW295531  12.352   8.047   9.645
65169SOL     OW95532  11.479   7.661  10.541
65169SOL    HW195533  11.456   7.698  10.631
65169SOL    HW295534  11.449   7.566  10.535
65170SOL     OW95535  11.209   8.758  10.592
65170SOL    HW195536  11.262   8.709  10.660
65170SOL    HW295537  11.231   8.856  10.597
65171SOL     OW95538  11.904   8.082  10.374
65171SOL    HW195539  11.963   8.056  10.298
65171SOL    HW295540  11.876   8.178  10.363
65172SOL     OW95541  11.479   7.511   9.928
65172SOL    HW195542  11.468   7.605   9.961
65172SOL    HW295543  11.474   7.448  10.005
65173SOL     OW95544  12.794   7.815   9.684
65173SOL    HW195545  12.796   7.739   9.748
65173SOL    HW295546  12.746   7.892   9.724
65174SOL     OW95547  12.195   8.214  10.276
65174SOL    HW195548  12.210   8.235  10.372
65174SOL    HW295549  12.165   8.119  10.267
65175SOL     OW95550  12.152   9.021  11.010
65175SOL    HW195551  12.132   9.065  10.922
65175SOL    HW295552  12.191   8.930  10.994
65176SOL     OW95553  11.522   8.346  11.114
65176SOL    HW195554  11.598   8.390  11.162
65176SOL    HW295555  11.557   8.299  11.032
65177SOL     OW95556  12.475   8.286   9.352
65177SOL    HW195557  12.509   8.193   9.367
65177SOL    HW295558  12.493   8.313   9.257
65178SOL     OW95559  12.240   8.781  10.159
65178SOL    HW195560  12.247   8.697  10.104
65178SOL    HW295561  12.302   8.850  10.123
65179SOL     OW95562  11.491   8.258  10.259
65179SOL    HW195563  11.584   8.294  10.264
65179SOL    HW295564  11.485   8.173  10.311
65180SOL     OW95565  11.511   7.957  10.316
65180SOL    HW195566  11.459   7.874  10.299
65180SOL    HW295567  11.588   7.962  10.252
65181SOL     OW95568  12.310   7.828  10.988
65181SOL    HW195569  12.265   7.891  11.052
65181SOL    HW295570  12.403   7.859  10.971
65182SOL     OW95571  12.332   7.655  10.787
65182SOL    HW195572  12.332   7.719  10.864
65182SOL    HW295573  12.360   7.703  10.704
65183SOL     OW95574  11.180   8.774   9.510
65183SOL    HW195575  11.087   8.795   9.479
65183SOL    HW295576  11.190   8.675   9.523
65184SOL     OW95577  11.260   9.249  10.237
65184SOL    HW195578  11.218   9.163  10.210
65184SOL    HW295579  11.354   9.252  10.203
65185SOL     OW95580  11.676   9.016  10.220
65185SOL    HW195581  11.742   9.090  10.229
65185SOL    HW295582  11.720   8.937  10.178
65186SOL     OW95583  12.174   8.244  10.548
65186SOL    HW195584  12.215   8.212  10.634
65186SOL    HW295585  12.078   8.217  10.545
65187SOL     OW95586  11.212   7.992  10.424
65187SOL    HW195587  11.297   7.959  10.383
65187SOL    HW295588  11.225   8.007  10.522
65188SOL     OW95589  11.361   7.968  11.032
65188SOL    HW195590  11.420   7.928  10.962
65188SOL    HW295591  11.303   8.039  10.991
65189SOL     OW95592  12.541   8.398  10.970
65189SOL    HW195593  12.580   8.487  10.990
65189SOL    HW295594  12.551   8.378  10.873
65190SOL     OW95595  11.987   8.020   9.635
65190SOL    HW195596  11.994   7.931   9.589
65190SOL    HW295597  11.893   8.054   9.627
65191SOL     OW95598  11.424   9.012  11.054
65191SOL    HW195599  11.394   9.069  11.130
65191SOL    HW295600  11.417   8.915  11.080
65192SOL     OW95601  11.843   7.912  10.579
65192SOL    HW195602  11.809   7.823  10.549
65192SOL    HW295603  11.869   7.966  10.499
65193SOL     OW95604  12.102   9.126  10.775
65193SOL    HW195605  12.078   9.108  10.680
65193SOL    HW295606  12.132   9.220  10.785
65194SOL     OW95607  11.645   7.948   9.501
65194SOL    HW195608  11.706   8.028   9.505
65194SOL    HW295609  11.550   7.979   9.508
65195SOL     OW95610  11.331   8.585  10.776
65195SOL    HW195611  11.353   8.524  10.852
65195SOL    HW295612  11.341   8.536  10.690
65196SOL     OW95613  12.519   8.507  10.544
65196SOL    HW195614  12.543   8.444  10.470
65196SOL    HW295615  12.429   8.547  10.526
65197SOL     OW95616  12.474   8.303   9.619
65197SOL    HW195617  12.388   8.272   9.661
65197SOL    HW295618  12.470   8.289   9.520
65198SOL     OW95619  12.424   9.179  10.438
65198SOL    HW195620  12.508   9.184  10.384
65198SOL    HW295621  12.401   9.083  10.456
65199SOL     OW95622  11.255   8.706  10.332
65199SOL    HW195623  11.250   8.705  10.432
65199SOL    HW295624  11.172   8.665  10.294
65200SOL     OW95625  11.860   9.110  11.026
65200SOL    HW195626  11.804   9.191  11.035
65200SOL    HW295627  11.912   9.114  10.940
65201SOL     OW95628  12.898   7.583   9.833
65201SOL    HW195629  12.971   7.566   9.766
65201SOL    HW295630  12.867   7.496   9.871
65202SOL     OW95631  12.560   9.021   9.787
65202SOL    HW195632  12.627   9.033   9.713
65202SOL    HW295633  12.520   9.110   9.810
65203SOL     OW95634  11.302   9.242  11.161
65203SOL    HW195635  11.261   9.168  11.214
65203SOL    HW295636  11.366   9.293  11.219
65204SOL     OW95637  12.452   8.375   9.982
65204SOL    HW195638  12.512   8.294   9.984
65204SOL    HW295639  12.492   8.444   9.922
65205SOL     OW95640  12.002   8.721  10.732
65205SOL    HW195641  11.997   8.754  10.827
65205SOL    HW295642  11.916   8.740  10.686
65206SOL     OW95643  11.844   9.064   9.464
65206SOL    HW195644  11.853   9.074   9.365
65206SOL    HW295645  11.804   8.975   9.485
65207SOL     OW95646  11.435   7.774  10.030
65207SOL    HW195647  11.356   7.825   9.996
65207SOL    HW295648  11.426   7.759  10.128
65208SOL     OW95649  12.366   9.060   9.341
65208SOL    HW195650  12.372   8.967   9.378
65208SOL    HW295651  12.307   9.060   9.261
65209SOL     OW95652  11.994   8.450  10.682
65209SOL    HW195653  12.034   8.449  10.590
65209SOL    HW295654  12.004   8.542  10.722
65210SOL     OW95655  12.088   8.358   9.601
65210SOL    HW195656  12.151   8.396   9.533
65210SOL    HW295657  12.128   8.275   9.640
65211SOL     OW95658  11.544   8.736  10.800
65211SOL    HW195659  11.531   8.829  10.766
65211SOL    HW295660  11.460   8.684  10.787
65212SOL     OW95661  12.211   8.546  10.006
65212SOL    HW195662  12.141   8.499  10.060
65212SOL    HW295663  12.270   8.478   9.963
65213SOL     OW95664  12.186   7.684  10.281
65213SOL    HW195665  12.178   7.648  10.188
65213SOL    HW295666  12.184   7.608  10.346
65214SOL     OW95667  11.762   8.935   9.801
65214SOL    HW195668  11.804   8.877   9.731
65214SOL    HW295669  11.718   9.014   9.757
65215SOL     OW95670  11.427   8.796   9.600
65215SOL    HW195671  11.331   8.797   9.573
65215SOL    HW295672  11.439   8.849   9.684
65216SOL     OW95673  11.277   8.461  11.036
65216SOL    HW195674  11.200   8.428  11.090
65216SOL    HW295675  11.362   8.431  11.078
65217SOL     OW95676  11.844   7.651  10.799
65217SOL    HW195677  11.934   7.635  10.759
65217SOL    HW295678  11.852   7.656  10.898
65218SOL     OW95679  11.247   7.793   9.343
65218SOL    HW195680  11.155   7.765   9.314
65218SOL    HW295681  11.278   7.870   9.287
65219SOL     OW95682  12.612   8.304  10.708
65219SOL    HW195683  12.555   8.356  10.645
65219SOL    HW295684  12.708   8.316  10.684
65220SOL     OW95685  11.244   7.614   9.628
65220SOL    HW195686  11.227   7.697   9.574
65220SOL    HW295687  11.334   7.577   9.606
65221SOL     OW95688  12.355   8.783   9.429
65221SOL    HW195689  12.256   8.772   9.431
65221SOL    HW295690  12.389   8.798   9.522
65222SOL     OW95691  11.785   8.290  10.741
65222SOL    HW195692  11.841   8.371  10.724
65222SOL    HW295693  11.844   8.210  10.744
65223SOL     OW95694  11.888   8.013  11.018
65223SOL    HW195695  11.907   8.078  11.092
65223SOL    HW295696  11.948   7.933  11.027
65224SOL     OW95697  12.622   8.668  10.943
65224SOL    HW195698  12.613   8.658  11.042
65224SOL    HW295699  12.718   8.661  10.917
65225SOL     OW95700  11.562   9.189  10.870
65225SOL    HW195701  11.471   9.230  10.868
65225SOL    HW295702  11.555   9.095  10.902
65226SOL     OW95703  12.397   7.773   9.759
65226SOL    HW195704  12.462   7.699   9.748
65226SOL    HW295705  12.417   7.823   9.843
65227SOL     OW95706  11.766   8.193   9.962
65227SOL    HW195707  11.816   8.278   9.943
65227SOL    HW295708  11.678   8.195   9.914
65228SOL     OW95709  12.031   8.822   9.326
65228SOL    HW195710  11.985   8.837   9.414
65228SOL    HW295711  12.075   8.907   9.296
65229SOL     OW95712  11.833   9.238  10.263
65229SOL    HW195713  11.787   9.326  10.250
65229SOL    HW295714  11.932   9.250  10.256
65230SOL     OW95715  12.031   8.404  10.171
65230SOL    HW195716  12.085   8.335  10.219
65230SOL    HW295717  11.999   8.473  10.237
65231SOL     OW95718  12.255   8.432   9.397
65231SOL    HW195719  12.232   8.485   9.315
65231SOL    HW295720  12.336   8.376   9.378
65232SOL     OW95721  11.393   8.762  11.154
65232SOL    HW195722  11.328   8.689  11.133
65232SOL    HW295723  11.397   8.776  11.252
65233SOL     OW95724  11.251   8.688   9.963
65233SOL    HW195725  11.250   8.641  10.051
65233SOL    HW295726  11.333   8.660   9.912
65234SOL     OW95727  11.844   8.839  10.934
65234SOL    HW195728  11.766   8.789  10.972
65234SOL    HW295729  11.841   8.934  10.965
65235SOL     OW95730  11.600   7.872   9.830
65235SOL    HW195731  11.630   7.800   9.768
65235SOL    HW295732  11.561   7.832   9.913
65236SOL     OW95733  12.877   8.935  10.414
65236SOL    HW195734  12.784   8.910  10.387
65236SOL    HW295735  12.903   8.885  10.496
65237SOL     OW95736  11.489   7.995  10.590
65237SOL    HW195737  11.527   7.936  10.662
65237SOL    HW295738  11.529   7.969  10.502
65238SOL     OW95739  11.984   9.034   9.997
65238SOL    HW195740  12.016   9.044   9.903
65238SOL    HW295741  11.905   8.972   9.999
65239SOL     OW95742  12.596   7.662  10.422
65239SOL    HW195743  12.648   7.597  10.477
65239SOL    HW295744  12.547   7.725  10.483
65240SOL     OW95745  12.173   7.482  10.464
65240SOL    HW195746  12.110   7.410  10.433
65240SOL    HW295747  12.266   7.446  10.464
65241SOL     OW95748  11.942   8.778   9.611
65241SOL    HW195749  11.896   8.691   9.628
65241SOL    HW295750  12.033   8.775   9.652
65242SOL     OW95751  11.790   9.015  10.594
65242SOL    HW195752  11.785   9.097  10.651
65242SOL    HW295753  11.879   9.012  10.549
65243SOL     OW95754  12.524   7.500   9.478
65243SOL    HW195755  12.559   7.459   9.394
65243SOL    HW295756  12.434   7.462   9.498
65244SOL     OW95757  12.472   7.901  10.001
65244SOL    HW195758  12.413   7.981  10.005
65244SOL    HW295759  12.487   7.866  10.094
65245SOL     OW95760  11.211   8.525   9.610
65245SOL    HW195761  11.310   8.514   9.601
65245SOL    HW295762  11.171   8.439   9.642
65246SOL     OW95763  12.047   9.094   9.647
65246SOL    HW195764  11.970   9.059   9.593
65246SOL    HW295765  12.015   9.165   9.709
65247SOL     OW95766  11.402   8.076  11.285
65247SOL    HW195767  11.309   8.074  11.322
65247SOL    HW295768  11.403   8.037  11.193
65248SOL     OW95769  11.397   7.723  12.168
65248SOL    HW195770  11.432   7.706  12.260
65248SOL    HW295771  11.309   7.678  12.156
65249SOL     OW95772  11.191   7.816  11.819
65249SOL    HW195773  11.109   7.859  11.858
65249SOL    HW295774  11.163   7.743  11.756
65250SOL     OW95775  11.741   8.723  12.337
65250SOL    HW195776  11.648   8.716  12.300
65250SOL    HW295777  11.752   8.812  12.381
65251SOL     OW95778  12.727   8.959  11.875
65251SOL    HW195779  12.670   8.943  11.956
65251SOL    HW295780  12.668   8.969  11.795
65252SOL     OW95781  12.307   8.151  11.889
65252SOL    HW195782  12.364   8.229  11.864
65252SOL    HW295783  12.247   8.177  11.965
65253SOL     OW95784  11.940   8.592  12.195
65253SOL    HW195785  11.862   8.609  12.255
65253SOL    HW295786  11.974   8.679  12.159
65254SOL     OW95787  11.857   8.460  11.837
65254SOL    HW195788  11.926   8.444  11.907
65254SOL    HW295789  11.784   8.517  11.875
65255SOL     OW95790  11.507   8.883  12.233
65255SOL    HW195791  11.429   8.852  12.180
65255SOL    HW295792  11.565   8.941  12.176
65256SOL     OW95793  11.610   7.840  12.671
65256SOL    HW195794  11.692   7.784  12.680
65256SOL    HW295795  11.529   7.782  12.675
65257SOL     OW95796  11.403   9.161  11.655
65257SOL    HW195797  11.437   9.238  11.709
65257SOL    HW295798  11.447   9.161  11.565
65258SOL     OW95799  11.402   8.882  11.710
65258SOL    HW195800  11.376   8.978  11.710
65258SOL    HW295801  11.331   8.828  11.755
65259SOL     OW95802  11.412   8.539  12.058
65259SOL    HW195803  11.426   8.455  12.110
65259SOL    HW295804  11.357   8.603  12.113
65260SOL     OW95805  11.792   9.234  12.611
65260SOL    HW195806  11.700   9.217  12.646
65260SOL    HW295807  11.820   9.326  12.637
65261SOL     OW95808  11.778   8.412  11.295
65261SOL    HW195809  11.785   8.496  11.241
65261SOL    HW295810  11.824   8.425  11.383
65262SOL     OW95811  11.294   8.091  11.735
65262SOL    HW195812  11.249   8.003  11.752
65262SOL    HW295813  11.293   8.145  11.819
65263SOL     OW95814  11.199   9.044  11.289
65263SOL    HW195815  11.180   8.948  11.310
65263SOL    HW295816  11.166   9.102  11.364
65264SOL     OW95817  12.861   8.370  11.784
65264SOL    HW195818  12.956   8.341  11.792
65264SOL    HW295819  12.853   8.435  11.709
65265SOL     OW95820  11.785   8.813  11.898
65265SOL    HW195821  11.736   8.726  11.907
65265SOL    HW295822  11.762   8.856  11.811
65266SOL     OW95823  11.981   7.452  11.674
65266SOL    HW195824  12.021   7.543  11.665
65266SOL    HW295825  11.881   7.460  11.680
65267SOL     OW95826  11.369   8.424  12.436
65267SOL    HW195827  11.458   8.379  12.422
65267SOL    HW295828  11.296   8.359  12.417
65268SOL     OW95829  11.489   7.699  12.973
65268SOL    HW195830  11.560   7.770  12.979
65268SOL    HW295831  11.401   7.738  13.001
65269SOL     OW95832  12.638   8.865  12.125
65269SOL    HW195833  12.579   8.871  12.205
65269SOL    HW295834  12.623   8.777  12.079
65270SOL     OW95835  11.770   8.177  11.442
65270SOL    HW195836  11.794   8.246  11.374
65270SOL    HW295837  11.692   8.210  11.496
65271SOL     OW95838  12.453   7.793  12.116
65271SOL    HW195839  12.367   7.743  12.103
65271SOL    HW295840  12.515   7.739  12.172
65272SOL     OW95841  11.979   8.053  12.637
65272SOL    HW195842  11.932   8.050  12.726
65272SOL    HW295843  11.928   7.998  12.571
65273SOL     OW95844  12.163   7.858  12.414
65273SOL    HW195845  12.086   7.892  12.468
65273SOL    HW295846  12.129   7.807  12.335
65274SOL     OW95847  12.213   8.149  11.601
65274SOL    HW195848  12.239   8.145  11.697
65274SOL    HW295849  12.128   8.098  11.587
65275SOL     OW95850  11.248   8.259  11.961
65275SOL    HW195851  11.347   8.247  11.970
65275SOL    HW295852  11.224   8.354  11.982
65276SOL     OW95853  11.302   9.269  12.743
65276SOL    HW195854  11.292   9.254  12.842
65276SOL    HW295855  11.216   9.305  12.707
65277SOL     OW95856  12.037   7.796  11.367
65277SOL    HW195857  12.096   7.859  11.318
65277SOL    HW295858  12.056   7.702  11.338
65278SOL     OW95859  12.534   8.592  11.717
65278SOL    HW195860  12.617   8.563  11.669
65278SOL    HW295861  12.485   8.659  11.661
65279SOL     OW95862  11.722   7.644  12.057
65279SOL    HW195863  11.717   7.639  12.157
65279SOL    HW295864  11.724   7.740  12.028
65280SOL     OW95865  12.180   8.904  11.649
65280SOL    HW195866  12.134   8.976  11.597
65280SOL    HW295867  12.176   8.924  11.747
65281SOL     OW95868  11.523   9.249  12.025
65281SOL    HW195869  11.573   9.163  12.031
65281SOL    HW295870  11.588   9.326  12.022
65282SOL     OW95871  11.493   8.391  11.414
65282SOL    HW195872  11.575   8.430  11.372
65282SOL    HW295873  11.466   8.309  11.365
65283SOL     OW95874  12.283   9.224  11.409
65283SOL    HW195875  12.223   9.162  11.459
65283SOL    HW295876  12.314   9.180  11.324
65284SOL     OW95877  11.374   7.733  12.670
65284SOL    HW195878  11.294   7.793  12.657
65284SOL    HW295879  11.364   7.684  12.756
65285SOL     OW95880  11.636   9.191  11.495
65285SOL    HW195881  11.669   9.230  11.581
65285SOL    HW295882  11.712   9.184  11.430
65286SOL     OW95883  12.572   7.555  11.598
65286SOL    HW195884  12.548   7.518  11.508
65286SOL    HW295885  12.671   7.571  11.602
65287SOL     OW95886  11.421   9.233  12.413
65287SOL    HW195887  11.478   9.168  12.463
65287SOL    HW295888  11.405   9.200  12.320
65288SOL     OW95889  12.112   9.146  12.076
65288SOL    HW195890  12.192   9.089  12.097
65288SOL    HW295891  12.063   9.106  11.999
65289SOL     OW95892  11.554   8.148  11.652
65289SOL    HW195893  11.599   8.058  11.649
65289SOL    HW295894  11.460   8.137  11.685
65290SOL     OW95895  11.786   7.570  11.289
65290SOL    HW195896  11.884   7.548  11.296
65290SOL    HW295897  11.755   7.553  11.196
65291SOL     OW95898  12.060   8.962  12.367
65291SOL    HW195899  12.037   8.937  12.273
65291SOL    HW295900  12.121   8.893  12.406
65292SOL     OW95901  11.975   8.850  12.096
65292SOL    HW195902  12.065   8.864  12.054
65292SOL    HW295903  11.904   8.852  12.025
65293SOL     OW95904  12.094   7.951  12.071
65293SOL    HW195905  12.069   7.942  11.975
65293SOL    HW295906  12.142   7.869  12.102
65294SOL     OW95907  11.711   7.512  11.684
65294SOL    HW195908  11.630   7.513  11.742
65294SOL    HW295909  11.714   7.595  11.629
65295SOL     OW95910  12.606   8.636  11.213
65295SOL    HW195911  12.638   8.560  11.270
65295SOL    HW295912  12.514   8.663  11.243
65296SOL     OW95913  11.469   7.483  11.343
65296SOL    HW195914  11.518   7.567  11.322
65296SOL    HW295915  11.531   7.418  11.388
65297SOL     OW95916  12.107   7.684  11.652
65297SOL    HW195917  12.059   7.725  11.574
65297SOL    HW295918  12.206   7.682  11.633
65298SOL     OW95919  12.399   9.018  11.965
65298SOL    HW195920  12.420   9.092  11.900
65298SOL    HW295921  12.467   9.018  12.038
65299SOL     OW95922  11.631   8.600  11.913
65299SOL    HW195923  11.560   8.573  11.978
65299SOL    HW295924  11.605   8.572  11.820
65300SOL     OW95925  12.443   9.245  11.763
65300SOL    HW195926  12.487   9.309  11.699
65300SOL    HW295927  12.393   9.297  11.833
65301SOL     OW95928  12.204   7.997  11.188
65301SOL    HW195929  12.163   8.079  11.149
65301SOL    HW295930  12.268   8.023  11.261
65302SOL     OW95931  11.250   8.004  12.558
65302SOL    HW195932  11.342   8.003  12.517
65302SOL    HW295933  11.244   8.078  12.625
65303SOL     OW95934  11.733   7.670  12.319
65303SOL    HW195935  11.771   7.586  12.356
65303SOL    HW295936  11.645   7.689  12.363
65304SOL     OW95937  12.038   7.902  11.814
65304SOL    HW195938  12.006   7.974  11.752
65304SOL    HW295939  12.062   7.821  11.761
65305SOL     OW95940  12.189   7.487  11.925
65305SOL    HW195941  12.117   7.492  11.856
65305SOL    HW295942  12.165   7.418  11.994
65306SOL     OW95943  12.601   8.621  12.039
65306SOL    HW195944  12.546   8.537  12.032
65306SOL    HW295945  12.627   8.650  11.947
65307SOL     OW95946  11.660   8.833  11.346
65307SOL    HW195947  11.573   8.818  11.393
65307SOL    HW295948  11.643   8.859  11.251
65308SOL     OW95949  12.562   8.023  11.250
65308SOL    HW195950  12.508   8.002  11.331
65308SOL    HW295951  12.653   7.982  11.259
65309SOL     OW95952  11.699   7.704  11.500
65309SOL    HW195953  11.726   7.645  11.425
65309SOL    HW295954  11.699   7.799  11.469
65310SOL     OW95955  12.236   8.795  12.512
65310SOL    HW195956  12.156   8.772  12.567
65310SOL    HW295957  12.319   8.769  12.561
65311SOL     OW95958  12.283   8.643  12.272
65311SOL    HW195959  12.243   8.687  12.353
65311SOL    HW295960  12.242   8.680  12.189
65312SOL     OW95961  12.087   7.537  12.574
65312SOL    HW195962  12.112   7.517  12.479
65312SOL    HW295963  12.159   7.593  12.616
65313SOL     OW95964  11.877   8.498  11.540
65313SOL    HW195965  11.863   8.505  11.639
65313SOL    HW295966  11.961   8.447  11.522
65314SOL     OW95967  11.582   8.261  12.423
65314SOL    HW195968  11.668   8.273  12.473
65314SOL    HW295969  11.540   8.174  12.450
65315SOL     OW95970  12.446   7.834  12.434
65315SOL    HW195971  12.467   7.908  12.498
65315SOL    HW295972  12.357   7.851  12.391
65316SOL     OW95973  11.236   9.012  12.503
65316SOL    HW195974  11.190   9.094  12.469
65316SOL    HW295975  11.334   9.031  12.512
65317SOL     OW95976  11.539   8.548  11.673
65317SOL    HW195977  11.532   8.631  11.617
65317SOL    HW295978  11.543   8.468  11.613
65318SOL     OW95979  11.738   7.985  12.037
65318SOL    HW195980  11.750   8.051  11.963
65318SOL    HW295981  11.784   8.019  12.120
65319SOL     OW95982  12.424   8.796  11.560
65319SOL    HW195983  12.474   8.873  11.600
65319SOL    HW295984  12.329   8.798  11.592
65320SOL     OW95985  12.444   8.893  12.314
65320SOL    HW195986  12.491   8.906  12.401
65320SOL    HW295987  12.378   8.819  12.323
65321SOL     OW95988  11.526   8.958  12.501
65321SOL    HW195989  11.505   8.914  12.414
65321SOL    HW295990  11.623   8.984  12.504
65322SOL     OW95991  11.574   8.199  12.770
65322SOL    HW195992  11.642   8.254  12.723
65322SOL    HW295993  11.614   8.111  12.797
65323SOL     OW95994  12.759   8.227  12.842
65323SOL    HW195995  12.667   8.265  12.837
65323SOL    HW295996  12.819   8.274  12.777
65324SOL     OW95997  11.745   8.318  12.201
65324SOL    HW195998  11.789   8.407  12.192
65324SOL    HW295999  11.682   8.318  12.278
65325SOL     OW96000  12.532   8.310  12.217
65325SOL    HW196001  12.457   8.310  12.151
65325SOL    HW296002  12.569   8.218  12.226
65326SOL     OW96003  12.381   7.973  11.447
65326SOL    HW196004  12.394   7.889  11.501
65326SOL    HW296005  12.352   8.047  11.507
65327SOL     OW96006  11.479   7.661  12.403
65327SOL    HW196007  11.456   7.698  12.493
65327SOL    HW296008  11.449   7.566  12.397
65328SOL     OW96009  11.209   8.758  12.454
65328SOL    HW196010  11.262   8.709  12.522
65328SOL    HW296011  11.231   8.856  12.459
65329SOL     OW96012  11.904   8.082  12.236
65329SOL    HW196013  11.963   8.056  12.160
65329SOL    HW296014  11.876   8.178  12.225
65330SOL     OW96015  11.479   7.511  11.790
65330SOL    HW196016  11.468   7.605  11.823
65330SOL    HW296017  11.474   7.448  11.867
65331SOL     OW96018  12.794   7.815  11.546
65331SOL    HW196019  12.796   7.739  11.610
65331SOL    HW296020  12.746   7.892  11.586
65332SOL     OW96021  12.195   8.214  12.138
65332SOL    HW196022  12.210   8.235  12.234
65332SOL    HW296023  12.165   8.119  12.129
65333SOL     OW96024  12.152   9.021  12.872
65333SOL    HW196025  12.132   9.065  12.784
65333SOL    HW296026  12.191   8.930  12.856
65334SOL     OW96027  12.475   8.286  11.214
65334SOL    HW196028  12.509   8.193  11.229
65334SOL    HW296029  12.493   8.313  11.119
65335SOL     OW96030  12.240   8.781  12.021
65335SOL    HW196031  12.247   8.697  11.966
65335SOL    HW296032  12.302   8.850  11.985
65336SOL     OW96033  11.491   8.258  12.121
65336SOL    HW196034  11.584   8.294  12.126
65336SOL    HW296035  11.485   8.173  12.173
65337SOL     OW96036  11.511   7.957  12.178
65337SOL    HW196037  11.459   7.874  12.161
65337SOL    HW296038  11.588   7.962  12.114
65338SOL     OW96039  12.310   7.828  12.850
65338SOL    HW196040  12.265   7.891  12.914
65338SOL    HW296041  12.403   7.859  12.833
65339SOL     OW96042  12.332   7.655  12.649
65339SOL    HW196043  12.332   7.719  12.726
65339SOL    HW296044  12.360   7.703  12.566
65340SOL     OW96045  11.180   8.774  11.372
65340SOL    HW196046  11.087   8.795  11.341
65340SOL    HW296047  11.190   8.675  11.385
65341SOL     OW96048  11.260   9.249  12.099
65341SOL    HW196049  11.218   9.163  12.072
65341SOL    HW296050  11.354   9.252  12.065
65342SOL     OW96051  11.676   9.016  12.082
65342SOL    HW196052  11.742   9.090  12.091
65342SOL    HW296053  11.720   8.937  12.040
65343SOL     OW96054  12.174   8.244  12.410
65343SOL    HW196055  12.215   8.212  12.496
65343SOL    HW296056  12.078   8.217  12.407
65344SOL     OW96057  11.212   7.992  12.286
65344SOL    HW196058  11.297   7.959  12.245
65344SOL    HW296059  11.225   8.007  12.384
65345SOL     OW96060  11.987   8.020  11.497
65345SOL    HW196061  11.994   7.931  11.451
65345SOL    HW296062  11.893   8.054  11.489
65346SOL     OW96063  11.843   7.912  12.441
65346SOL    HW196064  11.809   7.823  12.411
65346SOL    HW296065  11.869   7.966  12.361
65347SOL     OW96066  12.102   9.126  12.637
65347SOL    HW196067  12.078   9.108  12.542
65347SOL    HW296068  12.132   9.220  12.647
65348SOL     OW96069  11.645   7.948  11.363
65348SOL    HW196070  11.706   8.028  11.367
65348SOL    HW296071  11.550   7.979  11.370
65349SOL     OW96072  11.331   8.585  12.638
65349SOL    HW196073  11.353   8.524  12.714
65349SOL    HW296074  11.341   8.536  12.552
65350SOL     OW96075  12.519   8.507  12.406
65350SOL    HW196076  12.543   8.444  12.332
65350SOL    HW296077  12.429   8.547  12.388
65351SOL     OW96078  12.474   8.303  11.481
65351SOL    HW196079  12.388   8.272  11.523
65351SOL    HW296080  12.470   8.289  11.382
65352SOL     OW96081  12.424   9.179  12.300
65352SOL    HW196082  12.508   9.184  12.246
65352SOL    HW296083  12.401   9.083  12.318
65353SOL     OW96084  11.255   8.706  12.194
65353SOL    HW196085  11.250   8.705  12.294
65353SOL    HW296086  11.172   8.665  12.156
65354SOL     OW96087  12.898   7.583  11.695
65354SOL    HW196088  12.971   7.566  11.628
65354SOL    HW296089  12.867   7.496  11.733
65355SOL     OW96090  12.560   9.021  11.649
65355SOL    HW196091  12.627   9.033  11.575
65355SOL    HW296092  12.520   9.110  11.672
65356SOL     OW96093  12.452   8.375  11.844
65356SOL    HW196094  12.512   8.294  11.846
65356SOL    HW296095  12.492   8.444  11.784
65357SOL     OW96096  11.844   9.064  11.326
65357SOL    HW196097  11.853   9.074  11.227
65357SOL    HW296098  11.804   8.975  11.347
65358SOL     OW96099  11.435   7.774  11.892
65358SOL    HW196100  11.356   7.825  11.858
65358SOL    HW296101  11.426   7.759  11.990
65359SOL     OW96102  12.366   9.060  11.203
65359SOL    HW196103  12.372   8.967  11.240
65359SOL    HW296104  12.307   9.060  11.123
65360SOL     OW96105  11.994   8.450  12.544
65360SOL    HW196106  12.034   8.449  12.452
65360SOL    HW296107  12.004   8.542  12.584
65361SOL     OW96108  12.088   8.358  11.463
65361SOL    HW196109  12.151   8.396  11.395
65361SOL    HW296110  12.128   8.275  11.502
65362SOL     OW96111  11.544   8.736  12.662
65362SOL    HW196112  11.531   8.829  12.628
65362SOL    HW296113  11.460   8.684  12.649
65363SOL     OW96114  12.211   8.546  11.868
65363SOL    HW196115  12.141   8.499  11.922
65363SOL    HW296116  12.270   8.478  11.825
65364SOL     OW96117  12.186   7.684  12.143
65364SOL    HW196118  12.178   7.648  12.050
65364SOL    HW296119  12.184   7.608  12.208
65365SOL     OW96120  11.762   8.935  11.663
65365SOL    HW196121  11.804   8.877  11.593
65365SOL    HW296122  11.718   9.014  11.619
65366SOL     OW96123  11.427   8.796  11.462
65366SOL    HW196124  11.331   8.797  11.435
65366SOL    HW296125  11.439   8.849  11.546
65367SOL     OW96126  11.247   7.793  11.205
65367SOL    HW196127  11.155   7.765  11.176
65367SOL    HW296128  11.278   7.870  11.149
65368SOL     OW96129  12.612   8.304  12.570
65368SOL    HW196130  12.555   8.356  12.507
65368SOL    HW296131  12.708   8.316  12.546
65369SOL     OW96132  11.244   7.614  11.490
65369SOL    HW196133  11.227   7.697  11.436
65369SOL    HW296134  11.334   7.577  11.468
65370SOL     OW96135  12.355   8.783  11.291
65370SOL    HW196136  12.256   8.772  11.293
65370SOL    HW296137  12.389   8.798  11.384
65371SOL     OW96138  11.785   8.290  12.603
65371SOL    HW196139  11.841   8.371  12.586
65371SOL    HW296140  11.844   8.210  12.606
65372SOL     OW96141  11.562   9.189  12.732
65372SOL    HW196142  11.471   9.230  12.730
65372SOL    HW296143  11.555   9.095  12.764
65373SOL     OW96144  12.397   7.773  11.621
65373SOL    HW196145  12.462   7.699  11.610
65373SOL    HW296146  12.417   7.823  11.705
65374SOL     OW96147  11.766   8.193  11.824
65374SOL    HW196148  11.816   8.278  11.805
65374SOL    HW296149  11.678   8.195  11.776
65375SOL     OW96150  12.031   8.822  11.188
65375SOL    HW196151  11.985   8.837  11.276
65375SOL    HW296152  12.075   8.907  11.158
65376SOL     OW96153  11.833   9.238  12.125
65376SOL    HW196154  11.787   9.326  12.112
65376SOL    HW296155  11.932   9.250  12.118
65377SOL     OW96156  12.031   8.404  12.033
65377SOL    HW196157  12.085   8.335  12.081
65377SOL    HW296158  11.999   8.473  12.099
65378SOL     OW96159  12.255   8.432  11.259
65378SOL    HW196160  12.232   8.485  11.177
65378SOL    HW296161  12.336   8.376  11.240
65379SOL     OW96162  11.251   8.688  11.825
65379SOL    HW196163  11.250   8.641  11.913
65379SOL    HW296164  11.333   8.660  11.774
65380SOL     OW96165  11.600   7.872  11.692
65380SOL    HW196166  11.630   7.800  11.630
65380SOL    HW296167  11.561   7.832  11.775
65381SOL     OW96168  12.877   8.935  12.276
65381SOL    HW196169  12.784   8.910  12.249
65381SOL    HW296170  12.903   8.885  12.358
65382SOL     OW96171  11.489   7.995  12.452
65382SOL    HW196172  11.527   7.936  12.524
65382SOL    HW296173  11.529   7.969  12.364
65383SOL     OW96174  11.984   9.034  11.859
65383SOL    HW196175  12.016   9.044  11.765
65383SOL    HW296176  11.905   8.972  11.861
65384SOL     OW96177  12.596   7.662  12.284
65384SOL    HW196178  12.648   7.597  12.339
65384SOL    HW296179  12.547   7.725  12.345
65385SOL     OW96180  12.173   7.482  12.326
65385SOL    HW196181  12.110   7.410  12.295
65385SOL    HW296182  12.266   7.446  12.326
65386SOL     OW96183  11.942   8.778  11.473
65386SOL    HW196184  11.896   8.691  11.490
65386SOL    HW296185  12.033   8.775  11.514
65387SOL     OW96186  11.790   9.015  12.456
65387SOL    HW196187  11.785   9.097  12.513
65387SOL    HW296188  11.879   9.012  12.411
65388SOL     OW96189  12.524   7.500  11.340
65388SOL    HW196190  12.559   7.459  11.256
65388SOL    HW296191  12.434   7.462  11.360
65389SOL     OW96192  12.472   7.901  11.863
65389SOL    HW196193  12.413   7.981  11.867
65389SOL    HW296194  12.487   7.866  11.956
65390SOL     OW96195  11.211   8.525  11.472
65390SOL    HW196196  11.310   8.514  11.463
65390SOL    HW296197  11.171   8.439  11.504
65391SOL     OW96198  12.047   9.094  11.509
65391SOL    HW196199  11.970   9.059  11.455
65391SOL    HW296200  12.015   9.165  11.571
65392SOL     OW96201  11.402   9.938   0.113
65392SOL    HW196202  11.309   9.936   0.150
65392SOL    HW296203  11.403   9.899   0.021
65393SOL     OW96204  11.397   9.585   0.996
65393SOL    HW196205  11.432   9.568   1.088
65393SOL    HW296206  11.309   9.540   0.984
65394SOL     OW96207  11.191   9.678   0.647
65394SOL    HW196208  11.109   9.721   0.686
65394SOL    HW296209  11.163   9.605   0.584
65395SOL     OW96210  11.741  10.585   1.165
65395SOL    HW196211  11.648  10.578   1.128
65395SOL    HW296212  11.752  10.674   1.209
65396SOL     OW96213  12.727  10.821   0.703
65396SOL    HW196214  12.670  10.805   0.784
65396SOL    HW296215  12.668  10.831   0.623
65397SOL     OW96216  12.307  10.013   0.717
65397SOL    HW196217  12.364  10.091   0.692
65397SOL    HW296218  12.247  10.039   0.793
65398SOL     OW96219  11.940  10.454   1.023
65398SOL    HW196220  11.862  10.471   1.083
65398SOL    HW296221  11.974  10.541   0.987
65399SOL     OW96222  12.022  10.108   1.823
65399SOL    HW196223  12.018  10.184   1.888
65399SOL    HW296224  12.044  10.144   1.732
65400SOL     OW96225  11.857  10.322   0.665
65400SOL    HW196226  11.926  10.306   0.735
65400SOL    HW296227  11.784  10.379   0.703
65401SOL     OW96228  11.858  10.471   1.803
65401SOL    HW196229  11.918  10.550   1.817
65401SOL    HW296230  11.772  10.502   1.762
65402SOL     OW96231  11.507  10.745   1.061
65402SOL    HW196232  11.429  10.714   1.008
65402SOL    HW296233  11.565  10.803   1.004
65403SOL     OW96234  11.610   9.702   1.499
65403SOL    HW196235  11.692   9.646   1.508
65403SOL    HW296236  11.529   9.644   1.503
65404SOL     OW96237  11.403  11.023   0.483
65404SOL    HW196238  11.437  11.100   0.537
65404SOL    HW296239  11.447  11.023   0.393
65405SOL     OW96240  12.299  10.651   1.690
65405SOL    HW196241  12.346  10.651   1.778
65405SOL    HW296242  12.251  10.564   1.679
65406SOL     OW96243  11.402  10.744   0.538
65406SOL    HW196244  11.376  10.840   0.538
65406SOL    HW296245  11.331  10.690   0.583
65407SOL     OW96246  11.412  10.401   0.886
65407SOL    HW196247  11.426  10.317   0.938
65407SOL    HW296248  11.357  10.465   0.941
65408SOL     OW96249  11.792  11.096   1.439
65408SOL    HW196250  11.700  11.079   1.474
65408SOL    HW296251  11.820  11.188   1.465
65409SOL     OW96252  11.778  10.274   0.123
65409SOL    HW196253  11.785  10.358   0.069
65409SOL    HW296254  11.824  10.287   0.211
65410SOL     OW96255  11.294   9.953   0.563
65410SOL    HW196256  11.249   9.865   0.580
65410SOL    HW296257  11.293  10.007   0.647
65411SOL     OW96258  11.199  10.906   0.117
65411SOL    HW196259  11.180  10.810   0.138
65411SOL    HW296260  11.166  10.964   0.192
65412SOL     OW96261  12.861  10.232   0.612
65412SOL    HW196262  12.956  10.203   0.620
65412SOL    HW296263  12.853  10.297   0.537
65413SOL     OW96264  11.285  10.047   1.597
65413SOL    HW196265  11.373  10.034   1.642
65413SOL    HW296266  11.272  10.144   1.575
65414SOL     OW96267  11.785  10.675   0.726
65414SOL    HW196268  11.736  10.588   0.735
65414SOL    HW296269  11.762  10.718   0.639
65415SOL     OW96270  12.465  10.538   1.423
65415SOL    HW196271  12.502  10.465   1.365
65415SOL    HW296272  12.517  10.543   1.508
65416SOL     OW96273  11.981   9.314   0.502
65416SOL    HW196274  12.021   9.405   0.493
65416SOL    HW296275  11.881   9.322   0.508
65417SOL     OW96276  11.369  10.286   1.264
65417SOL    HW196277  11.458  10.241   1.250
65417SOL    HW296278  11.296  10.221   1.245
65418SOL     OW96279  12.359  11.102   1.616
65418SOL    HW196280  12.383  11.162   1.540
65418SOL    HW296281  12.366  11.007   1.586
65419SOL     OW96282  11.489   9.561   1.801
65419SOL    HW196283  11.560   9.632   1.807
65419SOL    HW296284  11.401   9.600   1.829
65420SOL     OW96285  12.638  10.727   0.953
65420SOL    HW196286  12.579  10.733   1.033
65420SOL    HW296287  12.623  10.639   0.907
65421SOL     OW96288  11.770  10.039   0.270
65421SOL    HW196289  11.794  10.108   0.202
65421SOL    HW296290  11.692  10.072   0.324
65422SOL     OW96291  12.453   9.655   0.944
65422SOL    HW196292  12.367   9.605   0.931
65422SOL    HW296293  12.515   9.601   1.000
65423SOL     OW96294  11.979   9.915   1.465
65423SOL    HW196295  11.932   9.912   1.554
65423SOL    HW296296  11.928   9.860   1.399
65424SOL     OW96297  12.566   9.779   1.674
65424SOL    HW196298  12.546   9.822   1.762
65424SOL    HW296299  12.644   9.717   1.683
65425SOL     OW96300  12.145  10.200   1.572
65425SOL    HW196301  12.191  10.116   1.543
65425SOL    HW296302  12.089  10.234   1.497
65426SOL     OW96303  12.163   9.720   1.242
65426SOL    HW196304  12.086   9.754   1.296
65426SOL    HW296305  12.129   9.669   1.163
65427SOL     OW96306  12.213  10.011   0.429
65427SOL    HW196307  12.239  10.007   0.525
65427SOL    HW296308  12.128   9.960   0.415
65428SOL     OW96309  11.248  10.121   0.789
65428SOL    HW196310  11.347  10.109   0.798
65428SOL    HW296311  11.224  10.216   0.810
65429SOL     OW96312  11.302  11.131   1.571
65429SOL    HW196313  11.292  11.116   1.670
65429SOL    HW296314  11.216  11.167   1.535
65430SOL     OW96315  12.037   9.658   0.195
65430SOL    HW196316  12.096   9.721   0.146
65430SOL    HW296317  12.056   9.564   0.166
65431SOL     OW96318  12.534  10.454   0.545
65431SOL    HW196319  12.617  10.425   0.497
65431SOL    HW296320  12.485  10.521   0.489
65432SOL     OW96321  11.722   9.506   0.885
65432SOL    HW196322  11.717   9.501   0.985
65432SOL    HW296323  11.724   9.602   0.856
65433SOL     OW96324  12.180  10.766   0.477
65433SOL    HW196325  12.134  10.838   0.425
65433SOL    HW296326  12.176  10.786   0.575
65434SOL     OW96327  11.523  11.111   0.853
65434SOL    HW196328  11.573  11.025   0.859
65434SOL    HW296329  11.588  11.188   0.850
65435SOL     OW96330  12.399  10.860   1.506
65435SOL    HW196331  12.405  10.783   1.570
65435SOL    HW296332  12.347  10.834   1.426
65436SOL     OW96333  11.493  10.253   0.242
65436SOL    HW196334  11.575  10.292   0.200
65436SOL    HW296335  11.466  10.171   0.193
65437SOL     OW96336  11.633  10.576   1.727
65437SOL    HW196337  11.583  10.577   1.641
65437SOL    HW296338  11.570  10.558   1.803
65438SOL     OW96339  12.283  11.086   0.237
65438SOL    HW196340  12.223  11.024   0.287
65438SOL    HW296341  12.314  11.042   0.152
65439SOL     OW96342  11.374   9.595   1.498
65439SOL    HW196343  11.294   9.655   1.485
65439SOL    HW296344  11.364   9.546   1.584
65440SOL     OW96345  11.636  11.053   0.323
65440SOL    HW196346  11.669  11.092   0.409
65440SOL    HW296347  11.712  11.046   0.258
65441SOL     OW96348  12.572   9.417   0.426
65441SOL    HW196349  12.548   9.380   0.336
65441SOL    HW296350  12.671   9.433   0.430
65442SOL     OW96351  11.421  11.095   1.241
65442SOL    HW196352  11.478  11.030   1.291
65442SOL    HW296353  11.405  11.062   1.148
65443SOL     OW96354  12.112  11.008   0.904
65443SOL    HW196355  12.192  10.951   0.925
65443SOL    HW296356  12.063  10.968   0.827
65444SOL     OW96357  11.554  10.010   0.480
65444SOL    HW196358  11.599   9.920   0.477
65444SOL    HW296359  11.460   9.999   0.513
65445SOL     OW96360  11.786   9.432   0.117
65445SOL    HW196361  11.884   9.410   0.124
65445SOL    HW296362  11.755   9.415   0.024
65446SOL     OW96363  11.953   9.574   1.749
65446SOL    HW196364  12.020   9.513   1.792
65446SOL    HW296365  11.880   9.593   1.814
65447SOL     OW96366  12.060  10.824   1.195
65447SOL    HW196367  12.037  10.799   1.101
65447SOL    HW296368  12.121  10.755   1.234
65448SOL     OW96369  12.523   9.900   1.433
65448SOL    HW196370  12.551   9.857   1.518
65448SOL    HW296371  12.548   9.996   1.434
65449SOL     OW96372  11.975  10.712   0.924
65449SOL    HW196373  12.065  10.726   0.882
65449SOL    HW296374  11.904  10.714   0.853
65450SOL     OW96375  12.094   9.813   0.899
65450SOL    HW196376  12.069   9.804   0.803
65450SOL    HW296377  12.142   9.731   0.930
65451SOL     OW96378  11.711   9.374   0.512
65451SOL    HW196379  11.630   9.375   0.570
65451SOL    HW296380  11.714   9.457   0.457
65452SOL     OW96381  12.606  10.498   0.041
65452SOL    HW196382  12.638  10.422   0.098
65452SOL    HW296383  12.514  10.525   0.071
65453SOL     OW96384  11.469   9.345   0.171
65453SOL    HW196385  11.518   9.429   0.150
65453SOL    HW296386  11.531   9.280   0.216
65454SOL     OW96387  12.107   9.546   0.480
65454SOL    HW196388  12.059   9.587   0.402
65454SOL    HW296389  12.206   9.544   0.461
65455SOL     OW96390  12.248   9.993   1.464
65455SOL    HW196391  12.168   9.932   1.467
65455SOL    HW296392  12.329   9.940   1.440
65456SOL     OW96393  12.399  10.880   0.793
65456SOL    HW196394  12.420  10.954   0.728
65456SOL    HW296395  12.467  10.880   0.866
65457SOL     OW96396  11.631  10.462   0.741
65457SOL    HW196397  11.560  10.435   0.806
65457SOL    HW296398  11.605  10.434   0.648
65458SOL     OW96399  12.443  11.107   0.591
65458SOL    HW196400  12.487  11.171   0.527
65458SOL    HW296401  12.393  11.159   0.661
65459SOL     OW96402  12.204   9.859   0.016
65459SOL    HW196403  12.163   9.941  -0.023
65459SOL    HW296404  12.268   9.885   0.089
65460SOL     OW96405  11.250   9.866   1.386
65460SOL    HW196406  11.342   9.865   1.345
65460SOL    HW296407  11.244   9.940   1.453
65461SOL     OW96408  11.733   9.532   1.147
65461SOL    HW196409  11.771   9.448   1.184
65461SOL    HW296410  11.645   9.551   1.191
65462SOL     OW96411  12.038   9.764   0.642
65462SOL    HW196412  12.006   9.836   0.580
65462SOL    HW296413  12.062   9.683   0.589
65463SOL     OW96414  12.189   9.349   0.753
65463SOL    HW196415  12.117   9.354   0.684
65463SOL    HW296416  12.165   9.280   0.822
65464SOL     OW96417  12.601  10.483   0.867
65464SOL    HW196418  12.546  10.399   0.860
65464SOL    HW296419  12.627  10.512   0.775
65465SOL     OW96420  11.660  10.695   0.174
65465SOL    HW196421  11.573  10.680   0.221
65465SOL    HW296422  11.643  10.721   0.079
65466SOL     OW96423  12.562   9.885   0.078
65466SOL    HW196424  12.508   9.864   0.159
65466SOL    HW296425  12.653   9.844   0.087
65467SOL     OW96426  11.699   9.566   0.328
65467SOL    HW196427  11.726   9.507   0.253
65467SOL    HW296428  11.699   9.661   0.297
65468SOL     OW96429  12.236  10.657   1.340
65468SOL    HW196430  12.156  10.634   1.395
65468SOL    HW296431  12.319  10.631   1.389
65469SOL     OW96432  12.764  10.939   1.625
65469SOL    HW196433  12.791  10.973   1.535
65469SOL    HW296434  12.843  10.901   1.671
65470SOL     OW96435  12.283  10.505   1.100
65470SOL    HW196436  12.243  10.549   1.181
65470SOL    HW296437  12.242  10.542   1.017
65471SOL     OW96438  12.087   9.399   1.402
65471SOL    HW196439  12.112   9.379   1.307
65471SOL    HW296440  12.159   9.455   1.444
65472SOL     OW96441  12.152  10.426   1.719
65472SOL    HW196442  12.053  10.432   1.729
65472SOL    HW296443  12.175  10.346   1.663
65473SOL     OW96444  11.877  10.360   0.368
65473SOL    HW196445  11.863  10.367   0.467
65473SOL    HW296446  11.961  10.309   0.350
65474SOL     OW96447  11.582  10.123   1.251
65474SOL    HW196448  11.668  10.135   1.301
65474SOL    HW296449  11.540  10.036   1.278
65475SOL     OW96450  12.446   9.696   1.262
65475SOL    HW196451  12.467   9.770   1.326
65475SOL    HW296452  12.357   9.713   1.219
65476SOL     OW96453  11.236  10.874   1.331
65476SOL    HW196454  11.190  10.956   1.297
65476SOL    HW296455  11.334  10.893   1.340
65477SOL     OW96456  11.539  10.410   0.501
65477SOL    HW196457  11.532  10.493   0.445
65477SOL    HW296458  11.543  10.330   0.441
65478SOL     OW96459  11.738   9.847   0.865
65478SOL    HW196460  11.750   9.913   0.791
65478SOL    HW296461  11.784   9.881   0.948
65479SOL     OW96462  12.424  10.658   0.388
65479SOL    HW196463  12.474  10.735   0.428
65479SOL    HW296464  12.329  10.660   0.420
65480SOL     OW96465  12.444  10.755   1.142
65480SOL    HW196466  12.491  10.768   1.229
65480SOL    HW296467  12.378  10.681   1.151
65481SOL     OW96468  11.526  10.820   1.329
65481SOL    HW196469  11.505  10.776   1.242
65481SOL    HW296470  11.623  10.846   1.332
65482SOL     OW96471  11.574  10.061   1.598
65482SOL    HW196472  11.642  10.116   1.551
65482SOL    HW296473  11.614   9.973   1.625
65483SOL     OW96474  12.185   9.415   1.770
65483SOL    HW196475  12.191   9.500   1.718
65483SOL    HW296476  12.217   9.339   1.713
65484SOL     OW96477  11.676   9.360   1.740
65484SOL    HW196478  11.634   9.303   1.670
65484SOL    HW296479  11.610   9.429   1.772
65485SOL     OW96480  11.745  10.180   1.029
65485SOL    HW196481  11.789  10.269   1.020
65485SOL    HW296482  11.682  10.180   1.106
65486SOL     OW96483  12.532  10.172   1.045
65486SOL    HW196484  12.457  10.172   0.979
65486SOL    HW296485  12.569  10.080   1.054
65487SOL     OW96486  12.381   9.835   0.275
65487SOL    HW196487  12.394   9.751   0.329
65487SOL    HW296488  12.352   9.909   0.335
65488SOL     OW96489  11.479   9.523   1.231
65488SOL    HW196490  11.456   9.560   1.321
65488SOL    HW296491  11.449   9.428   1.225
65489SOL     OW96492  11.209  10.620   1.282
65489SOL    HW196493  11.262  10.571   1.350
65489SOL    HW296494  11.231  10.718   1.287
65490SOL     OW96495  11.904   9.944   1.064
65490SOL    HW196496  11.963   9.918   0.988
65490SOL    HW296497  11.876  10.040   1.053
65491SOL     OW96498  11.479   9.373   0.618
65491SOL    HW196499  11.468   9.467   0.651
65491SOL    HW296500  11.474   9.310   0.695
65492SOL     OW96501  12.794   9.677   0.374
65492SOL    HW196502  12.796   9.601   0.438
65492SOL    HW296503  12.746   9.754   0.414
65493SOL     OW96504  12.195  10.076   0.966
65493SOL    HW196505  12.210  10.097   1.062
65493SOL    HW296506  12.165   9.981   0.957
65494SOL     OW96507  12.152  10.883   1.700
65494SOL    HW196508  12.132  10.927   1.612
65494SOL    HW296509  12.191  10.792   1.684
65495SOL     OW96510  11.522  10.208   1.804
65495SOL    HW196511  11.598  10.252   1.852
65495SOL    HW296512  11.557  10.161   1.722
65496SOL     OW96513  12.475  10.148   0.042
65496SOL    HW196514  12.509  10.055   0.057
65496SOL    HW296515  12.493  10.175  -0.053
65497SOL     OW96516  12.240  10.643   0.849
65497SOL    HW196517  12.247  10.559   0.794
65497SOL    HW296518  12.302  10.712   0.813
65498SOL     OW96519  11.491  10.120   0.949
65498SOL    HW196520  11.584  10.156   0.954
65498SOL    HW296521  11.485  10.035   1.001
65499SOL     OW96522  11.511   9.819   1.006
65499SOL    HW196523  11.459   9.736   0.989
65499SOL    HW296524  11.588   9.824   0.942
65500SOL     OW96525  12.310   9.690   1.678
65500SOL    HW196526  12.265   9.753   1.742
65500SOL    HW296527  12.403   9.721   1.661
65501SOL     OW96528  12.332   9.517   1.477
65501SOL    HW196529  12.332   9.581   1.554
65501SOL    HW296530  12.360   9.565   1.394
65502SOL     OW96531  11.180  10.636   0.200
65502SOL    HW196532  11.087  10.657   0.169
65502SOL    HW296533  11.190  10.537   0.213
65503SOL     OW96534  11.260  11.111   0.927
65503SOL    HW196535  11.218  11.025   0.900
65503SOL    HW296536  11.354  11.114   0.893
65504SOL     OW96537  11.676  10.878   0.910
65504SOL    HW196538  11.742  10.952   0.919
65504SOL    HW296539  11.720  10.799   0.868
65505SOL     OW96540  12.174  10.106   1.238
65505SOL    HW196541  12.215  10.074   1.324
65505SOL    HW296542  12.078  10.079   1.235
65506SOL     OW96543  11.212   9.854   1.114
65506SOL    HW196544  11.297   9.821   1.073
65506SOL    HW296545  11.225   9.869   1.212
65507SOL     OW96546  11.361   9.830   1.722
65507SOL    HW196547  11.420   9.790   1.652
65507SOL    HW296548  11.303   9.901   1.681
65508SOL     OW96549  12.541  10.260   1.660
65508SOL    HW196550  12.580  10.349   1.680
65508SOL    HW296551  12.551  10.240   1.563
65509SOL     OW96552  11.987   9.882   0.325
65509SOL    HW196553  11.994   9.793   0.279
65509SOL    HW296554  11.893   9.916   0.317
65510SOL     OW96555  11.424  10.874   1.744
65510SOL    HW196556  11.394  10.931   1.820
65510SOL    HW296557  11.417  10.777   1.770
65511SOL     OW96558  11.843   9.774   1.269
65511SOL    HW196559  11.809   9.685   1.239
65511SOL    HW296560  11.869   9.828   1.189
65512SOL     OW96561  12.102  10.988   1.465
65512SOL    HW196562  12.078  10.970   1.370
65512SOL    HW296563  12.132  11.082   1.475
65513SOL     OW96564  11.645   9.810   0.191
65513SOL    HW196565  11.706   9.890   0.195
65513SOL    HW296566  11.550   9.841   0.198
65514SOL     OW96567  11.331  10.447   1.466
65514SOL    HW196568  11.353  10.386   1.542
65514SOL    HW296569  11.341  10.398   1.380
65515SOL     OW96570  12.519  10.369   1.234
65515SOL    HW196571  12.543  10.306   1.160
65515SOL    HW296572  12.429  10.409   1.216
65516SOL     OW96573  12.474  10.165   0.309
65516SOL    HW196574  12.388  10.134   0.351
65516SOL    HW296575  12.470  10.151   0.210
65517SOL     OW96576  12.424  11.041   1.128
65517SOL    HW196577  12.508  11.046   1.074
65517SOL    HW296578  12.401  10.945   1.146
65518SOL     OW96579  11.255  10.568   1.022
65518SOL    HW196580  11.250  10.567   1.122
65518SOL    HW296581  11.172  10.527   0.984
65519SOL     OW96582  11.860  10.972   1.716
65519SOL    HW196583  11.804  11.053   1.725
65519SOL    HW296584  11.912  10.976   1.630
65520SOL     OW96585  12.075   9.396   0.133
65520SOL    HW196586  12.126   9.397   0.047
65520SOL    HW296587  12.131   9.354   0.204
65521SOL     OW96588  12.898   9.445   0.523
65521SOL    HW196589  12.971   9.428   0.456
65521SOL    HW296590  12.867   9.358   0.561
65522SOL     OW96591  12.560  10.883   0.477
65522SOL    HW196592  12.627  10.895   0.403
65522SOL    HW296593  12.520  10.972   0.500
65523SOL     OW96594  11.302  11.104   1.851
65523SOL    HW196595  11.261  11.030   1.904
65523SOL    HW296596  11.366  11.155   1.909
65524SOL     OW96597  12.452  10.237   0.672
65524SOL    HW196598  12.512  10.156   0.674
65524SOL    HW296599  12.492  10.306   0.612
65525SOL     OW96600  12.002  10.583   1.422
65525SOL    HW196601  11.997  10.616   1.517
65525SOL    HW296602  11.916  10.602   1.376
65526SOL     OW96603  11.844  10.926   0.154
65526SOL    HW196604  11.853  10.936   0.055
65526SOL    HW296605  11.804  10.837   0.175
65527SOL     OW96606  11.435   9.636   0.720
65527SOL    HW196607  11.356   9.687   0.686
65527SOL    HW296608  11.426   9.621   0.818
65528SOL     OW96609  12.366  10.922   0.031
65528SOL    HW196610  12.372  10.829   0.068
65528SOL    HW296611  12.307  10.922  -0.049
65529SOL     OW96612  11.994  10.312   1.372
65529SOL    HW196613  12.034  10.311   1.280
65529SOL    HW296614  12.004  10.404   1.412
65530SOL     OW96615  12.088  10.220   0.291
65530SOL    HW196616  12.151  10.258   0.223
65530SOL    HW296617  12.128  10.137   0.330
65531SOL     OW96618  11.544  10.598   1.490
65531SOL    HW196619  11.531  10.691   1.456
65531SOL    HW296620  11.460  10.546   1.477
65532SOL     OW96621  12.211  10.408   0.696
65532SOL    HW196622  12.141  10.361   0.750
65532SOL    HW296623  12.270  10.340   0.653
65533SOL     OW96624  12.186   9.546   0.971
65533SOL    HW196625  12.178   9.510   0.878
65533SOL    HW296626  12.184   9.470   1.036
65534SOL     OW96627  11.762  10.797   0.491
65534SOL    HW196628  11.804  10.739   0.421
65534SOL    HW296629  11.718  10.876   0.447
65535SOL     OW96630  11.427  10.658   0.290
65535SOL    HW196631  11.331  10.659   0.263
65535SOL    HW296632  11.439  10.711   0.374
65536SOL     OW96633  11.277  10.323   1.726
65536SOL    HW196634  11.200  10.290   1.780
65536SOL    HW296635  11.362  10.293   1.768
65537SOL     OW96636  11.844   9.513   1.489
65537SOL    HW196637  11.934   9.497   1.449
65537SOL    HW296638  11.852   9.518   1.588
65538SOL     OW96639  12.612  10.166   1.398
65538SOL    HW196640  12.555  10.218   1.335
65538SOL    HW296641  12.708  10.178   1.374
65539SOL     OW96642  11.244   9.476   0.318
65539SOL    HW196643  11.227   9.559   0.264
65539SOL    HW296644  11.334   9.439   0.296
65540SOL     OW96645  12.355  10.645   0.119
65540SOL    HW196646  12.256  10.634   0.121
65540SOL    HW296647  12.389  10.660   0.212
65541SOL     OW96648  11.785  10.152   1.431
65541SOL    HW196649  11.841  10.233   1.414
65541SOL    HW296650  11.844  10.072   1.434
65542SOL     OW96651  11.888   9.875   1.708
65542SOL    HW196652  11.907   9.940   1.782
65542SOL    HW296653  11.948   9.795   1.717
65543SOL     OW96654  12.622  10.530   1.633
65543SOL    HW196655  12.613  10.520   1.732
65543SOL    HW296656  12.718  10.523   1.607
65544SOL     OW96657  11.562  11.051   1.560
65544SOL    HW196658  11.471  11.092   1.558
65544SOL    HW296659  11.555  10.957   1.592
65545SOL     OW96660  12.397   9.635   0.449
65545SOL    HW196661  12.462   9.561   0.438
65545SOL    HW296662  12.417   9.685   0.533
65546SOL     OW96663  11.766  10.055   0.652
65546SOL    HW196664  11.816  10.140   0.633
65546SOL    HW296665  11.678  10.057   0.604
65547SOL     OW96666  12.031  10.684   0.016
65547SOL    HW196667  11.985  10.699   0.104
65547SOL    HW296668  12.075  10.769  -0.014
65548SOL     OW96669  11.833  11.100   0.953
65548SOL    HW196670  11.787  11.188   0.940
65548SOL    HW296671  11.932  11.112   0.946
65549SOL     OW96672  12.031  10.266   0.861
65549SOL    HW196673  12.085  10.197   0.909
65549SOL    HW296674  11.999  10.335   0.927
65550SOL     OW96675  12.255  10.294   0.087
65550SOL    HW196676  12.232  10.347   0.005
65550SOL    HW296677  12.336  10.238   0.068
65551SOL     OW96678  11.393  10.624   1.844
65551SOL    HW196679  11.328  10.551   1.823
65551SOL    HW296680  11.397  10.638   1.942
65552SOL     OW96681  11.251  10.550   0.653
65552SOL    HW196682  11.250  10.503   0.741
65552SOL    HW296683  11.333  10.522   0.602
65553SOL     OW96684  11.844  10.701   1.624
65553SOL    HW196685  11.766  10.651   1.662
65553SOL    HW296686  11.841  10.796   1.655
65554SOL     OW96687  11.600   9.734   0.520
65554SOL    HW196688  11.630   9.662   0.458
65554SOL    HW296689  11.561   9.694   0.603
65555SOL     OW96690  12.877  10.797   1.104
65555SOL    HW196691  12.784  10.772   1.077
65555SOL    HW296692  12.903  10.747   1.186
65556SOL     OW96693  11.489   9.857   1.280
65556SOL    HW196694  11.527   9.798   1.352
65556SOL    HW296695  11.529   9.831   1.192
65557SOL     OW96696  11.984  10.896   0.687
65557SOL    HW196697  12.016  10.906   0.593
65557SOL    HW296698  11.905  10.834   0.689
65558SOL     OW96699  12.596   9.524   1.112
65558SOL    HW196700  12.648   9.459   1.167
65558SOL    HW296701  12.547   9.587   1.173
65559SOL     OW96702  12.173   9.344   1.154
65559SOL    HW196703  12.110   9.272   1.123
65559SOL    HW296704  12.266   9.308   1.154
65560SOL     OW96705  11.942  10.640   0.301
65560SOL    HW196706  11.896  10.553   0.318
65560SOL    HW296707  12.033  10.637   0.342
65561SOL     OW96708  11.790  10.877   1.284
65561SOL    HW196709  11.785  10.959   1.341
65561SOL    HW296710  11.879  10.874   1.239
65562SOL     OW96711  12.524   9.362   0.168
65562SOL    HW196712  12.559   9.321   0.084
65562SOL    HW296713  12.434   9.324   0.188
65563SOL     OW96714  12.472   9.763   0.691
65563SOL    HW196715  12.413   9.843   0.695
65563SOL    HW296716  12.487   9.728   0.784
65564SOL     OW96717  11.211  10.387   0.300
65564SOL    HW196718  11.310  10.376   0.291
65564SOL    HW296719  11.171  10.301   0.332
65565SOL     OW96720  12.047  10.956   0.337
65565SOL    HW196721  11.970  10.921   0.283
65565SOL    HW296722  12.015  11.027   0.399
65566SOL     OW96723  11.402   9.938   1.975
65566SOL    HW196724  11.309   9.936   2.012
65566SOL    HW296725  11.403   9.899   1.883
65567SOL     OW96726  11.397   9.585   2.858
65567SOL    HW196727  11.432   9.568   2.950
65567SOL    HW296728  11.309   9.540   2.846
65568SOL     OW96729  11.191   9.678   2.509
65568SOL    HW196730  11.109   9.721   2.548
65568SOL    HW296731  11.163   9.605   2.446
65569SOL     OW96732  11.741  10.585   3.027
65569SOL    HW196733  11.648  10.578   2.990
65569SOL    HW296734  11.752  10.674   3.071
65570SOL     OW96735  12.727  10.821   2.565
65570SOL    HW196736  12.670  10.805   2.646
65570SOL    HW296737  12.668  10.831   2.485
65571SOL     OW96738  12.307  10.013   2.579
65571SOL    HW196739  12.364  10.091   2.554
65571SOL    HW296740  12.247  10.039   2.655
65572SOL     OW96741  11.940  10.454   2.885
65572SOL    HW196742  11.862  10.471   2.945
65572SOL    HW296743  11.974  10.541   2.849
65573SOL     OW96744  12.022  10.108   3.685
65573SOL    HW196745  12.018  10.184   3.750
65573SOL    HW296746  12.044  10.144   3.594
65574SOL     OW96747  11.857  10.322   2.527
65574SOL    HW196748  11.926  10.306   2.597
65574SOL    HW296749  11.784  10.379   2.565
65575SOL     OW96750  11.858  10.471   3.665
65575SOL    HW196751  11.918  10.550   3.679
65575SOL    HW296752  11.772  10.502   3.624
65576SOL     OW96753  11.507  10.745   2.923
65576SOL    HW196754  11.429  10.714   2.870
65576SOL    HW296755  11.565  10.803   2.866
65577SOL     OW96756  11.610   9.702   3.361
65577SOL    HW196757  11.692   9.646   3.370
65577SOL    HW296758  11.529   9.644   3.365
65578SOL     OW96759  11.403  11.023   2.345
65578SOL    HW196760  11.437  11.100   2.399
65578SOL    HW296761  11.447  11.023   2.255
65579SOL     OW96762  12.299  10.651   3.552
65579SOL    HW196763  12.346  10.651   3.640
65579SOL    HW296764  12.251  10.564   3.541
65580SOL     OW96765  11.402  10.744   2.400
65580SOL    HW196766  11.376  10.840   2.400
65580SOL    HW296767  11.331  10.690   2.445
65581SOL     OW96768  11.412  10.401   2.748
65581SOL    HW196769  11.426  10.317   2.800
65581SOL    HW296770  11.357  10.465   2.803
65582SOL     OW96771  11.792  11.096   3.301
65582SOL    HW196772  11.700  11.079   3.336
65582SOL    HW296773  11.820  11.188   3.327
65583SOL     OW96774  11.778  10.274   1.985
65583SOL    HW196775  11.785  10.358   1.931
65583SOL    HW296776  11.824  10.287   2.073
65584SOL     OW96777  11.294   9.953   2.425
65584SOL    HW196778  11.249   9.865   2.442
65584SOL    HW296779  11.293  10.007   2.509
65585SOL     OW96780  11.199  10.906   1.979
65585SOL    HW196781  11.180  10.810   2.000
65585SOL    HW296782  11.166  10.964   2.054
65586SOL     OW96783  12.861  10.232   2.474
65586SOL    HW196784  12.956  10.203   2.482
65586SOL    HW296785  12.853  10.297   2.399
65587SOL     OW96786  11.285  10.047   3.459
65587SOL    HW196787  11.373  10.034   3.504
65587SOL    HW296788  11.272  10.144   3.437
65588SOL     OW96789  11.785  10.675   2.588
65588SOL    HW196790  11.736  10.588   2.597
65588SOL    HW296791  11.762  10.718   2.501
65589SOL     OW96792  12.465  10.538   3.285
65589SOL    HW196793  12.502  10.465   3.227
65589SOL    HW296794  12.517  10.543   3.370
65590SOL     OW96795  11.981   9.314   2.364
65590SOL    HW196796  12.021   9.405   2.355
65590SOL    HW296797  11.881   9.322   2.370
65591SOL     OW96798  11.369  10.286   3.126
65591SOL    HW196799  11.458  10.241   3.112
65591SOL    HW296800  11.296  10.221   3.107
65592SOL     OW96801  12.359  11.102   3.478
65592SOL    HW196802  12.383  11.162   3.402
65592SOL    HW296803  12.366  11.007   3.448
65593SOL     OW96804  11.489   9.561   3.663
65593SOL    HW196805  11.560   9.632   3.669
65593SOL    HW296806  11.401   9.600   3.691
65594SOL     OW96807  12.638  10.727   2.815
65594SOL    HW196808  12.579  10.733   2.895
65594SOL    HW296809  12.623  10.639   2.769
65595SOL     OW96810  11.770  10.039   2.132
65595SOL    HW196811  11.794  10.108   2.064
65595SOL    HW296812  11.692  10.072   2.186
65596SOL     OW96813  12.453   9.655   2.806
65596SOL    HW196814  12.367   9.605   2.793
65596SOL    HW296815  12.515   9.601   2.862
65597SOL     OW96816  11.979   9.915   3.327
65597SOL    HW196817  11.932   9.912   3.416
65597SOL    HW296818  11.928   9.860   3.261
65598SOL     OW96819  12.566   9.779   3.536
65598SOL    HW196820  12.546   9.822   3.624
65598SOL    HW296821  12.644   9.717   3.545
65599SOL     OW96822  12.145  10.200   3.434
65599SOL    HW196823  12.191  10.116   3.405
65599SOL    HW296824  12.089  10.234   3.359
65600SOL     OW96825  12.163   9.720   3.104
65600SOL    HW196826  12.086   9.754   3.158
65600SOL    HW296827  12.129   9.669   3.025
65601SOL     OW96828  12.213  10.011   2.291
65601SOL    HW196829  12.239  10.007   2.387
65601SOL    HW296830  12.128   9.960   2.277
65602SOL     OW96831  11.248  10.121   2.651
65602SOL    HW196832  11.347  10.109   2.660
65602SOL    HW296833  11.224  10.216   2.672
65603SOL     OW96834  11.302  11.131   3.433
65603SOL    HW196835  11.292  11.116   3.532
65603SOL    HW296836  11.216  11.167   3.397
65604SOL     OW96837  12.037   9.658   2.057
65604SOL    HW196838  12.096   9.721   2.008
65604SOL    HW296839  12.056   9.564   2.028
65605SOL     OW96840  12.534  10.454   2.407
65605SOL    HW196841  12.617  10.425   2.359
65605SOL    HW296842  12.485  10.521   2.351
65606SOL     OW96843  11.722   9.506   2.747
65606SOL    HW196844  11.717   9.501   2.847
65606SOL    HW296845  11.724   9.602   2.718
65607SOL     OW96846  12.180  10.766   2.339
65607SOL    HW196847  12.134  10.838   2.287
65607SOL    HW296848  12.176  10.786   2.437
65608SOL     OW96849  11.523  11.111   2.715
65608SOL    HW196850  11.573  11.025   2.721
65608SOL    HW296851  11.588  11.188   2.712
65609SOL     OW96852  12.399  10.860   3.368
65609SOL    HW196853  12.405  10.783   3.432
65609SOL    HW296854  12.347  10.834   3.288
65610SOL     OW96855  11.493  10.253   2.104
65610SOL    HW196856  11.575  10.292   2.062
65610SOL    HW296857  11.466  10.171   2.055
65611SOL     OW96858  11.633  10.576   3.589
65611SOL    HW196859  11.583  10.577   3.503
65611SOL    HW296860  11.570  10.558   3.665
65612SOL     OW96861  12.283  11.086   2.099
65612SOL    HW196862  12.223  11.024   2.149
65612SOL    HW296863  12.314  11.042   2.014
65613SOL     OW96864  11.374   9.595   3.360
65613SOL    HW196865  11.294   9.655   3.347
65613SOL    HW296866  11.364   9.546   3.446
65614SOL     OW96867  11.636  11.053   2.185
65614SOL    HW196868  11.669  11.092   2.271
65614SOL    HW296869  11.712  11.046   2.120
65615SOL     OW96870  12.572   9.417   2.288
65615SOL    HW196871  12.548   9.380   2.198
65615SOL    HW296872  12.671   9.433   2.292
65616SOL     OW96873  11.421  11.095   3.103
65616SOL    HW196874  11.478  11.030   3.153
65616SOL    HW296875  11.405  11.062   3.010
65617SOL     OW96876  12.112  11.008   2.766
65617SOL    HW196877  12.192  10.951   2.787
65617SOL    HW296878  12.063  10.968   2.689
65618SOL     OW96879  11.554  10.010   2.342
65618SOL    HW196880  11.599   9.920   2.339
65618SOL    HW296881  11.460   9.999   2.375
65619SOL     OW96882  11.786   9.432   1.979
65619SOL    HW196883  11.884   9.410   1.986
65619SOL    HW296884  11.755   9.415   1.886
65620SOL     OW96885  11.953   9.574   3.611
65620SOL    HW196886  12.020   9.513   3.654
65620SOL    HW296887  11.880   9.593   3.676
65621SOL     OW96888  12.060  10.824   3.057
65621SOL    HW196889  12.037  10.799   2.963
65621SOL    HW296890  12.121  10.755   3.096
65622SOL     OW96891  12.523   9.900   3.295
65622SOL    HW196892  12.551   9.857   3.380
65622SOL    HW296893  12.548   9.996   3.296
65623SOL     OW96894  11.975  10.712   2.786
65623SOL    HW196895  12.065  10.726   2.744
65623SOL    HW296896  11.904  10.714   2.715
65624SOL     OW96897  12.094   9.813   2.761
65624SOL    HW196898  12.069   9.804   2.665
65624SOL    HW296899  12.142   9.731   2.792
65625SOL     OW96900  11.711   9.374   2.374
65625SOL    HW196901  11.630   9.375   2.432
65625SOL    HW296902  11.714   9.457   2.319
65626SOL     OW96903  12.606  10.498   1.903
65626SOL    HW196904  12.638  10.422   1.960
65626SOL    HW296905  12.514  10.525   1.933
65627SOL     OW96906  11.469   9.345   2.033
65627SOL    HW196907  11.518   9.429   2.012
65627SOL    HW296908  11.531   9.280   2.078
65628SOL     OW96909  12.107   9.546   2.342
65628SOL    HW196910  12.059   9.587   2.264
65628SOL    HW296911  12.206   9.544   2.323
65629SOL     OW96912  12.248   9.993   3.326
65629SOL    HW196913  12.168   9.932   3.329
65629SOL    HW296914  12.329   9.940   3.302
65630SOL     OW96915  12.399  10.880   2.655
65630SOL    HW196916  12.420  10.954   2.590
65630SOL    HW296917  12.467  10.880   2.728
65631SOL     OW96918  11.631  10.462   2.603
65631SOL    HW196919  11.560  10.435   2.668
65631SOL    HW296920  11.605  10.434   2.510
65632SOL     OW96921  12.443  11.107   2.453
65632SOL    HW196922  12.487  11.171   2.389
65632SOL    HW296923  12.393  11.159   2.523
65633SOL     OW96924  12.204   9.859   1.878
65633SOL    HW196925  12.163   9.941   1.839
65633SOL    HW296926  12.268   9.885   1.951
65634SOL     OW96927  11.250   9.866   3.248
65634SOL    HW196928  11.342   9.865   3.207
65634SOL    HW296929  11.244   9.940   3.315
65635SOL     OW96930  11.733   9.532   3.009
65635SOL    HW196931  11.771   9.448   3.046
65635SOL    HW296932  11.645   9.551   3.053
65636SOL     OW96933  12.038   9.764   2.504
65636SOL    HW196934  12.006   9.836   2.442
65636SOL    HW296935  12.062   9.683   2.451
65637SOL     OW96936  12.189   9.349   2.615
65637SOL    HW196937  12.117   9.354   2.546
65637SOL    HW296938  12.165   9.280   2.684
65638SOL     OW96939  12.601  10.483   2.729
65638SOL    HW196940  12.546  10.399   2.722
65638SOL    HW296941  12.627  10.512   2.637
65639SOL     OW96942  11.660  10.695   2.036
65639SOL    HW196943  11.573  10.680   2.083
65639SOL    HW296944  11.643  10.721   1.941
65640SOL     OW96945  12.562   9.885   1.940
65640SOL    HW196946  12.508   9.864   2.021
65640SOL    HW296947  12.653   9.844   1.949
65641SOL     OW96948  11.699   9.566   2.190
65641SOL    HW196949  11.726   9.507   2.115
65641SOL    HW296950  11.699   9.661   2.159
65642SOL     OW96951  12.236  10.657   3.202
65642SOL    HW196952  12.156  10.634   3.257
65642SOL    HW296953  12.319  10.631   3.251
65643SOL     OW96954  12.764  10.939   3.487
65643SOL    HW196955  12.791  10.973   3.397
65643SOL    HW296956  12.843  10.901   3.533
65644SOL     OW96957  12.283  10.505   2.962
65644SOL    HW196958  12.243  10.549   3.043
65644SOL    HW296959  12.242  10.542   2.879
65645SOL     OW96960  12.087   9.399   3.264
65645SOL    HW196961  12.112   9.379   3.169
65645SOL    HW296962  12.159   9.455   3.306
65646SOL     OW96963  12.152  10.426   3.581
65646SOL    HW196964  12.053  10.432   3.591
65646SOL    HW296965  12.175  10.346   3.525
65647SOL     OW96966  11.877  10.360   2.230
65647SOL    HW196967  11.863  10.367   2.329
65647SOL    HW296968  11.961  10.309   2.212
65648SOL     OW96969  11.582  10.123   3.113
65648SOL    HW196970  11.668  10.135   3.163
65648SOL    HW296971  11.540  10.036   3.140
65649SOL     OW96972  12.446   9.696   3.124
65649SOL    HW196973  12.467   9.770   3.188
65649SOL    HW296974  12.357   9.713   3.081
65650SOL     OW96975  11.236  10.874   3.193
65650SOL    HW196976  11.190  10.956   3.159
65650SOL    HW296977  11.334  10.893   3.202
65651SOL     OW96978  11.539  10.410   2.363
65651SOL    HW196979  11.532  10.493   2.307
65651SOL    HW296980  11.543  10.330   2.303
65652SOL     OW96981  11.738   9.847   2.727
65652SOL    HW196982  11.750   9.913   2.653
65652SOL    HW296983  11.784   9.881   2.810
65653SOL     OW96984  12.424  10.658   2.250
65653SOL    HW196985  12.474  10.735   2.290
65653SOL    HW296986  12.329  10.660   2.282
65654SOL     OW96987  12.444  10.755   3.004
65654SOL    HW196988  12.491  10.768   3.091
65654SOL    HW296989  12.378  10.681   3.013
65655SOL     OW96990  11.526  10.820   3.191
65655SOL    HW196991  11.505  10.776   3.104
65655SOL    HW296992  11.623  10.846   3.194
65656SOL     OW96993  11.574  10.061   3.460
65656SOL    HW196994  11.642  10.116   3.413
65656SOL    HW296995  11.614   9.973   3.487
65657SOL     OW96996  12.185   9.415   3.632
65657SOL    HW196997  12.191   9.500   3.580
65657SOL    HW296998  12.217   9.339   3.575
65658SOL     OW96999  11.676   9.360   3.602
65658SOL    HW197000  11.634   9.303   3.532
65658SOL    HW297001  11.610   9.429   3.634
65659SOL     OW97002  11.745  10.180   2.891
65659SOL    HW197003  11.789  10.269   2.882
65659SOL    HW297004  11.682  10.180   2.968
65660SOL     OW97005  12.532  10.172   2.907
65660SOL    HW197006  12.457  10.172   2.841
65660SOL    HW297007  12.569  10.080   2.916
65661SOL     OW97008  12.381   9.835   2.137
65661SOL    HW197009  12.394   9.751   2.191
65661SOL    HW297010  12.352   9.909   2.197
65662SOL     OW97011  11.479   9.523   3.093
65662SOL    HW197012  11.456   9.560   3.183
65662SOL    HW297013  11.449   9.428   3.087
65663SOL     OW97014  11.209  10.620   3.144
65663SOL    HW197015  11.262  10.571   3.212
65663SOL    HW297016  11.231  10.718   3.149
65664SOL     OW97017  11.904   9.944   2.926
65664SOL    HW197018  11.963   9.918   2.850
65664SOL    HW297019  11.876  10.040   2.915
65665SOL     OW97020  11.479   9.373   2.480
65665SOL    HW197021  11.468   9.467   2.513
65665SOL    HW297022  11.474   9.310   2.557
65666SOL     OW97023  12.794   9.677   2.236
65666SOL    HW197024  12.796   9.601   2.300
65666SOL    HW297025  12.746   9.754   2.276
65667SOL     OW97026  12.195  10.076   2.828
65667SOL    HW197027  12.210  10.097   2.924
65667SOL    HW297028  12.165   9.981   2.819
65668SOL     OW97029  12.152  10.883   3.562
65668SOL    HW197030  12.132  10.927   3.474
65668SOL    HW297031  12.191  10.792   3.546
65669SOL     OW97032  11.522  10.208   3.666
65669SOL    HW197033  11.598  10.252   3.714
65669SOL    HW297034  11.557  10.161   3.584
65670SOL     OW97035  12.475  10.148   1.904
65670SOL    HW197036  12.509  10.055   1.919
65670SOL    HW297037  12.493  10.175   1.809
65671SOL     OW97038  12.240  10.643   2.711
65671SOL    HW197039  12.247  10.559   2.656
65671SOL    HW297040  12.302  10.712   2.675
65672SOL     OW97041  11.491  10.120   2.811
65672SOL    HW197042  11.584  10.156   2.816
65672SOL    HW297043  11.485  10.035   2.863
65673SOL     OW97044  11.511   9.819   2.868
65673SOL    HW197045  11.459   9.736   2.851
65673SOL    HW297046  11.588   9.824   2.804
65674SOL     OW97047  12.310   9.690   3.540
65674SOL    HW197048  12.265   9.753   3.604
65674SOL    HW297049  12.403   9.721   3.523
65675SOL     OW97050  12.332   9.517   3.339
65675SOL    HW197051  12.332   9.581   3.416
65675SOL    HW297052  12.360   9.565   3.256
65676SOL     OW97053  11.180  10.636   2.062
65676SOL    HW197054  11.087  10.657   2.031
65676SOL    HW297055  11.190  10.537   2.075
65677SOL     OW97056  11.260  11.111   2.789
65677SOL    HW197057  11.218  11.025   2.762
65677SOL    HW297058  11.354  11.114   2.755
65678SOL     OW97059  11.676  10.878   2.772
65678SOL    HW197060  11.742  10.952   2.781
65678SOL    HW297061  11.720  10.799   2.730
65679SOL     OW97062  12.174  10.106   3.100
65679SOL    HW197063  12.215  10.074   3.186
65679SOL    HW297064  12.078  10.079   3.097
65680SOL     OW97065  11.212   9.854   2.976
65680SOL    HW197066  11.297   9.821   2.935
65680SOL    HW297067  11.225   9.869   3.074
65681SOL     OW97068  11.361   9.830   3.584
65681SOL    HW197069  11.420   9.790   3.514
65681SOL    HW297070  11.303   9.901   3.543
65682SOL     OW97071  12.541  10.260   3.522
65682SOL    HW197072  12.580  10.349   3.542
65682SOL    HW297073  12.551  10.240   3.425
65683SOL     OW97074  11.987   9.882   2.187
65683SOL    HW197075  11.994   9.793   2.141
65683SOL    HW297076  11.893   9.916   2.179
65684SOL     OW97077  11.424  10.874   3.606
65684SOL    HW197078  11.394  10.931   3.682
65684SOL    HW297079  11.417  10.777   3.632
65685SOL     OW97080  11.843   9.774   3.131
65685SOL    HW197081  11.809   9.685   3.101
65685SOL    HW297082  11.869   9.828   3.051
65686SOL     OW97083  12.102  10.988   3.327
65686SOL    HW197084  12.078  10.970   3.232
65686SOL    HW297085  12.132  11.082   3.337
65687SOL     OW97086  11.645   9.810   2.053
65687SOL    HW197087  11.706   9.890   2.057
65687SOL    HW297088  11.550   9.841   2.060
65688SOL     OW97089  11.331  10.447   3.328
65688SOL    HW197090  11.353  10.386   3.404
65688SOL    HW297091  11.341  10.398   3.242
65689SOL     OW97092  12.519  10.369   3.096
65689SOL    HW197093  12.543  10.306   3.022
65689SOL    HW297094  12.429  10.409   3.078
65690SOL     OW97095  12.474  10.165   2.171
65690SOL    HW197096  12.388  10.134   2.213
65690SOL    HW297097  12.470  10.151   2.072
65691SOL     OW97098  12.424  11.041   2.990
65691SOL    HW197099  12.508  11.046   2.936
65691SOL    HW297100  12.401  10.945   3.008
65692SOL     OW97101  11.255  10.568   2.884
65692SOL    HW197102  11.250  10.567   2.984
65692SOL    HW297103  11.172  10.527   2.846
65693SOL     OW97104  11.860  10.972   3.578
65693SOL    HW197105  11.804  11.053   3.587
65693SOL    HW297106  11.912  10.976   3.492
65694SOL     OW97107  12.898   9.445   2.385
65694SOL    HW197108  12.971   9.428   2.318
65694SOL    HW297109  12.867   9.358   2.423
65695SOL     OW97110  12.560  10.883   2.339
65695SOL    HW197111  12.627  10.895   2.265
65695SOL    HW297112  12.520  10.972   2.362
65696SOL     OW97113  11.302  11.104   3.713
65696SOL    HW197114  11.261  11.030   3.766
65696SOL    HW297115  11.366  11.155   3.771
65697SOL     OW97116  12.452  10.237   2.534
65697SOL    HW197117  12.512  10.156   2.536
65697SOL    HW297118  12.492  10.306   2.474
65698SOL     OW97119  12.002  10.583   3.284
65698SOL    HW197120  11.997  10.616   3.379
65698SOL    HW297121  11.916  10.602   3.238
65699SOL     OW97122  11.844  10.926   2.016
65699SOL    HW197123  11.853  10.936   1.917
65699SOL    HW297124  11.804  10.837   2.037
65700SOL     OW97125  11.435   9.636   2.582
65700SOL    HW197126  11.356   9.687   2.548
65700SOL    HW297127  11.426   9.621   2.680
65701SOL     OW97128  12.366  10.922   1.893
65701SOL    HW197129  12.372  10.829   1.930
65701SOL    HW297130  12.307  10.922   1.813
65702SOL     OW97131  11.994  10.312   3.234
65702SOL    HW197132  12.034  10.311   3.142
65702SOL    HW297133  12.004  10.404   3.274
65703SOL     OW97134  12.088  10.220   2.153
65703SOL    HW197135  12.151  10.258   2.085
65703SOL    HW297136  12.128  10.137   2.192
65704SOL     OW97137  11.544  10.598   3.352
65704SOL    HW197138  11.531  10.691   3.318
65704SOL    HW297139  11.460  10.546   3.339
65705SOL     OW97140  12.211  10.408   2.558
65705SOL    HW197141  12.141  10.361   2.612
65705SOL    HW297142  12.270  10.340   2.515
65706SOL     OW97143  12.186   9.546   2.833
65706SOL    HW197144  12.178   9.510   2.740
65706SOL    HW297145  12.184   9.470   2.898
65707SOL     OW97146  11.762  10.797   2.353
65707SOL    HW197147  11.804  10.739   2.283
65707SOL    HW297148  11.718  10.876   2.309
65708SOL     OW97149  11.427  10.658   2.152
65708SOL    HW197150  11.331  10.659   2.125
65708SOL    HW297151  11.439  10.711   2.236
65709SOL     OW97152  11.277  10.323   3.588
65709SOL    HW197153  11.200  10.290   3.642
65709SOL    HW297154  11.362  10.293   3.630
65710SOL     OW97155  11.844   9.513   3.351
65710SOL    HW197156  11.934   9.497   3.311
65710SOL    HW297157  11.852   9.518   3.450
65711SOL     OW97158  11.247   9.655   1.895
65711SOL    HW197159  11.155   9.627   1.866
65711SOL    HW297160  11.278   9.732   1.839
65712SOL     OW97161  12.612  10.166   3.260
65712SOL    HW197162  12.555  10.218   3.197
65712SOL    HW297163  12.708  10.178   3.236
65713SOL     OW97164  11.244   9.476   2.180
65713SOL    HW197165  11.227   9.559   2.126
65713SOL    HW297166  11.334   9.439   2.158
65714SOL     OW97167  12.355  10.645   1.981
65714SOL    HW197168  12.256  10.634   1.983
65714SOL    HW297169  12.389  10.660   2.074
65715SOL     OW97170  11.785  10.152   3.293
65715SOL    HW197171  11.841  10.233   3.276
65715SOL    HW297172  11.844  10.072   3.296
65716SOL     OW97173  11.888   9.875   3.570
65716SOL    HW197174  11.907   9.940   3.644
65716SOL    HW297175  11.948   9.795   3.579
65717SOL     OW97176  12.622  10.530   3.495
65717SOL    HW197177  12.613  10.520   3.594
65717SOL    HW297178  12.718  10.523   3.469
65718SOL     OW97179  11.562  11.051   3.422
65718SOL    HW197180  11.471  11.092   3.420
65718SOL    HW297181  11.555  10.957   3.454
65719SOL     OW97182  12.397   9.635   2.311
65719SOL    HW197183  12.462   9.561   2.300
65719SOL    HW297184  12.417   9.685   2.395
65720SOL     OW97185  11.766  10.055   2.514
65720SOL    HW197186  11.816  10.140   2.495
65720SOL    HW297187  11.678  10.057   2.466
65721SOL     OW97188  12.031  10.684   1.878
65721SOL    HW197189  11.985  10.699   1.966
65721SOL    HW297190  12.075  10.769   1.848
65722SOL     OW97191  11.833  11.100   2.815
65722SOL    HW197192  11.787  11.188   2.802
65722SOL    HW297193  11.932  11.112   2.808
65723SOL     OW97194  12.031  10.266   2.723
65723SOL    HW197195  12.085  10.197   2.771
65723SOL    HW297196  11.999  10.335   2.789
65724SOL     OW97197  12.255  10.294   1.949
65724SOL    HW197198  12.232  10.347   1.867
65724SOL    HW297199  12.336  10.238   1.930
65725SOL     OW97200  11.393  10.624   3.706
65725SOL    HW197201  11.328  10.551   3.685
65725SOL    HW297202  11.397  10.638   3.804
65726SOL     OW97203  11.251  10.550   2.515
65726SOL    HW197204  11.250  10.503   2.603
65726SOL    HW297205  11.333  10.522   2.464
65727SOL     OW97206  11.844  10.701   3.486
65727SOL    HW197207  11.766  10.651   3.524
65727SOL    HW297208  11.841  10.796   3.517
65728SOL     OW97209  11.600   9.734   2.382
65728SOL    HW197210  11.630   9.662   2.320
65728SOL    HW297211  11.561   9.694   2.465
65729SOL     OW97212  12.877  10.797   2.966
65729SOL    HW197213  12.784  10.772   2.939
65729SOL    HW297214  12.903  10.747   3.048
65730SOL     OW97215  11.489   9.857   3.142
65730SOL    HW197216  11.527   9.798   3.214
65730SOL    HW297217  11.529   9.831   3.054
65731SOL     OW97218  11.984  10.896   2.549
65731SOL    HW197219  12.016  10.906   2.455
65731SOL    HW297220  11.905  10.834   2.551
65732SOL     OW97221  12.596   9.524   2.974
65732SOL    HW197222  12.648   9.459   3.029
65732SOL    HW297223  12.547   9.587   3.035
65733SOL     OW97224  12.173   9.344   3.016
65733SOL    HW197225  12.110   9.272   2.985
65733SOL    HW297226  12.266   9.308   3.016
65734SOL     OW97227  11.942  10.640   2.163
65734SOL    HW197228  11.896  10.553   2.180
65734SOL    HW297229  12.033  10.637   2.204
65735SOL     OW97230  11.790  10.877   3.146
65735SOL    HW197231  11.785  10.959   3.203
65735SOL    HW297232  11.879  10.874   3.101
65736SOL     OW97233  12.524   9.362   2.030
65736SOL    HW197234  12.559   9.321   1.946
65736SOL    HW297235  12.434   9.324   2.050
65737SOL     OW97236  12.472   9.763   2.553
65737SOL    HW197237  12.413   9.843   2.557
65737SOL    HW297238  12.487   9.728   2.646
65738SOL     OW97239  11.211  10.387   2.162
65738SOL    HW197240  11.310  10.376   2.153
65738SOL    HW297241  11.171  10.301   2.194
65739SOL     OW97242  12.047  10.956   2.199
65739SOL    HW197243  11.970  10.921   2.145
65739SOL    HW297244  12.015  11.027   2.261
65740SOL     OW97245  11.402   9.938   3.837
65740SOL    HW197246  11.309   9.936   3.874
65740SOL    HW297247  11.403   9.899   3.745
65741SOL     OW97248  11.397   9.585   4.720
65741SOL    HW197249  11.432   9.568   4.812
65741SOL    HW297250  11.309   9.540   4.708
65742SOL     OW97251  11.191   9.678   4.371
65742SOL    HW197252  11.109   9.721   4.410
65742SOL    HW297253  11.163   9.605   4.308
65743SOL     OW97254  11.741  10.585   4.889
65743SOL    HW197255  11.648  10.578   4.852
65743SOL    HW297256  11.752  10.674   4.933
65744SOL     OW97257  12.727  10.821   4.427
65744SOL    HW197258  12.670  10.805   4.508
65744SOL    HW297259  12.668  10.831   4.347
65745SOL     OW97260  12.307  10.013   4.441
65745SOL    HW197261  12.364  10.091   4.416
65745SOL    HW297262  12.247  10.039   4.517
65746SOL     OW97263  11.940  10.454   4.747
65746SOL    HW197264  11.862  10.471   4.807
65746SOL    HW297265  11.974  10.541   4.711
65747SOL     OW97266  12.022  10.108   5.547
65747SOL    HW197267  12.018  10.184   5.612
65747SOL    HW297268  12.044  10.144   5.456
65748SOL     OW97269  11.857  10.322   4.389
65748SOL    HW197270  11.926  10.306   4.459
65748SOL    HW297271  11.784  10.379   4.427
65749SOL     OW97272  11.858  10.471   5.527
65749SOL    HW197273  11.918  10.550   5.541
65749SOL    HW297274  11.772  10.502   5.486
65750SOL     OW97275  11.507  10.745   4.785
65750SOL    HW197276  11.429  10.714   4.732
65750SOL    HW297277  11.565  10.803   4.728
65751SOL     OW97278  11.610   9.702   5.223
65751SOL    HW197279  11.692   9.646   5.232
65751SOL    HW297280  11.529   9.644   5.227
65752SOL     OW97281  11.403  11.023   4.207
65752SOL    HW197282  11.437  11.100   4.261
65752SOL    HW297283  11.447  11.023   4.117
65753SOL     OW97284  12.299  10.651   5.414
65753SOL    HW197285  12.346  10.651   5.502
65753SOL    HW297286  12.251  10.564   5.403
65754SOL     OW97287  11.402  10.744   4.262
65754SOL    HW197288  11.376  10.840   4.262
65754SOL    HW297289  11.331  10.690   4.307
65755SOL     OW97290  11.412  10.401   4.610
65755SOL    HW197291  11.426  10.317   4.662
65755SOL    HW297292  11.357  10.465   4.665
65756SOL     OW97293  11.792  11.096   5.163
65756SOL    HW197294  11.700  11.079   5.198
65756SOL    HW297295  11.820  11.188   5.189
65757SOL     OW97296  11.778  10.274   3.847
65757SOL    HW197297  11.785  10.358   3.793
65757SOL    HW297298  11.824  10.287   3.935
65758SOL     OW97299  11.294   9.953   4.287
65758SOL    HW197300  11.249   9.865   4.304
65758SOL    HW297301  11.293  10.007   4.371
65759SOL     OW97302  11.199  10.906   3.841
65759SOL    HW197303  11.180  10.810   3.862
65759SOL    HW297304  11.166  10.964   3.916
65760SOL     OW97305  12.861  10.232   4.336
65760SOL    HW197306  12.956  10.203   4.344
65760SOL    HW297307  12.853  10.297   4.261
65761SOL     OW97308  11.285  10.047   5.321
65761SOL    HW197309  11.373  10.034   5.366
65761SOL    HW297310  11.272  10.144   5.299
65762SOL     OW97311  11.785  10.675   4.450
65762SOL    HW197312  11.736  10.588   4.459
65762SOL    HW297313  11.762  10.718   4.363
65763SOL     OW97314  12.465  10.538   5.147
65763SOL    HW197315  12.502  10.465   5.089
65763SOL    HW297316  12.517  10.543   5.232
65764SOL     OW97317  11.981   9.314   4.226
65764SOL    HW197318  12.021   9.405   4.217
65764SOL    HW297319  11.881   9.322   4.232
65765SOL     OW97320  11.369  10.286   4.988
65765SOL    HW197321  11.458  10.241   4.974
65765SOL    HW297322  11.296  10.221   4.969
65766SOL     OW97323  12.359  11.102   5.340
65766SOL    HW197324  12.383  11.162   5.264
65766SOL    HW297325  12.366  11.007   5.310
65767SOL     OW97326  11.489   9.561   5.525
65767SOL    HW197327  11.560   9.632   5.531
65767SOL    HW297328  11.401   9.600   5.553
65768SOL     OW97329  12.638  10.727   4.677
65768SOL    HW197330  12.579  10.733   4.757
65768SOL    HW297331  12.623  10.639   4.631
65769SOL     OW97332  11.770  10.039   3.994
65769SOL    HW197333  11.794  10.108   3.926
65769SOL    HW297334  11.692  10.072   4.048
65770SOL     OW97335  12.453   9.655   4.668
65770SOL    HW197336  12.367   9.605   4.655
65770SOL    HW297337  12.515   9.601   4.724
65771SOL     OW97338  11.979   9.915   5.189
65771SOL    HW197339  11.932   9.912   5.278
65771SOL    HW297340  11.928   9.860   5.123
65772SOL     OW97341  12.566   9.779   5.398
65772SOL    HW197342  12.546   9.822   5.486
65772SOL    HW297343  12.644   9.717   5.407
65773SOL     OW97344  12.145  10.200   5.296
65773SOL    HW197345  12.191  10.116   5.267
65773SOL    HW297346  12.089  10.234   5.221
65774SOL     OW97347  12.163   9.720   4.966
65774SOL    HW197348  12.086   9.754   5.020
65774SOL    HW297349  12.129   9.669   4.887
65775SOL     OW97350  12.213  10.011   4.153
65775SOL    HW197351  12.239  10.007   4.249
65775SOL    HW297352  12.128   9.960   4.139
65776SOL     OW97353  11.248  10.121   4.513
65776SOL    HW197354  11.347  10.109   4.522
65776SOL    HW297355  11.224  10.216   4.534
65777SOL     OW97356  11.302  11.131   5.295
65777SOL    HW197357  11.292  11.116   5.394
65777SOL    HW297358  11.216  11.167   5.259
65778SOL     OW97359  12.037   9.658   3.919
65778SOL    HW197360  12.096   9.721   3.870
65778SOL    HW297361  12.056   9.564   3.890
65779SOL     OW97362  12.534  10.454   4.269
65779SOL    HW197363  12.617  10.425   4.221
65779SOL    HW297364  12.485  10.521   4.213
65780SOL     OW97365  11.722   9.506   4.609
65780SOL    HW197366  11.717   9.501   4.709
65780SOL    HW297367  11.724   9.602   4.580
65781SOL     OW97368  12.180  10.766   4.201
65781SOL    HW197369  12.134  10.838   4.149
65781SOL    HW297370  12.176  10.786   4.299
65782SOL     OW97371  11.523  11.111   4.577
65782SOL    HW197372  11.573  11.025   4.583
65782SOL    HW297373  11.588  11.188   4.574
65783SOL     OW97374  12.399  10.860   5.230
65783SOL    HW197375  12.405  10.783   5.294
65783SOL    HW297376  12.347  10.834   5.150
65784SOL     OW97377  11.493  10.253   3.966
65784SOL    HW197378  11.575  10.292   3.924
65784SOL    HW297379  11.466  10.171   3.917
65785SOL     OW97380  11.633  10.576   5.451
65785SOL    HW197381  11.583  10.577   5.365
65785SOL    HW297382  11.570  10.558   5.527
65786SOL     OW97383  12.283  11.086   3.961
65786SOL    HW197384  12.223  11.024   4.011
65786SOL    HW297385  12.314  11.042   3.876
65787SOL     OW97386  11.374   9.595   5.222
65787SOL    HW197387  11.294   9.655   5.209
65787SOL    HW297388  11.364   9.546   5.308
65788SOL     OW97389  11.636  11.053   4.047
65788SOL    HW197390  11.669  11.092   4.133
65788SOL    HW297391  11.712  11.046   3.982
65789SOL     OW97392  12.572   9.417   4.150
65789SOL    HW197393  12.548   9.380   4.060
65789SOL    HW297394  12.671   9.433   4.154
65790SOL     OW97395  11.421  11.095   4.965
65790SOL    HW197396  11.478  11.030   5.015
65790SOL    HW297397  11.405  11.062   4.872
65791SOL     OW97398  12.112  11.008   4.628
65791SOL    HW197399  12.192  10.951   4.649
65791SOL    HW297400  12.063  10.968   4.551
65792SOL     OW97401  11.554  10.010   4.204
65792SOL    HW197402  11.599   9.920   4.201
65792SOL    HW297403  11.460   9.999   4.237
65793SOL     OW97404  11.786   9.432   3.841
65793SOL    HW197405  11.884   9.410   3.848
65793SOL    HW297406  11.755   9.415   3.748
65794SOL     OW97407  11.953   9.574   5.473
65794SOL    HW197408  12.020   9.513   5.516
65794SOL    HW297409  11.880   9.593   5.538
65795SOL     OW97410  12.060  10.824   4.919
65795SOL    HW197411  12.037  10.799   4.825
65795SOL    HW297412  12.121  10.755   4.958
65796SOL     OW97413  12.523   9.900   5.157
65796SOL    HW197414  12.551   9.857   5.242
65796SOL    HW297415  12.548   9.996   5.158
65797SOL     OW97416  11.975  10.712   4.648
65797SOL    HW197417  12.065  10.726   4.606
65797SOL    HW297418  11.904  10.714   4.577
65798SOL     OW97419  12.094   9.813   4.623
65798SOL    HW197420  12.069   9.804   4.527
65798SOL    HW297421  12.142   9.731   4.654
65799SOL     OW97422  11.711   9.374   4.236
65799SOL    HW197423  11.630   9.375   4.294
65799SOL    HW297424  11.714   9.457   4.181
65800SOL     OW97425  12.606  10.498   3.765
65800SOL    HW197426  12.638  10.422   3.822
65800SOL    HW297427  12.514  10.525   3.795
65801SOL     OW97428  11.469   9.345   3.895
65801SOL    HW197429  11.518   9.429   3.874
65801SOL    HW297430  11.531   9.280   3.940
65802SOL     OW97431  12.107   9.546   4.204
65802SOL    HW197432  12.059   9.587   4.126
65802SOL    HW297433  12.206   9.544   4.185
65803SOL     OW97434  12.248   9.993   5.188
65803SOL    HW197435  12.168   9.932   5.191
65803SOL    HW297436  12.329   9.940   5.164
65804SOL     OW97437  12.399  10.880   4.517
65804SOL    HW197438  12.420  10.954   4.452
65804SOL    HW297439  12.467  10.880   4.590
65805SOL     OW97440  11.631  10.462   4.465
65805SOL    HW197441  11.560  10.435   4.530
65805SOL    HW297442  11.605  10.434   4.372
65806SOL     OW97443  12.443  11.107   4.315
65806SOL    HW197444  12.487  11.171   4.251
65806SOL    HW297445  12.393  11.159   4.385
65807SOL     OW97446  12.204   9.859   3.740
65807SOL    HW197447  12.163   9.941   3.701
65807SOL    HW297448  12.268   9.885   3.813
65808SOL     OW97449  11.250   9.866   5.110
65808SOL    HW197450  11.342   9.865   5.069
65808SOL    HW297451  11.244   9.940   5.177
65809SOL     OW97452  11.733   9.532   4.871
65809SOL    HW197453  11.771   9.448   4.908
65809SOL    HW297454  11.645   9.551   4.915
65810SOL     OW97455  12.038   9.764   4.366
65810SOL    HW197456  12.006   9.836   4.304
65810SOL    HW297457  12.062   9.683   4.313
65811SOL     OW97458  12.189   9.349   4.477
65811SOL    HW197459  12.117   9.354   4.408
65811SOL    HW297460  12.165   9.280   4.546
65812SOL     OW97461  12.601  10.483   4.591
65812SOL    HW197462  12.546  10.399   4.584
65812SOL    HW297463  12.627  10.512   4.499
65813SOL     OW97464  11.660  10.695   3.898
65813SOL    HW197465  11.573  10.680   3.945
65813SOL    HW297466  11.643  10.721   3.803
65814SOL     OW97467  12.562   9.885   3.802
65814SOL    HW197468  12.508   9.864   3.883
65814SOL    HW297469  12.653   9.844   3.811
65815SOL     OW97470  11.699   9.566   4.052
65815SOL    HW197471  11.726   9.507   3.977
65815SOL    HW297472  11.699   9.661   4.021
65816SOL     OW97473  12.236  10.657   5.064
65816SOL    HW197474  12.156  10.634   5.119
65816SOL    HW297475  12.319  10.631   5.113
65817SOL     OW97476  12.764  10.939   5.349
65817SOL    HW197477  12.791  10.973   5.259
65817SOL    HW297478  12.843  10.901   5.395
65818SOL     OW97479  12.283  10.505   4.824
65818SOL    HW197480  12.243  10.549   4.905
65818SOL    HW297481  12.242  10.542   4.741
65819SOL     OW97482  12.087   9.399   5.126
65819SOL    HW197483  12.112   9.379   5.031
65819SOL    HW297484  12.159   9.455   5.168
65820SOL     OW97485  12.152  10.426   5.443
65820SOL    HW197486  12.053  10.432   5.453
65820SOL    HW297487  12.175  10.346   5.387
65821SOL     OW97488  11.877  10.360   4.092
65821SOL    HW197489  11.863  10.367   4.191
65821SOL    HW297490  11.961  10.309   4.074
65822SOL     OW97491  11.582  10.123   4.975
65822SOL    HW197492  11.668  10.135   5.025
65822SOL    HW297493  11.540  10.036   5.002
65823SOL     OW97494  12.446   9.696   4.986
65823SOL    HW197495  12.467   9.770   5.050
65823SOL    HW297496  12.357   9.713   4.943
65824SOL     OW97497  11.236  10.874   5.055
65824SOL    HW197498  11.190  10.956   5.021
65824SOL    HW297499  11.334  10.893   5.064
65825SOL     OW97500  11.539  10.410   4.225
65825SOL    HW197501  11.532  10.493   4.169
65825SOL    HW297502  11.543  10.330   4.165
65826SOL     OW97503  11.738   9.847   4.589
65826SOL    HW197504  11.750   9.913   4.515
65826SOL    HW297505  11.784   9.881   4.672
65827SOL     OW97506  12.424  10.658   4.112
65827SOL    HW197507  12.474  10.735   4.152
65827SOL    HW297508  12.329  10.660   4.144
65828SOL     OW97509  12.444  10.755   4.866
65828SOL    HW197510  12.491  10.768   4.953
65828SOL    HW297511  12.378  10.681   4.875
65829SOL     OW97512  11.526  10.820   5.053
65829SOL    HW197513  11.505  10.776   4.966
65829SOL    HW297514  11.623  10.846   5.056
65830SOL     OW97515  11.574  10.061   5.322
65830SOL    HW197516  11.642  10.116   5.275
65830SOL    HW297517  11.614   9.973   5.349
65831SOL     OW97518  12.185   9.415   5.494
65831SOL    HW197519  12.191   9.500   5.442
65831SOL    HW297520  12.217   9.339   5.437
65832SOL     OW97521  11.676   9.360   5.464
65832SOL    HW197522  11.634   9.303   5.394
65832SOL    HW297523  11.610   9.429   5.496
65833SOL     OW97524  11.745  10.180   4.753
65833SOL    HW197525  11.789  10.269   4.744
65833SOL    HW297526  11.682  10.180   4.830
65834SOL     OW97527  12.532  10.172   4.769
65834SOL    HW197528  12.457  10.172   4.703
65834SOL    HW297529  12.569  10.080   4.778
65835SOL     OW97530  12.381   9.835   3.999
65835SOL    HW197531  12.394   9.751   4.053
65835SOL    HW297532  12.352   9.909   4.059
65836SOL     OW97533  11.479   9.523   4.955
65836SOL    HW197534  11.456   9.560   5.045
65836SOL    HW297535  11.449   9.428   4.949
65837SOL     OW97536  11.209  10.620   5.006
65837SOL    HW197537  11.262  10.571   5.074
65837SOL    HW297538  11.231  10.718   5.011
65838SOL     OW97539  11.904   9.944   4.788
65838SOL    HW197540  11.963   9.918   4.712
65838SOL    HW297541  11.876  10.040   4.777
65839SOL     OW97542  11.479   9.373   4.342
65839SOL    HW197543  11.468   9.467   4.375
65839SOL    HW297544  11.474   9.310   4.419
65840SOL     OW97545  12.794   9.677   4.098
65840SOL    HW197546  12.796   9.601   4.162
65840SOL    HW297547  12.746   9.754   4.138
65841SOL     OW97548  12.195  10.076   4.690
65841SOL    HW197549  12.210  10.097   4.786
65841SOL    HW297550  12.165   9.981   4.681
65842SOL     OW97551  12.152  10.883   5.424
65842SOL    HW197552  12.132  10.927   5.336
65842SOL    HW297553  12.191  10.792   5.408
65843SOL     OW97554  11.522  10.208   5.528
65843SOL    HW197555  11.598  10.252   5.576
65843SOL    HW297556  11.557  10.161   5.446
65844SOL     OW97557  12.475  10.148   3.766
65844SOL    HW197558  12.509  10.055   3.781
65844SOL    HW297559  12.493  10.175   3.671
65845SOL     OW97560  12.240  10.643   4.573
65845SOL    HW197561  12.247  10.559   4.518
65845SOL    HW297562  12.302  10.712   4.537
65846SOL     OW97563  11.491  10.120   4.673
65846SOL    HW197564  11.584  10.156   4.678
65846SOL    HW297565  11.485  10.035   4.725
65847SOL     OW97566  11.511   9.819   4.730
65847SOL    HW197567  11.459   9.736   4.713
65847SOL    HW297568  11.588   9.824   4.666
65848SOL     OW97569  12.310   9.690   5.402
65848SOL    HW197570  12.265   9.753   5.466
65848SOL    HW297571  12.403   9.721   5.385
65849SOL     OW97572  12.332   9.517   5.201
65849SOL    HW197573  12.332   9.581   5.278
65849SOL    HW297574  12.360   9.565   5.118
65850SOL     OW97575  11.180  10.636   3.924
65850SOL    HW197576  11.087  10.657   3.893
65850SOL    HW297577  11.190  10.537   3.937
65851SOL     OW97578  11.260  11.111   4.651
65851SOL    HW197579  11.218  11.025   4.624
65851SOL    HW297580  11.354  11.114   4.617
65852SOL     OW97581  11.676  10.878   4.634
65852SOL    HW197582  11.742  10.952   4.643
65852SOL    HW297583  11.720  10.799   4.592
65853SOL     OW97584  12.174  10.106   4.962
65853SOL    HW197585  12.215  10.074   5.048
65853SOL    HW297586  12.078  10.079   4.959
65854SOL     OW97587  11.212   9.854   4.838
65854SOL    HW197588  11.297   9.821   4.797
65854SOL    HW297589  11.225   9.869   4.936
65855SOL     OW97590  11.361   9.830   5.446
65855SOL    HW197591  11.420   9.790   5.376
65855SOL    HW297592  11.303   9.901   5.405
65856SOL     OW97593  12.541  10.260   5.384
65856SOL    HW197594  12.580  10.349   5.404
65856SOL    HW297595  12.551  10.240   5.287
65857SOL     OW97596  11.987   9.882   4.049
65857SOL    HW197597  11.994   9.793   4.003
65857SOL    HW297598  11.893   9.916   4.041
65858SOL     OW97599  11.424  10.874   5.468
65858SOL    HW197600  11.394  10.931   5.544
65858SOL    HW297601  11.417  10.777   5.494
65859SOL     OW97602  11.843   9.774   4.993
65859SOL    HW197603  11.809   9.685   4.963
65859SOL    HW297604  11.869   9.828   4.913
65860SOL     OW97605  12.102  10.988   5.189
65860SOL    HW197606  12.078  10.970   5.094
65860SOL    HW297607  12.132  11.082   5.199
65861SOL     OW97608  11.645   9.810   3.915
65861SOL    HW197609  11.706   9.890   3.919
65861SOL    HW297610  11.550   9.841   3.922
65862SOL     OW97611  11.331  10.447   5.190
65862SOL    HW197612  11.353  10.386   5.266
65862SOL    HW297613  11.341  10.398   5.104
65863SOL     OW97614  12.519  10.369   4.958
65863SOL    HW197615  12.543  10.306   4.884
65863SOL    HW297616  12.429  10.409   4.940
65864SOL     OW97617  12.474  10.165   4.033
65864SOL    HW197618  12.388  10.134   4.075
65864SOL    HW297619  12.470  10.151   3.934
65865SOL     OW97620  12.424  11.041   4.852
65865SOL    HW197621  12.508  11.046   4.798
65865SOL    HW297622  12.401  10.945   4.870
65866SOL     OW97623  11.255  10.568   4.746
65866SOL    HW197624  11.250  10.567   4.846
65866SOL    HW297625  11.172  10.527   4.708
65867SOL     OW97626  11.860  10.972   5.440
65867SOL    HW197627  11.804  11.053   5.449
65867SOL    HW297628  11.912  10.976   5.354
65868SOL     OW97629  12.898   9.445   4.247
65868SOL    HW197630  12.971   9.428   4.180
65868SOL    HW297631  12.867   9.358   4.285
65869SOL     OW97632  12.560  10.883   4.201
65869SOL    HW197633  12.627  10.895   4.127
65869SOL    HW297634  12.520  10.972   4.224
65870SOL     OW97635  11.302  11.104   5.575
65870SOL    HW197636  11.261  11.030   5.628
65870SOL    HW297637  11.366  11.155   5.633
65871SOL     OW97638  12.452  10.237   4.396
65871SOL    HW197639  12.512  10.156   4.398
65871SOL    HW297640  12.492  10.306   4.336
65872SOL     OW97641  12.002  10.583   5.146
65872SOL    HW197642  11.997  10.616   5.241
65872SOL    HW297643  11.916  10.602   5.100
65873SOL     OW97644  11.844  10.926   3.878
65873SOL    HW197645  11.853  10.936   3.779
65873SOL    HW297646  11.804  10.837   3.899
65874SOL     OW97647  11.435   9.636   4.444
65874SOL    HW197648  11.356   9.687   4.410
65874SOL    HW297649  11.426   9.621   4.542
65875SOL     OW97650  12.366  10.922   3.755
65875SOL    HW197651  12.372  10.829   3.792
65875SOL    HW297652  12.307  10.922   3.675
65876SOL     OW97653  11.994  10.312   5.096
65876SOL    HW197654  12.034  10.311   5.004
65876SOL    HW297655  12.004  10.404   5.136
65877SOL     OW97656  12.088  10.220   4.015
65877SOL    HW197657  12.151  10.258   3.947
65877SOL    HW297658  12.128  10.137   4.054
65878SOL     OW97659  11.544  10.598   5.214
65878SOL    HW197660  11.531  10.691   5.180
65878SOL    HW297661  11.460  10.546   5.201
65879SOL     OW97662  12.211  10.408   4.420
65879SOL    HW197663  12.141  10.361   4.474
65879SOL    HW297664  12.270  10.340   4.377
65880SOL     OW97665  12.186   9.546   4.695
65880SOL    HW197666  12.178   9.510   4.602
65880SOL    HW297667  12.184   9.470   4.760
65881SOL     OW97668  11.762  10.797   4.215
65881SOL    HW197669  11.804  10.739   4.145
65881SOL    HW297670  11.718  10.876   4.171
65882SOL     OW97671  11.427  10.658   4.014
65882SOL    HW197672  11.331  10.659   3.987
65882SOL    HW297673  11.439  10.711   4.098
65883SOL     OW97674  11.277  10.323   5.450
65883SOL    HW197675  11.200  10.290   5.504
65883SOL    HW297676  11.362  10.293   5.492
65884SOL     OW97677  11.844   9.513   5.213
65884SOL    HW197678  11.934   9.497   5.173
65884SOL    HW297679  11.852   9.518   5.312
65885SOL     OW97680  11.247   9.655   3.757
65885SOL    HW197681  11.155   9.627   3.728
65885SOL    HW297682  11.278   9.732   3.701
65886SOL     OW97683  12.612  10.166   5.122
65886SOL    HW197684  12.555  10.218   5.059
65886SOL    HW297685  12.708  10.178   5.098
65887SOL     OW97686  11.244   9.476   4.042
65887SOL    HW197687  11.227   9.559   3.988
65887SOL    HW297688  11.334   9.439   4.020
65888SOL     OW97689  12.355  10.645   3.843
65888SOL    HW197690  12.256  10.634   3.845
65888SOL    HW297691  12.389  10.660   3.936
65889SOL     OW97692  11.785  10.152   5.155
65889SOL    HW197693  11.841  10.233   5.138
65889SOL    HW297694  11.844  10.072   5.158
65890SOL     OW97695  11.888   9.875   5.432
65890SOL    HW197696  11.907   9.940   5.506
65890SOL    HW297697  11.948   9.795   5.441
65891SOL     OW97698  12.622  10.530   5.357
65891SOL    HW197699  12.613  10.520   5.456
65891SOL    HW297700  12.718  10.523   5.331
65892SOL     OW97701  11.562  11.051   5.284
65892SOL    HW197702  11.471  11.092   5.282
65892SOL    HW297703  11.555  10.957   5.316
65893SOL     OW97704  12.397   9.635   4.173
65893SOL    HW197705  12.462   9.561   4.162
65893SOL    HW297706  12.417   9.685   4.257
65894SOL     OW97707  11.766  10.055   4.376
65894SOL    HW197708  11.816  10.140   4.357
65894SOL    HW297709  11.678  10.057   4.328
65895SOL     OW97710  12.031  10.684   3.740
65895SOL    HW197711  11.985  10.699   3.828
65895SOL    HW297712  12.075  10.769   3.710
65896SOL     OW97713  11.833  11.100   4.677
65896SOL    HW197714  11.787  11.188   4.664
65896SOL    HW297715  11.932  11.112   4.670
65897SOL     OW97716  12.031  10.266   4.585
65897SOL    HW197717  12.085  10.197   4.633
65897SOL    HW297718  11.999  10.335   4.651
65898SOL     OW97719  12.255  10.294   3.811
65898SOL    HW197720  12.232  10.347   3.729
65898SOL    HW297721  12.336  10.238   3.792
65899SOL     OW97722  11.393  10.624   5.568
65899SOL    HW197723  11.328  10.551   5.547
65899SOL    HW297724  11.397  10.638   5.666
65900SOL     OW97725  11.251  10.550   4.377
65900SOL    HW197726  11.250  10.503   4.465
65900SOL    HW297727  11.333  10.522   4.326
65901SOL     OW97728  11.844  10.701   5.348
65901SOL    HW197729  11.766  10.651   5.386
65901SOL    HW297730  11.841  10.796   5.379
65902SOL     OW97731  11.600   9.734   4.244
65902SOL    HW197732  11.630   9.662   4.182
65902SOL    HW297733  11.561   9.694   4.327
65903SOL     OW97734  12.877  10.797   4.828
65903SOL    HW197735  12.784  10.772   4.801
65903SOL    HW297736  12.903  10.747   4.910
65904SOL     OW97737  11.489   9.857   5.004
65904SOL    HW197738  11.527   9.798   5.076
65904SOL    HW297739  11.529   9.831   4.916
65905SOL     OW97740  11.984  10.896   4.411
65905SOL    HW197741  12.016  10.906   4.317
65905SOL    HW297742  11.905  10.834   4.413
65906SOL     OW97743  12.596   9.524   4.836
65906SOL    HW197744  12.648   9.459   4.891
65906SOL    HW297745  12.547   9.587   4.897
65907SOL     OW97746  12.173   9.344   4.878
65907SOL    HW197747  12.110   9.272   4.847
65907SOL    HW297748  12.266   9.308   4.878
65908SOL     OW97749  11.942  10.640   4.025
65908SOL    HW197750  11.896  10.553   4.042
65908SOL    HW297751  12.033  10.637   4.066
65909SOL     OW97752  11.790  10.877   5.008
65909SOL    HW197753  11.785  10.959   5.065
65909SOL    HW297754  11.879  10.874   4.963
65910SOL     OW97755  12.524   9.362   3.892
65910SOL    HW197756  12.559   9.321   3.808
65910SOL    HW297757  12.434   9.324   3.912
65911SOL     OW97758  12.472   9.763   4.415
65911SOL    HW197759  12.413   9.843   4.419
65911SOL    HW297760  12.487   9.728   4.508
65912SOL     OW97761  11.211  10.387   4.024
65912SOL    HW197762  11.310  10.376   4.015
65912SOL    HW297763  11.171  10.301   4.056
65913SOL     OW97764  12.047  10.956   4.061
65913SOL    HW197765  11.970  10.921   4.007
65913SOL    HW297766  12.015  11.027   4.123
65914SOL     OW97767  11.402   9.938   5.699
65914SOL    HW197768  11.309   9.936   5.736
65914SOL    HW297769  11.403   9.899   5.607
65915SOL     OW97770  11.397   9.585   6.582
65915SOL    HW197771  11.432   9.568   6.674
65915SOL    HW297772  11.309   9.540   6.570
65916SOL     OW97773  11.191   9.678   6.233
65916SOL    HW197774  11.109   9.721   6.272
65916SOL    HW297775  11.163   9.605   6.170
65917SOL     OW97776  11.741  10.585   6.751
65917SOL    HW197777  11.648  10.578   6.714
65917SOL    HW297778  11.752  10.674   6.795
65918SOL     OW97779  12.727  10.821   6.289
65918SOL    HW197780  12.670  10.805   6.370
65918SOL    HW297781  12.668  10.831   6.209
65919SOL     OW97782  12.307  10.013   6.303
65919SOL    HW197783  12.364  10.091   6.278
65919SOL    HW297784  12.247  10.039   6.379
65920SOL     OW97785  11.940  10.454   6.609
65920SOL    HW197786  11.862  10.471   6.669
65920SOL    HW297787  11.974  10.541   6.573
65921SOL     OW97788  12.022  10.108   7.409
65921SOL    HW197789  12.018  10.184   7.474
65921SOL    HW297790  12.044  10.144   7.318
65922SOL     OW97791  11.857  10.322   6.251
65922SOL    HW197792  11.926  10.306   6.321
65922SOL    HW297793  11.784  10.379   6.289
65923SOL     OW97794  11.858  10.471   7.389
65923SOL    HW197795  11.918  10.550   7.403
65923SOL    HW297796  11.772  10.502   7.348
65924SOL     OW97797  11.507  10.745   6.647
65924SOL    HW197798  11.429  10.714   6.594
65924SOL    HW297799  11.565  10.803   6.590
65925SOL     OW97800  11.610   9.702   7.085
65925SOL    HW197801  11.692   9.646   7.094
65925SOL    HW297802  11.529   9.644   7.089
65926SOL     OW97803  11.403  11.023   6.069
65926SOL    HW197804  11.437  11.100   6.123
65926SOL    HW297805  11.447  11.023   5.979
65927SOL     OW97806  12.299  10.651   7.276
65927SOL    HW197807  12.346  10.651   7.364
65927SOL    HW297808  12.251  10.564   7.265
65928SOL     OW97809  11.402  10.744   6.124
65928SOL    HW197810  11.376  10.840   6.124
65928SOL    HW297811  11.331  10.690   6.169
65929SOL     OW97812  11.412  10.401   6.472
65929SOL    HW197813  11.426  10.317   6.524
65929SOL    HW297814  11.357  10.465   6.527
65930SOL     OW97815  11.792  11.096   7.025
65930SOL    HW197816  11.700  11.079   7.060
65930SOL    HW297817  11.820  11.188   7.051
65931SOL     OW97818  11.778  10.274   5.709
65931SOL    HW197819  11.785  10.358   5.655
65931SOL    HW297820  11.824  10.287   5.797
65932SOL     OW97821  11.294   9.953   6.149
65932SOL    HW197822  11.249   9.865   6.166
65932SOL    HW297823  11.293  10.007   6.233
65933SOL     OW97824  11.199  10.906   5.703
65933SOL    HW197825  11.180  10.810   5.724
65933SOL    HW297826  11.166  10.964   5.778
65934SOL     OW97827  12.861  10.232   6.198
65934SOL    HW197828  12.956  10.203   6.206
65934SOL    HW297829  12.853  10.297   6.123
65935SOL     OW97830  11.285  10.047   7.183
65935SOL    HW197831  11.373  10.034   7.228
65935SOL    HW297832  11.272  10.144   7.161
65936SOL     OW97833  11.785  10.675   6.312
65936SOL    HW197834  11.736  10.588   6.321
65936SOL    HW297835  11.762  10.718   6.225
65937SOL     OW97836  12.465  10.538   7.009
65937SOL    HW197837  12.502  10.465   6.951
65937SOL    HW297838  12.517  10.543   7.094
65938SOL     OW97839  11.981   9.314   6.088
65938SOL    HW197840  12.021   9.405   6.079
65938SOL    HW297841  11.881   9.322   6.094
65939SOL     OW97842  11.369  10.286   6.850
65939SOL    HW197843  11.458  10.241   6.836
65939SOL    HW297844  11.296  10.221   6.831
65940SOL     OW97845  12.359  11.102   7.202
65940SOL    HW197846  12.383  11.162   7.126
65940SOL    HW297847  12.366  11.007   7.172
65941SOL     OW97848  11.489   9.561   7.387
65941SOL    HW197849  11.560   9.632   7.393
65941SOL    HW297850  11.401   9.600   7.415
65942SOL     OW97851  12.638  10.727   6.539
65942SOL    HW197852  12.579  10.733   6.619
65942SOL    HW297853  12.623  10.639   6.493
65943SOL     OW97854  11.770  10.039   5.856
65943SOL    HW197855  11.794  10.108   5.788
65943SOL    HW297856  11.692  10.072   5.910
65944SOL     OW97857  12.453   9.655   6.530
65944SOL    HW197858  12.367   9.605   6.517
65944SOL    HW297859  12.515   9.601   6.586
65945SOL     OW97860  11.979   9.915   7.051
65945SOL    HW197861  11.932   9.912   7.140
65945SOL    HW297862  11.928   9.860   6.985
65946SOL     OW97863  12.566   9.779   7.260
65946SOL    HW197864  12.546   9.822   7.348
65946SOL    HW297865  12.644   9.717   7.269
65947SOL     OW97866  12.145  10.200   7.158
65947SOL    HW197867  12.191  10.116   7.129
65947SOL    HW297868  12.089  10.234   7.083
65948SOL     OW97869  12.163   9.720   6.828
65948SOL    HW197870  12.086   9.754   6.882
65948SOL    HW297871  12.129   9.669   6.749
65949SOL     OW97872  12.213  10.011   6.015
65949SOL    HW197873  12.239  10.007   6.111
65949SOL    HW297874  12.128   9.960   6.001
65950SOL     OW97875  11.248  10.121   6.375
65950SOL    HW197876  11.347  10.109   6.384
65950SOL    HW297877  11.224  10.216   6.396
65951SOL     OW97878  11.302  11.131   7.157
65951SOL    HW197879  11.292  11.116   7.256
65951SOL    HW297880  11.216  11.167   7.121
65952SOL     OW97881  12.037   9.658   5.781
65952SOL    HW197882  12.096   9.721   5.732
65952SOL    HW297883  12.056   9.564   5.752
65953SOL     OW97884  12.534  10.454   6.131
65953SOL    HW197885  12.617  10.425   6.083
65953SOL    HW297886  12.485  10.521   6.075
65954SOL     OW97887  11.722   9.506   6.471
65954SOL    HW197888  11.717   9.501   6.571
65954SOL    HW297889  11.724   9.602   6.442
65955SOL     OW97890  12.180  10.766   6.063
65955SOL    HW197891  12.134  10.838   6.011
65955SOL    HW297892  12.176  10.786   6.161
65956SOL     OW97893  11.523  11.111   6.439
65956SOL    HW197894  11.573  11.025   6.445
65956SOL    HW297895  11.588  11.188   6.436
65957SOL     OW97896  12.399  10.860   7.092
65957SOL    HW197897  12.405  10.783   7.156
65957SOL    HW297898  12.347  10.834   7.012
65958SOL     OW97899  11.493  10.253   5.828
65958SOL    HW197900  11.575  10.292   5.786
65958SOL    HW297901  11.466  10.171   5.779
65959SOL     OW97902  11.633  10.576   7.313
65959SOL    HW197903  11.583  10.577   7.227
65959SOL    HW297904  11.570  10.558   7.389
65960SOL     OW97905  12.283  11.086   5.823
65960SOL    HW197906  12.223  11.024   5.873
65960SOL    HW297907  12.314  11.042   5.738
65961SOL     OW97908  11.374   9.595   7.084
65961SOL    HW197909  11.294   9.655   7.071
65961SOL    HW297910  11.364   9.546   7.170
65962SOL     OW97911  11.636  11.053   5.909
65962SOL    HW197912  11.669  11.092   5.995
65962SOL    HW297913  11.712  11.046   5.844
65963SOL     OW97914  12.572   9.417   6.012
65963SOL    HW197915  12.548   9.380   5.922
65963SOL    HW297916  12.671   9.433   6.016
65964SOL     OW97917  11.421  11.095   6.827
65964SOL    HW197918  11.478  11.030   6.877
65964SOL    HW297919  11.405  11.062   6.734
65965SOL     OW97920  12.112  11.008   6.490
65965SOL    HW197921  12.192  10.951   6.511
65965SOL    HW297922  12.063  10.968   6.413
65966SOL     OW97923  11.554  10.010   6.066
65966SOL    HW197924  11.599   9.920   6.063
65966SOL    HW297925  11.460   9.999   6.099
65967SOL     OW97926  11.786   9.432   5.703
65967SOL    HW197927  11.884   9.410   5.710
65967SOL    HW297928  11.755   9.415   5.610
65968SOL     OW97929  11.953   9.574   7.335
65968SOL    HW197930  12.020   9.513   7.378
65968SOL    HW297931  11.880   9.593   7.400
65969SOL     OW97932  12.060  10.824   6.781
65969SOL    HW197933  12.037  10.799   6.687
65969SOL    HW297934  12.121  10.755   6.820
65970SOL     OW97935  12.523   9.900   7.019
65970SOL    HW197936  12.551   9.857   7.104
65970SOL    HW297937  12.548   9.996   7.020
65971SOL     OW97938  11.975  10.712   6.510
65971SOL    HW197939  12.065  10.726   6.468
65971SOL    HW297940  11.904  10.714   6.439
65972SOL     OW97941  12.094   9.813   6.485
65972SOL    HW197942  12.069   9.804   6.389
65972SOL    HW297943  12.142   9.731   6.516
65973SOL     OW97944  11.711   9.374   6.098
65973SOL    HW197945  11.630   9.375   6.156
65973SOL    HW297946  11.714   9.457   6.043
65974SOL     OW97947  12.606  10.498   5.627
65974SOL    HW197948  12.638  10.422   5.684
65974SOL    HW297949  12.514  10.525   5.657
65975SOL     OW97950  11.469   9.345   5.757
65975SOL    HW197951  11.518   9.429   5.736
65975SOL    HW297952  11.531   9.280   5.802
65976SOL     OW97953  12.107   9.546   6.066
65976SOL    HW197954  12.059   9.587   5.988
65976SOL    HW297955  12.206   9.544   6.047
65977SOL     OW97956  12.248   9.993   7.050
65977SOL    HW197957  12.168   9.932   7.053
65977SOL    HW297958  12.329   9.940   7.026
65978SOL     OW97959  12.399  10.880   6.379
65978SOL    HW197960  12.420  10.954   6.314
65978SOL    HW297961  12.467  10.880   6.452
65979SOL     OW97962  11.631  10.462   6.327
65979SOL    HW197963  11.560  10.435   6.392
65979SOL    HW297964  11.605  10.434   6.234
65980SOL     OW97965  12.443  11.107   6.177
65980SOL    HW197966  12.487  11.171   6.113
65980SOL    HW297967  12.393  11.159   6.247
65981SOL     OW97968  12.204   9.859   5.602
65981SOL    HW197969  12.163   9.941   5.563
65981SOL    HW297970  12.268   9.885   5.675
65982SOL     OW97971  11.250   9.866   6.972
65982SOL    HW197972  11.342   9.865   6.931
65982SOL    HW297973  11.244   9.940   7.039
65983SOL     OW97974  11.733   9.532   6.733
65983SOL    HW197975  11.771   9.448   6.770
65983SOL    HW297976  11.645   9.551   6.777
65984SOL     OW97977  12.038   9.764   6.228
65984SOL    HW197978  12.006   9.836   6.166
65984SOL    HW297979  12.062   9.683   6.175
65985SOL     OW97980  12.189   9.349   6.339
65985SOL    HW197981  12.117   9.354   6.270
65985SOL    HW297982  12.165   9.280   6.408
65986SOL     OW97983  12.601  10.483   6.453
65986SOL    HW197984  12.546  10.399   6.446
65986SOL    HW297985  12.627  10.512   6.361
65987SOL     OW97986  11.660  10.695   5.760
65987SOL    HW197987  11.573  10.680   5.807
65987SOL    HW297988  11.643  10.721   5.665
65988SOL     OW97989  12.562   9.885   5.664
65988SOL    HW197990  12.508   9.864   5.745
65988SOL    HW297991  12.653   9.844   5.673
65989SOL     OW97992  11.699   9.566   5.914
65989SOL    HW197993  11.726   9.507   5.839
65989SOL    HW297994  11.699   9.661   5.883
65990SOL     OW97995  12.236  10.657   6.926
65990SOL    HW197996  12.156  10.634   6.981
65990SOL    HW297997  12.319  10.631   6.975
65991SOL     OW97998  12.764  10.939   7.211
65991SOL    HW197999  12.791  10.973   7.121
65991SOL    HW298000  12.843  10.901   7.257
65992SOL     OW98001  12.283  10.505   6.686
65992SOL    HW198002  12.243  10.549   6.767
65992SOL    HW298003  12.242  10.542   6.603
65993SOL     OW98004  12.087   9.399   6.988
65993SOL    HW198005  12.112   9.379   6.893
65993SOL    HW298006  12.159   9.455   7.030
65994SOL     OW98007  12.152  10.426   7.305
65994SOL    HW198008  12.053  10.432   7.315
65994SOL    HW298009  12.175  10.346   7.249
65995SOL     OW98010  11.877  10.360   5.954
65995SOL    HW198011  11.863  10.367   6.053
65995SOL    HW298012  11.961  10.309   5.936
65996SOL     OW98013  11.582  10.123   6.837
65996SOL    HW198014  11.668  10.135   6.887
65996SOL    HW298015  11.540  10.036   6.864
65997SOL     OW98016  12.446   9.696   6.848
65997SOL    HW198017  12.467   9.770   6.912
65997SOL    HW298018  12.357   9.713   6.805
65998SOL     OW98019  11.236  10.874   6.917
65998SOL    HW198020  11.190  10.956   6.883
65998SOL    HW298021  11.334  10.893   6.926
65999SOL     OW98022  11.539  10.410   6.087
65999SOL    HW198023  11.532  10.493   6.031
65999SOL    HW298024  11.543  10.330   6.027
66000SOL     OW98025  11.738   9.847   6.451
66000SOL    HW198026  11.750   9.913   6.377
66000SOL    HW298027  11.784   9.881   6.534
66001SOL     OW98028  12.424  10.658   5.974
66001SOL    HW198029  12.474  10.735   6.014
66001SOL    HW298030  12.329  10.660   6.006
66002SOL     OW98031  12.444  10.755   6.728
66002SOL    HW198032  12.491  10.768   6.815
66002SOL    HW298033  12.378  10.681   6.737
66003SOL     OW98034  11.526  10.820   6.915
66003SOL    HW198035  11.505  10.776   6.828
66003SOL    HW298036  11.623  10.846   6.918
66004SOL     OW98037  11.574  10.061   7.184
66004SOL    HW198038  11.642  10.116   7.137
66004SOL    HW298039  11.614   9.973   7.211
66005SOL     OW98040  12.185   9.415   7.356
66005SOL    HW198041  12.191   9.500   7.304
66005SOL    HW298042  12.217   9.339   7.299
66006SOL     OW98043  11.676   9.360   7.326
66006SOL    HW198044  11.634   9.303   7.256
66006SOL    HW298045  11.610   9.429   7.358
66007SOL     OW98046  11.745  10.180   6.615
66007SOL    HW198047  11.789  10.269   6.606
66007SOL    HW298048  11.682  10.180   6.692
66008SOL     OW98049  12.532  10.172   6.631
66008SOL    HW198050  12.457  10.172   6.565
66008SOL    HW298051  12.569  10.080   6.640
66009SOL     OW98052  12.381   9.835   5.861
66009SOL    HW198053  12.394   9.751   5.915
66009SOL    HW298054  12.352   9.909   5.921
66010SOL     OW98055  11.479   9.523   6.817
66010SOL    HW198056  11.456   9.560   6.907
66010SOL    HW298057  11.449   9.428   6.811
66011SOL     OW98058  11.209  10.620   6.868
66011SOL    HW198059  11.262  10.571   6.936
66011SOL    HW298060  11.231  10.718   6.873
66012SOL     OW98061  11.904   9.944   6.650
66012SOL    HW198062  11.963   9.918   6.574
66012SOL    HW298063  11.876  10.040   6.639
66013SOL     OW98064  11.479   9.373   6.204
66013SOL    HW198065  11.468   9.467   6.237
66013SOL    HW298066  11.474   9.310   6.281
66014SOL     OW98067  12.794   9.677   5.960
66014SOL    HW198068  12.796   9.601   6.024
66014SOL    HW298069  12.746   9.754   6.000
66015SOL     OW98070  12.195  10.076   6.552
66015SOL    HW198071  12.210  10.097   6.648
66015SOL    HW298072  12.165   9.981   6.543
66016SOL     OW98073  12.152  10.883   7.286
66016SOL    HW198074  12.132  10.927   7.198
66016SOL    HW298075  12.191  10.792   7.270
66017SOL     OW98076  11.522  10.208   7.390
66017SOL    HW198077  11.598  10.252   7.438
66017SOL    HW298078  11.557  10.161   7.308
66018SOL     OW98079  12.475  10.148   5.628
66018SOL    HW198080  12.509  10.055   5.643
66018SOL    HW298081  12.493  10.175   5.533
66019SOL     OW98082  12.240  10.643   6.435
66019SOL    HW198083  12.247  10.559   6.380
66019SOL    HW298084  12.302  10.712   6.399
66020SOL     OW98085  11.491  10.120   6.535
66020SOL    HW198086  11.584  10.156   6.540
66020SOL    HW298087  11.485  10.035   6.587
66021SOL     OW98088  11.511   9.819   6.592
66021SOL    HW198089  11.459   9.736   6.575
66021SOL    HW298090  11.588   9.824   6.528
66022SOL     OW98091  12.310   9.690   7.264
66022SOL    HW198092  12.265   9.753   7.328
66022SOL    HW298093  12.403   9.721   7.247
66023SOL     OW98094  12.332   9.517   7.063
66023SOL    HW198095  12.332   9.581   7.140
66023SOL    HW298096  12.360   9.565   6.980
66024SOL     OW98097  11.180  10.636   5.786
66024SOL    HW198098  11.087  10.657   5.755
66024SOL    HW298099  11.190  10.537   5.799
66025SOL     OW98100  11.260  11.111   6.513
66025SOL    HW198101  11.218  11.025   6.486
66025SOL    HW298102  11.354  11.114   6.479
66026SOL     OW98103  11.676  10.878   6.496
66026SOL    HW198104  11.742  10.952   6.505
66026SOL    HW298105  11.720  10.799   6.454
66027SOL     OW98106  12.174  10.106   6.824
66027SOL    HW198107  12.215  10.074   6.910
66027SOL    HW298108  12.078  10.079   6.821
66028SOL     OW98109  11.212   9.854   6.700
66028SOL    HW198110  11.297   9.821   6.659
66028SOL    HW298111  11.225   9.869   6.798
66029SOL     OW98112  11.361   9.830   7.308
66029SOL    HW198113  11.420   9.790   7.238
66029SOL    HW298114  11.303   9.901   7.267
66030SOL     OW98115  12.541  10.260   7.246
66030SOL    HW198116  12.580  10.349   7.266
66030SOL    HW298117  12.551  10.240   7.149
66031SOL     OW98118  11.987   9.882   5.911
66031SOL    HW198119  11.994   9.793   5.865
66031SOL    HW298120  11.893   9.916   5.903
66032SOL     OW98121  11.424  10.874   7.330
66032SOL    HW198122  11.394  10.931   7.406
66032SOL    HW298123  11.417  10.777   7.356
66033SOL     OW98124  11.843   9.774   6.855
66033SOL    HW198125  11.809   9.685   6.825
66033SOL    HW298126  11.869   9.828   6.775
66034SOL     OW98127  12.102  10.988   7.051
66034SOL    HW198128  12.078  10.970   6.956
66034SOL    HW298129  12.132  11.082   7.061
66035SOL     OW98130  11.645   9.810   5.777
66035SOL    HW198131  11.706   9.890   5.781
66035SOL    HW298132  11.550   9.841   5.784
66036SOL     OW98133  11.331  10.447   7.052
66036SOL    HW198134  11.353  10.386   7.128
66036SOL    HW298135  11.341  10.398   6.966
66037SOL     OW98136  12.519  10.369   6.820
66037SOL    HW198137  12.543  10.306   6.746
66037SOL    HW298138  12.429  10.409   6.802
66038SOL     OW98139  12.474  10.165   5.895
66038SOL    HW198140  12.388  10.134   5.937
66038SOL    HW298141  12.470  10.151   5.796
66039SOL     OW98142  12.424  11.041   6.714
66039SOL    HW198143  12.508  11.046   6.660
66039SOL    HW298144  12.401  10.945   6.732
66040SOL     OW98145  11.255  10.568   6.608
66040SOL    HW198146  11.250  10.567   6.708
66040SOL    HW298147  11.172  10.527   6.570
66041SOL     OW98148  11.860  10.972   7.302
66041SOL    HW198149  11.804  11.053   7.311
66041SOL    HW298150  11.912  10.976   7.216
66042SOL     OW98151  12.898   9.445   6.109
66042SOL    HW198152  12.971   9.428   6.042
66042SOL    HW298153  12.867   9.358   6.147
66043SOL     OW98154  12.560  10.883   6.063
66043SOL    HW198155  12.627  10.895   5.989
66043SOL    HW298156  12.520  10.972   6.086
66044SOL     OW98157  11.302  11.104   7.437
66044SOL    HW198158  11.261  11.030   7.490
66044SOL    HW298159  11.366  11.155   7.495
66045SOL     OW98160  12.452  10.237   6.258
66045SOL    HW198161  12.512  10.156   6.260
66045SOL    HW298162  12.492  10.306   6.198
66046SOL     OW98163  12.002  10.583   7.008
66046SOL    HW198164  11.997  10.616   7.103
66046SOL    HW298165  11.916  10.602   6.962
66047SOL     OW98166  11.844  10.926   5.740
66047SOL    HW198167  11.853  10.936   5.641
66047SOL    HW298168  11.804  10.837   5.761
66048SOL     OW98169  11.435   9.636   6.306
66048SOL    HW198170  11.356   9.687   6.272
66048SOL    HW298171  11.426   9.621   6.404
66049SOL     OW98172  12.366  10.922   5.617
66049SOL    HW198173  12.372  10.829   5.654
66049SOL    HW298174  12.307  10.922   5.537
66050SOL     OW98175  11.994  10.312   6.958
66050SOL    HW198176  12.034  10.311   6.866
66050SOL    HW298177  12.004  10.404   6.998
66051SOL     OW98178  12.088  10.220   5.877
66051SOL    HW198179  12.151  10.258   5.809
66051SOL    HW298180  12.128  10.137   5.916
66052SOL     OW98181  11.544  10.598   7.076
66052SOL    HW198182  11.531  10.691   7.042
66052SOL    HW298183  11.460  10.546   7.063
66053SOL     OW98184  12.211  10.408   6.282
66053SOL    HW198185  12.141  10.361   6.336
66053SOL    HW298186  12.270  10.340   6.239
66054SOL     OW98187  12.186   9.546   6.557
66054SOL    HW198188  12.178   9.510   6.464
66054SOL    HW298189  12.184   9.470   6.622
66055SOL     OW98190  11.762  10.797   6.077
66055SOL    HW198191  11.804  10.739   6.007
66055SOL    HW298192  11.718  10.876   6.033
66056SOL     OW98193  11.427  10.658   5.876
66056SOL    HW198194  11.331  10.659   5.849
66056SOL    HW298195  11.439  10.711   5.960
66057SOL     OW98196  11.277  10.323   7.312
66057SOL    HW198197  11.200  10.290   7.366
66057SOL    HW298198  11.362  10.293   7.354
66058SOL     OW98199  11.844   9.513   7.075
66058SOL    HW198200  11.934   9.497   7.035
66058SOL    HW298201  11.852   9.518   7.174
66059SOL     OW98202  11.247   9.655   5.619
66059SOL    HW198203  11.155   9.627   5.590
66059SOL    HW298204  11.278   9.732   5.563
66060SOL     OW98205  12.612  10.166   6.984
66060SOL    HW198206  12.555  10.218   6.921
66060SOL    HW298207  12.708  10.178   6.960
66061SOL     OW98208  11.244   9.476   5.904
66061SOL    HW198209  11.227   9.559   5.850
66061SOL    HW298210  11.334   9.439   5.882
66062SOL     OW98211  12.355  10.645   5.705
66062SOL    HW198212  12.256  10.634   5.707
66062SOL    HW298213  12.389  10.660   5.798
66063SOL     OW98214  11.785  10.152   7.017
66063SOL    HW198215  11.841  10.233   7.000
66063SOL    HW298216  11.844  10.072   7.020
66064SOL     OW98217  11.888   9.875   7.294
66064SOL    HW198218  11.907   9.940   7.368
66064SOL    HW298219  11.948   9.795   7.303
66065SOL     OW98220  12.622  10.530   7.219
66065SOL    HW198221  12.613  10.520   7.318
66065SOL    HW298222  12.718  10.523   7.193
66066SOL     OW98223  11.562  11.051   7.146
66066SOL    HW198224  11.471  11.092   7.144
66066SOL    HW298225  11.555  10.957   7.178
66067SOL     OW98226  12.397   9.635   6.035
66067SOL    HW198227  12.462   9.561   6.024
66067SOL    HW298228  12.417   9.685   6.119
66068SOL     OW98229  11.766  10.055   6.238
66068SOL    HW198230  11.816  10.140   6.219
66068SOL    HW298231  11.678  10.057   6.190
66069SOL     OW98232  12.031  10.684   5.602
66069SOL    HW198233  11.985  10.699   5.690
66069SOL    HW298234  12.075  10.769   5.572
66070SOL     OW98235  11.833  11.100   6.539
66070SOL    HW198236  11.787  11.188   6.526
66070SOL    HW298237  11.932  11.112   6.532
66071SOL     OW98238  12.031  10.266   6.447
66071SOL    HW198239  12.085  10.197   6.495
66071SOL    HW298240  11.999  10.335   6.513
66072SOL     OW98241  12.255  10.294   5.673
66072SOL    HW198242  12.232  10.347   5.591
66072SOL    HW298243  12.336  10.238   5.654
66073SOL     OW98244  11.393  10.624   7.430
66073SOL    HW198245  11.328  10.551   7.409
66073SOL    HW298246  11.397  10.638   7.528
66074SOL     OW98247  11.251  10.550   6.239
66074SOL    HW198248  11.250  10.503   6.327
66074SOL    HW298249  11.333  10.522   6.188
66075SOL     OW98250  11.844  10.701   7.210
66075SOL    HW198251  11.766  10.651   7.248
66075SOL    HW298252  11.841  10.796   7.241
66076SOL     OW98253  11.600   9.734   6.106
66076SOL    HW198254  11.630   9.662   6.044
66076SOL    HW298255  11.561   9.694   6.189
66077SOL     OW98256  12.877  10.797   6.690
66077SOL    HW198257  12.784  10.772   6.663
66077SOL    HW298258  12.903  10.747   6.772
66078SOL     OW98259  11.489   9.857   6.866
66078SOL    HW198260  11.527   9.798   6.938
66078SOL    HW298261  11.529   9.831   6.778
66079SOL     OW98262  11.984  10.896   6.273
66079SOL    HW198263  12.016  10.906   6.179
66079SOL    HW298264  11.905  10.834   6.275
66080SOL     OW98265  12.596   9.524   6.698
66080SOL    HW198266  12.648   9.459   6.753
66080SOL    HW298267  12.547   9.587   6.759
66081SOL     OW98268  12.173   9.344   6.740
66081SOL    HW198269  12.110   9.272   6.709
66081SOL    HW298270  12.266   9.308   6.740
66082SOL     OW98271  11.942  10.640   5.887
66082SOL    HW198272  11.896  10.553   5.904
66082SOL    HW298273  12.033  10.637   5.928
66083SOL     OW98274  11.790  10.877   6.870
66083SOL    HW198275  11.785  10.959   6.927
66083SOL    HW298276  11.879  10.874   6.825
66084SOL     OW98277  12.524   9.362   5.754
66084SOL    HW198278  12.559   9.321   5.670
66084SOL    HW298279  12.434   9.324   5.774
66085SOL     OW98280  12.472   9.763   6.277
66085SOL    HW198281  12.413   9.843   6.281
66085SOL    HW298282  12.487   9.728   6.370
66086SOL     OW98283  11.211  10.387   5.886
66086SOL    HW198284  11.310  10.376   5.877
66086SOL    HW298285  11.171  10.301   5.918
66087SOL     OW98286  12.047  10.956   5.923
66087SOL    HW198287  11.970  10.921   5.869
66087SOL    HW298288  12.015  11.027   5.985
66088SOL     OW98289  11.402   9.938   7.561
66088SOL    HW198290  11.309   9.936   7.598
66088SOL    HW298291  11.403   9.899   7.469
66089SOL     OW98292  11.397   9.585   8.444
66089SOL    HW198293  11.432   9.568   8.536
66089SOL    HW298294  11.309   9.540   8.432
66090SOL     OW98295  11.191   9.678   8.095
66090SOL    HW198296  11.109   9.721   8.134
66090SOL    HW298297  11.163   9.605   8.032
66091SOL     OW98298  11.741  10.585   8.613
66091SOL    HW198299  11.648  10.578   8.576
66091SOL    HW298300  11.752  10.674   8.657
66092SOL     OW98301  12.727  10.821   8.151
66092SOL    HW198302  12.670  10.805   8.232
66092SOL    HW298303  12.668  10.831   8.071
66093SOL     OW98304  12.307  10.013   8.165
66093SOL    HW198305  12.364  10.091   8.140
66093SOL    HW298306  12.247  10.039   8.241
66094SOL     OW98307  11.940  10.454   8.471
66094SOL    HW198308  11.862  10.471   8.531
66094SOL    HW298309  11.974  10.541   8.435
66095SOL     OW98310  12.022  10.108   9.271
66095SOL    HW198311  12.018  10.184   9.336
66095SOL    HW298312  12.044  10.144   9.180
66096SOL     OW98313  11.857  10.322   8.113
66096SOL    HW198314  11.926  10.306   8.183
66096SOL    HW298315  11.784  10.379   8.151
66097SOL     OW98316  11.858  10.471   9.251
66097SOL    HW198317  11.918  10.550   9.265
66097SOL    HW298318  11.772  10.502   9.210
66098SOL     OW98319  11.507  10.745   8.509
66098SOL    HW198320  11.429  10.714   8.456
66098SOL    HW298321  11.565  10.803   8.452
66099SOL     OW98322  11.610   9.702   8.947
66099SOL    HW198323  11.692   9.646   8.956
66099SOL    HW298324  11.529   9.644   8.951
66100SOL     OW98325  11.403  11.023   7.931
66100SOL    HW198326  11.437  11.100   7.985
66100SOL    HW298327  11.447  11.023   7.841
66101SOL     OW98328  12.299  10.651   9.138
66101SOL    HW198329  12.346  10.651   9.226
66101SOL    HW298330  12.251  10.564   9.127
66102SOL     OW98331  11.402  10.744   7.986
66102SOL    HW198332  11.376  10.840   7.986
66102SOL    HW298333  11.331  10.690   8.031
66103SOL     OW98334  11.412  10.401   8.334
66103SOL    HW198335  11.426  10.317   8.386
66103SOL    HW298336  11.357  10.465   8.389
66104SOL     OW98337  11.792  11.096   8.887
66104SOL    HW198338  11.700  11.079   8.922
66104SOL    HW298339  11.820  11.188   8.913
66105SOL     OW98340  11.778  10.274   7.571
66105SOL    HW198341  11.785  10.358   7.517
66105SOL    HW298342  11.824  10.287   7.659
66106SOL     OW98343  11.294   9.953   8.011
66106SOL    HW198344  11.249   9.865   8.028
66106SOL    HW298345  11.293  10.007   8.095
66107SOL     OW98346  11.199  10.906   7.565
66107SOL    HW198347  11.180  10.810   7.586
66107SOL    HW298348  11.166  10.964   7.640
66108SOL     OW98349  12.861  10.232   8.060
66108SOL    HW198350  12.956  10.203   8.068
66108SOL    HW298351  12.853  10.297   7.985
66109SOL     OW98352  11.285  10.047   9.045
66109SOL    HW198353  11.373  10.034   9.090
66109SOL    HW298354  11.272  10.144   9.023
66110SOL     OW98355  11.785  10.675   8.174
66110SOL    HW198356  11.736  10.588   8.183
66110SOL    HW298357  11.762  10.718   8.087
66111SOL     OW98358  12.465  10.538   8.871
66111SOL    HW198359  12.502  10.465   8.813
66111SOL    HW298360  12.517  10.543   8.956
66112SOL     OW98361  11.981   9.314   7.950
66112SOL    HW198362  12.021   9.405   7.941
66112SOL    HW298363  11.881   9.322   7.956
66113SOL     OW98364  11.369  10.286   8.712
66113SOL    HW198365  11.458  10.241   8.698
66113SOL    HW298366  11.296  10.221   8.693
66114SOL     OW98367  12.359  11.102   9.064
66114SOL    HW198368  12.383  11.162   8.988
66114SOL    HW298369  12.366  11.007   9.034
66115SOL     OW98370  11.489   9.561   9.249
66115SOL    HW198371  11.560   9.632   9.255
66115SOL    HW298372  11.401   9.600   9.277
66116SOL     OW98373  12.638  10.727   8.401
66116SOL    HW198374  12.579  10.733   8.481
66116SOL    HW298375  12.623  10.639   8.355
66117SOL     OW98376  11.770  10.039   7.718
66117SOL    HW198377  11.794  10.108   7.650
66117SOL    HW298378  11.692  10.072   7.772
66118SOL     OW98379  12.453   9.655   8.392
66118SOL    HW198380  12.367   9.605   8.379
66118SOL    HW298381  12.515   9.601   8.448
66119SOL     OW98382  11.979   9.915   8.913
66119SOL    HW198383  11.932   9.912   9.002
66119SOL    HW298384  11.928   9.860   8.847
66120SOL     OW98385  12.566   9.779   9.122
66120SOL    HW198386  12.546   9.822   9.210
66120SOL    HW298387  12.644   9.717   9.131
66121SOL     OW98388  12.145  10.200   9.020
66121SOL    HW198389  12.191  10.116   8.991
66121SOL    HW298390  12.089  10.234   8.945
66122SOL     OW98391  12.163   9.720   8.690
66122SOL    HW198392  12.086   9.754   8.744
66122SOL    HW298393  12.129   9.669   8.611
66123SOL     OW98394  12.213  10.011   7.877
66123SOL    HW198395  12.239  10.007   7.973
66123SOL    HW298396  12.128   9.960   7.863
66124SOL     OW98397  11.248  10.121   8.237
66124SOL    HW198398  11.347  10.109   8.246
66124SOL    HW298399  11.224  10.216   8.258
66125SOL     OW98400  11.302  11.131   9.019
66125SOL    HW198401  11.292  11.116   9.118
66125SOL    HW298402  11.216  11.167   8.983
66126SOL     OW98403  12.037   9.658   7.643
66126SOL    HW198404  12.096   9.721   7.594
66126SOL    HW298405  12.056   9.564   7.614
66127SOL     OW98406  12.534  10.454   7.993
66127SOL    HW198407  12.617  10.425   7.945
66127SOL    HW298408  12.485  10.521   7.937
66128SOL     OW98409  11.722   9.506   8.333
66128SOL    HW198410  11.717   9.501   8.433
66128SOL    HW298411  11.724   9.602   8.304
66129SOL     OW98412  12.180  10.766   7.925
66129SOL    HW198413  12.134  10.838   7.873
66129SOL    HW298414  12.176  10.786   8.023
66130SOL     OW98415  11.523  11.111   8.301
66130SOL    HW198416  11.573  11.025   8.307
66130SOL    HW298417  11.588  11.188   8.298
66131SOL     OW98418  12.399  10.860   8.954
66131SOL    HW198419  12.405  10.783   9.018
66131SOL    HW298420  12.347  10.834   8.874
66132SOL     OW98421  11.493  10.253   7.690
66132SOL    HW198422  11.575  10.292   7.648
66132SOL    HW298423  11.466  10.171   7.641
66133SOL     OW98424  11.633  10.576   9.175
66133SOL    HW198425  11.583  10.577   9.089
66133SOL    HW298426  11.570  10.558   9.251
66134SOL     OW98427  12.283  11.086   7.685
66134SOL    HW198428  12.223  11.024   7.735
66134SOL    HW298429  12.314  11.042   7.600
66135SOL     OW98430  11.374   9.595   8.946
66135SOL    HW198431  11.294   9.655   8.933
66135SOL    HW298432  11.364   9.546   9.032
66136SOL     OW98433  11.636  11.053   7.771
66136SOL    HW198434  11.669  11.092   7.857
66136SOL    HW298435  11.712  11.046   7.706
66137SOL     OW98436  12.572   9.417   7.874
66137SOL    HW198437  12.548   9.380   7.784
66137SOL    HW298438  12.671   9.433   7.878
66138SOL     OW98439  11.421  11.095   8.689
66138SOL    HW198440  11.478  11.030   8.739
66138SOL    HW298441  11.405  11.062   8.596
66139SOL     OW98442  12.112  11.008   8.352
66139SOL    HW198443  12.192  10.951   8.373
66139SOL    HW298444  12.063  10.968   8.275
66140SOL     OW98445  11.554  10.010   7.928
66140SOL    HW198446  11.599   9.920   7.925
66140SOL    HW298447  11.460   9.999   7.961
66141SOL     OW98448  11.786   9.432   7.565
66141SOL    HW198449  11.884   9.410   7.572
66141SOL    HW298450  11.755   9.415   7.472
66142SOL     OW98451  11.953   9.574   9.197
66142SOL    HW198452  12.020   9.513   9.240
66142SOL    HW298453  11.880   9.593   9.262
66143SOL     OW98454  12.060  10.824   8.643
66143SOL    HW198455  12.037  10.799   8.549
66143SOL    HW298456  12.121  10.755   8.682
66144SOL     OW98457  12.523   9.900   8.881
66144SOL    HW198458  12.551   9.857   8.966
66144SOL    HW298459  12.548   9.996   8.882
66145SOL     OW98460  11.975  10.712   8.372
66145SOL    HW198461  12.065  10.726   8.330
66145SOL    HW298462  11.904  10.714   8.301
66146SOL     OW98463  12.094   9.813   8.347
66146SOL    HW198464  12.069   9.804   8.251
66146SOL    HW298465  12.142   9.731   8.378
66147SOL     OW98466  11.711   9.374   7.960
66147SOL    HW198467  11.630   9.375   8.018
66147SOL    HW298468  11.714   9.457   7.905
66148SOL     OW98469  12.606  10.498   7.489
66148SOL    HW198470  12.638  10.422   7.546
66148SOL    HW298471  12.514  10.525   7.519
66149SOL     OW98472  11.469   9.345   7.619
66149SOL    HW198473  11.518   9.429   7.598
66149SOL    HW298474  11.531   9.280   7.664
66150SOL     OW98475  12.107   9.546   7.928
66150SOL    HW198476  12.059   9.587   7.850
66150SOL    HW298477  12.206   9.544   7.909
66151SOL     OW98478  12.248   9.993   8.912
66151SOL    HW198479  12.168   9.932   8.915
66151SOL    HW298480  12.329   9.940   8.888
66152SOL     OW98481  12.399  10.880   8.241
66152SOL    HW198482  12.420  10.954   8.176
66152SOL    HW298483  12.467  10.880   8.314
66153SOL     OW98484  11.631  10.462   8.189
66153SOL    HW198485  11.560  10.435   8.254
66153SOL    HW298486  11.605  10.434   8.096
66154SOL     OW98487  12.443  11.107   8.039
66154SOL    HW198488  12.487  11.171   7.975
66154SOL    HW298489  12.393  11.159   8.109
66155SOL     OW98490  12.204   9.859   7.464
66155SOL    HW198491  12.163   9.941   7.425
66155SOL    HW298492  12.268   9.885   7.537
66156SOL     OW98493  11.250   9.866   8.834
66156SOL    HW198494  11.342   9.865   8.793
66156SOL    HW298495  11.244   9.940   8.901
66157SOL     OW98496  11.733   9.532   8.595
66157SOL    HW198497  11.771   9.448   8.632
66157SOL    HW298498  11.645   9.551   8.639
66158SOL     OW98499  12.038   9.764   8.090
66158SOL    HW198500  12.006   9.836   8.028
66158SOL    HW298501  12.062   9.683   8.037
66159SOL     OW98502  12.189   9.349   8.201
66159SOL    HW198503  12.117   9.354   8.132
66159SOL    HW298504  12.165   9.280   8.270
66160SOL     OW98505  12.601  10.483   8.315
66160SOL    HW198506  12.546  10.399   8.308
66160SOL    HW298507  12.627  10.512   8.223
66161SOL     OW98508  11.660  10.695   7.622
66161SOL    HW198509  11.573  10.680   7.669
66161SOL    HW298510  11.643  10.721   7.527
66162SOL     OW98511  12.562   9.885   7.526
66162SOL    HW198512  12.508   9.864   7.607
66162SOL    HW298513  12.653   9.844   7.535
66163SOL     OW98514  11.699   9.566   7.776
66163SOL    HW198515  11.726   9.507   7.701
66163SOL    HW298516  11.699   9.661   7.745
66164SOL     OW98517  12.236  10.657   8.788
66164SOL    HW198518  12.156  10.634   8.843
66164SOL    HW298519  12.319  10.631   8.837
66165SOL     OW98520  12.764  10.939   9.073
66165SOL    HW198521  12.791  10.973   8.983
66165SOL    HW298522  12.843  10.901   9.119
66166SOL     OW98523  12.283  10.505   8.548
66166SOL    HW198524  12.243  10.549   8.629
66166SOL    HW298525  12.242  10.542   8.465
66167SOL     OW98526  12.087   9.399   8.850
66167SOL    HW198527  12.112   9.379   8.755
66167SOL    HW298528  12.159   9.455   8.892
66168SOL     OW98529  12.152  10.426   9.167
66168SOL    HW198530  12.053  10.432   9.177
66168SOL    HW298531  12.175  10.346   9.111
66169SOL     OW98532  11.877  10.360   7.816
66169SOL    HW198533  11.863  10.367   7.915
66169SOL    HW298534  11.961  10.309   7.798
66170SOL     OW98535  11.582  10.123   8.699
66170SOL    HW198536  11.668  10.135   8.749
66170SOL    HW298537  11.540  10.036   8.726
66171SOL     OW98538  12.446   9.696   8.710
66171SOL    HW198539  12.467   9.770   8.774
66171SOL    HW298540  12.357   9.713   8.667
66172SOL     OW98541  11.236  10.874   8.779
66172SOL    HW198542  11.190  10.956   8.745
66172SOL    HW298543  11.334  10.893   8.788
66173SOL     OW98544  11.539  10.410   7.949
66173SOL    HW198545  11.532  10.493   7.893
66173SOL    HW298546  11.543  10.330   7.889
66174SOL     OW98547  11.738   9.847   8.313
66174SOL    HW198548  11.750   9.913   8.239
66174SOL    HW298549  11.784   9.881   8.396
66175SOL     OW98550  12.424  10.658   7.836
66175SOL    HW198551  12.474  10.735   7.876
66175SOL    HW298552  12.329  10.660   7.868
66176SOL     OW98553  12.444  10.755   8.590
66176SOL    HW198554  12.491  10.768   8.677
66176SOL    HW298555  12.378  10.681   8.599
66177SOL     OW98556  11.526  10.820   8.777
66177SOL    HW198557  11.505  10.776   8.690
66177SOL    HW298558  11.623  10.846   8.780
66178SOL     OW98559  11.574  10.061   9.046
66178SOL    HW198560  11.642  10.116   8.999
66178SOL    HW298561  11.614   9.973   9.073
66179SOL     OW98562  12.185   9.415   9.218
66179SOL    HW198563  12.191   9.500   9.166
66179SOL    HW298564  12.217   9.339   9.161
66180SOL     OW98565  11.676   9.360   9.188
66180SOL    HW198566  11.634   9.303   9.118
66180SOL    HW298567  11.610   9.429   9.220
66181SOL     OW98568  11.745  10.180   8.477
66181SOL    HW198569  11.789  10.269   8.468
66181SOL    HW298570  11.682  10.180   8.554
66182SOL     OW98571  12.532  10.172   8.493
66182SOL    HW198572  12.457  10.172   8.427
66182SOL    HW298573  12.569  10.080   8.502
66183SOL     OW98574  12.381   9.835   7.723
66183SOL    HW198575  12.394   9.751   7.777
66183SOL    HW298576  12.352   9.909   7.783
66184SOL     OW98577  11.479   9.523   8.679
66184SOL    HW198578  11.456   9.560   8.769
66184SOL    HW298579  11.449   9.428   8.673
66185SOL     OW98580  11.209  10.620   8.730
66185SOL    HW198581  11.262  10.571   8.798
66185SOL    HW298582  11.231  10.718   8.735
66186SOL     OW98583  11.904   9.944   8.512
66186SOL    HW198584  11.963   9.918   8.436
66186SOL    HW298585  11.876  10.040   8.501
66187SOL     OW98586  11.479   9.373   8.066
66187SOL    HW198587  11.468   9.467   8.099
66187SOL    HW298588  11.474   9.310   8.143
66188SOL     OW98589  12.794   9.677   7.822
66188SOL    HW198590  12.796   9.601   7.886
66188SOL    HW298591  12.746   9.754   7.862
66189SOL     OW98592  12.195  10.076   8.414
66189SOL    HW198593  12.210  10.097   8.510
66189SOL    HW298594  12.165   9.981   8.405
66190SOL     OW98595  12.152  10.883   9.148
66190SOL    HW198596  12.132  10.927   9.060
66190SOL    HW298597  12.191  10.792   9.132
66191SOL     OW98598  11.522  10.208   9.252
66191SOL    HW198599  11.598  10.252   9.300
66191SOL    HW298600  11.557  10.161   9.170
66192SOL     OW98601  12.475  10.148   7.490
66192SOL    HW198602  12.509  10.055   7.505
66192SOL    HW298603  12.493  10.175   7.395
66193SOL     OW98604  12.240  10.643   8.297
66193SOL    HW198605  12.247  10.559   8.242
66193SOL    HW298606  12.302  10.712   8.261
66194SOL     OW98607  11.491  10.120   8.397
66194SOL    HW198608  11.584  10.156   8.402
66194SOL    HW298609  11.485  10.035   8.449
66195SOL     OW98610  11.511   9.819   8.454
66195SOL    HW198611  11.459   9.736   8.437
66195SOL    HW298612  11.588   9.824   8.390
66196SOL     OW98613  12.310   9.690   9.126
66196SOL    HW198614  12.265   9.753   9.190
66196SOL    HW298615  12.403   9.721   9.109
66197SOL     OW98616  12.332   9.517   8.925
66197SOL    HW198617  12.332   9.581   9.002
66197SOL    HW298618  12.360   9.565   8.842
66198SOL     OW98619  11.180  10.636   7.648
66198SOL    HW198620  11.087  10.657   7.617
66198SOL    HW298621  11.190  10.537   7.661
66199SOL     OW98622  11.260  11.111   8.375
66199SOL    HW198623  11.218  11.025   8.348
66199SOL    HW298624  11.354  11.114   8.341
66200SOL     OW98625  11.676  10.878   8.358
66200SOL    HW198626  11.742  10.952   8.367
66200SOL    HW298627  11.720  10.799   8.316
66201SOL     OW98628  12.174  10.106   8.686
66201SOL    HW198629  12.215  10.074   8.772
66201SOL    HW298630  12.078  10.079   8.683
66202SOL     OW98631  11.212   9.854   8.562
66202SOL    HW198632  11.297   9.821   8.521
66202SOL    HW298633  11.225   9.869   8.660
66203SOL     OW98634  11.361   9.830   9.170
66203SOL    HW198635  11.420   9.790   9.100
66203SOL    HW298636  11.303   9.901   9.129
66204SOL     OW98637  12.541  10.260   9.108
66204SOL    HW198638  12.580  10.349   9.128
66204SOL    HW298639  12.551  10.240   9.011
66205SOL     OW98640  11.987   9.882   7.773
66205SOL    HW198641  11.994   9.793   7.727
66205SOL    HW298642  11.893   9.916   7.765
66206SOL     OW98643  11.424  10.874   9.192
66206SOL    HW198644  11.394  10.931   9.268
66206SOL    HW298645  11.417  10.777   9.218
66207SOL     OW98646  11.843   9.774   8.717
66207SOL    HW198647  11.809   9.685   8.687
66207SOL    HW298648  11.869   9.828   8.637
66208SOL     OW98649  12.102  10.988   8.913
66208SOL    HW198650  12.078  10.970   8.818
66208SOL    HW298651  12.132  11.082   8.923
66209SOL     OW98652  11.645   9.810   7.639
66209SOL    HW198653  11.706   9.890   7.643
66209SOL    HW298654  11.550   9.841   7.646
66210SOL     OW98655  11.331  10.447   8.914
66210SOL    HW198656  11.353  10.386   8.990
66210SOL    HW298657  11.341  10.398   8.828
66211SOL     OW98658  12.519  10.369   8.682
66211SOL    HW198659  12.543  10.306   8.608
66211SOL    HW298660  12.429  10.409   8.664
66212SOL     OW98661  12.474  10.165   7.757
66212SOL    HW198662  12.388  10.134   7.799
66212SOL    HW298663  12.470  10.151   7.658
66213SOL     OW98664  12.424  11.041   8.576
66213SOL    HW198665  12.508  11.046   8.522
66213SOL    HW298666  12.401  10.945   8.594
66214SOL     OW98667  11.255  10.568   8.470
66214SOL    HW198668  11.250  10.567   8.570
66214SOL    HW298669  11.172  10.527   8.432
66215SOL     OW98670  11.860  10.972   9.164
66215SOL    HW198671  11.804  11.053   9.173
66215SOL    HW298672  11.912  10.976   9.078
66216SOL     OW98673  12.898   9.445   7.971
66216SOL    HW198674  12.971   9.428   7.904
66216SOL    HW298675  12.867   9.358   8.009
66217SOL     OW98676  12.560  10.883   7.925
66217SOL    HW198677  12.627  10.895   7.851
66217SOL    HW298678  12.520  10.972   7.948
66218SOL     OW98679  11.302  11.104   9.299
66218SOL    HW198680  11.261  11.030   9.352
66218SOL    HW298681  11.366  11.155   9.357
66219SOL     OW98682  12.452  10.237   8.120
66219SOL    HW198683  12.512  10.156   8.122
66219SOL    HW298684  12.492  10.306   8.060
66220SOL     OW98685  12.002  10.583   8.870
66220SOL    HW198686  11.997  10.616   8.965
66220SOL    HW298687  11.916  10.602   8.824
66221SOL     OW98688  11.844  10.926   7.602
66221SOL    HW198689  11.853  10.936   7.503
66221SOL    HW298690  11.804  10.837   7.623
66222SOL     OW98691  11.435   9.636   8.168
66222SOL    HW198692  11.356   9.687   8.134
66222SOL    HW298693  11.426   9.621   8.266
66223SOL     OW98694  12.366  10.922   7.479
66223SOL    HW198695  12.372  10.829   7.516
66223SOL    HW298696  12.307  10.922   7.399
66224SOL     OW98697  11.994  10.312   8.820
66224SOL    HW198698  12.034  10.311   8.728
66224SOL    HW298699  12.004  10.404   8.860
66225SOL     OW98700  12.088  10.220   7.739
66225SOL    HW198701  12.151  10.258   7.671
66225SOL    HW298702  12.128  10.137   7.778
66226SOL     OW98703  11.544  10.598   8.938
66226SOL    HW198704  11.531  10.691   8.904
66226SOL    HW298705  11.460  10.546   8.925
66227SOL     OW98706  12.211  10.408   8.144
66227SOL    HW198707  12.141  10.361   8.198
66227SOL    HW298708  12.270  10.340   8.101
66228SOL     OW98709  12.186   9.546   8.419
66228SOL    HW198710  12.178   9.510   8.326
66228SOL    HW298711  12.184   9.470   8.484
66229SOL     OW98712  11.762  10.797   7.939
66229SOL    HW198713  11.804  10.739   7.869
66229SOL    HW298714  11.718  10.876   7.895
66230SOL     OW98715  11.427  10.658   7.738
66230SOL    HW198716  11.331  10.659   7.711
66230SOL    HW298717  11.439  10.711   7.822
66231SOL     OW98718  11.277  10.323   9.174
66231SOL    HW198719  11.200  10.290   9.228
66231SOL    HW298720  11.362  10.293   9.216
66232SOL     OW98721  11.844   9.513   8.937
66232SOL    HW198722  11.934   9.497   8.897
66232SOL    HW298723  11.852   9.518   9.036
66233SOL     OW98724  11.247   9.655   7.481
66233SOL    HW198725  11.155   9.627   7.452
66233SOL    HW298726  11.278   9.732   7.425
66234SOL     OW98727  12.612  10.166   8.846
66234SOL    HW198728  12.555  10.218   8.783
66234SOL    HW298729  12.708  10.178   8.822
66235SOL     OW98730  11.244   9.476   7.766
66235SOL    HW198731  11.227   9.559   7.712
66235SOL    HW298732  11.334   9.439   7.744
66236SOL     OW98733  12.355  10.645   7.567
66236SOL    HW198734  12.256  10.634   7.569
66236SOL    HW298735  12.389  10.660   7.660
66237SOL     OW98736  11.785  10.152   8.879
66237SOL    HW198737  11.841  10.233   8.862
66237SOL    HW298738  11.844  10.072   8.882
66238SOL     OW98739  11.888   9.875   9.156
66238SOL    HW198740  11.907   9.940   9.230
66238SOL    HW298741  11.948   9.795   9.165
66239SOL     OW98742  12.622  10.530   9.081
66239SOL    HW198743  12.613  10.520   9.180
66239SOL    HW298744  12.718  10.523   9.055
66240SOL     OW98745  11.562  11.051   9.008
66240SOL    HW198746  11.471  11.092   9.006
66240SOL    HW298747  11.555  10.957   9.040
66241SOL     OW98748  12.397   9.635   7.897
66241SOL    HW198749  12.462   9.561   7.886
66241SOL    HW298750  12.417   9.685   7.981
66242SOL     OW98751  11.766  10.055   8.100
66242SOL    HW198752  11.816  10.140   8.081
66242SOL    HW298753  11.678  10.057   8.052
66243SOL     OW98754  12.031  10.684   7.464
66243SOL    HW198755  11.985  10.699   7.552
66243SOL    HW298756  12.075  10.769   7.434
66244SOL     OW98757  11.833  11.100   8.401
66244SOL    HW198758  11.787  11.188   8.388
66244SOL    HW298759  11.932  11.112   8.394
66245SOL     OW98760  12.031  10.266   8.309
66245SOL    HW198761  12.085  10.197   8.357
66245SOL    HW298762  11.999  10.335   8.375
66246SOL     OW98763  12.255  10.294   7.535
66246SOL    HW198764  12.232  10.347   7.453
66246SOL    HW298765  12.336  10.238   7.516
66247SOL     OW98766  11.393  10.624   9.292
66247SOL    HW198767  11.328  10.551   9.271
66247SOL    HW298768  11.397  10.638   9.390
66248SOL     OW98769  11.251  10.550   8.101
66248SOL    HW198770  11.250  10.503   8.189
66248SOL    HW298771  11.333  10.522   8.050
66249SOL     OW98772  11.844  10.701   9.072
66249SOL    HW198773  11.766  10.651   9.110
66249SOL    HW298774  11.841  10.796   9.103
66250SOL     OW98775  11.600   9.734   7.968
66250SOL    HW198776  11.630   9.662   7.906
66250SOL    HW298777  11.561   9.694   8.051
66251SOL     OW98778  12.877  10.797   8.552
66251SOL    HW198779  12.784  10.772   8.525
66251SOL    HW298780  12.903  10.747   8.634
66252SOL     OW98781  11.489   9.857   8.728
66252SOL    HW198782  11.527   9.798   8.800
66252SOL    HW298783  11.529   9.831   8.640
66253SOL     OW98784  11.984  10.896   8.135
66253SOL    HW198785  12.016  10.906   8.041
66253SOL    HW298786  11.905  10.834   8.137
66254SOL     OW98787  12.596   9.524   8.560
66254SOL    HW198788  12.648   9.459   8.615
66254SOL    HW298789  12.547   9.587   8.621
66255SOL     OW98790  12.173   9.344   8.602
66255SOL    HW198791  12.110   9.272   8.571
66255SOL    HW298792  12.266   9.308   8.602
66256SOL     OW98793  11.942  10.640   7.749
66256SOL    HW198794  11.896  10.553   7.766
66256SOL    HW298795  12.033  10.637   7.790
66257SOL     OW98796  11.790  10.877   8.732
66257SOL    HW198797  11.785  10.959   8.789
66257SOL    HW298798  11.879  10.874   8.687
66258SOL     OW98799  12.524   9.362   7.616
66258SOL    HW198800  12.559   9.321   7.532
66258SOL    HW298801  12.434   9.324   7.636
66259SOL     OW98802  12.472   9.763   8.139
66259SOL    HW198803  12.413   9.843   8.143
66259SOL    HW298804  12.487   9.728   8.232
66260SOL     OW98805  11.211  10.387   7.748
66260SOL    HW198806  11.310  10.376   7.739
66260SOL    HW298807  11.171  10.301   7.780
66261SOL     OW98808  12.047  10.956   7.785
66261SOL    HW198809  11.970  10.921   7.731
66261SOL    HW298810  12.015  11.027   7.847
66262SOL     OW98811  11.402   9.938   9.423
66262SOL    HW198812  11.309   9.936   9.460
66262SOL    HW298813  11.403   9.899   9.331
66263SOL     OW98814  11.397   9.585  10.306
66263SOL    HW198815  11.432   9.568  10.398
66263SOL    HW298816  11.309   9.540  10.294
66264SOL     OW98817  11.191   9.678   9.957
66264SOL    HW198818  11.109   9.721   9.996
66264SOL    HW298819  11.163   9.605   9.894
66265SOL     OW98820  11.741  10.585  10.475
66265SOL    HW198821  11.648  10.578  10.438
66265SOL    HW298822  11.752  10.674  10.519
66266SOL     OW98823  12.727  10.821  10.013
66266SOL    HW198824  12.670  10.805  10.094
66266SOL    HW298825  12.668  10.831   9.933
66267SOL     OW98826  12.307  10.013  10.027
66267SOL    HW198827  12.364  10.091  10.002
66267SOL    HW298828  12.247  10.039  10.103
66268SOL     OW98829  11.940  10.454  10.333
66268SOL    HW198830  11.862  10.471  10.393
66268SOL    HW298831  11.974  10.541  10.297
66269SOL     OW98832  12.022  10.108  11.133
66269SOL    HW198833  12.018  10.184  11.198
66269SOL    HW298834  12.044  10.144  11.042
66270SOL     OW98835  11.857  10.322   9.975
66270SOL    HW198836  11.926  10.306  10.045
66270SOL    HW298837  11.784  10.379  10.013
66271SOL     OW98838  11.858  10.471  11.113
66271SOL    HW198839  11.918  10.550  11.127
66271SOL    HW298840  11.772  10.502  11.072
66272SOL     OW98841  11.507  10.745  10.371
66272SOL    HW198842  11.429  10.714  10.318
66272SOL    HW298843  11.565  10.803  10.314
66273SOL     OW98844  11.610   9.702  10.809
66273SOL    HW198845  11.692   9.646  10.818
66273SOL    HW298846  11.529   9.644  10.813
66274SOL     OW98847  11.403  11.023   9.793
66274SOL    HW198848  11.437  11.100   9.847
66274SOL    HW298849  11.447  11.023   9.703
66275SOL     OW98850  12.299  10.651  11.000
66275SOL    HW198851  12.346  10.651  11.088
66275SOL    HW298852  12.251  10.564  10.989
66276SOL     OW98853  11.402  10.744   9.848
66276SOL    HW198854  11.376  10.840   9.848
66276SOL    HW298855  11.331  10.690   9.893
66277SOL     OW98856  11.412  10.401  10.196
66277SOL    HW198857  11.426  10.317  10.248
66277SOL    HW298858  11.357  10.465  10.251
66278SOL     OW98859  11.792  11.096  10.749
66278SOL    HW198860  11.700  11.079  10.784
66278SOL    HW298861  11.820  11.188  10.775
66279SOL     OW98862  11.778  10.274   9.433
66279SOL    HW198863  11.785  10.358   9.379
66279SOL    HW298864  11.824  10.287   9.521
66280SOL     OW98865  11.294   9.953   9.873
66280SOL    HW198866  11.249   9.865   9.890
66280SOL    HW298867  11.293  10.007   9.957
66281SOL     OW98868  11.199  10.906   9.427
66281SOL    HW198869  11.180  10.810   9.448
66281SOL    HW298870  11.166  10.964   9.502
66282SOL     OW98871  12.861  10.232   9.922
66282SOL    HW198872  12.956  10.203   9.930
66282SOL    HW298873  12.853  10.297   9.847
66283SOL     OW98874  11.285  10.047  10.907
66283SOL    HW198875  11.373  10.034  10.952
66283SOL    HW298876  11.272  10.144  10.885
66284SOL     OW98877  11.785  10.675  10.036
66284SOL    HW198878  11.736  10.588  10.045
66284SOL    HW298879  11.762  10.718   9.949
66285SOL     OW98880  12.465  10.538  10.733
66285SOL    HW198881  12.502  10.465  10.675
66285SOL    HW298882  12.517  10.543  10.818
66286SOL     OW98883  11.981   9.314   9.812
66286SOL    HW198884  12.021   9.405   9.803
66286SOL    HW298885  11.881   9.322   9.818
66287SOL     OW98886  11.369  10.286  10.574
66287SOL    HW198887  11.458  10.241  10.560
66287SOL    HW298888  11.296  10.221  10.555
66288SOL     OW98889  12.359  11.102  10.926
66288SOL    HW198890  12.383  11.162  10.850
66288SOL    HW298891  12.366  11.007  10.896
66289SOL     OW98892  11.489   9.561  11.111
66289SOL    HW198893  11.560   9.632  11.117
66289SOL    HW298894  11.401   9.600  11.139
66290SOL     OW98895  12.638  10.727  10.263
66290SOL    HW198896  12.579  10.733  10.343
66290SOL    HW298897  12.623  10.639  10.217
66291SOL     OW98898  11.770  10.039   9.580
66291SOL    HW198899  11.794  10.108   9.512
66291SOL    HW298900  11.692  10.072   9.634
66292SOL     OW98901  12.453   9.655  10.254
66292SOL    HW198902  12.367   9.605  10.241
66292SOL    HW298903  12.515   9.601  10.310
66293SOL     OW98904  11.979   9.915  10.775
66293SOL    HW198905  11.932   9.912  10.864
66293SOL    HW298906  11.928   9.860  10.709
66294SOL     OW98907  12.566   9.779  10.984
66294SOL    HW198908  12.546   9.822  11.072
66294SOL    HW298909  12.644   9.717  10.993
66295SOL     OW98910  12.145  10.200  10.882
66295SOL    HW198911  12.191  10.116  10.853
66295SOL    HW298912  12.089  10.234  10.807
66296SOL     OW98913  12.163   9.720  10.552
66296SOL    HW198914  12.086   9.754  10.606
66296SOL    HW298915  12.129   9.669  10.473
66297SOL     OW98916  12.213  10.011   9.739
66297SOL    HW198917  12.239  10.007   9.835
66297SOL    HW298918  12.128   9.960   9.725
66298SOL     OW98919  11.248  10.121  10.099
66298SOL    HW198920  11.347  10.109  10.108
66298SOL    HW298921  11.224  10.216  10.120
66299SOL     OW98922  11.302  11.131  10.881
66299SOL    HW198923  11.292  11.116  10.980
66299SOL    HW298924  11.216  11.167  10.845
66300SOL     OW98925  12.037   9.658   9.505
66300SOL    HW198926  12.096   9.721   9.456
66300SOL    HW298927  12.056   9.564   9.476
66301SOL     OW98928  12.534  10.454   9.855
66301SOL    HW198929  12.617  10.425   9.807
66301SOL    HW298930  12.485  10.521   9.799
66302SOL     OW98931  11.722   9.506  10.195
66302SOL    HW198932  11.717   9.501  10.295
66302SOL    HW298933  11.724   9.602  10.166
66303SOL     OW98934  12.180  10.766   9.787
66303SOL    HW198935  12.134  10.838   9.735
66303SOL    HW298936  12.176  10.786   9.885
66304SOL     OW98937  11.523  11.111  10.163
66304SOL    HW198938  11.573  11.025  10.169
66304SOL    HW298939  11.588  11.188  10.160
66305SOL     OW98940  12.399  10.860  10.816
66305SOL    HW198941  12.405  10.783  10.880
66305SOL    HW298942  12.347  10.834  10.736
66306SOL     OW98943  11.493  10.253   9.552
66306SOL    HW198944  11.575  10.292   9.510
66306SOL    HW298945  11.466  10.171   9.503
66307SOL     OW98946  11.633  10.576  11.037
66307SOL    HW198947  11.583  10.577  10.951
66307SOL    HW298948  11.570  10.558  11.113
66308SOL     OW98949  12.283  11.086   9.547
66308SOL    HW198950  12.223  11.024   9.597
66308SOL    HW298951  12.314  11.042   9.462
66309SOL     OW98952  11.374   9.595  10.808
66309SOL    HW198953  11.294   9.655  10.795
66309SOL    HW298954  11.364   9.546  10.894
66310SOL     OW98955  11.636  11.053   9.633
66310SOL    HW198956  11.669  11.092   9.719
66310SOL    HW298957  11.712  11.046   9.568
66311SOL     OW98958  12.572   9.417   9.736
66311SOL    HW198959  12.548   9.380   9.646
66311SOL    HW298960  12.671   9.433   9.740
66312SOL     OW98961  11.421  11.095  10.551
66312SOL    HW198962  11.478  11.030  10.601
66312SOL    HW298963  11.405  11.062  10.458
66313SOL     OW98964  12.112  11.008  10.214
66313SOL    HW198965  12.192  10.951  10.235
66313SOL    HW298966  12.063  10.968  10.137
66314SOL     OW98967  11.554  10.010   9.790
66314SOL    HW198968  11.599   9.920   9.787
66314SOL    HW298969  11.460   9.999   9.823
66315SOL     OW98970  11.786   9.432   9.427
66315SOL    HW198971  11.884   9.410   9.434
66315SOL    HW298972  11.755   9.415   9.334
66316SOL     OW98973  11.953   9.574  11.059
66316SOL    HW198974  12.020   9.513  11.102
66316SOL    HW298975  11.880   9.593  11.124
66317SOL     OW98976  12.060  10.824  10.505
66317SOL    HW198977  12.037  10.799  10.411
66317SOL    HW298978  12.121  10.755  10.544
66318SOL     OW98979  12.523   9.900  10.743
66318SOL    HW198980  12.551   9.857  10.828
66318SOL    HW298981  12.548   9.996  10.744
66319SOL     OW98982  11.975  10.712  10.234
66319SOL    HW198983  12.065  10.726  10.192
66319SOL    HW298984  11.904  10.714  10.163
66320SOL     OW98985  12.094   9.813  10.209
66320SOL    HW198986  12.069   9.804  10.113
66320SOL    HW298987  12.142   9.731  10.240
66321SOL     OW98988  11.711   9.374   9.822
66321SOL    HW198989  11.630   9.375   9.880
66321SOL    HW298990  11.714   9.457   9.767
66322SOL     OW98991  12.606  10.498   9.351
66322SOL    HW198992  12.638  10.422   9.408
66322SOL    HW298993  12.514  10.525   9.381
66323SOL     OW98994  11.469   9.345   9.481
66323SOL    HW198995  11.518   9.429   9.460
66323SOL    HW298996  11.531   9.280   9.526
66324SOL     OW98997  12.107   9.546   9.790
66324SOL    HW198998  12.059   9.587   9.712
66324SOL    HW298999  12.206   9.544   9.771
66325SOL     OW99000  12.248   9.993  10.774
66325SOL    HW199001  12.168   9.932  10.777
66325SOL    HW299002  12.329   9.940  10.750
66326SOL     OW99003  12.399  10.880  10.103
66326SOL    HW199004  12.420  10.954  10.038
66326SOL    HW299005  12.467  10.880  10.176
66327SOL     OW99006  11.631  10.462  10.051
66327SOL    HW199007  11.560  10.435  10.116
66327SOL    HW299008  11.605  10.434   9.958
66328SOL     OW99009  12.443  11.107   9.901
66328SOL    HW199010  12.487  11.171   9.837
66328SOL    HW299011  12.393  11.159   9.971
66329SOL     OW99012  12.204   9.859   9.326
66329SOL    HW199013  12.163   9.941   9.287
66329SOL    HW299014  12.268   9.885   9.399
66330SOL     OW99015  11.250   9.866  10.696
66330SOL    HW199016  11.342   9.865  10.655
66330SOL    HW299017  11.244   9.940  10.763
66331SOL     OW99018  11.733   9.532  10.457
66331SOL    HW199019  11.771   9.448  10.494
66331SOL    HW299020  11.645   9.551  10.501
66332SOL     OW99021  12.038   9.764   9.952
66332SOL    HW199022  12.006   9.836   9.890
66332SOL    HW299023  12.062   9.683   9.899
66333SOL     OW99024  12.189   9.349  10.063
66333SOL    HW199025  12.117   9.354   9.994
66333SOL    HW299026  12.165   9.280  10.132
66334SOL     OW99027  12.601  10.483  10.177
66334SOL    HW199028  12.546  10.399  10.170
66334SOL    HW299029  12.627  10.512  10.085
66335SOL     OW99030  11.660  10.695   9.484
66335SOL    HW199031  11.573  10.680   9.531
66335SOL    HW299032  11.643  10.721   9.389
66336SOL     OW99033  12.562   9.885   9.388
66336SOL    HW199034  12.508   9.864   9.469
66336SOL    HW299035  12.653   9.844   9.397
66337SOL     OW99036  11.699   9.566   9.638
66337SOL    HW199037  11.726   9.507   9.563
66337SOL    HW299038  11.699   9.661   9.607
66338SOL     OW99039  12.236  10.657  10.650
66338SOL    HW199040  12.156  10.634  10.705
66338SOL    HW299041  12.319  10.631  10.699
66339SOL     OW99042  12.764  10.939  10.935
66339SOL    HW199043  12.791  10.973  10.845
66339SOL    HW299044  12.843  10.901  10.981
66340SOL     OW99045  12.283  10.505  10.410
66340SOL    HW199046  12.243  10.549  10.491
66340SOL    HW299047  12.242  10.542  10.327
66341SOL     OW99048  12.087   9.399  10.712
66341SOL    HW199049  12.112   9.379  10.617
66341SOL    HW299050  12.159   9.455  10.754
66342SOL     OW99051  12.152  10.426  11.029
66342SOL    HW199052  12.053  10.432  11.039
66342SOL    HW299053  12.175  10.346  10.973
66343SOL     OW99054  11.877  10.360   9.678
66343SOL    HW199055  11.863  10.367   9.777
66343SOL    HW299056  11.961  10.309   9.660
66344SOL     OW99057  11.582  10.123  10.561
66344SOL    HW199058  11.668  10.135  10.611
66344SOL    HW299059  11.540  10.036  10.588
66345SOL     OW99060  12.446   9.696  10.572
66345SOL    HW199061  12.467   9.770  10.636
66345SOL    HW299062  12.357   9.713  10.529
66346SOL     OW99063  11.236  10.874  10.641
66346SOL    HW199064  11.190  10.956  10.607
66346SOL    HW299065  11.334  10.893  10.650
66347SOL     OW99066  11.539  10.410   9.811
66347SOL    HW199067  11.532  10.493   9.755
66347SOL    HW299068  11.543  10.330   9.751
66348SOL     OW99069  11.738   9.847  10.175
66348SOL    HW199070  11.750   9.913  10.101
66348SOL    HW299071  11.784   9.881  10.258
66349SOL     OW99072  12.424  10.658   9.698
66349SOL    HW199073  12.474  10.735   9.738
66349SOL    HW299074  12.329  10.660   9.730
66350SOL     OW99075  12.444  10.755  10.452
66350SOL    HW199076  12.491  10.768  10.539
66350SOL    HW299077  12.378  10.681  10.461
66351SOL     OW99078  11.526  10.820  10.639
66351SOL    HW199079  11.505  10.776  10.552
66351SOL    HW299080  11.623  10.846  10.642
66352SOL     OW99081  11.574  10.061  10.908
66352SOL    HW199082  11.642  10.116  10.861
66352SOL    HW299083  11.614   9.973  10.935
66353SOL     OW99084  12.185   9.415  11.080
66353SOL    HW199085  12.191   9.500  11.028
66353SOL    HW299086  12.217   9.339  11.023
66354SOL     OW99087  11.676   9.360  11.050
66354SOL    HW199088  11.634   9.303  10.980
66354SOL    HW299089  11.610   9.429  11.082
66355SOL     OW99090  11.745  10.180  10.339
66355SOL    HW199091  11.789  10.269  10.330
66355SOL    HW299092  11.682  10.180  10.416
66356SOL     OW99093  12.532  10.172  10.355
66356SOL    HW199094  12.457  10.172  10.289
66356SOL    HW299095  12.569  10.080  10.364
66357SOL     OW99096  12.381   9.835   9.585
66357SOL    HW199097  12.394   9.751   9.639
66357SOL    HW299098  12.352   9.909   9.645
66358SOL     OW99099  11.479   9.523  10.541
66358SOL    HW199100  11.456   9.560  10.631
66358SOL    HW299101  11.449   9.428  10.535
66359SOL     OW99102  11.209  10.620  10.592
66359SOL    HW199103  11.262  10.571  10.660
66359SOL    HW299104  11.231  10.718  10.597
66360SOL     OW99105  11.904   9.944  10.374
66360SOL    HW199106  11.963   9.918  10.298
66360SOL    HW299107  11.876  10.040  10.363
66361SOL     OW99108  11.479   9.373   9.928
66361SOL    HW199109  11.468   9.467   9.961
66361SOL    HW299110  11.474   9.310  10.005
66362SOL     OW99111  12.794   9.677   9.684
66362SOL    HW199112  12.796   9.601   9.748
66362SOL    HW299113  12.746   9.754   9.724
66363SOL     OW99114  12.195  10.076  10.276
66363SOL    HW199115  12.210  10.097  10.372
66363SOL    HW299116  12.165   9.981  10.267
66364SOL     OW99117  12.152  10.883  11.010
66364SOL    HW199118  12.132  10.927  10.922
66364SOL    HW299119  12.191  10.792  10.994
66365SOL     OW99120  11.522  10.208  11.114
66365SOL    HW199121  11.598  10.252  11.162
66365SOL    HW299122  11.557  10.161  11.032
66366SOL     OW99123  12.475  10.148   9.352
66366SOL    HW199124  12.509  10.055   9.367
66366SOL    HW299125  12.493  10.175   9.257
66367SOL     OW99126  12.240  10.643  10.159
66367SOL    HW199127  12.247  10.559  10.104
66367SOL    HW299128  12.302  10.712  10.123
66368SOL     OW99129  11.491  10.120  10.259
66368SOL    HW199130  11.584  10.156  10.264
66368SOL    HW299131  11.485  10.035  10.311
66369SOL     OW99132  11.511   9.819  10.316
66369SOL    HW199133  11.459   9.736  10.299
66369SOL    HW299134  11.588   9.824  10.252
66370SOL     OW99135  12.310   9.690  10.988
66370SOL    HW199136  12.265   9.753  11.052
66370SOL    HW299137  12.403   9.721  10.971
66371SOL     OW99138  12.332   9.517  10.787
66371SOL    HW199139  12.332   9.581  10.864
66371SOL    HW299140  12.360   9.565  10.704
66372SOL     OW99141  11.180  10.636   9.510
66372SOL    HW199142  11.087  10.657   9.479
66372SOL    HW299143  11.190  10.537   9.523
66373SOL     OW99144  11.260  11.111  10.237
66373SOL    HW199145  11.218  11.025  10.210
66373SOL    HW299146  11.354  11.114  10.203
66374SOL     OW99147  11.676  10.878  10.220
66374SOL    HW199148  11.742  10.952  10.229
66374SOL    HW299149  11.720  10.799  10.178
66375SOL     OW99150  12.174  10.106  10.548
66375SOL    HW199151  12.215  10.074  10.634
66375SOL    HW299152  12.078  10.079  10.545
66376SOL     OW99153  11.212   9.854  10.424
66376SOL    HW199154  11.297   9.821  10.383
66376SOL    HW299155  11.225   9.869  10.522
66377SOL     OW99156  11.361   9.830  11.032
66377SOL    HW199157  11.420   9.790  10.962
66377SOL    HW299158  11.303   9.901  10.991
66378SOL     OW99159  12.541  10.260  10.970
66378SOL    HW199160  12.580  10.349  10.990
66378SOL    HW299161  12.551  10.240  10.873
66379SOL     OW99162  11.987   9.882   9.635
66379SOL    HW199163  11.994   9.793   9.589
66379SOL    HW299164  11.893   9.916   9.627
66380SOL     OW99165  11.424  10.874  11.054
66380SOL    HW199166  11.394  10.931  11.130
66380SOL    HW299167  11.417  10.777  11.080
66381SOL     OW99168  11.843   9.774  10.579
66381SOL    HW199169  11.809   9.685  10.549
66381SOL    HW299170  11.869   9.828  10.499
66382SOL     OW99171  12.102  10.988  10.775
66382SOL    HW199172  12.078  10.970  10.680
66382SOL    HW299173  12.132  11.082  10.785
66383SOL     OW99174  11.645   9.810   9.501
66383SOL    HW199175  11.706   9.890   9.505
66383SOL    HW299176  11.550   9.841   9.508
66384SOL     OW99177  11.331  10.447  10.776
66384SOL    HW199178  11.353  10.386  10.852
66384SOL    HW299179  11.341  10.398  10.690
66385SOL     OW99180  12.519  10.369  10.544
66385SOL    HW199181  12.543  10.306  10.470
66385SOL    HW299182  12.429  10.409  10.526
66386SOL     OW99183  12.474  10.165   9.619
66386SOL    HW199184  12.388  10.134   9.661
66386SOL    HW299185  12.470  10.151   9.520
66387SOL     OW99186  12.424  11.041  10.438
66387SOL    HW199187  12.508  11.046  10.384
66387SOL    HW299188  12.401  10.945  10.456
66388SOL     OW99189  11.255  10.568  10.332
66388SOL    HW199190  11.250  10.567  10.432
66388SOL    HW299191  11.172  10.527  10.294
66389SOL     OW99192  11.860  10.972  11.026
66389SOL    HW199193  11.804  11.053  11.035
66389SOL    HW299194  11.912  10.976  10.940
66390SOL     OW99195  12.898   9.445   9.833
66390SOL    HW199196  12.971   9.428   9.766
66390SOL    HW299197  12.867   9.358   9.871
66391SOL     OW99198  12.560  10.883   9.787
66391SOL    HW199199  12.627  10.895   9.713
66391SOL    HW299200  12.520  10.972   9.810
66392SOL     OW99201  11.302  11.104  11.161
66392SOL    HW199202  11.261  11.030  11.214
66392SOL    HW299203  11.366  11.155  11.219
66393SOL     OW99204  12.452  10.237   9.982
66393SOL    HW199205  12.512  10.156   9.984
66393SOL    HW299206  12.492  10.306   9.922
66394SOL     OW99207  12.002  10.583  10.732
66394SOL    HW199208  11.997  10.616  10.827
66394SOL    HW299209  11.916  10.602  10.686
66395SOL     OW99210  11.844  10.926   9.464
66395SOL    HW199211  11.853  10.936   9.365
66395SOL    HW299212  11.804  10.837   9.485
66396SOL     OW99213  11.435   9.636  10.030
66396SOL    HW199214  11.356   9.687   9.996
66396SOL    HW299215  11.426   9.621  10.128
66397SOL     OW99216  12.366  10.922   9.341
66397SOL    HW199217  12.372  10.829   9.378
66397SOL    HW299218  12.307  10.922   9.261
66398SOL     OW99219  11.994  10.312  10.682
66398SOL    HW199220  12.034  10.311  10.590
66398SOL    HW299221  12.004  10.404  10.722
66399SOL     OW99222  12.088  10.220   9.601
66399SOL    HW199223  12.151  10.258   9.533
66399SOL    HW299224  12.128  10.137   9.640
66400SOL     OW99225  11.544  10.598  10.800
66400SOL    HW199226  11.531  10.691  10.766
66400SOL    HW299227  11.460  10.546  10.787
66401SOL     OW99228  12.211  10.408  10.006
66401SOL    HW199229  12.141  10.361  10.060
66401SOL    HW299230  12.270  10.340   9.963
66402SOL     OW99231  12.186   9.546  10.281
66402SOL    HW199232  12.178   9.510  10.188
66402SOL    HW299233  12.184   9.470  10.346
66403SOL     OW99234  11.762  10.797   9.801
66403SOL    HW199235  11.804  10.739   9.731
66403SOL    HW299236  11.718  10.876   9.757
66404SOL     OW99237  11.427  10.658   9.600
66404SOL    HW199238  11.331  10.659   9.573
66404SOL    HW299239  11.439  10.711   9.684
66405SOL     OW99240  11.277  10.323  11.036
66405SOL    HW199241  11.200  10.290  11.090
66405SOL    HW299242  11.362  10.293  11.078
66406SOL     OW99243  11.844   9.513  10.799
66406SOL    HW199244  11.934   9.497  10.759
66406SOL    HW299245  11.852   9.518  10.898
66407SOL     OW99246  11.247   9.655   9.343
66407SOL    HW199247  11.155   9.627   9.314
66407SOL    HW299248  11.278   9.732   9.287
66408SOL     OW99249  12.612  10.166  10.708
66408SOL    HW199250  12.555  10.218  10.645
66408SOL    HW299251  12.708  10.178  10.684
66409SOL     OW99252  11.244   9.476   9.628
66409SOL    HW199253  11.227   9.559   9.574
66409SOL    HW299254  11.334   9.439   9.606
66410SOL     OW99255  12.355  10.645   9.429
66410SOL    HW199256  12.256  10.634   9.431
66410SOL    HW299257  12.389  10.660   9.522
66411SOL     OW99258  11.785  10.152  10.741
66411SOL    HW199259  11.841  10.233  10.724
66411SOL    HW299260  11.844  10.072  10.744
66412SOL     OW99261  11.888   9.875  11.018
66412SOL    HW199262  11.907   9.940  11.092
66412SOL    HW299263  11.948   9.795  11.027
66413SOL     OW99264  12.622  10.530  10.943
66413SOL    HW199265  12.613  10.520  11.042
66413SOL    HW299266  12.718  10.523  10.917
66414SOL     OW99267  11.562  11.051  10.870
66414SOL    HW199268  11.471  11.092  10.868
66414SOL    HW299269  11.555  10.957  10.902
66415SOL     OW99270  12.397   9.635   9.759
66415SOL    HW199271  12.462   9.561   9.748
66415SOL    HW299272  12.417   9.685   9.843
66416SOL     OW99273  11.766  10.055   9.962
66416SOL    HW199274  11.816  10.140   9.943
66416SOL    HW299275  11.678  10.057   9.914
66417SOL     OW99276  12.031  10.684   9.326
66417SOL    HW199277  11.985  10.699   9.414
66417SOL    HW299278  12.075  10.769   9.296
66418SOL     OW99279  11.833  11.100  10.263
66418SOL    HW199280  11.787  11.188  10.250
66418SOL    HW299281  11.932  11.112  10.256
66419SOL     OW99282  12.031  10.266  10.171
66419SOL    HW199283  12.085  10.197  10.219
66419SOL    HW299284  11.999  10.335  10.237
66420SOL     OW99285  12.255  10.294   9.397
66420SOL    HW199286  12.232  10.347   9.315
66420SOL    HW299287  12.336  10.238   9.378
66421SOL     OW99288  11.393  10.624  11.154
66421SOL    HW199289  11.328  10.551  11.133
66421SOL    HW299290  11.397  10.638  11.252
66422SOL     OW99291  11.251  10.550   9.963
66422SOL    HW199292  11.250  10.503  10.051
66422SOL    HW299293  11.333  10.522   9.912
66423SOL     OW99294  11.844  10.701  10.934
66423SOL    HW199295  11.766  10.651  10.972
66423SOL    HW299296  11.841  10.796  10.965
66424SOL     OW99297  11.600   9.734   9.830
66424SOL    HW199298  11.630   9.662   9.768
66424SOL    HW299299  11.561   9.694   9.913
66425SOL     OW99300  12.877  10.797  10.414
66425SOL    HW199301  12.784  10.772  10.387
66425SOL    HW299302  12.903  10.747  10.496
66426SOL     OW99303  11.489   9.857  10.590
66426SOL    HW199304  11.527   9.798  10.662
66426SOL    HW299305  11.529   9.831  10.502
66427SOL     OW99306  11.984  10.896   9.997
66427SOL    HW199307  12.016  10.906   9.903
66427SOL    HW299308  11.905  10.834   9.999
66428SOL     OW99309  12.596   9.524  10.422
66428SOL    HW199310  12.648   9.459  10.477
66428SOL    HW299311  12.547   9.587  10.483
66429SOL     OW99312  12.173   9.344  10.464
66429SOL    HW199313  12.110   9.272  10.433
66429SOL    HW299314  12.266   9.308  10.464
66430SOL     OW99315  11.942  10.640   9.611
66430SOL    HW199316  11.896  10.553   9.628
66430SOL    HW299317  12.033  10.637   9.652
66431SOL     OW99318  11.790  10.877  10.594
66431SOL    HW199319  11.785  10.959  10.651
66431SOL    HW299320  11.879  10.874  10.549
66432SOL     OW99321  12.524   9.362   9.478
66432SOL    HW199322  12.559   9.321   9.394
66432SOL    HW299323  12.434   9.324   9.498
66433SOL     OW99324  12.472   9.763  10.001
66433SOL    HW199325  12.413   9.843  10.005
66433SOL    HW299326  12.487   9.728  10.094
66434SOL     OW99327  11.211  10.387   9.610
66434SOL    HW199328  11.310  10.376   9.601
66434SOL    HW299329  11.171  10.301   9.642
66435SOL     OW99330  12.047  10.956   9.647
66435SOL    HW199331  11.970  10.921   9.593
66435SOL    HW299332  12.015  11.027   9.709
66436SOL     OW99333  11.402   9.938  11.285
66436SOL    HW199334  11.309   9.936  11.322
66436SOL    HW299335  11.403   9.899  11.193
66437SOL     OW99336  11.397   9.585  12.168
66437SOL    HW199337  11.432   9.568  12.260
66437SOL    HW299338  11.309   9.540  12.156
66438SOL     OW99339  11.191   9.678  11.819
66438SOL    HW199340  11.109   9.721  11.858
66438SOL    HW299341  11.163   9.605  11.756
66439SOL     OW99342  11.741  10.585  12.337
66439SOL    HW199343  11.648  10.578  12.300
66439SOL    HW299344  11.752  10.674  12.381
66440SOL     OW99345  12.727  10.821  11.875
66440SOL    HW199346  12.670  10.805  11.956
66440SOL    HW299347  12.668  10.831  11.795
66441SOL     OW99348  12.307  10.013  11.889
66441SOL    HW199349  12.364  10.091  11.864
66441SOL    HW299350  12.247  10.039  11.965
66442SOL     OW99351  11.940  10.454  12.195
66442SOL    HW199352  11.862  10.471  12.255
66442SOL    HW299353  11.974  10.541  12.159
66443SOL     OW99354  11.857  10.322  11.837
66443SOL    HW199355  11.926  10.306  11.907
66443SOL    HW299356  11.784  10.379  11.875
66444SOL     OW99357  11.507  10.745  12.233
66444SOL    HW199358  11.429  10.714  12.180
66444SOL    HW299359  11.565  10.803  12.176
66445SOL     OW99360  11.610   9.702  12.671
66445SOL    HW199361  11.692   9.646  12.680
66445SOL    HW299362  11.529   9.644  12.675
66446SOL     OW99363  11.403  11.023  11.655
66446SOL    HW199364  11.437  11.100  11.709
66446SOL    HW299365  11.447  11.023  11.565
66447SOL     OW99366  11.402  10.744  11.710
66447SOL    HW199367  11.376  10.840  11.710
66447SOL    HW299368  11.331  10.690  11.755
66448SOL     OW99369  11.412  10.401  12.058
66448SOL    HW199370  11.426  10.317  12.110
66448SOL    HW299371  11.357  10.465  12.113
66449SOL     OW99372  11.792  11.096  12.611
66449SOL    HW199373  11.700  11.079  12.646
66449SOL    HW299374  11.820  11.188  12.637
66450SOL     OW99375  11.778  10.274  11.295
66450SOL    HW199376  11.785  10.358  11.241
66450SOL    HW299377  11.824  10.287  11.383
66451SOL     OW99378  11.294   9.953  11.735
66451SOL    HW199379  11.249   9.865  11.752
66451SOL    HW299380  11.293  10.007  11.819
66452SOL     OW99381  11.199  10.906  11.289
66452SOL    HW199382  11.180  10.810  11.310
66452SOL    HW299383  11.166  10.964  11.364
66453SOL     OW99384  12.861  10.232  11.784
66453SOL    HW199385  12.956  10.203  11.792
66453SOL    HW299386  12.853  10.297  11.709
66454SOL     OW99387  11.785  10.675  11.898
66454SOL    HW199388  11.736  10.588  11.907
66454SOL    HW299389  11.762  10.718  11.811
66455SOL     OW99390  11.981   9.314  11.674
66455SOL    HW199391  12.021   9.405  11.665
66455SOL    HW299392  11.881   9.322  11.680
66456SOL     OW99393  11.369  10.286  12.436
66456SOL    HW199394  11.458  10.241  12.422
66456SOL    HW299395  11.296  10.221  12.417
66457SOL     OW99396  11.489   9.561  12.973
66457SOL    HW199397  11.560   9.632  12.979
66457SOL    HW299398  11.401   9.600  13.001
66458SOL     OW99399  12.638  10.727  12.125
66458SOL    HW199400  12.579  10.733  12.205
66458SOL    HW299401  12.623  10.639  12.079
66459SOL     OW99402  11.770  10.039  11.442
66459SOL    HW199403  11.794  10.108  11.374
66459SOL    HW299404  11.692  10.072  11.496
66460SOL     OW99405  12.453   9.655  12.116
66460SOL    HW199406  12.367   9.605  12.103
66460SOL    HW299407  12.515   9.601  12.172
66461SOL     OW99408  11.979   9.915  12.637
66461SOL    HW199409  11.932   9.912  12.726
66461SOL    HW299410  11.928   9.860  12.571
66462SOL     OW99411  12.163   9.720  12.414
66462SOL    HW199412  12.086   9.754  12.468
66462SOL    HW299413  12.129   9.669  12.335
66463SOL     OW99414  12.213  10.011  11.601
66463SOL    HW199415  12.239  10.007  11.697
66463SOL    HW299416  12.128   9.960  11.587
66464SOL     OW99417  11.248  10.121  11.961
66464SOL    HW199418  11.347  10.109  11.970
66464SOL    HW299419  11.224  10.216  11.982
66465SOL     OW99420  11.302  11.131  12.743
66465SOL    HW199421  11.292  11.116  12.842
66465SOL    HW299422  11.216  11.167  12.707
66466SOL     OW99423  12.037   9.658  11.367
66466SOL    HW199424  12.096   9.721  11.318
66466SOL    HW299425  12.056   9.564  11.338
66467SOL     OW99426  12.534  10.454  11.717
66467SOL    HW199427  12.617  10.425  11.669
66467SOL    HW299428  12.485  10.521  11.661
66468SOL     OW99429  11.722   9.506  12.057
66468SOL    HW199430  11.717   9.501  12.157
66468SOL    HW299431  11.724   9.602  12.028
66469SOL     OW99432  12.180  10.766  11.649
66469SOL    HW199433  12.134  10.838  11.597
66469SOL    HW299434  12.176  10.786  11.747
66470SOL     OW99435  11.523  11.111  12.025
66470SOL    HW199436  11.573  11.025  12.031
66470SOL    HW299437  11.588  11.188  12.022
66471SOL     OW99438  11.493  10.253  11.414
66471SOL    HW199439  11.575  10.292  11.372
66471SOL    HW299440  11.466  10.171  11.365
66472SOL     OW99441  12.283  11.086  11.409
66472SOL    HW199442  12.223  11.024  11.459
66472SOL    HW299443  12.314  11.042  11.324
66473SOL     OW99444  11.374   9.595  12.670
66473SOL    HW199445  11.294   9.655  12.657
66473SOL    HW299446  11.364   9.546  12.756
66474SOL     OW99447  11.636  11.053  11.495
66474SOL    HW199448  11.669  11.092  11.581
66474SOL    HW299449  11.712  11.046  11.430
66475SOL     OW99450  12.572   9.417  11.598
66475SOL    HW199451  12.548   9.380  11.508
66475SOL    HW299452  12.671   9.433  11.602
66476SOL     OW99453  11.421  11.095  12.413
66476SOL    HW199454  11.478  11.030  12.463
66476SOL    HW299455  11.405  11.062  12.320
66477SOL     OW99456  12.112  11.008  12.076
66477SOL    HW199457  12.192  10.951  12.097
66477SOL    HW299458  12.063  10.968  11.999
66478SOL     OW99459  11.554  10.010  11.652
66478SOL    HW199460  11.599   9.920  11.649
66478SOL    HW299461  11.460   9.999  11.685
66479SOL     OW99462  11.786   9.432  11.289
66479SOL    HW199463  11.884   9.410  11.296
66479SOL    HW299464  11.755   9.415  11.196
66480SOL     OW99465  12.060  10.824  12.367
66480SOL    HW199466  12.037  10.799  12.273
66480SOL    HW299467  12.121  10.755  12.406
66481SOL     OW99468  11.975  10.712  12.096
66481SOL    HW199469  12.065  10.726  12.054
66481SOL    HW299470  11.904  10.714  12.025
66482SOL     OW99471  12.094   9.813  12.071
66482SOL    HW199472  12.069   9.804  11.975
66482SOL    HW299473  12.142   9.731  12.102
66483SOL     OW99474  11.711   9.374  11.684
66483SOL    HW199475  11.630   9.375  11.742
66483SOL    HW299476  11.714   9.457  11.629
66484SOL     OW99477  12.606  10.498  11.213
66484SOL    HW199478  12.638  10.422  11.270
66484SOL    HW299479  12.514  10.525  11.243
66485SOL     OW99480  11.469   9.345  11.343
66485SOL    HW199481  11.518   9.429  11.322
66485SOL    HW299482  11.531   9.280  11.388
66486SOL     OW99483  12.107   9.546  11.652
66486SOL    HW199484  12.059   9.587  11.574
66486SOL    HW299485  12.206   9.544  11.633
66487SOL     OW99486  12.399  10.880  11.965
66487SOL    HW199487  12.420  10.954  11.900
66487SOL    HW299488  12.467  10.880  12.038
66488SOL     OW99489  11.631  10.462  11.913
66488SOL    HW199490  11.560  10.435  11.978
66488SOL    HW299491  11.605  10.434  11.820
66489SOL     OW99492  12.443  11.107  11.763
66489SOL    HW199493  12.487  11.171  11.699
66489SOL    HW299494  12.393  11.159  11.833
66490SOL     OW99495  12.204   9.859  11.188
66490SOL    HW199496  12.163   9.941  11.149
66490SOL    HW299497  12.268   9.885  11.261
66491SOL     OW99498  11.250   9.866  12.558
66491SOL    HW199499  11.342   9.865  12.517
66491SOL    HW299500  11.244   9.940  12.625
66492SOL     OW99501  11.733   9.532  12.319
66492SOL    HW199502  11.771   9.448  12.356
66492SOL    HW299503  11.645   9.551  12.363
66493SOL     OW99504  12.038   9.764  11.814
66493SOL    HW199505  12.006   9.836  11.752
66493SOL    HW299506  12.062   9.683  11.761
66494SOL     OW99507  12.189   9.349  11.925
66494SOL    HW199508  12.117   9.354  11.856
66494SOL    HW299509  12.165   9.280  11.994
66495SOL     OW99510  12.601  10.483  12.039
66495SOL    HW199511  12.546  10.399  12.032
66495SOL    HW299512  12.627  10.512  11.947
66496SOL     OW99513  11.660  10.695  11.346
66496SOL    HW199514  11.573  10.680  11.393
66496SOL    HW299515  11.643  10.721  11.251
66497SOL     OW99516  12.562   9.885  11.250
66497SOL    HW199517  12.508   9.864  11.331
66497SOL    HW299518  12.653   9.844  11.259
66498SOL     OW99519  11.699   9.566  11.500
66498SOL    HW199520  11.726   9.507  11.425
66498SOL    HW299521  11.699   9.661  11.469
66499SOL     OW99522  12.236  10.657  12.512
66499SOL    HW199523  12.156  10.634  12.567
66499SOL    HW299524  12.319  10.631  12.561
66500SOL     OW99525  12.283  10.505  12.272
66500SOL    HW199526  12.243  10.549  12.353
66500SOL    HW299527  12.242  10.542  12.189
66501SOL     OW99528  12.087   9.399  12.574
66501SOL    HW199529  12.112   9.379  12.479
66501SOL    HW299530  12.159   9.455  12.616
66502SOL     OW99531  11.877  10.360  11.540
66502SOL    HW199532  11.863  10.367  11.639
66502SOL    HW299533  11.961  10.309  11.522
66503SOL     OW99534  11.582  10.123  12.423
66503SOL    HW199535  11.668  10.135  12.473
66503SOL    HW299536  11.540  10.036  12.450
66504SOL     OW99537  12.446   9.696  12.434
66504SOL    HW199538  12.467   9.770  12.498
66504SOL    HW299539  12.357   9.713  12.391
66505SOL     OW99540  11.236  10.874  12.503
66505SOL    HW199541  11.190  10.956  12.469
66505SOL    HW299542  11.334  10.893  12.512
66506SOL     OW99543  11.539  10.410  11.673
66506SOL    HW199544  11.532  10.493  11.617
66506SOL    HW299545  11.543  10.330  11.613
66507SOL     OW99546  11.738   9.847  12.037
66507SOL    HW199547  11.750   9.913  11.963
66507SOL    HW299548  11.784   9.881  12.120
66508SOL     OW99549  12.424  10.658  11.560
66508SOL    HW199550  12.474  10.735  11.600
66508SOL    HW299551  12.329  10.660  11.592
66509SOL     OW99552  12.444  10.755  12.314
66509SOL    HW199553  12.491  10.768  12.401
66509SOL    HW299554  12.378  10.681  12.323
66510SOL     OW99555  11.526  10.820  12.501
66510SOL    HW199556  11.505  10.776  12.414
66510SOL    HW299557  11.623  10.846  12.504
66511SOL     OW99558  11.574  10.061  12.770
66511SOL    HW199559  11.642  10.116  12.723
66511SOL    HW299560  11.614   9.973  12.797
66512SOL     OW99561  12.759  10.089  12.842
66512SOL    HW199562  12.667  10.127  12.837
66512SOL    HW299563  12.819  10.136  12.777
66513SOL     OW99564  11.745  10.180  12.201
66513SOL    HW199565  11.789  10.269  12.192
66513SOL    HW299566  11.682  10.180  12.278
66514SOL     OW99567  12.532  10.172  12.217
66514SOL    HW199568  12.457  10.172  12.151
66514SOL    HW299569  12.569  10.080  12.226
66515SOL     OW99570  12.381   9.835  11.447
66515SOL    HW199571  12.394   9.751  11.501
66515SOL    HW299572  12.352   9.909  11.507
66516SOL     OW99573  11.479   9.523  12.403
66516SOL    HW199574  11.456   9.560  12.493
66516SOL    HW299575  11.449   9.428  12.397
66517SOL     OW99576  11.209  10.620  12.454
66517SOL    HW199577  11.262  10.571  12.522
66517SOL    HW299578  11.231  10.718  12.459
66518SOL     OW99579  11.904   9.944  12.236
66518SOL    HW199580  11.963   9.918  12.160
66518SOL    HW299581  11.876  10.040  12.225
66519SOL     OW99582  11.479   9.373  11.790
66519SOL    HW199583  11.468   9.467  11.823
66519SOL    HW299584  11.474   9.310  11.867
66520SOL     OW99585  12.794   9.677  11.546
66520SOL    HW199586  12.796   9.601  11.610
66520SOL    HW299587  12.746   9.754  11.586
66521SOL     OW99588  12.195  10.076  12.138
66521SOL    HW199589  12.210  10.097  12.234
66521SOL    HW299590  12.165   9.981  12.129
66522SOL     OW99591  12.152  10.883  12.872
66522SOL    HW199592  12.132  10.927  12.784
66522SOL    HW299593  12.191  10.792  12.856
66523SOL     OW99594  12.475  10.148  11.214
66523SOL    HW199595  12.509  10.055  11.229
66523SOL    HW299596  12.493  10.175  11.119
66524SOL     OW99597  12.240  10.643  12.021
66524SOL    HW199598  12.247  10.559  11.966
66524SOL    HW299599  12.302  10.712  11.985
66525SOL     OW99600  11.491  10.120  12.121
66525SOL    HW199601  11.584  10.156  12.126
66525SOL    HW299602  11.485  10.035  12.173
66526SOL     OW99603  11.511   9.819  12.178
66526SOL    HW199604  11.459   9.736  12.161
66526SOL    HW299605  11.588   9.824  12.114
66527SOL     OW99606  12.310   9.690  12.850
66527SOL    HW199607  12.265   9.753  12.914
66527SOL    HW299608  12.403   9.721  12.833
66528SOL     OW99609  12.332   9.517  12.649
66528SOL    HW199610  12.332   9.581  12.726
66528SOL    HW299611  12.360   9.565  12.566
66529SOL     OW99612  11.180  10.636  11.372
66529SOL    HW199613  11.087  10.657  11.341
66529SOL    HW299614  11.190  10.537  11.385
66530SOL     OW99615  11.260  11.111  12.099
66530SOL    HW199616  11.218  11.025  12.072
66530SOL    HW299617  11.354  11.114  12.065
66531SOL     OW99618  11.676  10.878  12.082
66531SOL    HW199619  11.742  10.952  12.091
66531SOL    HW299620  11.720  10.799  12.040
66532SOL     OW99621  12.174  10.106  12.410
66532SOL    HW199622  12.215  10.074  12.496
66532SOL    HW299623  12.078  10.079  12.407
66533SOL     OW99624  11.212   9.854  12.286
66533SOL    HW199625  11.297   9.821  12.245
66533SOL    HW299626  11.225   9.869  12.384
66534SOL     OW99627  11.987   9.882  11.497
66534SOL    HW199628  11.994   9.793  11.451
66534SOL    HW299629  11.893   9.916  11.489
66535SOL     OW99630  11.843   9.774  12.441
66535SOL    HW199631  11.809   9.685  12.411
66535SOL    HW299632  11.869   9.828  12.361
66536SOL     OW99633  12.102  10.988  12.637
66536SOL    HW199634  12.078  10.970  12.542
66536SOL    HW299635  12.132  11.082  12.647
66537SOL     OW99636  11.645   9.810  11.363
66537SOL    HW199637  11.706   9.890  11.367
66537SOL    HW299638  11.550   9.841  11.370
66538SOL     OW99639  11.331  10.447  12.638
66538SOL    HW199640  11.353  10.386  12.714
66538SOL    HW299641  11.341  10.398  12.552
66539SOL     OW99642  12.519  10.369  12.406
66539SOL    HW199643  12.543  10.306  12.332
66539SOL    HW299644  12.429  10.409  12.388
66540SOL     OW99645  12.474  10.165  11.481
66540SOL    HW199646  12.388  10.134  11.523
66540SOL    HW299647  12.470  10.151  11.382
66541SOL     OW99648  12.424  11.041  12.300
66541SOL    HW199649  12.508  11.046  12.246
66541SOL    HW299650  12.401  10.945  12.318
66542SOL     OW99651  11.255  10.568  12.194
66542SOL    HW199652  11.250  10.567  12.294
66542SOL    HW299653  11.172  10.527  12.156
66543SOL     OW99654  12.898   9.445  11.695
66543SOL    HW199655  12.971   9.428  11.628
66543SOL    HW299656  12.867   9.358  11.733
66544SOL     OW99657  12.560  10.883  11.649
66544SOL    HW199658  12.627  10.895  11.575
66544SOL    HW299659  12.520  10.972  11.672
66545SOL     OW99660  12.452  10.237  11.844
66545SOL    HW199661  12.512  10.156  11.846
66545SOL    HW299662  12.492  10.306  11.784
66546SOL     OW99663  11.844  10.926  11.326
66546SOL    HW199664  11.853  10.936  11.227
66546SOL    HW299665  11.804  10.837  11.347
66547SOL     OW99666  11.435   9.636  11.892
66547SOL    HW199667  11.356   9.687  11.858
66547SOL    HW299668  11.426   9.621  11.990
66548SOL     OW99669  12.366  10.922  11.203
66548SOL    HW199670  12.372  10.829  11.240
66548SOL    HW299671  12.307  10.922  11.123
66549SOL     OW99672  11.994  10.312  12.544
66549SOL    HW199673  12.034  10.311  12.452
66549SOL    HW299674  12.004  10.404  12.584
66550SOL     OW99675  12.088  10.220  11.463
66550SOL    HW199676  12.151  10.258  11.395
66550SOL    HW299677  12.128  10.137  11.502
66551SOL     OW99678  11.544  10.598  12.662
66551SOL    HW199679  11.531  10.691  12.628
66551SOL    HW299680  11.460  10.546  12.649
66552SOL     OW99681  12.211  10.408  11.868
66552SOL    HW199682  12.141  10.361  11.922
66552SOL    HW299683  12.270  10.340  11.825
66553SOL     OW99684  12.186   9.546  12.143
66553SOL    HW199685  12.178   9.510  12.050
66553SOL    HW299686  12.184   9.470  12.208
66554SOL     OW99687  11.762  10.797  11.663
66554SOL    HW199688  11.804  10.739  11.593
66554SOL    HW299689  11.718  10.876  11.619
66555SOL     OW99690  11.427  10.658  11.462
66555SOL    HW199691  11.331  10.659  11.435
66555SOL    HW299692  11.439  10.711  11.546
66556SOL     OW99693  11.247   9.655  11.205
66556SOL    HW199694  11.155   9.627  11.176
66556SOL    HW299695  11.278   9.732  11.149
66557SOL     OW99696  12.612  10.166  12.570
66557SOL    HW199697  12.555  10.218  12.507
66557SOL    HW299698  12.708  10.178  12.546
66558SOL     OW99699  11.244   9.476  11.490
66558SOL    HW199700  11.227   9.559  11.436
66558SOL    HW299701  11.334   9.439  11.468
66559SOL     OW99702  12.355  10.645  11.291
66559SOL    HW199703  12.256  10.634  11.293
66559SOL    HW299704  12.389  10.660  11.384
66560SOL     OW99705  11.785  10.152  12.603
66560SOL    HW199706  11.841  10.233  12.586
66560SOL    HW299707  11.844  10.072  12.606
66561SOL     OW99708  11.562  11.051  12.732
66561SOL    HW199709  11.471  11.092  12.730
66561SOL    HW299710  11.555  10.957  12.764
66562SOL     OW99711  12.397   9.635  11.621
66562SOL    HW199712  12.462   9.561  11.610
66562SOL    HW299713  12.417   9.685  11.705
66563SOL     OW99714  11.766  10.055  11.824
66563SOL    HW199715  11.816  10.140  11.805
66563SOL    HW299716  11.678  10.057  11.776
66564SOL     OW99717  12.031  10.684  11.188
66564SOL    HW199718  11.985  10.699  11.276
66564SOL    HW299719  12.075  10.769  11.158
66565SOL     OW99720  11.833  11.100  12.125
66565SOL    HW199721  11.787  11.188  12.112
66565SOL    HW299722  11.932  11.112  12.118
66566SOL     OW99723  12.031  10.266  12.033
66566SOL    HW199724  12.085  10.197  12.081
66566SOL    HW299725  11.999  10.335  12.099
66567SOL     OW99726  12.255  10.294  11.259
66567SOL    HW199727  12.232  10.347  11.177
66567SOL    HW299728  12.336  10.238  11.240
66568SOL     OW99729  11.251  10.550  11.825
66568SOL    HW199730  11.250  10.503  11.913
66568SOL    HW299731  11.333  10.522  11.774
66569SOL     OW99732  11.600   9.734  11.692
66569SOL    HW199733  11.630   9.662  11.630
66569SOL    HW299734  11.561   9.694  11.775
66570SOL     OW99735  12.877  10.797  12.276
66570SOL    HW199736  12.784  10.772  12.249
66570SOL    HW299737  12.903  10.747  12.358
66571SOL     OW99738  11.489   9.857  12.452
66571SOL    HW199739  11.527   9.798  12.524
66571SOL    HW299740  11.529   9.831  12.364
66572SOL     OW99741  11.984  10.896  11.859
66572SOL    HW199742  12.016  10.906  11.765
66572SOL    HW299743  11.905  10.834  11.861
66573SOL     OW99744  12.596   9.524  12.284
66573SOL    HW199745  12.648   9.459  12.339
66573SOL    HW299746  12.547   9.587  12.345
66574SOL     OW99747  12.173   9.344  12.326
66574SOL    HW199748  12.110   9.272  12.295
66574SOL    HW299749  12.266   9.308  12.326
66575SOL     OW99750  11.942  10.640  11.473
66575SOL    HW199751  11.896  10.553  11.490
66575SOL    HW299752  12.033  10.637  11.514
66576SOL     OW99753  11.790  10.877  12.456
66576SOL    HW199754  11.785  10.959  12.513
66576SOL    HW299755  11.879  10.874  12.411
66577SOL     OW99756  12.524   9.362  11.340
66577SOL    HW199757  12.559   9.321  11.256
66577SOL    HW299758  12.434   9.324  11.360
66578SOL     OW99759  12.472   9.763  11.863
66578SOL    HW199760  12.413   9.843  11.867
66578SOL    HW299761  12.487   9.728  11.956
66579SOL     OW99762  11.211  10.387  11.472
66579SOL    HW199763  11.310  10.376  11.463
66579SOL    HW299764  11.171  10.301  11.504
66580SOL     OW99765  12.047  10.956  11.509
66580SOL    HW199766  11.970  10.921  11.455
66580SOL    HW299767  12.015  11.027  11.571
66581SOL     OW99768  11.402  11.800   0.113
66581SOL    HW199769  11.309  11.798   0.150
66581SOL    HW299770  11.403  11.761   0.021
66582SOL     OW99771  11.397  11.447   0.996
66582SOL    HW199772  11.432  11.430   1.088
66582SOL    HW299773  11.309  11.402   0.984
66583SOL     OW99774  11.191  11.540   0.647
66583SOL    HW199775  11.109  11.583   0.686
66583SOL    HW299776  11.163  11.467   0.584
66584SOL     OW99777  11.741  12.447   1.165
66584SOL    HW199778  11.648  12.440   1.128
66584SOL    HW299779  11.752  12.536   1.209
66585SOL     OW99780  12.727  12.683   0.703
66585SOL    HW199781  12.670  12.667   0.784
66585SOL    HW299782  12.668  12.693   0.623
66586SOL     OW99783  12.307  11.875   0.717
66586SOL    HW199784  12.364  11.953   0.692
66586SOL    HW299785  12.247  11.901   0.793
66587SOL     OW99786  11.940  12.316   1.023
66587SOL    HW199787  11.862  12.333   1.083
66587SOL    HW299788  11.974  12.403   0.987
66588SOL     OW99789  12.022  11.970   1.823
66588SOL    HW199790  12.018  12.046   1.888
66588SOL    HW299791  12.044  12.006   1.732
66589SOL     OW99792  11.857  12.184   0.665
66589SOL    HW199793  11.926  12.168   0.735
66589SOL    HW299794  11.784  12.241   0.703
66590SOL     OW99795  11.858  12.333   1.803
66590SOL    HW199796  11.918  12.412   1.817
66590SOL    HW299797  11.772  12.364   1.762
66591SOL     OW99798  11.507  12.607   1.061
66591SOL    HW199799  11.429  12.576   1.008
66591SOL    HW299800  11.565  12.665   1.004
66592SOL     OW99801  11.610  11.564   1.499
66592SOL    HW199802  11.692  11.508   1.508
66592SOL    HW299803  11.529  11.506   1.503
66593SOL     OW99804  11.403  12.885   0.483
66593SOL    HW199805  11.437  12.962   0.537
66593SOL    HW299806  11.447  12.885   0.393
66594SOL     OW99807  12.299  12.513   1.690
66594SOL    HW199808  12.346  12.513   1.778
66594SOL    HW299809  12.251  12.426   1.679
66595SOL     OW99810  11.402  12.606   0.538
66595SOL    HW199811  11.376  12.702   0.538
66595SOL    HW299812  11.331  12.552   0.583
66596SOL     OW99813  11.412  12.263   0.886
66596SOL    HW199814  11.426  12.179   0.938
66596SOL    HW299815  11.357  12.327   0.941
66597SOL     OW99816  11.778  12.136   0.123
66597SOL    HW199817  11.785  12.220   0.069
66597SOL    HW299818  11.824  12.149   0.211
66598SOL     OW99819  11.294  11.815   0.563
66598SOL    HW199820  11.249  11.727   0.580
66598SOL    HW299821  11.293  11.869   0.647
66599SOL     OW99822  11.199  12.768   0.117
66599SOL    HW199823  11.180  12.672   0.138
66599SOL    HW299824  11.166  12.826   0.192
66600SOL     OW99825  12.861  12.094   0.612
66600SOL    HW199826  12.956  12.065   0.620
66600SOL    HW299827  12.853  12.159   0.537
66601SOL     OW99828  11.285  11.909   1.597
66601SOL    HW199829  11.373  11.896   1.642
66601SOL    HW299830  11.272  12.006   1.575
66602SOL     OW99831  11.785  12.537   0.726
66602SOL    HW199832  11.736  12.450   0.735
66602SOL    HW299833  11.762  12.580   0.639
66603SOL     OW99834  12.465  12.400   1.423
66603SOL    HW199835  12.502  12.327   1.365
66603SOL    HW299836  12.517  12.405   1.508
66604SOL     OW99837  11.981  11.176   0.502
66604SOL    HW199838  12.021  11.267   0.493
66604SOL    HW299839  11.881  11.184   0.508
66605SOL     OW99840  11.369  12.148   1.264
66605SOL    HW199841  11.458  12.103   1.250
66605SOL    HW299842  11.296  12.083   1.245
66606SOL     OW99843  11.489  11.423   1.801
66606SOL    HW199844  11.560  11.494   1.807
66606SOL    HW299845  11.401  11.462   1.829
66607SOL     OW99846  12.638  12.589   0.953
66607SOL    HW199847  12.579  12.595   1.033
66607SOL    HW299848  12.623  12.501   0.907
66608SOL     OW99849  11.770  11.901   0.270
66608SOL    HW199850  11.794  11.970   0.202
66608SOL    HW299851  11.692  11.934   0.324
66609SOL     OW99852  12.453  11.517   0.944
66609SOL    HW199853  12.367  11.467   0.931
66609SOL    HW299854  12.515  11.463   1.000
66610SOL     OW99855  11.979  11.777   1.465
66610SOL    HW199856  11.932  11.774   1.554
66610SOL    HW299857  11.928  11.722   1.399
66611SOL     OW99858  12.566  11.641   1.674
66611SOL    HW199859  12.546  11.684   1.762
66611SOL    HW299860  12.644  11.579   1.683
66612SOL     OW99861  12.145  12.062   1.572
66612SOL    HW199862  12.191  11.978   1.543
66612SOL    HW299863  12.089  12.096   1.497
66613SOL     OW99864  12.163  11.582   1.242
66613SOL    HW199865  12.086  11.616   1.296
66613SOL    HW299866  12.129  11.531   1.163
66614SOL     OW99867  12.213  11.873   0.429
66614SOL    HW199868  12.239  11.869   0.525
66614SOL    HW299869  12.128  11.822   0.415
66615SOL     OW99870  11.248  11.983   0.789
66615SOL    HW199871  11.347  11.971   0.798
66615SOL    HW299872  11.224  12.078   0.810
66616SOL     OW99873  12.037  11.520   0.195
66616SOL    HW199874  12.096  11.583   0.146
66616SOL    HW299875  12.056  11.426   0.166
66617SOL     OW99876  12.534  12.316   0.545
66617SOL    HW199877  12.617  12.287   0.497
66617SOL    HW299878  12.485  12.383   0.489
66618SOL     OW99879  11.722  11.368   0.885
66618SOL    HW199880  11.717  11.363   0.985
66618SOL    HW299881  11.724  11.464   0.856
66619SOL     OW99882  12.180  12.628   0.477
66619SOL    HW199883  12.134  12.700   0.425
66619SOL    HW299884  12.176  12.648   0.575
66620SOL     OW99885  12.399  12.722   1.506
66620SOL    HW199886  12.405  12.645   1.570
66620SOL    HW299887  12.347  12.696   1.426
66621SOL     OW99888  11.493  12.115   0.242
66621SOL    HW199889  11.575  12.154   0.200
66621SOL    HW299890  11.466  12.033   0.193
66622SOL     OW99891  11.633  12.438   1.727
66622SOL    HW199892  11.583  12.439   1.641
66622SOL    HW299893  11.570  12.420   1.803
66623SOL     OW99894  12.283  12.948   0.237
66623SOL    HW199895  12.223  12.886   0.287
66623SOL    HW299896  12.314  12.904   0.152
66624SOL     OW99897  11.374  11.457   1.498
66624SOL    HW199898  11.294  11.517   1.485
66624SOL    HW299899  11.364  11.408   1.584
66625SOL     OW99900  12.572  11.279   0.426
66625SOL    HW199901  12.548  11.242   0.336
66625SOL    HW299902  12.671  11.295   0.430
66626SOL     OW99903  11.554  11.872   0.480
66626SOL    HW199904  11.599  11.782   0.477
66626SOL    HW299905  11.460  11.861   0.513
66627SOL     OW99906  11.786  11.294   0.117
66627SOL    HW199907  11.884  11.272   0.124
66627SOL    HW299908  11.755  11.277   0.024
66628SOL     OW99909  11.953  11.436   1.749
66628SOL    HW199910  12.020  11.375   1.792
66628SOL    HW299911  11.880  11.455   1.814
66629SOL     OW99912  12.523  11.762   1.433
66629SOL    HW199913  12.551  11.719   1.518
66629SOL    HW299914  12.548  11.858   1.434
66630SOL     OW99915  11.975  12.574   0.924
66630SOL    HW199916  12.065  12.588   0.882
66630SOL    HW299917  11.904  12.576   0.853
66631SOL     OW99918  12.094  11.675   0.899
66631SOL    HW199919  12.069  11.666   0.803
66631SOL    HW299920  12.142  11.593   0.930
66632SOL     OW99921  11.711  11.236   0.512
66632SOL    HW199922  11.630  11.237   0.570
66632SOL    HW299923  11.714  11.319   0.457
66633SOL     OW99924  12.606  12.360   0.041
66633SOL    HW199925  12.638  12.284   0.098
66633SOL    HW299926  12.514  12.387   0.071
66634SOL     OW99927  11.469  11.207   0.171
66634SOL    HW199928  11.518  11.291   0.150
66634SOL    HW299929  11.531  11.142   0.216
66635SOL     OW99930  12.107  11.408   0.480
66635SOL    HW199931  12.059  11.449   0.402
66635SOL    HW299932  12.206  11.406   0.461
66636SOL     OW99933  12.248  11.855   1.464
66636SOL    HW199934  12.168  11.794   1.467
66636SOL    HW299935  12.329  11.802   1.440
66637SOL     OW99936  12.399  12.742   0.793
66637SOL    HW199937  12.420  12.816   0.728
66637SOL    HW299938  12.467  12.742   0.866
66638SOL     OW99939  11.631  12.324   0.741
66638SOL    HW199940  11.560  12.297   0.806
66638SOL    HW299941  11.605  12.296   0.648
66639SOL     OW99942  12.204  11.721   0.016
66639SOL    HW199943  12.163  11.803  -0.023
66639SOL    HW299944  12.268  11.747   0.089
66640SOL     OW99945  11.250  11.728   1.386
66640SOL    HW199946  11.342  11.727   1.345
66640SOL    HW299947  11.244  11.802   1.453
66641SOL     OW99948  11.733  11.394   1.147
66641SOL    HW199949  11.771  11.310   1.184
66641SOL    HW299950  11.645  11.413   1.191
66642SOL     OW99951  12.038  11.626   0.642
66642SOL    HW199952  12.006  11.698   0.580
66642SOL    HW299953  12.062  11.545   0.589
66643SOL     OW99954  12.189  11.211   0.753
66643SOL    HW199955  12.117  11.216   0.684
66643SOL    HW299956  12.165  11.142   0.822
66644SOL     OW99957  12.601  12.345   0.867
66644SOL    HW199958  12.546  12.261   0.860
66644SOL    HW299959  12.627  12.374   0.775
66645SOL     OW99960  11.660  12.557   0.174
66645SOL    HW199961  11.573  12.542   0.221
66645SOL    HW299962  11.643  12.583   0.079
66646SOL     OW99963  12.562  11.747   0.078
66646SOL    HW199964  12.508  11.726   0.159
66646SOL    HW299965  12.653  11.706   0.087
66647SOL     OW99966  11.699  11.428   0.328
66647SOL    HW199967  11.726  11.369   0.253
66647SOL    HW299968  11.699  11.523   0.297
66648SOL     OW99969  12.236  12.519   1.340
66648SOL    HW199970  12.156  12.496   1.395
66648SOL    HW299971  12.319  12.493   1.389
66649SOL     OW99972  12.283  12.367   1.100
66649SOL    HW199973  12.243  12.411   1.181
66649SOL    HW299974  12.242  12.404   1.017
66650SOL     OW99975  12.087  11.261   1.402
66650SOL    HW199976  12.112  11.241   1.307
66650SOL    HW299977  12.159  11.317   1.444
66651SOL     OW99978  12.152  12.288   1.719
66651SOL    HW199979  12.053  12.294   1.729
66651SOL    HW299980  12.175  12.208   1.663
66652SOL     OW99981  11.877  12.222   0.368
66652SOL    HW199982  11.863  12.229   0.467
66652SOL    HW299983  11.961  12.171   0.350
66653SOL     OW99984  11.582  11.985   1.251
66653SOL    HW199985  11.668  11.997   1.301
66653SOL    HW299986  11.540  11.898   1.278
66654SOL     OW99987  12.446  11.558   1.262
66654SOL    HW199988  12.467  11.632   1.326
66654SOL    HW299989  12.357  11.575   1.219
66655SOL     OW99990  11.539  12.272   0.501
66655SOL    HW199991  11.532  12.355   0.445
66655SOL    HW299992  11.543  12.192   0.441
66656SOL     OW99993  11.738  11.709   0.865
66656SOL    HW199994  11.750  11.775   0.791
66656SOL    HW299995  11.784  11.743   0.948
66657SOL     OW99996  12.424  12.520   0.388
66657SOL    HW199997  12.474  12.597   0.428
66657SOL    HW299998  12.329  12.522   0.420
66658SOL     OW99999  12.444  12.617   1.142
66658SOL    HW1    0  12.491  12.630   1.229
66658SOL    HW2    1  12.378  12.543   1.151
66659SOL     OW    2  11.526  12.682   1.329
66659SOL    HW1    3  11.505  12.638   1.242
66659SOL    HW2    4  11.623  12.708   1.332
66660SOL     OW    5  11.574  11.923   1.598
66660SOL    HW1    6  11.642  11.978   1.551
66660SOL    HW2    7  11.614  11.835   1.625
66661SOL     OW    8  12.185  11.277   1.770
66661SOL    HW1    9  12.191  11.362   1.718
66661SOL    HW2   10  12.217  11.201   1.713
66662SOL     OW   11  11.676  11.222   1.740
66662SOL    HW1   12  11.634  11.165   1.670
66662SOL    HW2   13  11.610  11.291   1.772
66663SOL     OW   14  11.745  12.042   1.029
66663SOL    HW1   15  11.789  12.131   1.020
66663SOL    HW2   16  11.682  12.042   1.106
66664SOL     OW   17  12.532  12.034   1.045
66664SOL    HW1   18  12.457  12.034   0.979
66664SOL    HW2   19  12.569  11.942   1.054
66665SOL     OW   20  12.381  11.697   0.275
66665SOL    HW1   21  12.394  11.613   0.329
66665SOL    HW2   22  12.352  11.771   0.335
66666SOL     OW   23  11.479  11.385   1.231
66666SOL    HW1   24  11.456  11.422   1.321
66666SOL    HW2   25  11.449  11.290   1.225
66667SOL     OW   26  11.209  12.482   1.282
66667SOL    HW1   27  11.262  12.433   1.350
66667SOL    HW2   28  11.231  12.580   1.287
66668SOL     OW   29  11.904  11.806   1.064
66668SOL    HW1   30  11.963  11.780   0.988
66668SOL    HW2   31  11.876  11.902   1.053
66669SOL     OW   32  11.479  11.235   0.618
66669SOL    HW1   33  11.468  11.329   0.651
66669SOL    HW2   34  11.474  11.172   0.695
66670SOL     OW   35  12.794  11.539   0.374
66670SOL    HW1   36  12.796  11.463   0.438
66670SOL    HW2   37  12.746  11.616   0.414
66671SOL     OW   38  12.195  11.938   0.966
66671SOL    HW1   39  12.210  11.959   1.062
66671SOL    HW2   40  12.165  11.843   0.957
66672SOL     OW   41  11.522  12.070   1.804
66672SOL    HW1   42  11.598  12.114   1.852
66672SOL    HW2   43  11.557  12.023   1.722
66673SOL     OW   44  12.475  12.010   0.042
66673SOL    HW1   45  12.509  11.917   0.057
66673SOL    HW2   46  12.493  12.037  -0.053
66674SOL     OW   47  12.240  12.505   0.849
66674SOL    HW1   48  12.247  12.421   0.794
66674SOL    HW2   49  12.302  12.574   0.813
66675SOL     OW   50  11.491  11.982   0.949
66675SOL    HW1   51  11.584  12.018   0.954
66675SOL    HW2   52  11.485  11.897   1.001
66676SOL     OW   53  11.511  11.681   1.006
66676SOL    HW1   54  11.459  11.598   0.989
66676SOL    HW2   55  11.588  11.686   0.942
66677SOL     OW   56  12.310  11.552   1.678
66677SOL    HW1   57  12.265  11.615   1.742
66677SOL    HW2   58  12.403  11.583   1.661
66678SOL     OW   59  12.332  11.379   1.477
66678SOL    HW1   60  12.332  11.443   1.554
66678SOL    HW2   61  12.360  11.427   1.394
66679SOL     OW   62  11.180  12.498   0.200
66679SOL    HW1   63  11.087  12.519   0.169
66679SOL    HW2   64  11.190  12.399   0.213
66680SOL     OW   65  12.174  11.968   1.238
66680SOL    HW1   66  12.215  11.936   1.324
66680SOL    HW2   67  12.078  11.941   1.235
66681SOL     OW   68  11.212  11.716   1.114
66681SOL    HW1   69  11.297  11.683   1.073
66681SOL    HW2   70  11.225  11.731   1.212
66682SOL     OW   71  11.361  11.692   1.722
66682SOL    HW1   72  11.420  11.652   1.652
66682SOL    HW2   73  11.303  11.763   1.681
66683SOL     OW   74  12.541  12.122   1.660
66683SOL    HW1   75  12.580  12.211   1.680
66683SOL    HW2   76  12.551  12.102   1.563
66684SOL     OW   77  11.987  11.744   0.325
66684SOL    HW1   78  11.994  11.655   0.279
66684SOL    HW2   79  11.893  11.778   0.317
66685SOL     OW   80  11.424  12.736   1.744
66685SOL    HW1   81  11.394  12.793   1.820
66685SOL    HW2   82  11.417  12.639   1.770
66686SOL     OW   83  11.843  11.636   1.269
66686SOL    HW1   84  11.809  11.547   1.239
66686SOL    HW2   85  11.869  11.690   1.189
66687SOL     OW   86  11.645  11.672   0.191
66687SOL    HW1   87  11.706  11.752   0.195
66687SOL    HW2   88  11.550  11.703   0.198
66688SOL     OW   89  11.331  12.309   1.466
66688SOL    HW1   90  11.353  12.248   1.542
66688SOL    HW2   91  11.341  12.260   1.380
66689SOL     OW   92  12.519  12.231   1.234
66689SOL    HW1   93  12.543  12.168   1.160
66689SOL    HW2   94  12.429  12.271   1.216
66690SOL     OW   95  12.474  12.027   0.309
66690SOL    HW1   96  12.388  11.996   0.351
66690SOL    HW2   97  12.470  12.013   0.210
66691SOL     OW   98  11.255  12.430   1.022
66691SOL    HW1   99  11.250  12.429   1.122
66691SOL    HW2  100  11.172  12.389   0.984
66692SOL     OW  101  12.075  11.258   0.133
66692SOL    HW1  102  12.126  11.259   0.047
66692SOL    HW2  103  12.131  11.216   0.204
66693SOL     OW  104  12.898  11.307   0.523
66693SOL    HW1  105  12.971  11.290   0.456
66693SOL    HW2  106  12.867  11.220   0.561
66694SOL     OW  107  12.452  12.099   0.672
66694SOL    HW1  108  12.512  12.018   0.674
66694SOL    HW2  109  12.492  12.168   0.612
66695SOL     OW  110  12.002  12.445   1.422
66695SOL    HW1  111  11.997  12.478   1.517
66695SOL    HW2  112  11.916  12.464   1.376
66696SOL     OW  113  11.435  11.498   0.720
66696SOL    HW1  114  11.356  11.549   0.686
66696SOL    HW2  115  11.426  11.483   0.818
66697SOL     OW  116  12.366  12.784   0.031
66697SOL    HW1  117  12.372  12.691   0.068
66697SOL    HW2  118  12.307  12.784  -0.049
66698SOL     OW  119  11.994  12.174   1.372
66698SOL    HW1  120  12.034  12.173   1.280
66698SOL    HW2  121  12.004  12.266   1.412
66699SOL     OW  122  12.088  12.082   0.291
66699SOL    HW1  123  12.151  12.120   0.223
66699SOL    HW2  124  12.128  11.999   0.330
66700SOL     OW  125  11.544  12.460   1.490
66700SOL    HW1  126  11.531  12.553   1.456
66700SOL    HW2  127  11.460  12.408   1.477
66701SOL     OW  128  12.211  12.270   0.696
66701SOL    HW1  129  12.141  12.223   0.750
66701SOL    HW2  130  12.270  12.202   0.653
66702SOL     OW  131  12.186  11.408   0.971
66702SOL    HW1  132  12.178  11.372   0.878
66702SOL    HW2  133  12.184  11.332   1.036
66703SOL     OW  134  11.427  12.520   0.290
66703SOL    HW1  135  11.331  12.521   0.263
66703SOL    HW2  136  11.439  12.573   0.374
66704SOL     OW  137  11.277  12.185   1.726
66704SOL    HW1  138  11.200  12.152   1.780
66704SOL    HW2  139  11.362  12.155   1.768
66705SOL     OW  140  11.844  11.375   1.489
66705SOL    HW1  141  11.934  11.359   1.449
66705SOL    HW2  142  11.852  11.380   1.588
66706SOL     OW  143  12.612  12.028   1.398
66706SOL    HW1  144  12.555  12.080   1.335
66706SOL    HW2  145  12.708  12.040   1.374
66707SOL     OW  146  11.244  11.338   0.318
66707SOL    HW1  147  11.227  11.421   0.264
66707SOL    HW2  148  11.334  11.301   0.296
66708SOL     OW  149  12.355  12.507   0.119
66708SOL    HW1  150  12.256  12.496   0.121
66708SOL    HW2  151  12.389  12.522   0.212
66709SOL     OW  152  11.785  12.014   1.431
66709SOL    HW1  153  11.841  12.095   1.414
66709SOL    HW2  154  11.844  11.934   1.434
66710SOL     OW  155  11.888  11.737   1.708
66710SOL    HW1  156  11.907  11.802   1.782
66710SOL    HW2  157  11.948  11.657   1.717
66711SOL     OW  158  12.622  12.392   1.633
66711SOL    HW1  159  12.613  12.382   1.732
66711SOL    HW2  160  12.718  12.385   1.607
66712SOL     OW  161  12.397  11.497   0.449
66712SOL    HW1  162  12.462  11.423   0.438
66712SOL    HW2  163  12.417  11.547   0.533
66713SOL     OW  164  11.766  11.917   0.652
66713SOL    HW1  165  11.816  12.002   0.633
66713SOL    HW2  166  11.678  11.919   0.604
66714SOL     OW  167  12.031  12.546   0.016
66714SOL    HW1  168  11.985  12.561   0.104
66714SOL    HW2  169  12.075  12.631  -0.014
66715SOL     OW  170  12.031  12.128   0.861
66715SOL    HW1  171  12.085  12.059   0.909
66715SOL    HW2  172  11.999  12.197   0.927
66716SOL     OW  173  12.255  12.156   0.087
66716SOL    HW1  174  12.232  12.209   0.005
66716SOL    HW2  175  12.336  12.100   0.068
66717SOL     OW  176  11.393  12.486   1.844
66717SOL    HW1  177  11.328  12.413   1.823
66717SOL    HW2  178  11.397  12.500   1.942
66718SOL     OW  179  11.251  12.412   0.653
66718SOL    HW1  180  11.250  12.365   0.741
66718SOL    HW2  181  11.333  12.384   0.602
66719SOL     OW  182  11.844  12.563   1.624
66719SOL    HW1  183  11.766  12.513   1.662
66719SOL    HW2  184  11.841  12.658   1.655
66720SOL     OW  185  11.600  11.596   0.520
66720SOL    HW1  186  11.630  11.524   0.458
66720SOL    HW2  187  11.561  11.556   0.603
66721SOL     OW  188  12.877  12.659   1.104
66721SOL    HW1  189  12.784  12.634   1.077
66721SOL    HW2  190  12.903  12.609   1.186
66722SOL     OW  191  11.489  11.719   1.280
66722SOL    HW1  192  11.527  11.660   1.352
66722SOL    HW2  193  11.529  11.693   1.192
66723SOL     OW  194  12.596  11.386   1.112
66723SOL    HW1  195  12.648  11.321   1.167
66723SOL    HW2  196  12.547  11.449   1.173
66724SOL     OW  197  12.173  11.206   1.154
66724SOL    HW1  198  12.110  11.134   1.123
66724SOL    HW2  199  12.266  11.170   1.154
66725SOL     OW  200  11.942  12.502   0.301
66725SOL    HW1  201  11.896  12.415   0.318
66725SOL    HW2  202  12.033  12.499   0.342
66726SOL     OW  203  11.790  12.739   1.284
66726SOL    HW1  204  11.785  12.821   1.341
66726SOL    HW2  205  11.879  12.736   1.239
66727SOL     OW  206  12.524  11.224   0.168
66727SOL    HW1  207  12.559  11.183   0.084
66727SOL    HW2  208  12.434  11.186   0.188
66728SOL     OW  209  12.472  11.625   0.691
66728SOL    HW1  210  12.413  11.705   0.695
66728SOL    HW2  211  12.487  11.590   0.784
66729SOL     OW  212  11.211  12.249   0.300
66729SOL    HW1  213  11.310  12.238   0.291
66729SOL    HW2  214  11.171  12.163   0.332
66730SOL     OW  215  11.402  11.800   1.975
66730SOL    HW1  216  11.309  11.798   2.012
66730SOL    HW2  217  11.403  11.761   1.883
66731SOL     OW  218  11.397  11.447   2.858
66731SOL    HW1  219  11.432  11.430   2.950
66731SOL    HW2  220  11.309  11.402   2.846
66732SOL     OW  221  11.191  11.540   2.509
66732SOL    HW1  222  11.109  11.583   2.548
66732SOL    HW2  223  11.163  11.467   2.446
66733SOL     OW  224  11.741  12.447   3.027
66733SOL    HW1  225  11.648  12.440   2.990
66733SOL    HW2  226  11.752  12.536   3.071
66734SOL     OW  227  12.727  12.683   2.565
66734SOL    HW1  228  12.670  12.667   2.646
66734SOL    HW2  229  12.668  12.693   2.485
66735SOL     OW  230  12.307  11.875   2.579
66735SOL    HW1  231  12.364  11.953   2.554
66735SOL    HW2  232  12.247  11.901   2.655
66736SOL     OW  233  11.940  12.316   2.885
66736SOL    HW1  234  11.862  12.333   2.945
66736SOL    HW2  235  11.974  12.403   2.849
66737SOL     OW  236  12.022  11.970   3.685
66737SOL    HW1  237  12.018  12.046   3.750
66737SOL    HW2  238  12.044  12.006   3.594
66738SOL     OW  239  11.857  12.184   2.527
66738SOL    HW1  240  11.926  12.168   2.597
66738SOL    HW2  241  11.784  12.241   2.565
66739SOL     OW  242  11.858  12.333   3.665
66739SOL    HW1  243  11.918  12.412   3.679
66739SOL    HW2  244  11.772  12.364   3.624
66740SOL     OW  245  11.507  12.607   2.923
66740SOL    HW1  246  11.429  12.576   2.870
66740SOL    HW2  247  11.565  12.665   2.866
66741SOL     OW  248  11.610  11.564   3.361
66741SOL    HW1  249  11.692  11.508   3.370
66741SOL    HW2  250  11.529  11.506   3.365
66742SOL     OW  251  11.403  12.885   2.345
66742SOL    HW1  252  11.437  12.962   2.399
66742SOL    HW2  253  11.447  12.885   2.255
66743SOL     OW  254  12.299  12.513   3.552
66743SOL    HW1  255  12.346  12.513   3.640
66743SOL    HW2  256  12.251  12.426   3.541
66744SOL     OW  257  11.402  12.606   2.400
66744SOL    HW1  258  11.376  12.702   2.400
66744SOL    HW2  259  11.331  12.552   2.445
66745SOL     OW  260  11.412  12.263   2.748
66745SOL    HW1  261  11.426  12.179   2.800
66745SOL    HW2  262  11.357  12.327   2.803
66746SOL     OW  263  11.778  12.136   1.985
66746SOL    HW1  264  11.785  12.220   1.931
66746SOL    HW2  265  11.824  12.149   2.073
66747SOL     OW  266  11.294  11.815   2.425
66747SOL    HW1  267  11.249  11.727   2.442
66747SOL    HW2  268  11.293  11.869   2.509
66748SOL     OW  269  11.199  12.768   1.979
66748SOL    HW1  270  11.180  12.672   2.000
66748SOL    HW2  271  11.166  12.826   2.054
66749SOL     OW  272  12.861  12.094   2.474
66749SOL    HW1  273  12.956  12.065   2.482
66749SOL    HW2  274  12.853  12.159   2.399
66750SOL     OW  275  11.285  11.909   3.459
66750SOL    HW1  276  11.373  11.896   3.504
66750SOL    HW2  277  11.272  12.006   3.437
66751SOL     OW  278  11.785  12.537   2.588
66751SOL    HW1  279  11.736  12.450   2.597
66751SOL    HW2  280  11.762  12.580   2.501
66752SOL     OW  281  12.465  12.400   3.285
66752SOL    HW1  282  12.502  12.327   3.227
66752SOL    HW2  283  12.517  12.405   3.370
66753SOL     OW  284  11.981  11.176   2.364
66753SOL    HW1  285  12.021  11.267   2.355
66753SOL    HW2  286  11.881  11.184   2.370
66754SOL     OW  287  11.369  12.148   3.126
66754SOL    HW1  288  11.458  12.103   3.112
66754SOL    HW2  289  11.296  12.083   3.107
66755SOL     OW  290  11.489  11.423   3.663
66755SOL    HW1  291  11.560  11.494   3.669
66755SOL    HW2  292  11.401  11.462   3.691
66756SOL     OW  293  12.638  12.589   2.815
66756SOL    HW1  294  12.579  12.595   2.895
66756SOL    HW2  295  12.623  12.501   2.769
66757SOL     OW  296  11.770  11.901   2.132
66757SOL    HW1  297  11.794  11.970   2.064
66757SOL    HW2  298  11.692  11.934   2.186
66758SOL     OW  299  12.453  11.517   2.806
66758SOL    HW1  300  12.367  11.467   2.793
66758SOL    HW2  301  12.515  11.463   2.862
66759SOL     OW  302  11.979  11.777   3.327
66759SOL    HW1  303  11.932  11.774   3.416
66759SOL    HW2  304  11.928  11.722   3.261
66760SOL     OW  305  12.566  11.641   3.536
66760SOL    HW1  306  12.546  11.684   3.624
66760SOL    HW2  307  12.644  11.579   3.545
66761SOL     OW  308  12.145  12.062   3.434
66761SOL    HW1  309  12.191  11.978   3.405
66761SOL    HW2  310  12.089  12.096   3.359
66762SOL     OW  311  12.163  11.582   3.104
66762SOL    HW1  312  12.086  11.616   3.158
66762SOL    HW2  313  12.129  11.531   3.025
66763SOL     OW  314  12.213  11.873   2.291
66763SOL    HW1  315  12.239  11.869   2.387
66763SOL    HW2  316  12.128  11.822   2.277
66764SOL     OW  317  11.248  11.983   2.651
66764SOL    HW1  318  11.347  11.971   2.660
66764SOL    HW2  319  11.224  12.078   2.672
66765SOL     OW  320  12.037  11.520   2.057
66765SOL    HW1  321  12.096  11.583   2.008
66765SOL    HW2  322  12.056  11.426   2.028
66766SOL     OW  323  12.534  12.316   2.407
66766SOL    HW1  324  12.617  12.287   2.359
66766SOL    HW2  325  12.485  12.383   2.351
66767SOL     OW  326  11.722  11.368   2.747
66767SOL    HW1  327  11.717  11.363   2.847
66767SOL    HW2  328  11.724  11.464   2.718
66768SOL     OW  329  12.180  12.628   2.339
66768SOL    HW1  330  12.134  12.700   2.287
66768SOL    HW2  331  12.176  12.648   2.437
66769SOL     OW  332  12.399  12.722   3.368
66769SOL    HW1  333  12.405  12.645   3.432
66769SOL    HW2  334  12.347  12.696   3.288
66770SOL     OW  335  11.493  12.115   2.104
66770SOL    HW1  336  11.575  12.154   2.062
66770SOL    HW2  337  11.466  12.033   2.055
66771SOL     OW  338  11.633  12.438   3.589
66771SOL    HW1  339  11.583  12.439   3.503
66771SOL    HW2  340  11.570  12.420   3.665
66772SOL     OW  341  12.283  12.948   2.099
66772SOL    HW1  342  12.223  12.886   2.149
66772SOL    HW2  343  12.314  12.904   2.014
66773SOL     OW  344  11.374  11.457   3.360
66773SOL    HW1  345  11.294  11.517   3.347
66773SOL    HW2  346  11.364  11.408   3.446
66774SOL     OW  347  12.572  11.279   2.288
66774SOL    HW1  348  12.548  11.242   2.198
66774SOL    HW2  349  12.671  11.295   2.292
66775SOL     OW  350  11.554  11.872   2.342
66775SOL    HW1  351  11.599  11.782   2.339
66775SOL    HW2  352  11.460  11.861   2.375
66776SOL     OW  353  11.786  11.294   1.979
66776SOL    HW1  354  11.884  11.272   1.986
66776SOL    HW2  355  11.755  11.277   1.886
66777SOL     OW  356  11.953  11.436   3.611
66777SOL    HW1  357  12.020  11.375   3.654
66777SOL    HW2  358  11.880  11.455   3.676
66778SOL     OW  359  12.523  11.762   3.295
66778SOL    HW1  360  12.551  11.719   3.380
66778SOL    HW2  361  12.548  11.858   3.296
66779SOL     OW  362  11.975  12.574   2.786
66779SOL    HW1  363  12.065  12.588   2.744
66779SOL    HW2  364  11.904  12.576   2.715
66780SOL     OW  365  12.094  11.675   2.761
66780SOL    HW1  366  12.069  11.666   2.665
66780SOL    HW2  367  12.142  11.593   2.792
66781SOL     OW  368  11.711  11.236   2.374
66781SOL    HW1  369  11.630  11.237   2.432
66781SOL    HW2  370  11.714  11.319   2.319
66782SOL     OW  371  12.606  12.360   1.903
66782SOL    HW1  372  12.638  12.284   1.960
66782SOL    HW2  373  12.514  12.387   1.933
66783SOL     OW  374  11.469  11.207   2.033
66783SOL    HW1  375  11.518  11.291   2.012
66783SOL    HW2  376  11.531  11.142   2.078
66784SOL     OW  377  12.107  11.408   2.342
66784SOL    HW1  378  12.059  11.449   2.264
66784SOL    HW2  379  12.206  11.406   2.323
66785SOL     OW  380  12.248  11.855   3.326
66785SOL    HW1  381  12.168  11.794   3.329
66785SOL    HW2  382  12.329  11.802   3.302
66786SOL     OW  383  12.399  12.742   2.655
66786SOL    HW1  384  12.420  12.816   2.590
66786SOL    HW2  385  12.467  12.742   2.728
66787SOL     OW  386  11.631  12.324   2.603
66787SOL    HW1  387  11.560  12.297   2.668
66787SOL    HW2  388  11.605  12.296   2.510
66788SOL     OW  389  12.204  11.721   1.878
66788SOL    HW1  390  12.163  11.803   1.839
66788SOL    HW2  391  12.268  11.747   1.951
66789SOL     OW  392  11.250  11.728   3.248
66789SOL    HW1  393  11.342  11.727   3.207
66789SOL    HW2  394  11.244  11.802   3.315
66790SOL     OW  395  11.733  11.394   3.009
66790SOL    HW1  396  11.771  11.310   3.046
66790SOL    HW2  397  11.645  11.413   3.053
66791SOL     OW  398  12.038  11.626   2.504
66791SOL    HW1  399  12.006  11.698   2.442
66791SOL    HW2  400  12.062  11.545   2.451
66792SOL     OW  401  12.189  11.211   2.615
66792SOL    HW1  402  12.117  11.216   2.546
66792SOL    HW2  403  12.165  11.142   2.684
66793SOL     OW  404  12.601  12.345   2.729
66793SOL    HW1  405  12.546  12.261   2.722
66793SOL    HW2  406  12.627  12.374   2.637
66794SOL     OW  407  11.660  12.557   2.036
66794SOL    HW1  408  11.573  12.542   2.083
66794SOL    HW2  409  11.643  12.583   1.941
66795SOL     OW  410  12.562  11.747   1.940
66795SOL    HW1  411  12.508  11.726   2.021
66795SOL    HW2  412  12.653  11.706   1.949
66796SOL     OW  413  11.699  11.428   2.190
66796SOL    HW1  414  11.726  11.369   2.115
66796SOL    HW2  415  11.699  11.523   2.159
66797SOL     OW  416  12.236  12.519   3.202
66797SOL    HW1  417  12.156  12.496   3.257
66797SOL    HW2  418  12.319  12.493   3.251
66798SOL     OW  419  12.283  12.367   2.962
66798SOL    HW1  420  12.243  12.411   3.043
66798SOL    HW2  421  12.242  12.404   2.879
66799SOL     OW  422  12.087  11.261   3.264
66799SOL    HW1  423  12.112  11.241   3.169
66799SOL    HW2  424  12.159  11.317   3.306
66800SOL     OW  425  12.152  12.288   3.581
66800SOL    HW1  426  12.053  12.294   3.591
66800SOL    HW2  427  12.175  12.208   3.525
66801SOL     OW  428  11.877  12.222   2.230
66801SOL    HW1  429  11.863  12.229   2.329
66801SOL    HW2  430  11.961  12.171   2.212
66802SOL     OW  431  11.582  11.985   3.113
66802SOL    HW1  432  11.668  11.997   3.163
66802SOL    HW2  433  11.540  11.898   3.140
66803SOL     OW  434  12.446  11.558   3.124
66803SOL    HW1  435  12.467  11.632   3.188
66803SOL    HW2  436  12.357  11.575   3.081
66804SOL     OW  437  11.539  12.272   2.363
66804SOL    HW1  438  11.532  12.355   2.307
66804SOL    HW2  439  11.543  12.192   2.303
66805SOL     OW  440  11.738  11.709   2.727
66805SOL    HW1  441  11.750  11.775   2.653
66805SOL    HW2  442  11.784  11.743   2.810
66806SOL     OW  443  12.424  12.520   2.250
66806SOL    HW1  444  12.474  12.597   2.290
66806SOL    HW2  445  12.329  12.522   2.282
66807SOL     OW  446  12.444  12.617   3.004
66807SOL    HW1  447  12.491  12.630   3.091
66807SOL    HW2  448  12.378  12.543   3.013
66808SOL     OW  449  11.526  12.682   3.191
66808SOL    HW1  450  11.505  12.638   3.104
66808SOL    HW2  451  11.623  12.708   3.194
66809SOL     OW  452  11.574  11.923   3.460
66809SOL    HW1  453  11.642  11.978   3.413
66809SOL    HW2  454  11.614  11.835   3.487
66810SOL     OW  455  12.185  11.277   3.632
66810SOL    HW1  456  12.191  11.362   3.580
66810SOL    HW2  457  12.217  11.201   3.575
66811SOL     OW  458  11.676  11.222   3.602
66811SOL    HW1  459  11.634  11.165   3.532
66811SOL    HW2  460  11.610  11.291   3.634
66812SOL     OW  461  11.745  12.042   2.891
66812SOL    HW1  462  11.789  12.131   2.882
66812SOL    HW2  463  11.682  12.042   2.968
66813SOL     OW  464  12.532  12.034   2.907
66813SOL    HW1  465  12.457  12.034   2.841
66813SOL    HW2  466  12.569  11.942   2.916
66814SOL     OW  467  12.381  11.697   2.137
66814SOL    HW1  468  12.394  11.613   2.191
66814SOL    HW2  469  12.352  11.771   2.197
66815SOL     OW  470  11.479  11.385   3.093
66815SOL    HW1  471  11.456  11.422   3.183
66815SOL    HW2  472  11.449  11.290   3.087
66816SOL     OW  473  11.209  12.482   3.144
66816SOL    HW1  474  11.262  12.433   3.212
66816SOL    HW2  475  11.231  12.580   3.149
66817SOL     OW  476  11.904  11.806   2.926
66817SOL    HW1  477  11.963  11.780   2.850
66817SOL    HW2  478  11.876  11.902   2.915
66818SOL     OW  479  11.479  11.235   2.480
66818SOL    HW1  480  11.468  11.329   2.513
66818SOL    HW2  481  11.474  11.172   2.557
66819SOL     OW  482  12.794  11.539   2.236
66819SOL    HW1  483  12.796  11.463   2.300
66819SOL    HW2  484  12.746  11.616   2.276
66820SOL     OW  485  12.195  11.938   2.828
66820SOL    HW1  486  12.210  11.959   2.924
66820SOL    HW2  487  12.165  11.843   2.819
66821SOL     OW  488  11.522  12.070   3.666
66821SOL    HW1  489  11.598  12.114   3.714
66821SOL    HW2  490  11.557  12.023   3.584
66822SOL     OW  491  12.475  12.010   1.904
66822SOL    HW1  492  12.509  11.917   1.919
66822SOL    HW2  493  12.493  12.037   1.809
66823SOL     OW  494  12.240  12.505   2.711
66823SOL    HW1  495  12.247  12.421   2.656
66823SOL    HW2  496  12.302  12.574   2.675
66824SOL     OW  497  11.491  11.982   2.811
66824SOL    HW1  498  11.584  12.018   2.816
66824SOL    HW2  499  11.485  11.897   2.863
66825SOL     OW  500  11.511  11.681   2.868
66825SOL    HW1  501  11.459  11.598   2.851
66825SOL    HW2  502  11.588  11.686   2.804
66826SOL     OW  503  12.310  11.552   3.540
66826SOL    HW1  504  12.265  11.615   3.604
66826SOL    HW2  505  12.403  11.583   3.523
66827SOL     OW  506  12.332  11.379   3.339
66827SOL    HW1  507  12.332  11.443   3.416
66827SOL    HW2  508  12.360  11.427   3.256
66828SOL     OW  509  11.180  12.498   2.062
66828SOL    HW1  510  11.087  12.519   2.031
66828SOL    HW2  511  11.190  12.399   2.075
66829SOL     OW  512  12.174  11.968   3.100
66829SOL    HW1  513  12.215  11.936   3.186
66829SOL    HW2  514  12.078  11.941   3.097
66830SOL     OW  515  11.212  11.716   2.976
66830SOL    HW1  516  11.297  11.683   2.935
66830SOL    HW2  517  11.225  11.731   3.074
66831SOL     OW  518  11.361  11.692   3.584
66831SOL    HW1  519  11.420  11.652   3.514
66831SOL    HW2  520  11.303  11.763   3.543
66832SOL     OW  521  12.541  12.122   3.522
66832SOL    HW1  522  12.580  12.211   3.542
66832SOL    HW2  523  12.551  12.102   3.425
66833SOL     OW  524  11.987  11.744   2.187
66833SOL    HW1  525  11.994  11.655   2.141
66833SOL    HW2  526  11.893  11.778   2.179
66834SOL     OW  527  11.424  12.736   3.606
66834SOL    HW1  528  11.394  12.793   3.682
66834SOL    HW2  529  11.417  12.639   3.632
66835SOL     OW  530  11.843  11.636   3.131
66835SOL    HW1  531  11.809  11.547   3.101
66835SOL    HW2  532  11.869  11.690   3.051
66836SOL     OW  533  11.645  11.672   2.053
66836SOL    HW1  534  11.706  11.752   2.057
66836SOL    HW2  535  11.550  11.703   2.060
66837SOL     OW  536  11.331  12.309   3.328
66837SOL    HW1  537  11.353  12.248   3.404
66837SOL    HW2  538  11.341  12.260   3.242
66838SOL     OW  539  12.519  12.231   3.096
66838SOL    HW1  540  12.543  12.168   3.022
66838SOL    HW2  541  12.429  12.271   3.078
66839SOL     OW  542  12.474  12.027   2.171
66839SOL    HW1  543  12.388  11.996   2.213
66839SOL    HW2  544  12.470  12.013   2.072
66840SOL     OW  545  11.255  12.430   2.884
66840SOL    HW1  546  11.250  12.429   2.984
66840SOL    HW2  547  11.172  12.389   2.846
66841SOL     OW  548  12.898  11.307   2.385
66841SOL    HW1  549  12.971  11.290   2.318
66841SOL    HW2  550  12.867  11.220   2.423
66842SOL     OW  551  12.452  12.099   2.534
66842SOL    HW1  552  12.512  12.018   2.536
66842SOL    HW2  553  12.492  12.168   2.474
66843SOL     OW  554  12.002  12.445   3.284
66843SOL    HW1  555  11.997  12.478   3.379
66843SOL    HW2  556  11.916  12.464   3.238
66844SOL     OW  557  11.435  11.498   2.582
66844SOL    HW1  558  11.356  11.549   2.548
66844SOL    HW2  559  11.426  11.483   2.680
66845SOL     OW  560  11.994  12.174   3.234
66845SOL    HW1  561  12.034  12.173   3.142
66845SOL    HW2  562  12.004  12.266   3.274
66846SOL     OW  563  12.088  12.082   2.153
66846SOL    HW1  564  12.151  12.120   2.085
66846SOL    HW2  565  12.128  11.999   2.192
66847SOL     OW  566  11.544  12.460   3.352
66847SOL    HW1  567  11.531  12.553   3.318
66847SOL    HW2  568  11.460  12.408   3.339
66848SOL     OW  569  12.211  12.270   2.558
66848SOL    HW1  570  12.141  12.223   2.612
66848SOL    HW2  571  12.270  12.202   2.515
66849SOL     OW  572  12.186  11.408   2.833
66849SOL    HW1  573  12.178  11.372   2.740
66849SOL    HW2  574  12.184  11.332   2.898
66850SOL     OW  575  11.427  12.520   2.152
66850SOL    HW1  576  11.331  12.521   2.125
66850SOL    HW2  577  11.439  12.573   2.236
66851SOL     OW  578  11.277  12.185   3.588
66851SOL    HW1  579  11.200  12.152   3.642
66851SOL    HW2  580  11.362  12.155   3.630
66852SOL     OW  581  11.844  11.375   3.351
66852SOL    HW1  582  11.934  11.359   3.311
66852SOL    HW2  583  11.852  11.380   3.450
66853SOL     OW  584  11.247  11.517   1.895
66853SOL    HW1  585  11.155  11.489   1.866
66853SOL    HW2  586  11.278  11.594   1.839
66854SOL     OW  587  12.612  12.028   3.260
66854SOL    HW1  588  12.555  12.080   3.197
66854SOL    HW2  589  12.708  12.040   3.236
66855SOL     OW  590  11.244  11.338   2.180
66855SOL    HW1  591  11.227  11.421   2.126
66855SOL    HW2  592  11.334  11.301   2.158
66856SOL     OW  593  12.355  12.507   1.981
66856SOL    HW1  594  12.256  12.496   1.983
66856SOL    HW2  595  12.389  12.522   2.074
66857SOL     OW  596  11.785  12.014   3.293
66857SOL    HW1  597  11.841  12.095   3.276
66857SOL    HW2  598  11.844  11.934   3.296
66858SOL     OW  599  11.888  11.737   3.570
66858SOL    HW1  600  11.907  11.802   3.644
66858SOL    HW2  601  11.948  11.657   3.579
66859SOL     OW  602  12.622  12.392   3.495
66859SOL    HW1  603  12.613  12.382   3.594
66859SOL    HW2  604  12.718  12.385   3.469
66860SOL     OW  605  12.397  11.497   2.311
66860SOL    HW1  606  12.462  11.423   2.300
66860SOL    HW2  607  12.417  11.547   2.395
66861SOL     OW  608  11.766  11.917   2.514
66861SOL    HW1  609  11.816  12.002   2.495
66861SOL    HW2  610  11.678  11.919   2.466
66862SOL     OW  611  12.031  12.546   1.878
66862SOL    HW1  612  11.985  12.561   1.966
66862SOL    HW2  613  12.075  12.631   1.848
66863SOL     OW  614  12.031  12.128   2.723
66863SOL    HW1  615  12.085  12.059   2.771
66863SOL    HW2  616  11.999  12.197   2.789
66864SOL     OW  617  12.255  12.156   1.949
66864SOL    HW1  618  12.232  12.209   1.867
66864SOL    HW2  619  12.336  12.100   1.930
66865SOL     OW  620  11.393  12.486   3.706
66865SOL    HW1  621  11.328  12.413   3.685
66865SOL    HW2  622  11.397  12.500   3.804
66866SOL     OW  623  11.251  12.412   2.515
66866SOL    HW1  624  11.250  12.365   2.603
66866SOL    HW2  625  11.333  12.384   2.464
66867SOL     OW  626  11.844  12.563   3.486
66867SOL    HW1  627  11.766  12.513   3.524
66867SOL    HW2  628  11.841  12.658   3.517
66868SOL     OW  629  11.600  11.596   2.382
66868SOL    HW1  630  11.630  11.524   2.320
66868SOL    HW2  631  11.561  11.556   2.465
66869SOL     OW  632  12.877  12.659   2.966
66869SOL    HW1  633  12.784  12.634   2.939
66869SOL    HW2  634  12.903  12.609   3.048
66870SOL     OW  635  11.489  11.719   3.142
66870SOL    HW1  636  11.527  11.660   3.214
66870SOL    HW2  637  11.529  11.693   3.054
66871SOL     OW  638  12.596  11.386   2.974
66871SOL    HW1  639  12.648  11.321   3.029
66871SOL    HW2  640  12.547  11.449   3.035
66872SOL     OW  641  12.173  11.206   3.016
66872SOL    HW1  642  12.110  11.134   2.985
66872SOL    HW2  643  12.266  11.170   3.016
66873SOL     OW  644  11.942  12.502   2.163
66873SOL    HW1  645  11.896  12.415   2.180
66873SOL    HW2  646  12.033  12.499   2.204
66874SOL     OW  647  11.790  12.739   3.146
66874SOL    HW1  648  11.785  12.821   3.203
66874SOL    HW2  649  11.879  12.736   3.101
66875SOL     OW  650  12.524  11.224   2.030
66875SOL    HW1  651  12.559  11.183   1.946
66875SOL    HW2  652  12.434  11.186   2.050
66876SOL     OW  653  12.472  11.625   2.553
66876SOL    HW1  654  12.413  11.705   2.557
66876SOL    HW2  655  12.487  11.590   2.646
66877SOL     OW  656  11.211  12.249   2.162
66877SOL    HW1  657  11.310  12.238   2.153
66877SOL    HW2  658  11.171  12.163   2.194
66878SOL     OW  659  11.402  11.800   3.837
66878SOL    HW1  660  11.309  11.798   3.874
66878SOL    HW2  661  11.403  11.761   3.745
66879SOL     OW  662  11.397  11.447   4.720
66879SOL    HW1  663  11.432  11.430   4.812
66879SOL    HW2  664  11.309  11.402   4.708
66880SOL     OW  665  11.191  11.540   4.371
66880SOL    HW1  666  11.109  11.583   4.410
66880SOL    HW2  667  11.163  11.467   4.308
66881SOL     OW  668  11.741  12.447   4.889
66881SOL    HW1  669  11.648  12.440   4.852
66881SOL    HW2  670  11.752  12.536   4.933
66882SOL     OW  671  12.727  12.683   4.427
66882SOL    HW1  672  12.670  12.667   4.508
66882SOL    HW2  673  12.668  12.693   4.347
66883SOL     OW  674  12.307  11.875   4.441
66883SOL    HW1  675  12.364  11.953   4.416
66883SOL    HW2  676  12.247  11.901   4.517
66884SOL     OW  677  11.940  12.316   4.747
66884SOL    HW1  678  11.862  12.333   4.807
66884SOL    HW2  679  11.974  12.403   4.711
66885SOL     OW  680  12.022  11.970   5.547
66885SOL    HW1  681  12.018  12.046   5.612
66885SOL    HW2  682  12.044  12.006   5.456
66886SOL     OW  683  11.857  12.184   4.389
66886SOL    HW1  684  11.926  12.168   4.459
66886SOL    HW2  685  11.784  12.241   4.427
66887SOL     OW  686  11.858  12.333   5.527
66887SOL    HW1  687  11.918  12.412   5.541
66887SOL    HW2  688  11.772  12.364   5.486
66888SOL     OW  689  11.507  12.607   4.785
66888SOL    HW1  690  11.429  12.576   4.732
66888SOL    HW2  691  11.565  12.665   4.728
66889SOL     OW  692  11.610  11.564   5.223
66889SOL    HW1  693  11.692  11.508   5.232
66889SOL    HW2  694  11.529  11.506   5.227
66890SOL     OW  695  11.403  12.885   4.207
66890SOL    HW1  696  11.437  12.962   4.261
66890SOL    HW2  697  11.447  12.885   4.117
66891SOL     OW  698  12.299  12.513   5.414
66891SOL    HW1  699  12.346  12.513   5.502
66891SOL    HW2  700  12.251  12.426   5.403
66892SOL     OW  701  11.402  12.606   4.262
66892SOL    HW1  702  11.376  12.702   4.262
66892SOL    HW2  703  11.331  12.552   4.307
66893SOL     OW  704  11.412  12.263   4.610
66893SOL    HW1  705  11.426  12.179   4.662
66893SOL    HW2  706  11.357  12.327   4.665
66894SOL     OW  707  11.778  12.136   3.847
66894SOL    HW1  708  11.785  12.220   3.793
66894SOL    HW2  709  11.824  12.149   3.935
66895SOL     OW  710  11.294  11.815   4.287
66895SOL    HW1  711  11.249  11.727   4.304
66895SOL    HW2  712  11.293  11.869   4.371
66896SOL     OW  713  11.199  12.768   3.841
66896SOL    HW1  714  11.180  12.672   3.862
66896SOL    HW2  715  11.166  12.826   3.916
66897SOL     OW  716  12.861  12.094   4.336
66897SOL    HW1  717  12.956  12.065   4.344
66897SOL    HW2  718  12.853  12.159   4.261
66898SOL     OW  719  11.285  11.909   5.321
66898SOL    HW1  720  11.373  11.896   5.366
66898SOL    HW2  721  11.272  12.006   5.299
66899SOL     OW  722  11.785  12.537   4.450
66899SOL    HW1  723  11.736  12.450   4.459
66899SOL    HW2  724  11.762  12.580   4.363
66900SOL     OW  725  12.465  12.400   5.147
66900SOL    HW1  726  12.502  12.327   5.089
66900SOL    HW2  727  12.517  12.405   5.232
66901SOL     OW  728  11.981  11.176   4.226
66901SOL    HW1  729  12.021  11.267   4.217
66901SOL    HW2  730  11.881  11.184   4.232
66902SOL     OW  731  11.369  12.148   4.988
66902SOL    HW1  732  11.458  12.103   4.974
66902SOL    HW2  733  11.296  12.083   4.969
66903SOL     OW  734  11.489  11.423   5.525
66903SOL    HW1  735  11.560  11.494   5.531
66903SOL    HW2  736  11.401  11.462   5.553
66904SOL     OW  737  12.638  12.589   4.677
66904SOL    HW1  738  12.579  12.595   4.757
66904SOL    HW2  739  12.623  12.501   4.631
66905SOL     OW  740  11.770  11.901   3.994
66905SOL    HW1  741  11.794  11.970   3.926
66905SOL    HW2  742  11.692  11.934   4.048
66906SOL     OW  743  12.453  11.517   4.668
66906SOL    HW1  744  12.367  11.467   4.655
66906SOL    HW2  745  12.515  11.463   4.724
66907SOL     OW  746  11.979  11.777   5.189
66907SOL    HW1  747  11.932  11.774   5.278
66907SOL    HW2  748  11.928  11.722   5.123
66908SOL     OW  749  12.566  11.641   5.398
66908SOL    HW1  750  12.546  11.684   5.486
66908SOL    HW2  751  12.644  11.579   5.407
66909SOL     OW  752  12.145  12.062   5.296
66909SOL    HW1  753  12.191  11.978   5.267
66909SOL    HW2  754  12.089  12.096   5.221
66910SOL     OW  755  12.163  11.582   4.966
66910SOL    HW1  756  12.086  11.616   5.020
66910SOL    HW2  757  12.129  11.531   4.887
66911SOL     OW  758  12.213  11.873   4.153
66911SOL    HW1  759  12.239  11.869   4.249
66911SOL    HW2  760  12.128  11.822   4.139
66912SOL     OW  761  11.248  11.983   4.513
66912SOL    HW1  762  11.347  11.971   4.522
66912SOL    HW2  763  11.224  12.078   4.534
66913SOL     OW  764  12.037  11.520   3.919
66913SOL    HW1  765  12.096  11.583   3.870
66913SOL    HW2  766  12.056  11.426   3.890
66914SOL     OW  767  12.534  12.316   4.269
66914SOL    HW1  768  12.617  12.287   4.221
66914SOL    HW2  769  12.485  12.383   4.213
66915SOL     OW  770  11.722  11.368   4.609
66915SOL    HW1  771  11.717  11.363   4.709
66915SOL    HW2  772  11.724  11.464   4.580
66916SOL     OW  773  12.180  12.628   4.201
66916SOL    HW1  774  12.134  12.700   4.149
66916SOL    HW2  775  12.176  12.648   4.299
66917SOL     OW  776  12.399  12.722   5.230
66917SOL    HW1  777  12.405  12.645   5.294
66917SOL    HW2  778  12.347  12.696   5.150
66918SOL     OW  779  11.493  12.115   3.966
66918SOL    HW1  780  11.575  12.154   3.924
66918SOL    HW2  781  11.466  12.033   3.917
66919SOL     OW  782  11.633  12.438   5.451
66919SOL    HW1  783  11.583  12.439   5.365
66919SOL    HW2  784  11.570  12.420   5.527
66920SOL     OW  785  12.283  12.948   3.961
66920SOL    HW1  786  12.223  12.886   4.011
66920SOL    HW2  787  12.314  12.904   3.876
66921SOL     OW  788  11.374  11.457   5.222
66921SOL    HW1  789  11.294  11.517   5.209
66921SOL    HW2  790  11.364  11.408   5.308
66922SOL     OW  791  12.572  11.279   4.150
66922SOL    HW1  792  12.548  11.242   4.060
66922SOL    HW2  793  12.671  11.295   4.154
66923SOL     OW  794  11.554  11.872   4.204
66923SOL    HW1  795  11.599  11.782   4.201
66923SOL    HW2  796  11.460  11.861   4.237
66924SOL     OW  797  11.786  11.294   3.841
66924SOL    HW1  798  11.884  11.272   3.848
66924SOL    HW2  799  11.755  11.277   3.748
66925SOL     OW  800  11.953  11.436   5.473
66925SOL    HW1  801  12.020  11.375   5.516
66925SOL    HW2  802  11.880  11.455   5.538
66926SOL     OW  803  12.523  11.762   5.157
66926SOL    HW1  804  12.551  11.719   5.242
66926SOL    HW2  805  12.548  11.858   5.158
66927SOL     OW  806  11.975  12.574   4.648
66927SOL    HW1  807  12.065  12.588   4.606
66927SOL    HW2  808  11.904  12.576   4.577
66928SOL     OW  809  12.094  11.675   4.623
66928SOL    HW1  810  12.069  11.666   4.527
66928SOL    HW2  811  12.142  11.593   4.654
66929SOL     OW  812  11.711  11.236   4.236
66929SOL    HW1  813  11.630  11.237   4.294
66929SOL    HW2  814  11.714  11.319   4.181
66930SOL     OW  815  12.606  12.360   3.765
66930SOL    HW1  816  12.638  12.284   3.822
66930SOL    HW2  817  12.514  12.387   3.795
66931SOL     OW  818  11.469  11.207   3.895
66931SOL    HW1  819  11.518  11.291   3.874
66931SOL    HW2  820  11.531  11.142   3.940
66932SOL     OW  821  12.107  11.408   4.204
66932SOL    HW1  822  12.059  11.449   4.126
66932SOL    HW2  823  12.206  11.406   4.185
66933SOL     OW  824  12.248  11.855   5.188
66933SOL    HW1  825  12.168  11.794   5.191
66933SOL    HW2  826  12.329  11.802   5.164
66934SOL     OW  827  12.399  12.742   4.517
66934SOL    HW1  828  12.420  12.816   4.452
66934SOL    HW2  829  12.467  12.742   4.590
66935SOL     OW  830  11.631  12.324   4.465
66935SOL    HW1  831  11.560  12.297   4.530
66935SOL    HW2  832  11.605  12.296   4.372
66936SOL     OW  833  12.204  11.721   3.740
66936SOL    HW1  834  12.163  11.803   3.701
66936SOL    HW2  835  12.268  11.747   3.813
66937SOL     OW  836  11.250  11.728   5.110
66937SOL    HW1  837  11.342  11.727   5.069
66937SOL    HW2  838  11.244  11.802   5.177
66938SOL     OW  839  11.733  11.394   4.871
66938SOL    HW1  840  11.771  11.310   4.908
66938SOL    HW2  841  11.645  11.413   4.915
66939SOL     OW  842  12.038  11.626   4.366
66939SOL    HW1  843  12.006  11.698   4.304
66939SOL    HW2  844  12.062  11.545   4.313
66940SOL     OW  845  12.189  11.211   4.477
66940SOL    HW1  846  12.117  11.216   4.408
66940SOL    HW2  847  12.165  11.142   4.546
66941SOL     OW  848  12.601  12.345   4.591
66941SOL    HW1  849  12.546  12.261   4.584
66941SOL    HW2  850  12.627  12.374   4.499
66942SOL     OW  851  11.660  12.557   3.898
66942SOL    HW1  852  11.573  12.542   3.945
66942SOL    HW2  853  11.643  12.583   3.803
66943SOL     OW  854  12.562  11.747   3.802
66943SOL    HW1  855  12.508  11.726   3.883
66943SOL    HW2  856  12.653  11.706   3.811
66944SOL     OW  857  11.699  11.428   4.052
66944SOL    HW1  858  11.726  11.369   3.977
66944SOL    HW2  859  11.699  11.523   4.021
66945SOL     OW  860  12.236  12.519   5.064
66945SOL    HW1  861  12.156  12.496   5.119
66945SOL    HW2  862  12.319  12.493   5.113
66946SOL     OW  863  12.283  12.367   4.824
66946SOL    HW1  864  12.243  12.411   4.905
66946SOL    HW2  865  12.242  12.404   4.741
66947SOL     OW  866  12.087  11.261   5.126
66947SOL    HW1  867  12.112  11.241   5.031
66947SOL    HW2  868  12.159  11.317   5.168
66948SOL     OW  869  12.152  12.288   5.443
66948SOL    HW1  870  12.053  12.294   5.453
66948SOL    HW2  871  12.175  12.208   5.387
66949SOL     OW  872  11.877  12.222   4.092
66949SOL    HW1  873  11.863  12.229   4.191
66949SOL    HW2  874  11.961  12.171   4.074
66950SOL     OW  875  11.582  11.985   4.975
66950SOL    HW1  876  11.668  11.997   5.025
66950SOL    HW2  877  11.540  11.898   5.002
66951SOL     OW  878  12.446  11.558   4.986
66951SOL    HW1  879  12.467  11.632   5.050
66951SOL    HW2  880  12.357  11.575   4.943
66952SOL     OW  881  11.539  12.272   4.225
66952SOL    HW1  882  11.532  12.355   4.169
66952SOL    HW2  883  11.543  12.192   4.165
66953SOL     OW  884  11.738  11.709   4.589
66953SOL    HW1  885  11.750  11.775   4.515
66953SOL    HW2  886  11.784  11.743   4.672
66954SOL     OW  887  12.424  12.520   4.112
66954SOL    HW1  888  12.474  12.597   4.152
66954SOL    HW2  889  12.329  12.522   4.144
66955SOL     OW  890  12.444  12.617   4.866
66955SOL    HW1  891  12.491  12.630   4.953
66955SOL    HW2  892  12.378  12.543   4.875
66956SOL     OW  893  11.526  12.682   5.053
66956SOL    HW1  894  11.505  12.638   4.966
66956SOL    HW2  895  11.623  12.708   5.056
66957SOL     OW  896  11.574  11.923   5.322
66957SOL    HW1  897  11.642  11.978   5.275
66957SOL    HW2  898  11.614  11.835   5.349
66958SOL     OW  899  12.185  11.277   5.494
66958SOL    HW1  900  12.191  11.362   5.442
66958SOL    HW2  901  12.217  11.201   5.437
66959SOL     OW  902  11.676  11.222   5.464
66959SOL    HW1  903  11.634  11.165   5.394
66959SOL    HW2  904  11.610  11.291   5.496
66960SOL     OW  905  11.745  12.042   4.753
66960SOL    HW1  906  11.789  12.131   4.744
66960SOL    HW2  907  11.682  12.042   4.830
66961SOL     OW  908  12.532  12.034   4.769
66961SOL    HW1  909  12.457  12.034   4.703
66961SOL    HW2  910  12.569  11.942   4.778
66962SOL     OW  911  12.381  11.697   3.999
66962SOL    HW1  912  12.394  11.613   4.053
66962SOL    HW2  913  12.352  11.771   4.059
66963SOL     OW  914  11.479  11.385   4.955
66963SOL    HW1  915  11.456  11.422   5.045
66963SOL    HW2  916  11.449  11.290   4.949
66964SOL     OW  917  11.209  12.482   5.006
66964SOL    HW1  918  11.262  12.433   5.074
66964SOL    HW2  919  11.231  12.580   5.011
66965SOL     OW  920  11.904  11.806   4.788
66965SOL    HW1  921  11.963  11.780   4.712
66965SOL    HW2  922  11.876  11.902   4.777
66966SOL     OW  923  11.479  11.235   4.342
66966SOL    HW1  924  11.468  11.329   4.375
66966SOL    HW2  925  11.474  11.172   4.419
66967SOL     OW  926  12.794  11.539   4.098
66967SOL    HW1  927  12.796  11.463   4.162
66967SOL    HW2  928  12.746  11.616   4.138
66968SOL     OW  929  12.195  11.938   4.690
66968SOL    HW1  930  12.210  11.959   4.786
66968SOL    HW2  931  12.165  11.843   4.681
66969SOL     OW  932  11.522  12.070   5.528
66969SOL    HW1  933  11.598  12.114   5.576
66969SOL    HW2  934  11.557  12.023   5.446
66970SOL     OW  935  12.475  12.010   3.766
66970SOL    HW1  936  12.509  11.917   3.781
66970SOL    HW2  937  12.493  12.037   3.671
66971SOL     OW  938  12.240  12.505   4.573
66971SOL    HW1  939  12.247  12.421   4.518
66971SOL    HW2  940  12.302  12.574   4.537
66972SOL     OW  941  11.491  11.982   4.673
66972SOL    HW1  942  11.584  12.018   4.678
66972SOL    HW2  943  11.485  11.897   4.725
66973SOL     OW  944  11.511  11.681   4.730
66973SOL    HW1  945  11.459  11.598   4.713
66973SOL    HW2  946  11.588  11.686   4.666
66974SOL     OW  947  12.310  11.552   5.402
66974SOL    HW1  948  12.265  11.615   5.466
66974SOL    HW2  949  12.403  11.583   5.385
66975SOL     OW  950  12.332  11.379   5.201
66975SOL    HW1  951  12.332  11.443   5.278
66975SOL    HW2  952  12.360  11.427   5.118
66976SOL     OW  953  11.180  12.498   3.924
66976SOL    HW1  954  11.087  12.519   3.893
66976SOL    HW2  955  11.190  12.399   3.937
66977SOL     OW  956  12.174  11.968   4.962
66977SOL    HW1  957  12.215  11.936   5.048
66977SOL    HW2  958  12.078  11.941   4.959
66978SOL     OW  959  11.212  11.716   4.838
66978SOL    HW1  960  11.297  11.683   4.797
66978SOL    HW2  961  11.225  11.731   4.936
66979SOL     OW  962  11.361  11.692   5.446
66979SOL    HW1  963  11.420  11.652   5.376
66979SOL    HW2  964  11.303  11.763   5.405
66980SOL     OW  965  12.541  12.122   5.384
66980SOL    HW1  966  12.580  12.211   5.404
66980SOL    HW2  967  12.551  12.102   5.287
66981SOL     OW  968  11.987  11.744   4.049
66981SOL    HW1  969  11.994  11.655   4.003
66981SOL    HW2  970  11.893  11.778   4.041
66982SOL     OW  971  11.424  12.736   5.468
66982SOL    HW1  972  11.394  12.793   5.544
66982SOL    HW2  973  11.417  12.639   5.494
66983SOL     OW  974  11.843  11.636   4.993
66983SOL    HW1  975  11.809  11.547   4.963
66983SOL    HW2  976  11.869  11.690   4.913
66984SOL     OW  977  11.645  11.672   3.915
66984SOL    HW1  978  11.706  11.752   3.919
66984SOL    HW2  979  11.550  11.703   3.922
66985SOL     OW  980  11.331  12.309   5.190
66985SOL    HW1  981  11.353  12.248   5.266
66985SOL    HW2  982  11.341  12.260   5.104
66986SOL     OW  983  12.519  12.231   4.958
66986SOL    HW1  984  12.543  12.168   4.884
66986SOL    HW2  985  12.429  12.271   4.940
66987SOL     OW  986  12.474  12.027   4.033
66987SOL    HW1  987  12.388  11.996   4.075
66987SOL    HW2  988  12.470  12.013   3.934
66988SOL     OW  989  11.255  12.430   4.746
66988SOL    HW1  990  11.250  12.429   4.846
66988SOL    HW2  991  11.172  12.389   4.708
66989SOL     OW  992  12.898  11.307   4.247
66989SOL    HW1  993  12.971  11.290   4.180
66989SOL    HW2  994  12.867  11.220   4.285
66990SOL     OW  995  12.452  12.099   4.396
66990SOL    HW1  996  12.512  12.018   4.398
66990SOL    HW2  997  12.492  12.168   4.336
66991SOL     OW  998  12.002  12.445   5.146
66991SOL    HW1  999  11.997  12.478   5.241
66991SOL    HW2 1000  11.916  12.464   5.100
66992SOL     OW 1001  11.435  11.498   4.444
66992SOL    HW1 1002  11.356  11.549   4.410
66992SOL    HW2 1003  11.426  11.483   4.542
66993SOL     OW 1004  11.994  12.174   5.096
66993SOL    HW1 1005  12.034  12.173   5.004
66993SOL    HW2 1006  12.004  12.266   5.136
66994SOL     OW 1007  12.088  12.082   4.015
66994SOL    HW1 1008  12.151  12.120   3.947
66994SOL    HW2 1009  12.128  11.999   4.054
66995SOL     OW 1010  11.544  12.460   5.214
66995SOL    HW1 1011  11.531  12.553   5.180
66995SOL    HW2 1012  11.460  12.408   5.201
66996SOL     OW 1013  12.211  12.270   4.420
66996SOL    HW1 1014  12.141  12.223   4.474
66996SOL    HW2 1015  12.270  12.202   4.377
66997SOL     OW 1016  12.186  11.408   4.695
66997SOL    HW1 1017  12.178  11.372   4.602
66997SOL    HW2 1018  12.184  11.332   4.760
66998SOL     OW 1019  11.427  12.520   4.014
66998SOL    HW1 1020  11.331  12.521   3.987
66998SOL    HW2 1021  11.439  12.573   4.098
66999SOL     OW 1022  11.277  12.185   5.450
66999SOL    HW1 1023  11.200  12.152   5.504
66999SOL    HW2 1024  11.362  12.155   5.492
67000SOL     OW 1025  11.844  11.375   5.213
67000SOL    HW1 1026  11.934  11.359   5.173
67000SOL    HW2 1027  11.852  11.380   5.312
67001SOL     OW 1028  11.247  11.517   3.757
67001SOL    HW1 1029  11.155  11.489   3.728
67001SOL    HW2 1030  11.278  11.594   3.701
67002SOL     OW 1031  12.612  12.028   5.122
67002SOL    HW1 1032  12.555  12.080   5.059
67002SOL    HW2 1033  12.708  12.040   5.098
67003SOL     OW 1034  11.244  11.338   4.042
67003SOL    HW1 1035  11.227  11.421   3.988
67003SOL    HW2 1036  11.334  11.301   4.020
67004SOL     OW 1037  12.355  12.507   3.843
67004SOL    HW1 1038  12.256  12.496   3.845
67004SOL    HW2 1039  12.389  12.522   3.936
67005SOL     OW 1040  11.785  12.014   5.155
67005SOL    HW1 1041  11.841  12.095   5.138
67005SOL    HW2 1042  11.844  11.934   5.158
67006SOL     OW 1043  11.888  11.737   5.432
67006SOL    HW1 1044  11.907  11.802   5.506
67006SOL    HW2 1045  11.948  11.657   5.441
67007SOL     OW 1046  12.622  12.392   5.357
67007SOL    HW1 1047  12.613  12.382   5.456
67007SOL    HW2 1048  12.718  12.385   5.331
67008SOL     OW 1049  12.397  11.497   4.173
67008SOL    HW1 1050  12.462  11.423   4.162
67008SOL    HW2 1051  12.417  11.547   4.257
67009SOL     OW 1052  11.766  11.917   4.376
67009SOL    HW1 1053  11.816  12.002   4.357
67009SOL    HW2 1054  11.678  11.919   4.328
67010SOL     OW 1055  12.031  12.546   3.740
67010SOL    HW1 1056  11.985  12.561   3.828
67010SOL    HW2 1057  12.075  12.631   3.710
67011SOL     OW 1058  12.031  12.128   4.585
67011SOL    HW1 1059  12.085  12.059   4.633
67011SOL    HW2 1060  11.999  12.197   4.651
67012SOL     OW 1061  12.255  12.156   3.811
67012SOL    HW1 1062  12.232  12.209   3.729
67012SOL    HW2 1063  12.336  12.100   3.792
67013SOL     OW 1064  11.393  12.486   5.568
67013SOL    HW1 1065  11.328  12.413   5.547
67013SOL    HW2 1066  11.397  12.500   5.666
67014SOL     OW 1067  11.251  12.412   4.377
67014SOL    HW1 1068  11.250  12.365   4.465
67014SOL    HW2 1069  11.333  12.384   4.326
67015SOL     OW 1070  11.844  12.563   5.348
67015SOL    HW1 1071  11.766  12.513   5.386
67015SOL    HW2 1072  11.841  12.658   5.379
67016SOL     OW 1073  11.600  11.596   4.244
67016SOL    HW1 1074  11.630  11.524   4.182
67016SOL    HW2 1075  11.561  11.556   4.327
67017SOL     OW 1076  12.877  12.659   4.828
67017SOL    HW1 1077  12.784  12.634   4.801
67017SOL    HW2 1078  12.903  12.609   4.910
67018SOL     OW 1079  11.489  11.719   5.004
67018SOL    HW1 1080  11.527  11.660   5.076
67018SOL    HW2 1081  11.529  11.693   4.916
67019SOL     OW 1082  12.596  11.386   4.836
67019SOL    HW1 1083  12.648  11.321   4.891
67019SOL    HW2 1084  12.547  11.449   4.897
67020SOL     OW 1085  12.173  11.206   4.878
67020SOL    HW1 1086  12.110  11.134   4.847
67020SOL    HW2 1087  12.266  11.170   4.878
67021SOL     OW 1088  11.942  12.502   4.025
67021SOL    HW1 1089  11.896  12.415   4.042
67021SOL    HW2 1090  12.033  12.499   4.066
67022SOL     OW 1091  11.790  12.739   5.008
67022SOL    HW1 1092  11.785  12.821   5.065
67022SOL    HW2 1093  11.879  12.736   4.963
67023SOL     OW 1094  12.524  11.224   3.892
67023SOL    HW1 1095  12.559  11.183   3.808
67023SOL    HW2 1096  12.434  11.186   3.912
67024SOL     OW 1097  12.472  11.625   4.415
67024SOL    HW1 1098  12.413  11.705   4.419
67024SOL    HW2 1099  12.487  11.590   4.508
67025SOL     OW 1100  11.211  12.249   4.024
67025SOL    HW1 1101  11.310  12.238   4.015
67025SOL    HW2 1102  11.171  12.163   4.056
67026SOL     OW 1103  11.402  11.800   5.699
67026SOL    HW1 1104  11.309  11.798   5.736
67026SOL    HW2 1105  11.403  11.761   5.607
67027SOL     OW 1106  11.397  11.447   6.582
67027SOL    HW1 1107  11.432  11.430   6.674
67027SOL    HW2 1108  11.309  11.402   6.570
67028SOL     OW 1109  11.191  11.540   6.233
67028SOL    HW1 1110  11.109  11.583   6.272
67028SOL    HW2 1111  11.163  11.467   6.170
67029SOL     OW 1112  11.741  12.447   6.751
67029SOL    HW1 1113  11.648  12.440   6.714
67029SOL    HW2 1114  11.752  12.536   6.795
67030SOL     OW 1115  12.727  12.683   6.289
67030SOL    HW1 1116  12.670  12.667   6.370
67030SOL    HW2 1117  12.668  12.693   6.209
67031SOL     OW 1118  12.307  11.875   6.303
67031SOL    HW1 1119  12.364  11.953   6.278
67031SOL    HW2 1120  12.247  11.901   6.379
67032SOL     OW 1121  11.940  12.316   6.609
67032SOL    HW1 1122  11.862  12.333   6.669
67032SOL    HW2 1123  11.974  12.403   6.573
67033SOL     OW 1124  12.022  11.970   7.409
67033SOL    HW1 1125  12.018  12.046   7.474
67033SOL    HW2 1126  12.044  12.006   7.318
67034SOL     OW 1127  11.857  12.184   6.251
67034SOL    HW1 1128  11.926  12.168   6.321
67034SOL    HW2 1129  11.784  12.241   6.289
67035SOL     OW 1130  11.858  12.333   7.389
67035SOL    HW1 1131  11.918  12.412   7.403
67035SOL    HW2 1132  11.772  12.364   7.348
67036SOL     OW 1133  11.507  12.607   6.647
67036SOL    HW1 1134  11.429  12.576   6.594
67036SOL    HW2 1135  11.565  12.665   6.590
67037SOL     OW 1136  11.610  11.564   7.085
67037SOL    HW1 1137  11.692  11.508   7.094
67037SOL    HW2 1138  11.529  11.506   7.089
67038SOL     OW 1139  11.403  12.885   6.069
67038SOL    HW1 1140  11.437  12.962   6.123
67038SOL    HW2 1141  11.447  12.885   5.979
67039SOL     OW 1142  12.299  12.513   7.276
67039SOL    HW1 1143  12.346  12.513   7.364
67039SOL    HW2 1144  12.251  12.426   7.265
67040SOL     OW 1145  11.402  12.606   6.124
67040SOL    HW1 1146  11.376  12.702   6.124
67040SOL    HW2 1147  11.331  12.552   6.169
67041SOL     OW 1148  11.412  12.263   6.472
67041SOL    HW1 1149  11.426  12.179   6.524
67041SOL    HW2 1150  11.357  12.327   6.527
67042SOL     OW 1151  11.778  12.136   5.709
67042SOL    HW1 1152  11.785  12.220   5.655
67042SOL    HW2 1153  11.824  12.149   5.797
67043SOL     OW 1154  11.294  11.815   6.149
67043SOL    HW1 1155  11.249  11.727   6.166
67043SOL    HW2 1156  11.293  11.869   6.233
67044SOL     OW 1157  11.199  12.768   5.703
67044SOL    HW1 1158  11.180  12.672   5.724
67044SOL    HW2 1159  11.166  12.826   5.778
67045SOL     OW 1160  12.861  12.094   6.198
67045SOL    HW1 1161  12.956  12.065   6.206
67045SOL    HW2 1162  12.853  12.159   6.123
67046SOL     OW 1163  11.285  11.909   7.183
67046SOL    HW1 1164  11.373  11.896   7.228
67046SOL    HW2 1165  11.272  12.006   7.161
67047SOL     OW 1166  11.785  12.537   6.312
67047SOL    HW1 1167  11.736  12.450   6.321
67047SOL    HW2 1168  11.762  12.580   6.225
67048SOL     OW 1169  12.465  12.400   7.009
67048SOL    HW1 1170  12.502  12.327   6.951
67048SOL    HW2 1171  12.517  12.405   7.094
67049SOL     OW 1172  11.981  11.176   6.088
67049SOL    HW1 1173  12.021  11.267   6.079
67049SOL    HW2 1174  11.881  11.184   6.094
67050SOL     OW 1175  11.369  12.148   6.850
67050SOL    HW1 1176  11.458  12.103   6.836
67050SOL    HW2 1177  11.296  12.083   6.831
67051SOL     OW 1178  11.489  11.423   7.387
67051SOL    HW1 1179  11.560  11.494   7.393
67051SOL    HW2 1180  11.401  11.462   7.415
67052SOL     OW 1181  12.638  12.589   6.539
67052SOL    HW1 1182  12.579  12.595   6.619
67052SOL    HW2 1183  12.623  12.501   6.493
67053SOL     OW 1184  11.770  11.901   5.856
67053SOL    HW1 1185  11.794  11.970   5.788
67053SOL    HW2 1186  11.692  11.934   5.910
67054SOL     OW 1187  12.453  11.517   6.530
67054SOL    HW1 1188  12.367  11.467   6.517
67054SOL    HW2 1189  12.515  11.463   6.586
67055SOL     OW 1190  11.979  11.777   7.051
67055SOL    HW1 1191  11.932  11.774   7.140
67055SOL    HW2 1192  11.928  11.722   6.985
67056SOL     OW 1193  12.566  11.641   7.260
67056SOL    HW1 1194  12.546  11.684   7.348
67056SOL    HW2 1195  12.644  11.579   7.269
67057SOL     OW 1196  12.145  12.062   7.158
67057SOL    HW1 1197  12.191  11.978   7.129
67057SOL    HW2 1198  12.089  12.096   7.083
67058SOL     OW 1199  12.163  11.582   6.828
67058SOL    HW1 1200  12.086  11.616   6.882
67058SOL    HW2 1201  12.129  11.531   6.749
67059SOL     OW 1202  12.213  11.873   6.015
67059SOL    HW1 1203  12.239  11.869   6.111
67059SOL    HW2 1204  12.128  11.822   6.001
67060SOL     OW 1205  11.248  11.983   6.375
67060SOL    HW1 1206  11.347  11.971   6.384
67060SOL    HW2 1207  11.224  12.078   6.396
67061SOL     OW 1208  12.037  11.520   5.781
67061SOL    HW1 1209  12.096  11.583   5.732
67061SOL    HW2 1210  12.056  11.426   5.752
67062SOL     OW 1211  12.534  12.316   6.131
67062SOL    HW1 1212  12.617  12.287   6.083
67062SOL    HW2 1213  12.485  12.383   6.075
67063SOL     OW 1214  11.722  11.368   6.471
67063SOL    HW1 1215  11.717  11.363   6.571
67063SOL    HW2 1216  11.724  11.464   6.442
67064SOL     OW 1217  12.180  12.628   6.063
67064SOL    HW1 1218  12.134  12.700   6.011
67064SOL    HW2 1219  12.176  12.648   6.161
67065SOL     OW 1220  12.399  12.722   7.092
67065SOL    HW1 1221  12.405  12.645   7.156
67065SOL    HW2 1222  12.347  12.696   7.012
67066SOL     OW 1223  11.493  12.115   5.828
67066SOL    HW1 1224  11.575  12.154   5.786
67066SOL    HW2 1225  11.466  12.033   5.779
67067SOL     OW 1226  11.633  12.438   7.313
67067SOL    HW1 1227  11.583  12.439   7.227
67067SOL    HW2 1228  11.570  12.420   7.389
67068SOL     OW 1229  12.283  12.948   5.823
67068SOL    HW1 1230  12.223  12.886   5.873
67068SOL    HW2 1231  12.314  12.904   5.738
67069SOL     OW 1232  11.374  11.457   7.084
67069SOL    HW1 1233  11.294  11.517   7.071
67069SOL    HW2 1234  11.364  11.408   7.170
67070SOL     OW 1235  12.572  11.279   6.012
67070SOL    HW1 1236  12.548  11.242   5.922
67070SOL    HW2 1237  12.671  11.295   6.016
67071SOL     OW 1238  11.554  11.872   6.066
67071SOL    HW1 1239  11.599  11.782   6.063
67071SOL    HW2 1240  11.460  11.861   6.099
67072SOL     OW 1241  11.786  11.294   5.703
67072SOL    HW1 1242  11.884  11.272   5.710
67072SOL    HW2 1243  11.755  11.277   5.610
67073SOL     OW 1244  11.953  11.436   7.335
67073SOL    HW1 1245  12.020  11.375   7.378
67073SOL    HW2 1246  11.880  11.455   7.400
67074SOL     OW 1247  12.523  11.762   7.019
67074SOL    HW1 1248  12.551  11.719   7.104
67074SOL    HW2 1249  12.548  11.858   7.020
67075SOL     OW 1250  11.975  12.574   6.510
67075SOL    HW1 1251  12.065  12.588   6.468
67075SOL    HW2 1252  11.904  12.576   6.439
67076SOL     OW 1253  12.094  11.675   6.485
67076SOL    HW1 1254  12.069  11.666   6.389
67076SOL    HW2 1255  12.142  11.593   6.516
67077SOL     OW 1256  11.711  11.236   6.098
67077SOL    HW1 1257  11.630  11.237   6.156
67077SOL    HW2 1258  11.714  11.319   6.043
67078SOL     OW 1259  12.606  12.360   5.627
67078SOL    HW1 1260  12.638  12.284   5.684
67078SOL    HW2 1261  12.514  12.387   5.657
67079SOL     OW 1262  11.469  11.207   5.757
67079SOL    HW1 1263  11.518  11.291   5.736
67079SOL    HW2 1264  11.531  11.142   5.802
67080SOL     OW 1265  12.107  11.408   6.066
67080SOL    HW1 1266  12.059  11.449   5.988
67080SOL    HW2 1267  12.206  11.406   6.047
67081SOL     OW 1268  12.248  11.855   7.050
67081SOL    HW1 1269  12.168  11.794   7.053
67081SOL    HW2 1270  12.329  11.802   7.026
67082SOL     OW 1271  12.399  12.742   6.379
67082SOL    HW1 1272  12.420  12.816   6.314
67082SOL    HW2 1273  12.467  12.742   6.452
67083SOL     OW 1274  11.631  12.324   6.327
67083SOL    HW1 1275  11.560  12.297   6.392
67083SOL    HW2 1276  11.605  12.296   6.234
67084SOL     OW 1277  12.204  11.721   5.602
67084SOL    HW1 1278  12.163  11.803   5.563
67084SOL    HW2 1279  12.268  11.747   5.675
67085SOL     OW 1280  11.250  11.728   6.972
67085SOL    HW1 1281  11.342  11.727   6.931
67085SOL    HW2 1282  11.244  11.802   7.039
67086SOL     OW 1283  11.733  11.394   6.733
67086SOL    HW1 1284  11.771  11.310   6.770
67086SOL    HW2 1285  11.645  11.413   6.777
67087SOL     OW 1286  12.038  11.626   6.228
67087SOL    HW1 1287  12.006  11.698   6.166
67087SOL    HW2 1288  12.062  11.545   6.175
67088SOL     OW 1289  12.189  11.211   6.339
67088SOL    HW1 1290  12.117  11.216   6.270
67088SOL    HW2 1291  12.165  11.142   6.408
67089SOL     OW 1292  12.601  12.345   6.453
67089SOL    HW1 1293  12.546  12.261   6.446
67089SOL    HW2 1294  12.627  12.374   6.361
67090SOL     OW 1295  11.660  12.557   5.760
67090SOL    HW1 1296  11.573  12.542   5.807
67090SOL    HW2 1297  11.643  12.583   5.665
67091SOL     OW 1298  12.562  11.747   5.664
67091SOL    HW1 1299  12.508  11.726   5.745
67091SOL    HW2 1300  12.653  11.706   5.673
67092SOL     OW 1301  11.699  11.428   5.914
67092SOL    HW1 1302  11.726  11.369   5.839
67092SOL    HW2 1303  11.699  11.523   5.883
67093SOL     OW 1304  12.236  12.519   6.926
67093SOL    HW1 1305  12.156  12.496   6.981
67093SOL    HW2 1306  12.319  12.493   6.975
67094SOL     OW 1307  12.283  12.367   6.686
67094SOL    HW1 1308  12.243  12.411   6.767
67094SOL    HW2 1309  12.242  12.404   6.603
67095SOL     OW 1310  12.087  11.261   6.988
67095SOL    HW1 1311  12.112  11.241   6.893
67095SOL    HW2 1312  12.159  11.317   7.030
67096SOL     OW 1313  12.152  12.288   7.305
67096SOL    HW1 1314  12.053  12.294   7.315
67096SOL    HW2 1315  12.175  12.208   7.249
67097SOL     OW 1316  11.877  12.222   5.954
67097SOL    HW1 1317  11.863  12.229   6.053
67097SOL    HW2 1318  11.961  12.171   5.936
67098SOL     OW 1319  11.582  11.985   6.837
67098SOL    HW1 1320  11.668  11.997   6.887
67098SOL    HW2 1321  11.540  11.898   6.864
67099SOL     OW 1322  12.446  11.558   6.848
67099SOL    HW1 1323  12.467  11.632   6.912
67099SOL    HW2 1324  12.357  11.575   6.805
67100SOL     OW 1325  11.539  12.272   6.087
67100SOL    HW1 1326  11.532  12.355   6.031
67100SOL    HW2 1327  11.543  12.192   6.027
67101SOL     OW 1328  11.738  11.709   6.451
67101SOL    HW1 1329  11.750  11.775   6.377
67101SOL    HW2 1330  11.784  11.743   6.534
67102SOL     OW 1331  12.424  12.520   5.974
67102SOL    HW1 1332  12.474  12.597   6.014
67102SOL    HW2 1333  12.329  12.522   6.006
67103SOL     OW 1334  12.444  12.617   6.728
67103SOL    HW1 1335  12.491  12.630   6.815
67103SOL    HW2 1336  12.378  12.543   6.737
67104SOL     OW 1337  11.526  12.682   6.915
67104SOL    HW1 1338  11.505  12.638   6.828
67104SOL    HW2 1339  11.623  12.708   6.918
67105SOL     OW 1340  11.574  11.923   7.184
67105SOL    HW1 1341  11.642  11.978   7.137
67105SOL    HW2 1342  11.614  11.835   7.211
67106SOL     OW 1343  12.185  11.277   7.356
67106SOL    HW1 1344  12.191  11.362   7.304
67106SOL    HW2 1345  12.217  11.201   7.299
67107SOL     OW 1346  11.676  11.222   7.326
67107SOL    HW1 1347  11.634  11.165   7.256
67107SOL    HW2 1348  11.610  11.291   7.358
67108SOL     OW 1349  11.745  12.042   6.615
67108SOL    HW1 1350  11.789  12.131   6.606
67108SOL    HW2 1351  11.682  12.042   6.692
67109SOL     OW 1352  12.532  12.034   6.631
67109SOL    HW1 1353  12.457  12.034   6.565
67109SOL    HW2 1354  12.569  11.942   6.640
67110SOL     OW 1355  12.381  11.697   5.861
67110SOL    HW1 1356  12.394  11.613   5.915
67110SOL    HW2 1357  12.352  11.771   5.921
67111SOL     OW 1358  11.479  11.385   6.817
67111SOL    HW1 1359  11.456  11.422   6.907
67111SOL    HW2 1360  11.449  11.290   6.811
67112SOL     OW 1361  11.209  12.482   6.868
67112SOL    HW1 1362  11.262  12.433   6.936
67112SOL    HW2 1363  11.231  12.580   6.873
67113SOL     OW 1364  11.904  11.806   6.650
67113SOL    HW1 1365  11.963  11.780   6.574
67113SOL    HW2 1366  11.876  11.902   6.639
67114SOL     OW 1367  11.479  11.235   6.204
67114SOL    HW1 1368  11.468  11.329   6.237
67114SOL    HW2 1369  11.474  11.172   6.281
67115SOL     OW 1370  12.794  11.539   5.960
67115SOL    HW1 1371  12.796  11.463   6.024
67115SOL    HW2 1372  12.746  11.616   6.000
67116SOL     OW 1373  12.195  11.938   6.552
67116SOL    HW1 1374  12.210  11.959   6.648
67116SOL    HW2 1375  12.165  11.843   6.543
67117SOL     OW 1376  11.522  12.070   7.390
67117SOL    HW1 1377  11.598  12.114   7.438
67117SOL    HW2 1378  11.557  12.023   7.308
67118SOL     OW 1379  12.475  12.010   5.628
67118SOL    HW1 1380  12.509  11.917   5.643
67118SOL    HW2 1381  12.493  12.037   5.533
67119SOL     OW 1382  12.240  12.505   6.435
67119SOL    HW1 1383  12.247  12.421   6.380
67119SOL    HW2 1384  12.302  12.574   6.399
67120SOL     OW 1385  11.491  11.982   6.535
67120SOL    HW1 1386  11.584  12.018   6.540
67120SOL    HW2 1387  11.485  11.897   6.587
67121SOL     OW 1388  11.511  11.681   6.592
67121SOL    HW1 1389  11.459  11.598   6.575
67121SOL    HW2 1390  11.588  11.686   6.528
67122SOL     OW 1391  12.310  11.552   7.264
67122SOL    HW1 1392  12.265  11.615   7.328
67122SOL    HW2 1393  12.403  11.583   7.247
67123SOL     OW 1394  12.332  11.379   7.063
67123SOL    HW1 1395  12.332  11.443   7.140
67123SOL    HW2 1396  12.360  11.427   6.980
67124SOL     OW 1397  11.180  12.498   5.786
67124SOL    HW1 1398  11.087  12.519   5.755
67124SOL    HW2 1399  11.190  12.399   5.799
67125SOL     OW 1400  12.174  11.968   6.824
67125SOL    HW1 1401  12.215  11.936   6.910
67125SOL    HW2 1402  12.078  11.941   6.821
67126SOL     OW 1403  11.212  11.716   6.700
67126SOL    HW1 1404  11.297  11.683   6.659
67126SOL    HW2 1405  11.225  11.731   6.798
67127SOL     OW 1406  11.361  11.692   7.308
67127SOL    HW1 1407  11.420  11.652   7.238
67127SOL    HW2 1408  11.303  11.763   7.267
67128SOL     OW 1409  12.541  12.122   7.246
67128SOL    HW1 1410  12.580  12.211   7.266
67128SOL    HW2 1411  12.551  12.102   7.149
67129SOL     OW 1412  11.987  11.744   5.911
67129SOL    HW1 1413  11.994  11.655   5.865
67129SOL    HW2 1414  11.893  11.778   5.903
67130SOL     OW 1415  11.424  12.736   7.330
67130SOL    HW1 1416  11.394  12.793   7.406
67130SOL    HW2 1417  11.417  12.639   7.356
67131SOL     OW 1418  11.843  11.636   6.855
67131SOL    HW1 1419  11.809  11.547   6.825
67131SOL    HW2 1420  11.869  11.690   6.775
67132SOL     OW 1421  11.645  11.672   5.777
67132SOL    HW1 1422  11.706  11.752   5.781
67132SOL    HW2 1423  11.550  11.703   5.784
67133SOL     OW 1424  11.331  12.309   7.052
67133SOL    HW1 1425  11.353  12.248   7.128
67133SOL    HW2 1426  11.341  12.260   6.966
67134SOL     OW 1427  12.519  12.231   6.820
67134SOL    HW1 1428  12.543  12.168   6.746
67134SOL    HW2 1429  12.429  12.271   6.802
67135SOL     OW 1430  12.474  12.027   5.895
67135SOL    HW1 1431  12.388  11.996   5.937
67135SOL    HW2 1432  12.470  12.013   5.796
67136SOL     OW 1433  11.255  12.430   6.608
67136SOL    HW1 1434  11.250  12.429   6.708
67136SOL    HW2 1435  11.172  12.389   6.570
67137SOL     OW 1436  12.898  11.307   6.109
67137SOL    HW1 1437  12.971  11.290   6.042
67137SOL    HW2 1438  12.867  11.220   6.147
67138SOL     OW 1439  12.452  12.099   6.258
67138SOL    HW1 1440  12.512  12.018   6.260
67138SOL    HW2 1441  12.492  12.168   6.198
67139SOL     OW 1442  12.002  12.445   7.008
67139SOL    HW1 1443  11.997  12.478   7.103
67139SOL    HW2 1444  11.916  12.464   6.962
67140SOL     OW 1445  11.435  11.498   6.306
67140SOL    HW1 1446  11.356  11.549   6.272
67140SOL    HW2 1447  11.426  11.483   6.404
67141SOL     OW 1448  11.994  12.174   6.958
67141SOL    HW1 1449  12.034  12.173   6.866
67141SOL    HW2 1450  12.004  12.266   6.998
67142SOL     OW 1451  12.088  12.082   5.877
67142SOL    HW1 1452  12.151  12.120   5.809
67142SOL    HW2 1453  12.128  11.999   5.916
67143SOL     OW 1454  11.544  12.460   7.076
67143SOL    HW1 1455  11.531  12.553   7.042
67143SOL    HW2 1456  11.460  12.408   7.063
67144SOL     OW 1457  12.211  12.270   6.282
67144SOL    HW1 1458  12.141  12.223   6.336
67144SOL    HW2 1459  12.270  12.202   6.239
67145SOL     OW 1460  12.186  11.408   6.557
67145SOL    HW1 1461  12.178  11.372   6.464
67145SOL    HW2 1462  12.184  11.332   6.622
67146SOL     OW 1463  11.427  12.520   5.876
67146SOL    HW1 1464  11.331  12.521   5.849
67146SOL    HW2 1465  11.439  12.573   5.960
67147SOL     OW 1466  11.277  12.185   7.312
67147SOL    HW1 1467  11.200  12.152   7.366
67147SOL    HW2 1468  11.362  12.155   7.354
67148SOL     OW 1469  11.844  11.375   7.075
67148SOL    HW1 1470  11.934  11.359   7.035
67148SOL    HW2 1471  11.852  11.380   7.174
67149SOL     OW 1472  11.247  11.517   5.619
67149SOL    HW1 1473  11.155  11.489   5.590
67149SOL    HW2 1474  11.278  11.594   5.563
67150SOL     OW 1475  12.612  12.028   6.984
67150SOL    HW1 1476  12.555  12.080   6.921
67150SOL    HW2 1477  12.708  12.040   6.960
67151SOL     OW 1478  11.244  11.338   5.904
67151SOL    HW1 1479  11.227  11.421   5.850
67151SOL    HW2 1480  11.334  11.301   5.882
67152SOL     OW 1481  12.355  12.507   5.705
67152SOL    HW1 1482  12.256  12.496   5.707
67152SOL    HW2 1483  12.389  12.522   5.798
67153SOL     OW 1484  11.785  12.014   7.017
67153SOL    HW1 1485  11.841  12.095   7.000
67153SOL    HW2 1486  11.844  11.934   7.020
67154SOL     OW 1487  11.888  11.737   7.294
67154SOL    HW1 1488  11.907  11.802   7.368
67154SOL    HW2 1489  11.948  11.657   7.303
67155SOL     OW 1490  12.622  12.392   7.219
67155SOL    HW1 1491  12.613  12.382   7.318
67155SOL    HW2 1492  12.718  12.385   7.193
67156SOL     OW 1493  12.397  11.497   6.035
67156SOL    HW1 1494  12.462  11.423   6.024
67156SOL    HW2 1495  12.417  11.547   6.119
67157SOL     OW 1496  11.766  11.917   6.238
67157SOL    HW1 1497  11.816  12.002   6.219
67157SOL    HW2 1498  11.678  11.919   6.190
67158SOL     OW 1499  12.031  12.546   5.602
67158SOL    HW1 1500  11.985  12.561   5.690
67158SOL    HW2 1501  12.075  12.631   5.572
67159SOL     OW 1502  12.031  12.128   6.447
67159SOL    HW1 1503  12.085  12.059   6.495
67159SOL    HW2 1504  11.999  12.197   6.513
67160SOL     OW 1505  12.255  12.156   5.673
67160SOL    HW1 1506  12.232  12.209   5.591
67160SOL    HW2 1507  12.336  12.100   5.654
67161SOL     OW 1508  11.393  12.486   7.430
67161SOL    HW1 1509  11.328  12.413   7.409
67161SOL    HW2 1510  11.397  12.500   7.528
67162SOL     OW 1511  11.251  12.412   6.239
67162SOL    HW1 1512  11.250  12.365   6.327
67162SOL    HW2 1513  11.333  12.384   6.188
67163SOL     OW 1514  11.844  12.563   7.210
67163SOL    HW1 1515  11.766  12.513   7.248
67163SOL    HW2 1516  11.841  12.658   7.241
67164SOL     OW 1517  11.600  11.596   6.106
67164SOL    HW1 1518  11.630  11.524   6.044
67164SOL    HW2 1519  11.561  11.556   6.189
67165SOL     OW 1520  12.877  12.659   6.690
67165SOL    HW1 1521  12.784  12.634   6.663
67165SOL    HW2 1522  12.903  12.609   6.772
67166SOL     OW 1523  11.489  11.719   6.866
67166SOL    HW1 1524  11.527  11.660   6.938
67166SOL    HW2 1525  11.529  11.693   6.778
67167SOL     OW 1526  12.596  11.386   6.698
67167SOL    HW1 1527  12.648  11.321   6.753
67167SOL    HW2 1528  12.547  11.449   6.759
67168SOL     OW 1529  12.173  11.206   6.740
67168SOL    HW1 1530  12.110  11.134   6.709
67168SOL    HW2 1531  12.266  11.170   6.740
67169SOL     OW 1532  11.942  12.502   5.887
67169SOL    HW1 1533  11.896  12.415   5.904
67169SOL    HW2 1534  12.033  12.499   5.928
67170SOL     OW 1535  11.790  12.739   6.870
67170SOL    HW1 1536  11.785  12.821   6.927
67170SOL    HW2 1537  11.879  12.736   6.825
67171SOL     OW 1538  12.524  11.224   5.754
67171SOL    HW1 1539  12.559  11.183   5.670
67171SOL    HW2 1540  12.434  11.186   5.774
67172SOL     OW 1541  12.472  11.625   6.277
67172SOL    HW1 1542  12.413  11.705   6.281
67172SOL    HW2 1543  12.487  11.590   6.370
67173SOL     OW 1544  11.211  12.249   5.886
67173SOL    HW1 1545  11.310  12.238   5.877
67173SOL    HW2 1546  11.171  12.163   5.918
67174SOL     OW 1547  11.402  11.800   7.561
67174SOL    HW1 1548  11.309  11.798   7.598
67174SOL    HW2 1549  11.403  11.761   7.469
67175SOL     OW 1550  11.397  11.447   8.444
67175SOL    HW1 1551  11.432  11.430   8.536
67175SOL    HW2 1552  11.309  11.402   8.432
67176SOL     OW 1553  11.191  11.540   8.095
67176SOL    HW1 1554  11.109  11.583   8.134
67176SOL    HW2 1555  11.163  11.467   8.032
67177SOL     OW 1556  11.741  12.447   8.613
67177SOL    HW1 1557  11.648  12.440   8.576
67177SOL    HW2 1558  11.752  12.536   8.657
67178SOL     OW 1559  12.727  12.683   8.151
67178SOL    HW1 1560  12.670  12.667   8.232
67178SOL    HW2 1561  12.668  12.693   8.071
67179SOL     OW 1562  12.307  11.875   8.165
67179SOL    HW1 1563  12.364  11.953   8.140
67179SOL    HW2 1564  12.247  11.901   8.241
67180SOL     OW 1565  11.940  12.316   8.471
67180SOL    HW1 1566  11.862  12.333   8.531
67180SOL    HW2 1567  11.974  12.403   8.435
67181SOL     OW 1568  12.022  11.970   9.271
67181SOL    HW1 1569  12.018  12.046   9.336
67181SOL    HW2 1570  12.044  12.006   9.180
67182SOL     OW 1571  11.857  12.184   8.113
67182SOL    HW1 1572  11.926  12.168   8.183
67182SOL    HW2 1573  11.784  12.241   8.151
67183SOL     OW 1574  11.858  12.333   9.251
67183SOL    HW1 1575  11.918  12.412   9.265
67183SOL    HW2 1576  11.772  12.364   9.210
67184SOL     OW 1577  11.507  12.607   8.509
67184SOL    HW1 1578  11.429  12.576   8.456
67184SOL    HW2 1579  11.565  12.665   8.452
67185SOL     OW 1580  11.610  11.564   8.947
67185SOL    HW1 1581  11.692  11.508   8.956
67185SOL    HW2 1582  11.529  11.506   8.951
67186SOL     OW 1583  11.403  12.885   7.931
67186SOL    HW1 1584  11.437  12.962   7.985
67186SOL    HW2 1585  11.447  12.885   7.841
67187SOL     OW 1586  12.299  12.513   9.138
67187SOL    HW1 1587  12.346  12.513   9.226
67187SOL    HW2 1588  12.251  12.426   9.127
67188SOL     OW 1589  11.402  12.606   7.986
67188SOL    HW1 1590  11.376  12.702   7.986
67188SOL    HW2 1591  11.331  12.552   8.031
67189SOL     OW 1592  11.412  12.263   8.334
67189SOL    HW1 1593  11.426  12.179   8.386
67189SOL    HW2 1594  11.357  12.327   8.389
67190SOL     OW 1595  11.778  12.136   7.571
67190SOL    HW1 1596  11.785  12.220   7.517
67190SOL    HW2 1597  11.824  12.149   7.659
67191SOL     OW 1598  11.294  11.815   8.011
67191SOL    HW1 1599  11.249  11.727   8.028
67191SOL    HW2 1600  11.293  11.869   8.095
67192SOL     OW 1601  11.199  12.768   7.565
67192SOL    HW1 1602  11.180  12.672   7.586
67192SOL    HW2 1603  11.166  12.826   7.640
67193SOL     OW 1604  12.861  12.094   8.060
67193SOL    HW1 1605  12.956  12.065   8.068
67193SOL    HW2 1606  12.853  12.159   7.985
67194SOL     OW 1607  11.285  11.909   9.045
67194SOL    HW1 1608  11.373  11.896   9.090
67194SOL    HW2 1609  11.272  12.006   9.023
67195SOL     OW 1610  11.785  12.537   8.174
67195SOL    HW1 1611  11.736  12.450   8.183
67195SOL    HW2 1612  11.762  12.580   8.087
67196SOL     OW 1613  12.465  12.400   8.871
67196SOL    HW1 1614  12.502  12.327   8.813
67196SOL    HW2 1615  12.517  12.405   8.956
67197SOL     OW 1616  11.981  11.176   7.950
67197SOL    HW1 1617  12.021  11.267   7.941
67197SOL    HW2 1618  11.881  11.184   7.956
67198SOL     OW 1619  11.369  12.148   8.712
67198SOL    HW1 1620  11.458  12.103   8.698
67198SOL    HW2 1621  11.296  12.083   8.693
67199SOL     OW 1622  11.489  11.423   9.249
67199SOL    HW1 1623  11.560  11.494   9.255
67199SOL    HW2 1624  11.401  11.462   9.277
67200SOL     OW 1625  12.638  12.589   8.401
67200SOL    HW1 1626  12.579  12.595   8.481
67200SOL    HW2 1627  12.623  12.501   8.355
67201SOL     OW 1628  11.770  11.901   7.718
67201SOL    HW1 1629  11.794  11.970   7.650
67201SOL    HW2 1630  11.692  11.934   7.772
67202SOL     OW 1631  12.453  11.517   8.392
67202SOL    HW1 1632  12.367  11.467   8.379
67202SOL    HW2 1633  12.515  11.463   8.448
67203SOL     OW 1634  11.979  11.777   8.913
67203SOL    HW1 1635  11.932  11.774   9.002
67203SOL    HW2 1636  11.928  11.722   8.847
67204SOL     OW 1637  12.566  11.641   9.122
67204SOL    HW1 1638  12.546  11.684   9.210
67204SOL    HW2 1639  12.644  11.579   9.131
67205SOL     OW 1640  12.145  12.062   9.020
67205SOL    HW1 1641  12.191  11.978   8.991
67205SOL    HW2 1642  12.089  12.096   8.945
67206SOL     OW 1643  12.163  11.582   8.690
67206SOL    HW1 1644  12.086  11.616   8.744
67206SOL    HW2 1645  12.129  11.531   8.611
67207SOL     OW 1646  12.213  11.873   7.877
67207SOL    HW1 1647  12.239  11.869   7.973
67207SOL    HW2 1648  12.128  11.822   7.863
67208SOL     OW 1649  11.248  11.983   8.237
67208SOL    HW1 1650  11.347  11.971   8.246
67208SOL    HW2 1651  11.224  12.078   8.258
67209SOL     OW 1652  12.037  11.520   7.643
67209SOL    HW1 1653  12.096  11.583   7.594
67209SOL    HW2 1654  12.056  11.426   7.614
67210SOL     OW 1655  12.534  12.316   7.993
67210SOL    HW1 1656  12.617  12.287   7.945
67210SOL    HW2 1657  12.485  12.383   7.937
67211SOL     OW 1658  11.722  11.368   8.333
67211SOL    HW1 1659  11.717  11.363   8.433
67211SOL    HW2 1660  11.724  11.464   8.304
67212SOL     OW 1661  12.180  12.628   7.925
67212SOL    HW1 1662  12.134  12.700   7.873
67212SOL    HW2 1663  12.176  12.648   8.023
67213SOL     OW 1664  12.399  12.722   8.954
67213SOL    HW1 1665  12.405  12.645   9.018
67213SOL    HW2 1666  12.347  12.696   8.874
67214SOL     OW 1667  11.493  12.115   7.690
67214SOL    HW1 1668  11.575  12.154   7.648
67214SOL    HW2 1669  11.466  12.033   7.641
67215SOL     OW 1670  11.633  12.438   9.175
67215SOL    HW1 1671  11.583  12.439   9.089
67215SOL    HW2 1672  11.570  12.420   9.251
67216SOL     OW 1673  12.283  12.948   7.685
67216SOL    HW1 1674  12.223  12.886   7.735
67216SOL    HW2 1675  12.314  12.904   7.600
67217SOL     OW 1676  11.374  11.457   8.946
67217SOL    HW1 1677  11.294  11.517   8.933
67217SOL    HW2 1678  11.364  11.408   9.032
67218SOL     OW 1679  12.572  11.279   7.874
67218SOL    HW1 1680  12.548  11.242   7.784
67218SOL    HW2 1681  12.671  11.295   7.878
67219SOL     OW 1682  11.554  11.872   7.928
67219SOL    HW1 1683  11.599  11.782   7.925
67219SOL    HW2 1684  11.460  11.861   7.961
67220SOL     OW 1685  11.786  11.294   7.565
67220SOL    HW1 1686  11.884  11.272   7.572
67220SOL    HW2 1687  11.755  11.277   7.472
67221SOL     OW 1688  11.953  11.436   9.197
67221SOL    HW1 1689  12.020  11.375   9.240
67221SOL    HW2 1690  11.880  11.455   9.262
67222SOL     OW 1691  12.523  11.762   8.881
67222SOL    HW1 1692  12.551  11.719   8.966
67222SOL    HW2 1693  12.548  11.858   8.882
67223SOL     OW 1694  11.975  12.574   8.372
67223SOL    HW1 1695  12.065  12.588   8.330
67223SOL    HW2 1696  11.904  12.576   8.301
67224SOL     OW 1697  12.094  11.675   8.347
67224SOL    HW1 1698  12.069  11.666   8.251
67224SOL    HW2 1699  12.142  11.593   8.378
67225SOL     OW 1700  11.711  11.236   7.960
67225SOL    HW1 1701  11.630  11.237   8.018
67225SOL    HW2 1702  11.714  11.319   7.905
67226SOL     OW 1703  12.606  12.360   7.489
67226SOL    HW1 1704  12.638  12.284   7.546
67226SOL    HW2 1705  12.514  12.387   7.519
67227SOL     OW 1706  11.469  11.207   7.619
67227SOL    HW1 1707  11.518  11.291   7.598
67227SOL    HW2 1708  11.531  11.142   7.664
67228SOL     OW 1709  12.107  11.408   7.928
67228SOL    HW1 1710  12.059  11.449   7.850
67228SOL    HW2 1711  12.206  11.406   7.909
67229SOL     OW 1712  12.248  11.855   8.912
67229SOL    HW1 1713  12.168  11.794   8.915
67229SOL    HW2 1714  12.329  11.802   8.888
67230SOL     OW 1715  12.399  12.742   8.241
67230SOL    HW1 1716  12.420  12.816   8.176
67230SOL    HW2 1717  12.467  12.742   8.314
67231SOL     OW 1718  11.631  12.324   8.189
67231SOL    HW1 1719  11.560  12.297   8.254
67231SOL    HW2 1720  11.605  12.296   8.096
67232SOL     OW 1721  12.204  11.721   7.464
67232SOL    HW1 1722  12.163  11.803   7.425
67232SOL    HW2 1723  12.268  11.747   7.537
67233SOL     OW 1724  11.250  11.728   8.834
67233SOL    HW1 1725  11.342  11.727   8.793
67233SOL    HW2 1726  11.244  11.802   8.901
67234SOL     OW 1727  11.733  11.394   8.595
67234SOL    HW1 1728  11.771  11.310   8.632
67234SOL    HW2 1729  11.645  11.413   8.639
67235SOL     OW 1730  12.038  11.626   8.090
67235SOL    HW1 1731  12.006  11.698   8.028
67235SOL    HW2 1732  12.062  11.545   8.037
67236SOL     OW 1733  12.189  11.211   8.201
67236SOL    HW1 1734  12.117  11.216   8.132
67236SOL    HW2 1735  12.165  11.142   8.270
67237SOL     OW 1736  12.601  12.345   8.315
67237SOL    HW1 1737  12.546  12.261   8.308
67237SOL    HW2 1738  12.627  12.374   8.223
67238SOL     OW 1739  11.660  12.557   7.622
67238SOL    HW1 1740  11.573  12.542   7.669
67238SOL    HW2 1741  11.643  12.583   7.527
67239SOL     OW 1742  12.562  11.747   7.526
67239SOL    HW1 1743  12.508  11.726   7.607
67239SOL    HW2 1744  12.653  11.706   7.535
67240SOL     OW 1745  11.699  11.428   7.776
67240SOL    HW1 1746  11.726  11.369   7.701
67240SOL    HW2 1747  11.699  11.523   7.745
67241SOL     OW 1748  12.236  12.519   8.788
67241SOL    HW1 1749  12.156  12.496   8.843
67241SOL    HW2 1750  12.319  12.493   8.837
67242SOL     OW 1751  12.283  12.367   8.548
67242SOL    HW1 1752  12.243  12.411   8.629
67242SOL    HW2 1753  12.242  12.404   8.465
67243SOL     OW 1754  12.087  11.261   8.850
67243SOL    HW1 1755  12.112  11.241   8.755
67243SOL    HW2 1756  12.159  11.317   8.892
67244SOL     OW 1757  12.152  12.288   9.167
67244SOL    HW1 1758  12.053  12.294   9.177
67244SOL    HW2 1759  12.175  12.208   9.111
67245SOL     OW 1760  11.877  12.222   7.816
67245SOL    HW1 1761  11.863  12.229   7.915
67245SOL    HW2 1762  11.961  12.171   7.798
67246SOL     OW 1763  11.582  11.985   8.699
67246SOL    HW1 1764  11.668  11.997   8.749
67246SOL    HW2 1765  11.540  11.898   8.726
67247SOL     OW 1766  12.446  11.558   8.710
67247SOL    HW1 1767  12.467  11.632   8.774
67247SOL    HW2 1768  12.357  11.575   8.667
67248SOL     OW 1769  11.539  12.272   7.949
67248SOL    HW1 1770  11.532  12.355   7.893
67248SOL    HW2 1771  11.543  12.192   7.889
67249SOL     OW 1772  11.738  11.709   8.313
67249SOL    HW1 1773  11.750  11.775   8.239
67249SOL    HW2 1774  11.784  11.743   8.396
67250SOL     OW 1775  12.424  12.520   7.836
67250SOL    HW1 1776  12.474  12.597   7.876
67250SOL    HW2 1777  12.329  12.522   7.868
67251SOL     OW 1778  12.444  12.617   8.590
67251SOL    HW1 1779  12.491  12.630   8.677
67251SOL    HW2 1780  12.378  12.543   8.599
67252SOL     OW 1781  11.526  12.682   8.777
67252SOL    HW1 1782  11.505  12.638   8.690
67252SOL    HW2 1783  11.623  12.708   8.780
67253SOL     OW 1784  11.574  11.923   9.046
67253SOL    HW1 1785  11.642  11.978   8.999
67253SOL    HW2 1786  11.614  11.835   9.073
67254SOL     OW 1787  12.185  11.277   9.218
67254SOL    HW1 1788  12.191  11.362   9.166
67254SOL    HW2 1789  12.217  11.201   9.161
67255SOL     OW 1790  11.676  11.222   9.188
67255SOL    HW1 1791  11.634  11.165   9.118
67255SOL    HW2 1792  11.610  11.291   9.220
67256SOL     OW 1793  11.745  12.042   8.477
67256SOL    HW1 1794  11.789  12.131   8.468
67256SOL    HW2 1795  11.682  12.042   8.554
67257SOL     OW 1796  12.532  12.034   8.493
67257SOL    HW1 1797  12.457  12.034   8.427
67257SOL    HW2 1798  12.569  11.942   8.502
67258SOL     OW 1799  12.381  11.697   7.723
67258SOL    HW1 1800  12.394  11.613   7.777
67258SOL    HW2 1801  12.352  11.771   7.783
67259SOL     OW 1802  11.479  11.385   8.679
67259SOL    HW1 1803  11.456  11.422   8.769
67259SOL    HW2 1804  11.449  11.290   8.673
67260SOL     OW 1805  11.209  12.482   8.730
67260SOL    HW1 1806  11.262  12.433   8.798
67260SOL    HW2 1807  11.231  12.580   8.735
67261SOL     OW 1808  11.904  11.806   8.512
67261SOL    HW1 1809  11.963  11.780   8.436
67261SOL    HW2 1810  11.876  11.902   8.501
67262SOL     OW 1811  11.479  11.235   8.066
67262SOL    HW1 1812  11.468  11.329   8.099
67262SOL    HW2 1813  11.474  11.172   8.143
67263SOL     OW 1814  12.794  11.539   7.822
67263SOL    HW1 1815  12.796  11.463   7.886
67263SOL    HW2 1816  12.746  11.616   7.862
67264SOL     OW 1817  12.195  11.938   8.414
67264SOL    HW1 1818  12.210  11.959   8.510
67264SOL    HW2 1819  12.165  11.843   8.405
67265SOL     OW 1820  11.522  12.070   9.252
67265SOL    HW1 1821  11.598  12.114   9.300
67265SOL    HW2 1822  11.557  12.023   9.170
67266SOL     OW 1823  12.475  12.010   7.490
67266SOL    HW1 1824  12.509  11.917   7.505
67266SOL    HW2 1825  12.493  12.037   7.395
67267SOL     OW 1826  12.240  12.505   8.297
67267SOL    HW1 1827  12.247  12.421   8.242
67267SOL    HW2 1828  12.302  12.574   8.261
67268SOL     OW 1829  11.491  11.982   8.397
67268SOL    HW1 1830  11.584  12.018   8.402
67268SOL    HW2 1831  11.485  11.897   8.449
67269SOL     OW 1832  11.511  11.681   8.454
67269SOL    HW1 1833  11.459  11.598   8.437
67269SOL    HW2 1834  11.588  11.686   8.390
67270SOL     OW 1835  12.310  11.552   9.126
67270SOL    HW1 1836  12.265  11.615   9.190
67270SOL    HW2 1837  12.403  11.583   9.109
67271SOL     OW 1838  12.332  11.379   8.925
67271SOL    HW1 1839  12.332  11.443   9.002
67271SOL    HW2 1840  12.360  11.427   8.842
67272SOL     OW 1841  11.180  12.498   7.648
67272SOL    HW1 1842  11.087  12.519   7.617
67272SOL    HW2 1843  11.190  12.399   7.661
67273SOL     OW 1844  12.174  11.968   8.686
67273SOL    HW1 1845  12.215  11.936   8.772
67273SOL    HW2 1846  12.078  11.941   8.683
67274SOL     OW 1847  11.212  11.716   8.562
67274SOL    HW1 1848  11.297  11.683   8.521
67274SOL    HW2 1849  11.225  11.731   8.660
67275SOL     OW 1850  11.361  11.692   9.170
67275SOL    HW1 1851  11.420  11.652   9.100
67275SOL    HW2 1852  11.303  11.763   9.129
67276SOL     OW 1853  12.541  12.122   9.108
67276SOL    HW1 1854  12.580  12.211   9.128
67276SOL    HW2 1855  12.551  12.102   9.011
67277SOL     OW 1856  11.987  11.744   7.773
67277SOL    HW1 1857  11.994  11.655   7.727
67277SOL    HW2 1858  11.893  11.778   7.765
67278SOL     OW 1859  11.424  12.736   9.192
67278SOL    HW1 1860  11.394  12.793   9.268
67278SOL    HW2 1861  11.417  12.639   9.218
67279SOL     OW 1862  11.843  11.636   8.717
67279SOL    HW1 1863  11.809  11.547   8.687
67279SOL    HW2 1864  11.869  11.690   8.637
67280SOL     OW 1865  11.645  11.672   7.639
67280SOL    HW1 1866  11.706  11.752   7.643
67280SOL    HW2 1867  11.550  11.703   7.646
67281SOL     OW 1868  11.331  12.309   8.914
67281SOL    HW1 1869  11.353  12.248   8.990
67281SOL    HW2 1870  11.341  12.260   8.828
67282SOL     OW 1871  12.519  12.231   8.682
67282SOL    HW1 1872  12.543  12.168   8.608
67282SOL    HW2 1873  12.429  12.271   8.664
67283SOL     OW 1874  12.474  12.027   7.757
67283SOL    HW1 1875  12.388  11.996   7.799
67283SOL    HW2 1876  12.470  12.013   7.658
67284SOL     OW 1877  11.255  12.430   8.470
67284SOL    HW1 1878  11.250  12.429   8.570
67284SOL    HW2 1879  11.172  12.389   8.432
67285SOL     OW 1880  12.898  11.307   7.971
67285SOL    HW1 1881  12.971  11.290   7.904
67285SOL    HW2 1882  12.867  11.220   8.009
67286SOL     OW 1883  12.452  12.099   8.120
67286SOL    HW1 1884  12.512  12.018   8.122
67286SOL    HW2 1885  12.492  12.168   8.060
67287SOL     OW 1886  12.002  12.445   8.870
67287SOL    HW1 1887  11.997  12.478   8.965
67287SOL    HW2 1888  11.916  12.464   8.824
67288SOL     OW 1889  11.435  11.498   8.168
67288SOL    HW1 1890  11.356  11.549   8.134
67288SOL    HW2 1891  11.426  11.483   8.266
67289SOL     OW 1892  11.994  12.174   8.820
67289SOL    HW1 1893  12.034  12.173   8.728
67289SOL    HW2 1894  12.004  12.266   8.860
67290SOL     OW 1895  12.088  12.082   7.739
67290SOL    HW1 1896  12.151  12.120   7.671
67290SOL    HW2 1897  12.128  11.999   7.778
67291SOL     OW 1898  11.544  12.460   8.938
67291SOL    HW1 1899  11.531  12.553   8.904
67291SOL    HW2 1900  11.460  12.408   8.925
67292SOL     OW 1901  12.211  12.270   8.144
67292SOL    HW1 1902  12.141  12.223   8.198
67292SOL    HW2 1903  12.270  12.202   8.101
67293SOL     OW 1904  12.186  11.408   8.419
67293SOL    HW1 1905  12.178  11.372   8.326
67293SOL    HW2 1906  12.184  11.332   8.484
67294SOL     OW 1907  11.427  12.520   7.738
67294SOL    HW1 1908  11.331  12.521   7.711
67294SOL    HW2 1909  11.439  12.573   7.822
67295SOL     OW 1910  11.277  12.185   9.174
67295SOL    HW1 1911  11.200  12.152   9.228
67295SOL    HW2 1912  11.362  12.155   9.216
67296SOL     OW 1913  11.844  11.375   8.937
67296SOL    HW1 1914  11.934  11.359   8.897
67296SOL    HW2 1915  11.852  11.380   9.036
67297SOL     OW 1916  11.247  11.517   7.481
67297SOL    HW1 1917  11.155  11.489   7.452
67297SOL    HW2 1918  11.278  11.594   7.425
67298SOL     OW 1919  12.612  12.028   8.846
67298SOL    HW1 1920  12.555  12.080   8.783
67298SOL    HW2 1921  12.708  12.040   8.822
67299SOL     OW 1922  11.244  11.338   7.766
67299SOL    HW1 1923  11.227  11.421   7.712
67299SOL    HW2 1924  11.334  11.301   7.744
67300SOL     OW 1925  12.355  12.507   7.567
67300SOL    HW1 1926  12.256  12.496   7.569
67300SOL    HW2 1927  12.389  12.522   7.660
67301SOL     OW 1928  11.785  12.014   8.879
67301SOL    HW1 1929  11.841  12.095   8.862
67301SOL    HW2 1930  11.844  11.934   8.882
67302SOL     OW 1931  11.888  11.737   9.156
67302SOL    HW1 1932  11.907  11.802   9.230
67302SOL    HW2 1933  11.948  11.657   9.165
67303SOL     OW 1934  12.622  12.392   9.081
67303SOL    HW1 1935  12.613  12.382   9.180
67303SOL    HW2 1936  12.718  12.385   9.055
67304SOL     OW 1937  12.397  11.497   7.897
67304SOL    HW1 1938  12.462  11.423   7.886
67304SOL    HW2 1939  12.417  11.547   7.981
67305SOL     OW 1940  11.766  11.917   8.100
67305SOL    HW1 1941  11.816  12.002   8.081
67305SOL    HW2 1942  11.678  11.919   8.052
67306SOL     OW 1943  12.031  12.546   7.464
67306SOL    HW1 1944  11.985  12.561   7.552
67306SOL    HW2 1945  12.075  12.631   7.434
67307SOL     OW 1946  12.031  12.128   8.309
67307SOL    HW1 1947  12.085  12.059   8.357
67307SOL    HW2 1948  11.999  12.197   8.375
67308SOL     OW 1949  12.255  12.156   7.535
67308SOL    HW1 1950  12.232  12.209   7.453
67308SOL    HW2 1951  12.336  12.100   7.516
67309SOL     OW 1952  11.393  12.486   9.292
67309SOL    HW1 1953  11.328  12.413   9.271
67309SOL    HW2 1954  11.397  12.500   9.390
67310SOL     OW 1955  11.251  12.412   8.101
67310SOL    HW1 1956  11.250  12.365   8.189
67310SOL    HW2 1957  11.333  12.384   8.050
67311SOL     OW 1958  11.844  12.563   9.072
67311SOL    HW1 1959  11.766  12.513   9.110
67311SOL    HW2 1960  11.841  12.658   9.103
67312SOL     OW 1961  11.600  11.596   7.968
67312SOL    HW1 1962  11.630  11.524   7.906
67312SOL    HW2 1963  11.561  11.556   8.051
67313SOL     OW 1964  12.877  12.659   8.552
67313SOL    HW1 1965  12.784  12.634   8.525
67313SOL    HW2 1966  12.903  12.609   8.634
67314SOL     OW 1967  11.489  11.719   8.728
67314SOL    HW1 1968  11.527  11.660   8.800
67314SOL    HW2 1969  11.529  11.693   8.640
67315SOL     OW 1970  12.596  11.386   8.560
67315SOL    HW1 1971  12.648  11.321   8.615
67315SOL    HW2 1972  12.547  11.449   8.621
67316SOL     OW 1973  12.173  11.206   8.602
67316SOL    HW1 1974  12.110  11.134   8.571
67316SOL    HW2 1975  12.266  11.170   8.602
67317SOL     OW 1976  11.942  12.502   7.749
67317SOL    HW1 1977  11.896  12.415   7.766
67317SOL    HW2 1978  12.033  12.499   7.790
67318SOL     OW 1979  11.790  12.739   8.732
67318SOL    HW1 1980  11.785  12.821   8.789
67318SOL    HW2 1981  11.879  12.736   8.687
67319SOL     OW 1982  12.524  11.224   7.616
67319SOL    HW1 1983  12.559  11.183   7.532
67319SOL    HW2 1984  12.434  11.186   7.636
67320SOL     OW 1985  12.472  11.625   8.139
67320SOL    HW1 1986  12.413  11.705   8.143
67320SOL    HW2 1987  12.487  11.590   8.232
67321SOL     OW 1988  11.211  12.249   7.748
67321SOL    HW1 1989  11.310  12.238   7.739
67321SOL    HW2 1990  11.171  12.163   7.780
67322SOL     OW 1991  11.402  11.800   9.423
67322SOL    HW1 1992  11.309  11.798   9.460
67322SOL    HW2 1993  11.403  11.761   9.331
67323SOL     OW 1994  11.397  11.447  10.306
67323SOL    HW1 1995  11.432  11.430  10.398
67323SOL    HW2 1996  11.309  11.402  10.294
67324SOL     OW 1997  11.191  11.540   9.957
67324SOL    HW1 1998  11.109  11.583   9.996
67324SOL    HW2 1999  11.163  11.467   9.894
67325SOL     OW 2000  11.741  12.447  10.475
67325SOL    HW1 2001  11.648  12.440  10.438
67325SOL    HW2 2002  11.752  12.536  10.519
67326SOL     OW 2003  12.727  12.683  10.013
67326SOL    HW1 2004  12.670  12.667  10.094
67326SOL    HW2 2005  12.668  12.693   9.933
67327SOL     OW 2006  12.307  11.875  10.027
67327SOL    HW1 2007  12.364  11.953  10.002
67327SOL    HW2 2008  12.247  11.901  10.103
67328SOL     OW 2009  11.940  12.316  10.333
67328SOL    HW1 2010  11.862  12.333  10.393
67328SOL    HW2 2011  11.974  12.403  10.297
67329SOL     OW 2012  12.022  11.970  11.133
67329SOL    HW1 2013  12.018  12.046  11.198
67329SOL    HW2 2014  12.044  12.006  11.042
67330SOL     OW 2015  11.857  12.184   9.975
67330SOL    HW1 2016  11.926  12.168  10.045
67330SOL    HW2 2017  11.784  12.241  10.013
67331SOL     OW 2018  11.858  12.333  11.113
67331SOL    HW1 2019  11.918  12.412  11.127
67331SOL    HW2 2020  11.772  12.364  11.072
67332SOL     OW 2021  11.507  12.607  10.371
67332SOL    HW1 2022  11.429  12.576  10.318
67332SOL    HW2 2023  11.565  12.665  10.314
67333SOL     OW 2024  11.610  11.564  10.809
67333SOL    HW1 2025  11.692  11.508  10.818
67333SOL    HW2 2026  11.529  11.506  10.813
67334SOL     OW 2027  11.403  12.885   9.793
67334SOL    HW1 2028  11.437  12.962   9.847
67334SOL    HW2 2029  11.447  12.885   9.703
67335SOL     OW 2030  12.299  12.513  11.000
67335SOL    HW1 2031  12.346  12.513  11.088
67335SOL    HW2 2032  12.251  12.426  10.989
67336SOL     OW 2033  11.402  12.606   9.848
67336SOL    HW1 2034  11.376  12.702   9.848
67336SOL    HW2 2035  11.331  12.552   9.893
67337SOL     OW 2036  11.412  12.263  10.196
67337SOL    HW1 2037  11.426  12.179  10.248
67337SOL    HW2 2038  11.357  12.327  10.251
67338SOL     OW 2039  11.778  12.136   9.433
67338SOL    HW1 2040  11.785  12.220   9.379
67338SOL    HW2 2041  11.824  12.149   9.521
67339SOL     OW 2042  11.294  11.815   9.873
67339SOL    HW1 2043  11.249  11.727   9.890
67339SOL    HW2 2044  11.293  11.869   9.957
67340SOL     OW 2045  11.199  12.768   9.427
67340SOL    HW1 2046  11.180  12.672   9.448
67340SOL    HW2 2047  11.166  12.826   9.502
67341SOL     OW 2048  12.861  12.094   9.922
67341SOL    HW1 2049  12.956  12.065   9.930
67341SOL    HW2 2050  12.853  12.159   9.847
67342SOL     OW 2051  11.285  11.909  10.907
67342SOL    HW1 2052  11.373  11.896  10.952
67342SOL    HW2 2053  11.272  12.006  10.885
67343SOL     OW 2054  11.785  12.537  10.036
67343SOL    HW1 2055  11.736  12.450  10.045
67343SOL    HW2 2056  11.762  12.580   9.949
67344SOL     OW 2057  12.465  12.400  10.733
67344SOL    HW1 2058  12.502  12.327  10.675
67344SOL    HW2 2059  12.517  12.405  10.818
67345SOL     OW 2060  11.981  11.176   9.812
67345SOL    HW1 2061  12.021  11.267   9.803
67345SOL    HW2 2062  11.881  11.184   9.818
67346SOL     OW 2063  11.369  12.148  10.574
67346SOL    HW1 2064  11.458  12.103  10.560
67346SOL    HW2 2065  11.296  12.083  10.555
67347SOL     OW 2066  11.489  11.423  11.111
67347SOL    HW1 2067  11.560  11.494  11.117
67347SOL    HW2 2068  11.401  11.462  11.139
67348SOL     OW 2069  12.638  12.589  10.263
67348SOL    HW1 2070  12.579  12.595  10.343
67348SOL    HW2 2071  12.623  12.501  10.217
67349SOL     OW 2072  11.770  11.901   9.580
67349SOL    HW1 2073  11.794  11.970   9.512
67349SOL    HW2 2074  11.692  11.934   9.634
67350SOL     OW 2075  12.453  11.517  10.254
67350SOL    HW1 2076  12.367  11.467  10.241
67350SOL    HW2 2077  12.515  11.463  10.310
67351SOL     OW 2078  11.979  11.777  10.775
67351SOL    HW1 2079  11.932  11.774  10.864
67351SOL    HW2 2080  11.928  11.722  10.709
67352SOL     OW 2081  12.566  11.641  10.984
67352SOL    HW1 2082  12.546  11.684  11.072
67352SOL    HW2 2083  12.644  11.579  10.993
67353SOL     OW 2084  12.145  12.062  10.882
67353SOL    HW1 2085  12.191  11.978  10.853
67353SOL    HW2 2086  12.089  12.096  10.807
67354SOL     OW 2087  12.163  11.582  10.552
67354SOL    HW1 2088  12.086  11.616  10.606
67354SOL    HW2 2089  12.129  11.531  10.473
67355SOL     OW 2090  12.213  11.873   9.739
67355SOL    HW1 2091  12.239  11.869   9.835
67355SOL    HW2 2092  12.128  11.822   9.725
67356SOL     OW 2093  11.248  11.983  10.099
67356SOL    HW1 2094  11.347  11.971  10.108
67356SOL    HW2 2095  11.224  12.078  10.120
67357SOL     OW 2096  12.037  11.520   9.505
67357SOL    HW1 2097  12.096  11.583   9.456
67357SOL    HW2 2098  12.056  11.426   9.476
67358SOL     OW 2099  12.534  12.316   9.855
67358SOL    HW1 2100  12.617  12.287   9.807
67358SOL    HW2 2101  12.485  12.383   9.799
67359SOL     OW 2102  11.722  11.368  10.195
67359SOL    HW1 2103  11.717  11.363  10.295
67359SOL    HW2 2104  11.724  11.464  10.166
67360SOL     OW 2105  12.180  12.628   9.787
67360SOL    HW1 2106  12.134  12.700   9.735
67360SOL    HW2 2107  12.176  12.648   9.885
67361SOL     OW 2108  12.399  12.722  10.816
67361SOL    HW1 2109  12.405  12.645  10.880
67361SOL    HW2 2110  12.347  12.696  10.736
67362SOL     OW 2111  11.493  12.115   9.552
67362SOL    HW1 2112  11.575  12.154   9.510
67362SOL    HW2 2113  11.466  12.033   9.503
67363SOL     OW 2114  11.633  12.438  11.037
67363SOL    HW1 2115  11.583  12.439  10.951
67363SOL    HW2 2116  11.570  12.420  11.113
67364SOL     OW 2117  12.283  12.948   9.547
67364SOL    HW1 2118  12.223  12.886   9.597
67364SOL    HW2 2119  12.314  12.904   9.462
67365SOL     OW 2120  11.374  11.457  10.808
67365SOL    HW1 2121  11.294  11.517  10.795
67365SOL    HW2 2122  11.364  11.408  10.894
67366SOL     OW 2123  12.572  11.279   9.736
67366SOL    HW1 2124  12.548  11.242   9.646
67366SOL    HW2 2125  12.671  11.295   9.740
67367SOL     OW 2126  11.554  11.872   9.790
67367SOL    HW1 2127  11.599  11.782   9.787
67367SOL    HW2 2128  11.460  11.861   9.823
67368SOL     OW 2129  11.786  11.294   9.427
67368SOL    HW1 2130  11.884  11.272   9.434
67368SOL    HW2 2131  11.755  11.277   9.334
67369SOL     OW 2132  11.953  11.436  11.059
67369SOL    HW1 2133  12.020  11.375  11.102
67369SOL    HW2 2134  11.880  11.455  11.124
67370SOL     OW 2135  12.523  11.762  10.743
67370SOL    HW1 2136  12.551  11.719  10.828
67370SOL    HW2 2137  12.548  11.858  10.744
67371SOL     OW 2138  11.975  12.574  10.234
67371SOL    HW1 2139  12.065  12.588  10.192
67371SOL    HW2 2140  11.904  12.576  10.163
67372SOL     OW 2141  12.094  11.675  10.209
67372SOL    HW1 2142  12.069  11.666  10.113
67372SOL    HW2 2143  12.142  11.593  10.240
67373SOL     OW 2144  11.711  11.236   9.822
67373SOL    HW1 2145  11.630  11.237   9.880
67373SOL    HW2 2146  11.714  11.319   9.767
67374SOL     OW 2147  12.606  12.360   9.351
67374SOL    HW1 2148  12.638  12.284   9.408
67374SOL    HW2 2149  12.514  12.387   9.381
67375SOL     OW 2150  11.469  11.207   9.481
67375SOL    HW1 2151  11.518  11.291   9.460
67375SOL    HW2 2152  11.531  11.142   9.526
67376SOL     OW 2153  12.107  11.408   9.790
67376SOL    HW1 2154  12.059  11.449   9.712
67376SOL    HW2 2155  12.206  11.406   9.771
67377SOL     OW 2156  12.248  11.855  10.774
67377SOL    HW1 2157  12.168  11.794  10.777
67377SOL    HW2 2158  12.329  11.802  10.750
67378SOL     OW 2159  12.399  12.742  10.103
67378SOL    HW1 2160  12.420  12.816  10.038
67378SOL    HW2 2161  12.467  12.742  10.176
67379SOL     OW 2162  11.631  12.324  10.051
67379SOL    HW1 2163  11.560  12.297  10.116
67379SOL    HW2 2164  11.605  12.296   9.958
67380SOL     OW 2165  12.204  11.721   9.326
67380SOL    HW1 2166  12.163  11.803   9.287
67380SOL    HW2 2167  12.268  11.747   9.399
67381SOL     OW 2168  11.250  11.728  10.696
67381SOL    HW1 2169  11.342  11.727  10.655
67381SOL    HW2 2170  11.244  11.802  10.763
67382SOL     OW 2171  11.733  11.394  10.457
67382SOL    HW1 2172  11.771  11.310  10.494
67382SOL    HW2 2173  11.645  11.413  10.501
67383SOL     OW 2174  12.038  11.626   9.952
67383SOL    HW1 2175  12.006  11.698   9.890
67383SOL    HW2 2176  12.062  11.545   9.899
67384SOL     OW 2177  12.189  11.211  10.063
67384SOL    HW1 2178  12.117  11.216   9.994
67384SOL    HW2 2179  12.165  11.142  10.132
67385SOL     OW 2180  12.601  12.345  10.177
67385SOL    HW1 2181  12.546  12.261  10.170
67385SOL    HW2 2182  12.627  12.374  10.085
67386SOL     OW 2183  11.660  12.557   9.484
67386SOL    HW1 2184  11.573  12.542   9.531
67386SOL    HW2 2185  11.643  12.583   9.389
67387SOL     OW 2186  12.562  11.747   9.388
67387SOL    HW1 2187  12.508  11.726   9.469
67387SOL    HW2 2188  12.653  11.706   9.397
67388SOL     OW 2189  11.699  11.428   9.638
67388SOL    HW1 2190  11.726  11.369   9.563
67388SOL    HW2 2191  11.699  11.523   9.607
67389SOL     OW 2192  12.236  12.519  10.650
67389SOL    HW1 2193  12.156  12.496  10.705
67389SOL    HW2 2194  12.319  12.493  10.699
67390SOL     OW 2195  12.283  12.367  10.410
67390SOL    HW1 2196  12.243  12.411  10.491
67390SOL    HW2 2197  12.242  12.404  10.327
67391SOL     OW 2198  12.087  11.261  10.712
67391SOL    HW1 2199  12.112  11.241  10.617
67391SOL    HW2 2200  12.159  11.317  10.754
67392SOL     OW 2201  12.152  12.288  11.029
67392SOL    HW1 2202  12.053  12.294  11.039
67392SOL    HW2 2203  12.175  12.208  10.973
67393SOL     OW 2204  11.877  12.222   9.678
67393SOL    HW1 2205  11.863  12.229   9.777
67393SOL    HW2 2206  11.961  12.171   9.660
67394SOL     OW 2207  11.582  11.985  10.561
67394SOL    HW1 2208  11.668  11.997  10.611
67394SOL    HW2 2209  11.540  11.898  10.588
67395SOL     OW 2210  12.446  11.558  10.572
67395SOL    HW1 2211  12.467  11.632  10.636
67395SOL    HW2 2212  12.357  11.575  10.529
67396SOL     OW 2213  11.539  12.272   9.811
67396SOL    HW1 2214  11.532  12.355   9.755
67396SOL    HW2 2215  11.543  12.192   9.751
67397SOL     OW 2216  11.738  11.709  10.175
67397SOL    HW1 2217  11.750  11.775  10.101
67397SOL    HW2 2218  11.784  11.743  10.258
67398SOL     OW 2219  12.424  12.520   9.698
67398SOL    HW1 2220  12.474  12.597   9.738
67398SOL    HW2 2221  12.329  12.522   9.730
67399SOL     OW 2222  12.444  12.617  10.452
67399SOL    HW1 2223  12.491  12.630  10.539
67399SOL    HW2 2224  12.378  12.543  10.461
67400SOL     OW 2225  11.526  12.682  10.639
67400SOL    HW1 2226  11.505  12.638  10.552
67400SOL    HW2 2227  11.623  12.708  10.642
67401SOL     OW 2228  11.574  11.923  10.908
67401SOL    HW1 2229  11.642  11.978  10.861
67401SOL    HW2 2230  11.614  11.835  10.935
67402SOL     OW 2231  12.185  11.277  11.080
67402SOL    HW1 2232  12.191  11.362  11.028
67402SOL    HW2 2233  12.217  11.201  11.023
67403SOL     OW 2234  11.676  11.222  11.050
67403SOL    HW1 2235  11.634  11.165  10.980
67403SOL    HW2 2236  11.610  11.291  11.082
67404SOL     OW 2237  11.745  12.042  10.339
67404SOL    HW1 2238  11.789  12.131  10.330
67404SOL    HW2 2239  11.682  12.042  10.416
67405SOL     OW 2240  12.532  12.034  10.355
67405SOL    HW1 2241  12.457  12.034  10.289
67405SOL    HW2 2242  12.569  11.942  10.364
67406SOL     OW 2243  12.381  11.697   9.585
67406SOL    HW1 2244  12.394  11.613   9.639
67406SOL    HW2 2245  12.352  11.771   9.645
67407SOL     OW 2246  11.479  11.385  10.541
67407SOL    HW1 2247  11.456  11.422  10.631
67407SOL    HW2 2248  11.449  11.290  10.535
67408SOL     OW 2249  11.209  12.482  10.592
67408SOL    HW1 2250  11.262  12.433  10.660
67408SOL    HW2 2251  11.231  12.580  10.597
67409SOL     OW 2252  11.904  11.806  10.374
67409SOL    HW1 2253  11.963  11.780  10.298
67409SOL    HW2 2254  11.876  11.902  10.363
67410SOL     OW 2255  11.479  11.235   9.928
67410SOL    HW1 2256  11.468  11.329   9.961
67410SOL    HW2 2257  11.474  11.172  10.005
67411SOL     OW 2258  12.794  11.539   9.684
67411SOL    HW1 2259  12.796  11.463   9.748
67411SOL    HW2 2260  12.746  11.616   9.724
67412SOL     OW 2261  12.195  11.938  10.276
67412SOL    HW1 2262  12.210  11.959  10.372
67412SOL    HW2 2263  12.165  11.843  10.267
67413SOL     OW 2264  11.522  12.070  11.114
67413SOL    HW1 2265  11.598  12.114  11.162
67413SOL    HW2 2266  11.557  12.023  11.032
67414SOL     OW 2267  12.475  12.010   9.352
67414SOL    HW1 2268  12.509  11.917   9.367
67414SOL    HW2 2269  12.493  12.037   9.257
67415SOL     OW 2270  12.240  12.505  10.159
67415SOL    HW1 2271  12.247  12.421  10.104
67415SOL    HW2 2272  12.302  12.574  10.123
67416SOL     OW 2273  11.491  11.982  10.259
67416SOL    HW1 2274  11.584  12.018  10.264
67416SOL    HW2 2275  11.485  11.897  10.311
67417SOL     OW 2276  11.511  11.681  10.316
67417SOL    HW1 2277  11.459  11.598  10.299
67417SOL    HW2 2278  11.588  11.686  10.252
67418SOL     OW 2279  12.310  11.552  10.988
67418SOL    HW1 2280  12.265  11.615  11.052
67418SOL    HW2 2281  12.403  11.583  10.971
67419SOL     OW 2282  12.332  11.379  10.787
67419SOL    HW1 2283  12.332  11.443  10.864
67419SOL    HW2 2284  12.360  11.427  10.704
67420SOL     OW 2285  11.180  12.498   9.510
67420SOL    HW1 2286  11.087  12.519   9.479
67420SOL    HW2 2287  11.190  12.399   9.523
67421SOL     OW 2288  12.174  11.968  10.548
67421SOL    HW1 2289  12.215  11.936  10.634
67421SOL    HW2 2290  12.078  11.941  10.545
67422SOL     OW 2291  11.212  11.716  10.424
67422SOL    HW1 2292  11.297  11.683  10.383
67422SOL    HW2 2293  11.225  11.731  10.522
67423SOL     OW 2294  11.361  11.692  11.032
67423SOL    HW1 2295  11.420  11.652  10.962
67423SOL    HW2 2296  11.303  11.763  10.991
67424SOL     OW 2297  12.541  12.122  10.970
67424SOL    HW1 2298  12.580  12.211  10.990
67424SOL    HW2 2299  12.551  12.102  10.873
67425SOL     OW 2300  11.987  11.744   9.635
67425SOL    HW1 2301  11.994  11.655   9.589
67425SOL    HW2 2302  11.893  11.778   9.627
67426SOL     OW 2303  11.424  12.736  11.054
67426SOL    HW1 2304  11.394  12.793  11.130
67426SOL    HW2 2305  11.417  12.639  11.080
67427SOL     OW 2306  11.843  11.636  10.579
67427SOL    HW1 2307  11.809  11.547  10.549
67427SOL    HW2 2308  11.869  11.690  10.499
67428SOL     OW 2309  11.645  11.672   9.501
67428SOL    HW1 2310  11.706  11.752   9.505
67428SOL    HW2 2311  11.550  11.703   9.508
67429SOL     OW 2312  11.331  12.309  10.776
67429SOL    HW1 2313  11.353  12.248  10.852
67429SOL    HW2 2314  11.341  12.260  10.690
67430SOL     OW 2315  12.519  12.231  10.544
67430SOL    HW1 2316  12.543  12.168  10.470
67430SOL    HW2 2317  12.429  12.271  10.526
67431SOL     OW 2318  12.474  12.027   9.619
67431SOL    HW1 2319  12.388  11.996   9.661
67431SOL    HW2 2320  12.470  12.013   9.520
67432SOL     OW 2321  11.255  12.430  10.332
67432SOL    HW1 2322  11.250  12.429  10.432
67432SOL    HW2 2323  11.172  12.389  10.294
67433SOL     OW 2324  12.898  11.307   9.833
67433SOL    HW1 2325  12.971  11.290   9.766
67433SOL    HW2 2326  12.867  11.220   9.871
67434SOL     OW 2327  12.452  12.099   9.982
67434SOL    HW1 2328  12.512  12.018   9.984
67434SOL    HW2 2329  12.492  12.168   9.922
67435SOL     OW 2330  12.002  12.445  10.732
67435SOL    HW1 2331  11.997  12.478  10.827
67435SOL    HW2 2332  11.916  12.464  10.686
67436SOL     OW 2333  11.435  11.498  10.030
67436SOL    HW1 2334  11.356  11.549   9.996
67436SOL    HW2 2335  11.426  11.483  10.128
67437SOL     OW 2336  11.994  12.174  10.682
67437SOL    HW1 2337  12.034  12.173  10.590
67437SOL    HW2 2338  12.004  12.266  10.722
67438SOL     OW 2339  12.088  12.082   9.601
67438SOL    HW1 2340  12.151  12.120   9.533
67438SOL    HW2 2341  12.128  11.999   9.640
67439SOL     OW 2342  11.544  12.460  10.800
67439SOL    HW1 2343  11.531  12.553  10.766
67439SOL    HW2 2344  11.460  12.408  10.787
67440SOL     OW 2345  12.211  12.270  10.006
67440SOL    HW1 2346  12.141  12.223  10.060
67440SOL    HW2 2347  12.270  12.202   9.963
67441SOL     OW 2348  12.186  11.408  10.281
67441SOL    HW1 2349  12.178  11.372  10.188
67441SOL    HW2 2350  12.184  11.332  10.346
67442SOL     OW 2351  11.427  12.520   9.600
67442SOL    HW1 2352  11.331  12.521   9.573
67442SOL    HW2 2353  11.439  12.573   9.684
67443SOL     OW 2354  11.277  12.185  11.036
67443SOL    HW1 2355  11.200  12.152  11.090
67443SOL    HW2 2356  11.362  12.155  11.078
67444SOL     OW 2357  11.844  11.375  10.799
67444SOL    HW1 2358  11.934  11.359  10.759
67444SOL    HW2 2359  11.852  11.380  10.898
67445SOL     OW 2360  11.247  11.517   9.343
67445SOL    HW1 2361  11.155  11.489   9.314
67445SOL    HW2 2362  11.278  11.594   9.287
67446SOL     OW 2363  12.612  12.028  10.708
67446SOL    HW1 2364  12.555  12.080  10.645
67446SOL    HW2 2365  12.708  12.040  10.684
67447SOL     OW 2366  11.244  11.338   9.628
67447SOL    HW1 2367  11.227  11.421   9.574
67447SOL    HW2 2368  11.334  11.301   9.606
67448SOL     OW 2369  12.355  12.507   9.429
67448SOL    HW1 2370  12.256  12.496   9.431
67448SOL    HW2 2371  12.389  12.522   9.522
67449SOL     OW 2372  11.785  12.014  10.741
67449SOL    HW1 2373  11.841  12.095  10.724
67449SOL    HW2 2374  11.844  11.934  10.744
67450SOL     OW 2375  11.888  11.737  11.018
67450SOL    HW1 2376  11.907  11.802  11.092
67450SOL    HW2 2377  11.948  11.657  11.027
67451SOL     OW 2378  12.622  12.392  10.943
67451SOL    HW1 2379  12.613  12.382  11.042
67451SOL    HW2 2380  12.718  12.385  10.917
67452SOL     OW 2381  12.397  11.497   9.759
67452SOL    HW1 2382  12.462  11.423   9.748
67452SOL    HW2 2383  12.417  11.547   9.843
67453SOL     OW 2384  11.766  11.917   9.962
67453SOL    HW1 2385  11.816  12.002   9.943
67453SOL    HW2 2386  11.678  11.919   9.914
67454SOL     OW 2387  12.031  12.546   9.326
67454SOL    HW1 2388  11.985  12.561   9.414
67454SOL    HW2 2389  12.075  12.631   9.296
67455SOL     OW 2390  12.031  12.128  10.171
67455SOL    HW1 2391  12.085  12.059  10.219
67455SOL    HW2 2392  11.999  12.197  10.237
67456SOL     OW 2393  12.255  12.156   9.397
67456SOL    HW1 2394  12.232  12.209   9.315
67456SOL    HW2 2395  12.336  12.100   9.378
67457SOL     OW 2396  11.393  12.486  11.154
67457SOL    HW1 2397  11.328  12.413  11.133
67457SOL    HW2 2398  11.397  12.500  11.252
67458SOL     OW 2399  11.251  12.412   9.963
67458SOL    HW1 2400  11.250  12.365  10.051
67458SOL    HW2 2401  11.333  12.384   9.912
67459SOL     OW 2402  11.844  12.563  10.934
67459SOL    HW1 2403  11.766  12.513  10.972
67459SOL    HW2 2404  11.841  12.658  10.965
67460SOL     OW 2405  11.600  11.596   9.830
67460SOL    HW1 2406  11.630  11.524   9.768
67460SOL    HW2 2407  11.561  11.556   9.913
67461SOL     OW 2408  12.877  12.659  10.414
67461SOL    HW1 2409  12.784  12.634  10.387
67461SOL    HW2 2410  12.903  12.609  10.496
67462SOL     OW 2411  11.489  11.719  10.590
67462SOL    HW1 2412  11.527  11.660  10.662
67462SOL    HW2 2413  11.529  11.693  10.502
67463SOL     OW 2414  12.596  11.386  10.422
67463SOL    HW1 2415  12.648  11.321  10.477
67463SOL    HW2 2416  12.547  11.449  10.483
67464SOL     OW 2417  12.173  11.206  10.464
67464SOL    HW1 2418  12.110  11.134  10.433
67464SOL    HW2 2419  12.266  11.170  10.464
67465SOL     OW 2420  11.942  12.502   9.611
67465SOL    HW1 2421  11.896  12.415   9.628
67465SOL    HW2 2422  12.033  12.499   9.652
67466SOL     OW 2423  11.790  12.739  10.594
67466SOL    HW1 2424  11.785  12.821  10.651
67466SOL    HW2 2425  11.879  12.736  10.549
67467SOL     OW 2426  12.524  11.224   9.478
67467SOL    HW1 2427  12.559  11.183   9.394
67467SOL    HW2 2428  12.434  11.186   9.498
67468SOL     OW 2429  12.472  11.625  10.001
67468SOL    HW1 2430  12.413  11.705  10.005
67468SOL    HW2 2431  12.487  11.590  10.094
67469SOL     OW 2432  11.211  12.249   9.610
67469SOL    HW1 2433  11.310  12.238   9.601
67469SOL    HW2 2434  11.171  12.163   9.642
67470SOL     OW 2435  11.402  11.800  11.285
67470SOL    HW1 2436  11.309  11.798  11.322
67470SOL    HW2 2437  11.403  11.761  11.193
67471SOL     OW 2438  11.397  11.447  12.168
67471SOL    HW1 2439  11.432  11.430  12.260
67471SOL    HW2 2440  11.309  11.402  12.156
67472SOL     OW 2441  11.191  11.540  11.819
67472SOL    HW1 2442  11.109  11.583  11.858
67472SOL    HW2 2443  11.163  11.467  11.756
67473SOL     OW 2444  11.741  12.447  12.337
67473SOL    HW1 2445  11.648  12.440  12.300
67473SOL    HW2 2446  11.752  12.536  12.381
67474SOL     OW 2447  12.727  12.683  11.875
67474SOL    HW1 2448  12.670  12.667  11.956
67474SOL    HW2 2449  12.668  12.693  11.795
67475SOL     OW 2450  12.307  11.875  11.889
67475SOL    HW1 2451  12.364  11.953  11.864
67475SOL    HW2 2452  12.247  11.901  11.965
67476SOL     OW 2453  11.940  12.316  12.195
67476SOL    HW1 2454  11.862  12.333  12.255
67476SOL    HW2 2455  11.974  12.403  12.159
67477SOL     OW 2456  11.857  12.184  11.837
67477SOL    HW1 2457  11.926  12.168  11.907
67477SOL    HW2 2458  11.784  12.241  11.875
67478SOL     OW 2459  11.507  12.607  12.233
67478SOL    HW1 2460  11.429  12.576  12.180
67478SOL    HW2 2461  11.565  12.665  12.176
67479SOL     OW 2462  11.610  11.564  12.671
67479SOL    HW1 2463  11.692  11.508  12.680
67479SOL    HW2 2464  11.529  11.506  12.675
67480SOL     OW 2465  11.403  12.885  11.655
67480SOL    HW1 2466  11.437  12.962  11.709
67480SOL    HW2 2467  11.447  12.885  11.565
67481SOL     OW 2468  11.402  12.606  11.710
67481SOL    HW1 2469  11.376  12.702  11.710
67481SOL    HW2 2470  11.331  12.552  11.755
67482SOL     OW 2471  11.412  12.263  12.058
67482SOL    HW1 2472  11.426  12.179  12.110
67482SOL    HW2 2473  11.357  12.327  12.113
67483SOL     OW 2474  11.778  12.136  11.295
67483SOL    HW1 2475  11.785  12.220  11.241
67483SOL    HW2 2476  11.824  12.149  11.383
67484SOL     OW 2477  11.294  11.815  11.735
67484SOL    HW1 2478  11.249  11.727  11.752
67484SOL    HW2 2479  11.293  11.869  11.819
67485SOL     OW 2480  11.199  12.768  11.289
67485SOL    HW1 2481  11.180  12.672  11.310
67485SOL    HW2 2482  11.166  12.826  11.364
67486SOL     OW 2483  12.861  12.094  11.784
67486SOL    HW1 2484  12.956  12.065  11.792
67486SOL    HW2 2485  12.853  12.159  11.709
67487SOL     OW 2486  11.785  12.537  11.898
67487SOL    HW1 2487  11.736  12.450  11.907
67487SOL    HW2 2488  11.762  12.580  11.811
67488SOL     OW 2489  11.981  11.176  11.674
67488SOL    HW1 2490  12.021  11.267  11.665
67488SOL    HW2 2491  11.881  11.184  11.680
67489SOL     OW 2492  11.369  12.148  12.436
67489SOL    HW1 2493  11.458  12.103  12.422
67489SOL    HW2 2494  11.296  12.083  12.417
67490SOL     OW 2495  11.489  11.423  12.973
67490SOL    HW1 2496  11.560  11.494  12.979
67490SOL    HW2 2497  11.401  11.462  13.001
67491SOL     OW 2498  12.638  12.589  12.125
67491SOL    HW1 2499  12.579  12.595  12.205
67491SOL    HW2 2500  12.623  12.501  12.079
67492SOL     OW 2501  11.770  11.901  11.442
67492SOL    HW1 2502  11.794  11.970  11.374
67492SOL    HW2 2503  11.692  11.934  11.496
67493SOL     OW 2504  12.453  11.517  12.116
67493SOL    HW1 2505  12.367  11.467  12.103
67493SOL    HW2 2506  12.515  11.463  12.172
67494SOL     OW 2507  11.979  11.777  12.637
67494SOL    HW1 2508  11.932  11.774  12.726
67494SOL    HW2 2509  11.928  11.722  12.571
67495SOL     OW 2510  12.163  11.582  12.414
67495SOL    HW1 2511  12.086  11.616  12.468
67495SOL    HW2 2512  12.129  11.531  12.335
67496SOL     OW 2513  12.213  11.873  11.601
67496SOL    HW1 2514  12.239  11.869  11.697
67496SOL    HW2 2515  12.128  11.822  11.587
67497SOL     OW 2516  11.248  11.983  11.961
67497SOL    HW1 2517  11.347  11.971  11.970
67497SOL    HW2 2518  11.224  12.078  11.982
67498SOL     OW 2519  12.037  11.520  11.367
67498SOL    HW1 2520  12.096  11.583  11.318
67498SOL    HW2 2521  12.056  11.426  11.338
67499SOL     OW 2522  12.534  12.316  11.717
67499SOL    HW1 2523  12.617  12.287  11.669
67499SOL    HW2 2524  12.485  12.383  11.661
67500SOL     OW 2525  11.722  11.368  12.057
67500SOL    HW1 2526  11.717  11.363  12.157
67500SOL    HW2 2527  11.724  11.464  12.028
67501SOL     OW 2528  12.180  12.628  11.649
67501SOL    HW1 2529  12.134  12.700  11.597
67501SOL    HW2 2530  12.176  12.648  11.747
67502SOL     OW 2531  11.493  12.115  11.414
67502SOL    HW1 2532  11.575  12.154  11.372
67502SOL    HW2 2533  11.466  12.033  11.365
67503SOL     OW 2534  12.283  12.948  11.409
67503SOL    HW1 2535  12.223  12.886  11.459
67503SOL    HW2 2536  12.314  12.904  11.324
67504SOL     OW 2537  11.374  11.457  12.670
67504SOL    HW1 2538  11.294  11.517  12.657
67504SOL    HW2 2539  11.364  11.408  12.756
67505SOL     OW 2540  12.572  11.279  11.598
67505SOL    HW1 2541  12.548  11.242  11.508
67505SOL    HW2 2542  12.671  11.295  11.602
67506SOL     OW 2543  11.554  11.872  11.652
67506SOL    HW1 2544  11.599  11.782  11.649
67506SOL    HW2 2545  11.460  11.861  11.685
67507SOL     OW 2546  11.786  11.294  11.289
67507SOL    HW1 2547  11.884  11.272  11.296
67507SOL    HW2 2548  11.755  11.277  11.196
67508SOL     OW 2549  11.975  12.574  12.096
67508SOL    HW1 2550  12.065  12.588  12.054
67508SOL    HW2 2551  11.904  12.576  12.025
67509SOL     OW 2552  12.094  11.675  12.071
67509SOL    HW1 2553  12.069  11.666  11.975
67509SOL    HW2 2554  12.142  11.593  12.102
67510SOL     OW 2555  11.711  11.236  11.684
67510SOL    HW1 2556  11.630  11.237  11.742
67510SOL    HW2 2557  11.714  11.319  11.629
67511SOL     OW 2558  12.606  12.360  11.213
67511SOL    HW1 2559  12.638  12.284  11.270
67511SOL    HW2 2560  12.514  12.387  11.243
67512SOL     OW 2561  11.469  11.207  11.343
67512SOL    HW1 2562  11.518  11.291  11.322
67512SOL    HW2 2563  11.531  11.142  11.388
67513SOL     OW 2564  12.107  11.408  11.652
67513SOL    HW1 2565  12.059  11.449  11.574
67513SOL    HW2 2566  12.206  11.406  11.633
67514SOL     OW 2567  12.399  12.742  11.965
67514SOL    HW1 2568  12.420  12.816  11.900
67514SOL    HW2 2569  12.467  12.742  12.038
67515SOL     OW 2570  11.631  12.324  11.913
67515SOL    HW1 2571  11.560  12.297  11.978
67515SOL    HW2 2572  11.605  12.296  11.820
67516SOL     OW 2573  12.204  11.721  11.188
67516SOL    HW1 2574  12.163  11.803  11.149
67516SOL    HW2 2575  12.268  11.747  11.261
67517SOL     OW 2576  11.250  11.728  12.558
67517SOL    HW1 2577  11.342  11.727  12.517
67517SOL    HW2 2578  11.244  11.802  12.625
67518SOL     OW 2579  11.733  11.394  12.319
67518SOL    HW1 2580  11.771  11.310  12.356
67518SOL    HW2 2581  11.645  11.413  12.363
67519SOL     OW 2582  12.038  11.626  11.814
67519SOL    HW1 2583  12.006  11.698  11.752
67519SOL    HW2 2584  12.062  11.545  11.761
67520SOL     OW 2585  12.189  11.211  11.925
67520SOL    HW1 2586  12.117  11.216  11.856
67520SOL    HW2 2587  12.165  11.142  11.994
67521SOL     OW 2588  12.601  12.345  12.039
67521SOL    HW1 2589  12.546  12.261  12.032
67521SOL    HW2 2590  12.627  12.374  11.947
67522SOL     OW 2591  11.660  12.557  11.346
67522SOL    HW1 2592  11.573  12.542  11.393
67522SOL    HW2 2593  11.643  12.583  11.251
67523SOL     OW 2594  12.562  11.747  11.250
67523SOL    HW1 2595  12.508  11.726  11.331
67523SOL    HW2 2596  12.653  11.706  11.259
67524SOL     OW 2597  11.699  11.428  11.500
67524SOL    HW1 2598  11.726  11.369  11.425
67524SOL    HW2 2599  11.699  11.523  11.469
67525SOL     OW 2600  12.236  12.519  12.512
67525SOL    HW1 2601  12.156  12.496  12.567
67525SOL    HW2 2602  12.319  12.493  12.561
67526SOL     OW 2603  12.283  12.367  12.272
67526SOL    HW1 2604  12.243  12.411  12.353
67526SOL    HW2 2605  12.242  12.404  12.189
67527SOL     OW 2606  12.087  11.261  12.574
67527SOL    HW1 2607  12.112  11.241  12.479
67527SOL    HW2 2608  12.159  11.317  12.616
67528SOL     OW 2609  11.877  12.222  11.540
67528SOL    HW1 2610  11.863  12.229  11.639
67528SOL    HW2 2611  11.961  12.171  11.522
67529SOL     OW 2612  11.582  11.985  12.423
67529SOL    HW1 2613  11.668  11.997  12.473
67529SOL    HW2 2614  11.540  11.898  12.450
67530SOL     OW 2615  12.446  11.558  12.434
67530SOL    HW1 2616  12.467  11.632  12.498
67530SOL    HW2 2617  12.357  11.575  12.391
67531SOL     OW 2618  11.539  12.272  11.673
67531SOL    HW1 2619  11.532  12.355  11.617
67531SOL    HW2 2620  11.543  12.192  11.613
67532SOL     OW 2621  11.738  11.709  12.037
67532SOL    HW1 2622  11.750  11.775  11.963
67532SOL    HW2 2623  11.784  11.743  12.120
67533SOL     OW 2624  12.424  12.520  11.560
67533SOL    HW1 2625  12.474  12.597  11.600
67533SOL    HW2 2626  12.329  12.522  11.592
67534SOL     OW 2627  12.444  12.617  12.314
67534SOL    HW1 2628  12.491  12.630  12.401
67534SOL    HW2 2629  12.378  12.543  12.323
67535SOL     OW 2630  11.526  12.682  12.501
67535SOL    HW1 2631  11.505  12.638  12.414
67535SOL    HW2 2632  11.623  12.708  12.504
67536SOL     OW 2633  11.574  11.923  12.770
67536SOL    HW1 2634  11.642  11.978  12.723
67536SOL    HW2 2635  11.614  11.835  12.797
67537SOL     OW 2636  12.759  11.951  12.842
67537SOL    HW1 2637  12.667  11.989  12.837
67537SOL    HW2 2638  12.819  11.998  12.777
67538SOL     OW 2639  11.745  12.042  12.201
67538SOL    HW1 2640  11.789  12.131  12.192
67538SOL    HW2 2641  11.682  12.042  12.278
67539SOL     OW 2642  12.532  12.034  12.217
67539SOL    HW1 2643  12.457  12.034  12.151
67539SOL    HW2 2644  12.569  11.942  12.226
67540SOL     OW 2645  12.381  11.697  11.447
67540SOL    HW1 2646  12.394  11.613  11.501
67540SOL    HW2 2647  12.352  11.771  11.507
67541SOL     OW 2648  11.479  11.385  12.403
67541SOL    HW1 2649  11.456  11.422  12.493
67541SOL    HW2 2650  11.449  11.290  12.397
67542SOL     OW 2651  11.209  12.482  12.454
67542SOL    HW1 2652  11.262  12.433  12.522
67542SOL    HW2 2653  11.231  12.580  12.459
67543SOL     OW 2654  11.904  11.806  12.236
67543SOL    HW1 2655  11.963  11.780  12.160
67543SOL    HW2 2656  11.876  11.902  12.225
67544SOL     OW 2657  11.479  11.235  11.790
67544SOL    HW1 2658  11.468  11.329  11.823
67544SOL    HW2 2659  11.474  11.172  11.867
67545SOL     OW 2660  12.794  11.539  11.546
67545SOL    HW1 2661  12.796  11.463  11.610
67545SOL    HW2 2662  12.746  11.616  11.586
67546SOL     OW 2663  12.195  11.938  12.138
67546SOL    HW1 2664  12.210  11.959  12.234
67546SOL    HW2 2665  12.165  11.843  12.129
67547SOL     OW 2666  12.475  12.010  11.214
67547SOL    HW1 2667  12.509  11.917  11.229
67547SOL    HW2 2668  12.493  12.037  11.119
67548SOL     OW 2669  12.240  12.505  12.021
67548SOL    HW1 2670  12.247  12.421  11.966
67548SOL    HW2 2671  12.302  12.574  11.985
67549SOL     OW 2672  11.491  11.982  12.121
67549SOL    HW1 2673  11.584  12.018  12.126
67549SOL    HW2 2674  11.485  11.897  12.173
67550SOL     OW 2675  11.511  11.681  12.178
67550SOL    HW1 2676  11.459  11.598  12.161
67550SOL    HW2 2677  11.588  11.686  12.114
67551SOL     OW 2678  12.310  11.552  12.850
67551SOL    HW1 2679  12.265  11.615  12.914
67551SOL    HW2 2680  12.403  11.583  12.833
67552SOL     OW 2681  12.332  11.379  12.649
67552SOL    HW1 2682  12.332  11.443  12.726
67552SOL    HW2 2683  12.360  11.427  12.566
67553SOL     OW 2684  11.180  12.498  11.372
67553SOL    HW1 2685  11.087  12.519  11.341
67553SOL    HW2 2686  11.190  12.399  11.385
67554SOL     OW 2687  12.174  11.968  12.410
67554SOL    HW1 2688  12.215  11.936  12.496
67554SOL    HW2 2689  12.078  11.941  12.407
67555SOL     OW 2690  11.212  11.716  12.286
67555SOL    HW1 2691  11.297  11.683  12.245
67555SOL    HW2 2692  11.225  11.731  12.384
67556SOL     OW 2693  11.987  11.744  11.497
67556SOL    HW1 2694  11.994  11.655  11.451
67556SOL    HW2 2695  11.893  11.778  11.489
67557SOL     OW 2696  11.843  11.636  12.441
67557SOL    HW1 2697  11.809  11.547  12.411
67557SOL    HW2 2698  11.869  11.690  12.361
67558SOL     OW 2699  11.645  11.672  11.363
67558SOL    HW1 2700  11.706  11.752  11.367
67558SOL    HW2 2701  11.550  11.703  11.370
67559SOL     OW 2702  11.331  12.309  12.638
67559SOL    HW1 2703  11.353  12.248  12.714
67559SOL    HW2 2704  11.341  12.260  12.552
67560SOL     OW 2705  12.519  12.231  12.406
67560SOL    HW1 2706  12.543  12.168  12.332
67560SOL    HW2 2707  12.429  12.271  12.388
67561SOL     OW 2708  12.474  12.027  11.481
67561SOL    HW1 2709  12.388  11.996  11.523
67561SOL    HW2 2710  12.470  12.013  11.382
67562SOL     OW 2711  11.255  12.430  12.194
67562SOL    HW1 2712  11.250  12.429  12.294
67562SOL    HW2 2713  11.172  12.389  12.156
67563SOL     OW 2714  12.898  11.307  11.695
67563SOL    HW1 2715  12.971  11.290  11.628
67563SOL    HW2 2716  12.867  11.220  11.733
67564SOL     OW 2717  12.452  12.099  11.844
67564SOL    HW1 2718  12.512  12.018  11.846
67564SOL    HW2 2719  12.492  12.168  11.784
67565SOL     OW 2720  11.435  11.498  11.892
67565SOL    HW1 2721  11.356  11.549  11.858
67565SOL    HW2 2722  11.426  11.483  11.990
67566SOL     OW 2723  11.994  12.174  12.544
67566SOL    HW1 2724  12.034  12.173  12.452
67566SOL    HW2 2725  12.004  12.266  12.584
67567SOL     OW 2726  12.088  12.082  11.463
67567SOL    HW1 2727  12.151  12.120  11.395
67567SOL    HW2 2728  12.128  11.999  11.502
67568SOL     OW 2729  11.544  12.460  12.662
67568SOL    HW1 2730  11.531  12.553  12.628
67568SOL    HW2 2731  11.460  12.408  12.649
67569SOL     OW 2732  12.211  12.270  11.868
67569SOL    HW1 2733  12.141  12.223  11.922
67569SOL    HW2 2734  12.270  12.202  11.825
67570SOL     OW 2735  12.186  11.408  12.143
67570SOL    HW1 2736  12.178  11.372  12.050
67570SOL    HW2 2737  12.184  11.332  12.208
67571SOL     OW 2738  11.427  12.520  11.462
67571SOL    HW1 2739  11.331  12.521  11.435
67571SOL    HW2 2740  11.439  12.573  11.546
67572SOL     OW 2741  11.247  11.517  11.205
67572SOL    HW1 2742  11.155  11.489  11.176
67572SOL    HW2 2743  11.278  11.594  11.149
67573SOL     OW 2744  12.612  12.028  12.570
67573SOL    HW1 2745  12.555  12.080  12.507
67573SOL    HW2 2746  12.708  12.040  12.546
67574SOL     OW 2747  11.244  11.338  11.490
67574SOL    HW1 2748  11.227  11.421  11.436
67574SOL    HW2 2749  11.334  11.301  11.468
67575SOL     OW 2750  12.355  12.507  11.291
67575SOL    HW1 2751  12.256  12.496  11.293
67575SOL    HW2 2752  12.389  12.522  11.384
67576SOL     OW 2753  11.785  12.014  12.603
67576SOL    HW1 2754  11.841  12.095  12.586
67576SOL    HW2 2755  11.844  11.934  12.606
67577SOL     OW 2756  12.397  11.497  11.621
67577SOL    HW1 2757  12.462  11.423  11.610
67577SOL    HW2 2758  12.417  11.547  11.705
67578SOL     OW 2759  11.766  11.917  11.824
67578SOL    HW1 2760  11.816  12.002  11.805
67578SOL    HW2 2761  11.678  11.919  11.776
67579SOL     OW 2762  12.031  12.546  11.188
67579SOL    HW1 2763  11.985  12.561  11.276
67579SOL    HW2 2764  12.075  12.631  11.158
67580SOL     OW 2765  12.580  13.023  12.892
67580SOL    HW1 2766  12.484  13.012  12.865
67580SOL    HW2 2767  12.636  12.956  12.844
67581SOL     OW 2768  12.031  12.128  12.033
67581SOL    HW1 2769  12.085  12.059  12.081
67581SOL    HW2 2770  11.999  12.197  12.099
67582SOL     OW 2771  12.255  12.156  11.259
67582SOL    HW1 2772  12.232  12.209  11.177
67582SOL    HW2 2773  12.336  12.100  11.240
67583SOL     OW 2774  11.251  12.412  11.825
67583SOL    HW1 2775  11.250  12.365  11.913
67583SOL    HW2 2776  11.333  12.384  11.774
67584SOL     OW 2777  11.600  11.596  11.692
67584SOL    HW1 2778  11.630  11.524  11.630
67584SOL    HW2 2779  11.561  11.556  11.775
67585SOL     OW 2780  12.877  12.659  12.276
67585SOL    HW1 2781  12.784  12.634  12.249
67585SOL    HW2 2782  12.903  12.609  12.358
67586SOL     OW 2783  11.489  11.719  12.452
67586SOL    HW1 2784  11.527  11.660  12.524
67586SOL    HW2 2785  11.529  11.693  12.364
67587SOL     OW 2786  12.596  11.386  12.284
67587SOL    HW1 2787  12.648  11.321  12.339
67587SOL    HW2 2788  12.547  11.449  12.345
67588SOL     OW 2789  12.173  11.206  12.326
67588SOL    HW1 2790  12.110  11.134  12.295
67588SOL    HW2 2791  12.266  11.170  12.326
67589SOL     OW 2792  11.942  12.502  11.473
67589SOL    HW1 2793  11.896  12.415  11.490
67589SOL    HW2 2794  12.033  12.499  11.514
67590SOL     OW 2795  11.790  12.739  12.456
67590SOL    HW1 2796  11.785  12.821  12.513
67590SOL    HW2 2797  11.879  12.736  12.411
67591SOL     OW 2798  12.524  11.224  11.340
67591SOL    HW1 2799  12.559  11.183  11.256
67591SOL    HW2 2800  12.434  11.186  11.360
67592SOL     OW 2801  12.472  11.625  11.863
67592SOL    HW1 2802  12.413  11.705  11.867
67592SOL    HW2 2803  12.487  11.590  11.956
67593SOL     OW 2804  11.211  12.249  11.472
67593SOL    HW1 2805  11.310  12.238  11.463
67593SOL    HW2 2806  11.171  12.163  11.504
  12.73170  12.73170  12.73170
